<event>
 7    1  0.8300060E-011  0.4778727E+02  0.7816164E-02  0.1312668E+00
        -11   -1    0    0    0    0  0.00000000000E+00  0.00000000000E+00  0.45593999997E+02  0.45594000000E+02  0.51100000000E-03 0. -1.
         11   -1    0    0    0    0 -0.00000000000E+00 -0.00000000000E+00 -0.45593999997E+02  0.45594000000E+02  0.51100000000E-03 0.  1.
    9900012    2    1    2    0    0 -0.96938244496E+01  0.14554742876E+02 -0.39721687327E+02  0.47787271702E+02  0.20000002999E+02 0.  0.
         12    1    1    2    0    0  0.96938244496E+01 -0.14554742876E+02  0.39721687327E+02  0.43400728298E+02  0.00000000000E+00 0. -1.
         11    1    3    3    0    0 -0.32917595232E+01 -0.10474343668E+01  0.56566608666E+00  0.35003968195E+01  0.51100000000E-03 0. -1.
        -11    1    3    3    0    0 -0.49450414686E+01  0.15167421968E+02 -0.39444307202E+02  0.42548296032E+02  0.51100000000E-03 0.  1.
        -12    1    3    3    0    0 -0.14570234578E+01  0.43475527546E+00 -0.84304621192E+00  0.17385788511E+01  0.00000000000E+00 0.  1.
</event>
<event>
 7    1  0.8300060E-011  0.4778727E+02  0.7816164E-02  0.1312668E+00
        -11   -1    0    0    0    0  0.00000000000E+00  0.00000000000E+00  0.45593999997E+02  0.45594000000E+02  0.51100000000E-03 0. -1.
         11   -1    0    0    0    0 -0.00000000000E+00 -0.00000000000E+00 -0.45593999997E+02  0.45594000000E+02  0.51100000000E-03 0.  1.
    9900012    2    1    2    0    0  0.96093710373E+01 -0.29726666216E+02  0.30126543975E+02  0.47787270192E+02  0.19999996112E+02 0.  0.
        -12    1    1    2    0    0 -0.96093710373E+01  0.29726666216E+02 -0.30126543975E+02  0.43400729808E+02  0.00000000000E+00 0.  1.
         11    1    3    3    0    0  0.47565780174E+01 -0.16549416091E+01  0.93909704049E+01  0.10656180909E+02  0.51100000000E-03 0. -1.
        -11    1    3    3    0    0  0.23031399052E+01 -0.26460881611E+02  0.21319952879E+02  0.34059111851E+02  0.51100000000E-03 0.  1.
        -12    1    3    3    0    0  0.25496531147E+01 -0.16108429954E+01 -0.58437930912E+00  0.30719774313E+01  0.00000000000E+00 0.  1.
</event>
<event>
 7    1  0.8300060E-011  0.4778727E+02  0.7816164E-02  0.1312668E+00
        -11   -1    0    0    0    0  0.00000000000E+00  0.00000000000E+00  0.45593999997E+02  0.45594000000E+02  0.51100000000E-03 0. -1.
         11   -1    0    0    0    0 -0.00000000000E+00 -0.00000000000E+00 -0.45593999997E+02  0.45594000000E+02  0.51100000000E-03 0.  1.
    9900012    2    1    2    0    0 -0.86938879938E+01  0.22821403300E+02 -0.35877899108E+02  0.47787265197E+02  0.19999973337E+02 0.  0.
         12    1    1    2    0    0  0.86938879938E+01 -0.22821403300E+02  0.35877899108E+02  0.43400734803E+02  0.00000000000E+00 0. -1.
         11    1    3    3    0    0 -0.21529351414E+01  0.23036983363E+01 -0.58899928406E+00  0.32076589853E+01  0.51100000000E-03 0. -1.
        -11    1    3    3    0    0  0.53629089852E+01  0.33423614148E+01 -0.74215980145E+01  0.97474247861E+01  0.51100000000E-03 0.  1.
        -12    1    3    3    0    0 -0.11903861838E+02  0.17175343549E+02 -0.27867301810E+02  0.34832181425E+02  0.00000000000E+00 0.  1.
</event>
<event>
 7    1  0.8300060E-011  0.4778727E+02  0.7816164E-02  0.1312668E+00
        -11   -1    0    0    0    0  0.00000000000E+00  0.00000000000E+00  0.45593999997E+02  0.45594000000E+02  0.51100000000E-03 0. -1.
         11   -1    0    0    0    0 -0.00000000000E+00 -0.00000000000E+00 -0.45593999997E+02  0.45594000000E+02  0.51100000000E-03 0.  1.
    9900012    2    1    2    0    0 -0.22048232041E+02 -0.33693173430E+00 -0.37381614763E+02  0.47787272109E+02  0.20000004856E+02 0.  0.
         12    1    1    2    0    0  0.22048232041E+02  0.33693173430E+00  0.37381614763E+02  0.43400727891E+02  0.00000000000E+00 0. -1.
         11    1    3    3    0    0 -0.76982845305E+01 -0.59291728709E+01 -0.69876673766E+01  0.11968549255E+02  0.51100000000E-03 0. -1.
        -11    1    3    3    0    0 -0.69054638011E+01  0.24269219951E+01 -0.25113327636E+02  0.26158260758E+02  0.51100000000E-03 0.  1.
        -12    1    3    3    0    0 -0.74444837091E+01  0.31653191415E+01 -0.52806197512E+01  0.96604620966E+01  0.00000000000E+00 0.  1.
</event>
<event>
 7    1  0.1082761E-010  0.4778727E+02  0.7816164E-02  0.1312668E+00
        -11   -1    0    0    0    0  0.00000000000E+00  0.00000000000E+00  0.45593999997E+02  0.45594000000E+02  0.51100000000E-03 0. -1.
         11   -1    0    0    0    0 -0.00000000000E+00 -0.00000000000E+00 -0.45593999997E+02  0.45594000000E+02  0.51100000000E-03 0.  1.
    9900012    2    1    2    0    0 -0.61503263696E+01 -0.35471906899E+02 -0.24239236537E+02  0.47787270958E+02  0.19999999606E+02 0.  0.
         12    1    1    2    0    0  0.61503263696E+01  0.35471906899E+02  0.24239236537E+02  0.43400729042E+02  0.00000000000E+00 0. -1.
         11    1    3    3    0    0 -0.17073853660E+01 -0.86597489591E+01  0.21252634623E+01  0.90787202770E+01  0.51100000000E-03 0. -1.
        -11    1    3    3    0    0 -0.42261906890E+01 -0.23515863975E+02 -0.18627629440E+02  0.30295958890E+02  0.51100000000E-03 0.  1.
         12    1    3    3    0    0 -0.21675031463E+00 -0.32962939644E+01 -0.77368705590E+01  0.84125917912E+01  0.00000000000E+00 0. -1.
</event>
<event>
 7    1  0.8300060E-011  0.4778727E+02  0.7816164E-02  0.1312668E+00
        -11   -1    0    0    0    0  0.00000000000E+00  0.00000000000E+00  0.45593999997E+02  0.45594000000E+02  0.51100000000E-03 0. -1.
         11   -1    0    0    0    0 -0.00000000000E+00 -0.00000000000E+00 -0.45593999997E+02  0.45594000000E+02  0.51100000000E-03 0.  1.
    9900012    2    1    2    0    0  0.69417088744E+01  0.30542152866E+02 -0.30043517508E+02  0.47787269960E+02  0.19999995056E+02 0.  0.
         12    1    1    2    0    0 -0.69417088744E+01 -0.30542152866E+02  0.30043517508E+02  0.43400730040E+02  0.00000000000E+00 0. -1.
         11    1    3    3    0    0 -0.29222096134E+01  0.80457812286E+01 -0.36975273642E+01  0.93244631735E+01  0.51100000000E-03 0. -1.
        -11    1    3    3    0    0  0.11822638816E+02  0.15066521404E+02 -0.13280779748E+02  0.23305663835E+02  0.51100000000E-03 0.  1.
        -12    1    3    3    0    0 -0.19587203277E+01  0.74298502329E+01 -0.13065210395E+02  0.15157142952E+02  0.00000000000E+00 0.  1.
</event>
<event>
 7    1  0.8300060E-011  0.4778727E+02  0.7816164E-02  0.1312668E+00
        -11   -1    0    0    0    0  0.00000000000E+00  0.00000000000E+00  0.45593999997E+02  0.45594000000E+02  0.51100000000E-03 0. -1.
         11   -1    0    0    0    0 -0.00000000000E+00 -0.00000000000E+00 -0.45593999997E+02  0.45594000000E+02  0.51100000000E-03 0.  1.
    9900012    2    1    2    0    0  0.40061941178E+01 -0.28430940004E+02  0.32546206210E+02  0.47787268676E+02  0.19999989201E+02 0.  0.
        -12    1    1    2    0    0 -0.40061941178E+01  0.28430940004E+02 -0.32546206210E+02  0.43400731324E+02  0.00000000000E+00 0.  1.
         11    1    3    3    0    0  0.14906311670E+01 -0.12946004346E+01  0.65320358197E+01  0.68238891969E+01  0.51100000000E-03 0. -1.
        -11    1    3    3    0    0 -0.55143562065E+01 -0.32364767655E+01  0.60652666695E+01  0.88130792723E+01  0.51100000000E-03 0.  1.
        -12    1    3    3    0    0  0.80299191573E+01 -0.23899862804E+02  0.19948903720E+02  0.32150300207E+02  0.00000000000E+00 0.  1.
</event>
<event>
 7    1  0.8300060E-011  0.4778728E+02  0.7816164E-02  0.1312668E+00
        -11   -1    0    0    0    0  0.00000000000E+00  0.00000000000E+00  0.45593999997E+02  0.45594000000E+02  0.51100000000E-03 0. -1.
         11   -1    0    0    0    0 -0.00000000000E+00 -0.00000000000E+00 -0.45593999997E+02  0.45594000000E+02  0.51100000000E-03 0.  1.
    9900012    2    1    2    0    0 -0.10440854510E+02 -0.55373729095E+01  0.41760614521E+02  0.47787275734E+02  0.20000021382E+02 0.  0.
        -12    1    1    2    0    0  0.10440854510E+02  0.55373729095E+01 -0.41760614521E+02  0.43400724266E+02  0.00000000000E+00 0.  1.
         11    1    3    3    0    0 -0.70243422809E+01 -0.72760346949E+01  0.28152615207E+02  0.29914073755E+02  0.51100000000E-03 0. -1.
        -11    1    3    3    0    0 -0.84749764740E+00  0.10256197730E+01 -0.17988263468E+01  0.22373923814E+01  0.51100000000E-03 0.  1.
         12    1    3    3    0    0 -0.25690145816E+01  0.71304201229E+00  0.15406825661E+02  0.15635809598E+02  0.00000000000E+00 0. -1.
</event>
<event>
 7    1  0.8300060E-011  0.4778727E+02  0.7816164E-02  0.1312668E+00
        -11   -1    0    0    0    0  0.00000000000E+00  0.00000000000E+00  0.45593999997E+02  0.45594000000E+02  0.51100000000E-03 0. -1.
         11   -1    0    0    0    0 -0.00000000000E+00 -0.00000000000E+00 -0.45593999997E+02  0.45594000000E+02  0.51100000000E-03 0.  1.
    9900012    2    1    2    0    0 -0.35422477824E+02  0.21628885754E+02 -0.12691051584E+02  0.47787269309E+02  0.19999992090E+02 0.  0.
         12    1    1    2    0    0  0.35422477824E+02 -0.21628885754E+02  0.12691051584E+02  0.43400730691E+02  0.00000000000E+00 0. -1.
         11    1    3    3    0    0 -0.56012606494E+01  0.73719350047E+01  0.32772156720E+01  0.98213893823E+01  0.51100000000E-03 0. -1.
        -11    1    3    3    0    0 -0.12894205270E+02  0.28937965604E+01 -0.10442816435E+02  0.16843010522E+02  0.51100000000E-03 0.  1.
         12    1    3    3    0    0 -0.16927011905E+02  0.11363154189E+02 -0.55254508207E+01  0.21122869406E+02  0.00000000000E+00 0. -1.
</event>
<event>
 7    1  0.8300060E-011  0.4778728E+02  0.7816164E-02  0.1312668E+00
        -11   -1    0    0    0    0  0.00000000000E+00  0.00000000000E+00  0.45593999997E+02  0.45594000000E+02  0.51100000000E-03 0. -1.
         11   -1    0    0    0    0 -0.00000000000E+00 -0.00000000000E+00 -0.45593999997E+02  0.45594000000E+02  0.51100000000E-03 0.  1.
    9900012    2    1    2    0    0  0.51132052885E+01  0.21630752083E+02 -0.37277182203E+02  0.47787278612E+02  0.20000034501E+02 0.  0.
         12    1    1    2    0    0 -0.51132052885E+01 -0.21630752083E+02  0.37277182203E+02  0.43400721388E+02  0.00000000000E+00 0. -1.
         11    1    3    3    0    0  0.37158621209E+01  0.88462870852E+01 -0.94012821047E+01  0.13433113264E+02  0.51100000000E-03 0.  1.
        -11    1    3    3    0    0  0.11969908568E+01  0.91383621126E+00  0.18262855609E+01  0.23671085618E+01  0.51100000000E-03 0. -1.
        -12    1    3    3    0    0  0.20035231077E+00  0.11870628787E+02 -0.29702185660E+02  0.31987056786E+02  0.00000000000E+00 0.  1.
</event>
<event>
 7    1  0.8300060E-011  0.4778727E+02  0.7816164E-02  0.1312668E+00
        -11   -1    0    0    0    0  0.00000000000E+00  0.00000000000E+00  0.45593999997E+02  0.45594000000E+02  0.51100000000E-03 0. -1.
         11   -1    0    0    0    0 -0.00000000000E+00 -0.00000000000E+00 -0.45593999997E+02  0.45594000000E+02  0.51100000000E-03 0.  1.
    9900012    2    1    2    0    0  0.30116320061E+01 -0.15138114230E+02  0.40563420786E+02  0.47787268029E+02  0.19999986251E+02 0.  0.
        -12    1    1    2    0    0 -0.30116320061E+01  0.15138114230E+02 -0.40563420786E+02  0.43400731971E+02  0.00000000000E+00 0.  1.
         11    1    3    3    0    0 -0.55738584221E-01 -0.17880229846E+01 -0.12192382877E+01  0.21648730324E+01  0.51100000000E-03 0.  1.
        -11    1    3    3    0    0  0.40989368202E-01 -0.14239160266E+02  0.27191470096E+02  0.30694159240E+02  0.51100000000E-03 0. -1.
        -12    1    3    3    0    0  0.30263812221E+01  0.88906902104E+00  0.14591188977E+02  0.14928235756E+02  0.00000000000E+00 0.  1.
</event>
<event>
 7    1  0.8300060E-011  0.4778727E+02  0.7816164E-02  0.1312668E+00
        -11   -1    0    0    0    0  0.00000000000E+00  0.00000000000E+00  0.45593999997E+02  0.45594000000E+02  0.51100000000E-03 0. -1.
         11   -1    0    0    0    0 -0.00000000000E+00 -0.00000000000E+00 -0.45593999997E+02  0.45594000000E+02  0.51100000000E-03 0.  1.
    9900012    2    1    2    0    0  0.13438116504E+01  0.19521410522E+02  0.38739279672E+02  0.47787273185E+02  0.20000009760E+02 0.  0.
        -12    1    1    2    0    0 -0.13438116504E+01 -0.19521410522E+02 -0.38739279672E+02  0.43400726815E+02  0.00000000000E+00 0.  1.
         11    1    3    3    0    0  0.90446993168E+01  0.79159746810E+01  0.15685715059E+02  0.19761348589E+02  0.51100000000E-03 0. -1.
        -11    1    3    3    0    0 -0.24554080498E-02 -0.74649504474E+00 -0.18464637754E-01  0.74672758408E+00  0.51100000000E-03 0.  1.
         12    1    3    3    0    0 -0.76984322583E+01  0.12351930886E+02  0.23072029251E+02  0.27279197012E+02  0.00000000000E+00 0. -1.
</event>
<event>
 7    1  0.8300060E-011  0.4778727E+02  0.7816164E-02  0.1312668E+00
        -11   -1    0    0    0    0  0.00000000000E+00  0.00000000000E+00  0.45593999997E+02  0.45594000000E+02  0.51100000000E-03 0. -1.
         11   -1    0    0    0    0 -0.00000000000E+00 -0.00000000000E+00 -0.45593999997E+02  0.45594000000E+02  0.51100000000E-03 0.  1.
    9900012    2    1    2    0    0 -0.33202762078E+02 -0.29215509494E+01 -0.27796839145E+02  0.47787272632E+02  0.20000007240E+02 0.  0.
         12    1    1    2    0    0  0.33202762078E+02  0.29215509494E+01  0.27796839145E+02  0.43400727368E+02  0.00000000000E+00 0. -1.
         11    1    3    3    0    0 -0.51630839921E+01  0.34249349660E+00 -0.82564490272E+01  0.97439052184E+01  0.51100000000E-03 0. -1.
        -11    1    3    3    0    0 -0.16025988493E+02 -0.89917426641E+01 -0.15757253595E+02  0.24206916045E+02  0.51100000000E-03 0.  1.
        -12    1    3    3    0    0 -0.12013689593E+02  0.57276982181E+01 -0.37831365230E+01  0.13836451369E+02  0.00000000000E+00 0.  1.
</event>
<event>
 7    1  0.8300060E-011  0.4778726E+02  0.7816164E-02  0.1312668E+00
        -11   -1    0    0    0    0  0.00000000000E+00  0.00000000000E+00  0.45593999997E+02  0.45594000000E+02  0.51100000000E-03 0. -1.
         11   -1    0    0    0    0 -0.00000000000E+00 -0.00000000000E+00 -0.45593999997E+02  0.45594000000E+02  0.51100000000E-03 0.  1.
    9900012    2    1    2    0    0 -0.55864492293E+01 -0.36621269675E+02  0.22611902459E+02  0.47787263366E+02  0.19999964989E+02 0.  0.
        -12    1    1    2    0    0  0.55864492293E+01  0.36621269675E+02 -0.22611902459E+02  0.43400736634E+02  0.00000000000E+00 0.  1.
         11    1    3    3    0    0 -0.21635543520E+01 -0.16802562478E+02  0.61429432070E+01  0.18020622208E+02  0.51100000000E-03 0. -1.
        -11    1    3    3    0    0 -0.39190254530E+01  0.92622465667E+00  0.31013127936E+01  0.50827939090E+01  0.51100000000E-03 0.  1.
        -12    1    3    3    0    0  0.49613057571E+00 -0.20744931854E+02  0.13367646459E+02  0.24683847249E+02  0.00000000000E+00 0.  1.
</event>
<event>
 7    1  0.8300060E-011  0.4778727E+02  0.7816164E-02  0.1312668E+00
        -11   -1    0    0    0    0  0.00000000000E+00  0.00000000000E+00  0.45593999997E+02  0.45594000000E+02  0.51100000000E-03 0. -1.
         11   -1    0    0    0    0 -0.00000000000E+00 -0.00000000000E+00 -0.45593999997E+02  0.45594000000E+02  0.51100000000E-03 0.  1.
    9900012    2    1    2    0    0 -0.29553383650E+01 -0.23490234818E+02  0.36374415140E+02  0.47787271510E+02  0.20000002123E+02 0.  0.
        -12    1    1    2    0    0  0.29553383650E+01  0.23490234818E+02 -0.36374415140E+02  0.43400728490E+02  0.00000000000E+00 0.  1.
         11    1    3    3    0    0  0.35079304609E+01 -0.12362466005E+02  0.24810410680E+02  0.27940877227E+02  0.51100000000E-03 0. -1.
        -11    1    3    3    0    0 -0.19014932364E+01 -0.38537666412E+01 -0.12013792425E+01  0.44621190255E+01  0.51100000000E-03 0.  1.
        -12    1    3    3    0    0 -0.45617755895E+01 -0.72740021724E+01  0.12765383703E+02  0.15384275258E+02  0.00000000000E+00 0.  1.
</event>
<event>
 7    1  0.8300060E-011  0.4778727E+02  0.7816164E-02  0.1312668E+00
        -11   -1    0    0    0    0  0.00000000000E+00  0.00000000000E+00  0.45593999997E+02  0.45594000000E+02  0.51100000000E-03 0. -1.
         11   -1    0    0    0    0 -0.00000000000E+00 -0.00000000000E+00 -0.45593999997E+02  0.45594000000E+02  0.51100000000E-03 0.  1.
    9900012    2    1    2    0    0  0.45701160691E+01 -0.36282428543E+02 -0.23373539539E+02  0.47787274978E+02  0.20000017933E+02 0.  0.
         12    1    1    2    0    0 -0.45701160691E+01  0.36282428543E+02  0.23373539539E+02  0.43400725022E+02  0.00000000000E+00 0. -1.
         11    1    3    3    0    0 -0.38187591239E+01 -0.60424331250E+01 -0.56907774558E+01  0.91366770562E+01  0.51100000000E-03 0. -1.
        -11    1    3    3    0    0  0.10036411595E+02 -0.23328118674E+02 -0.79710442015E+01  0.26617066414E+02  0.51100000000E-03 0.  1.
         12    1    3    3    0    0 -0.16475364023E+01 -0.69118767445E+01 -0.97117178814E+01  0.12033531507E+02  0.00000000000E+00 0. -1.
</event>
<event>
 7    1  0.8300060E-011  0.4778728E+02  0.7816164E-02  0.1312668E+00
        -11   -1    0    0    0    0  0.00000000000E+00  0.00000000000E+00  0.45593999997E+02  0.45594000000E+02  0.51100000000E-03 0. -1.
         11   -1    0    0    0    0 -0.00000000000E+00 -0.00000000000E+00 -0.45593999997E+02  0.45594000000E+02  0.51100000000E-03 0.  1.
    9900012    2    1    2    0    0 -0.18389270328E+02  0.29076004867E+02 -0.26458331722E+02  0.47787278350E+02  0.20000033309E+02 0.  0.
         12    1    1    2    0    0  0.18389270328E+02 -0.29076004867E+02  0.26458331722E+02  0.43400721650E+02  0.00000000000E+00 0. -1.
         11    1    3    3    0    0  0.12177126279E+00  0.55175067489E+01  0.25149917927E+01  0.60648901840E+01  0.51100000000E-03 0. -1.
        -11    1    3    3    0    0 -0.90145999861E+01  0.10177811044E+02 -0.12418244669E+02  0.18413681095E+02  0.51100000000E-03 0.  1.
         12    1    3    3    0    0 -0.94964416048E+01  0.13380687074E+02 -0.16555078846E+02  0.23308707071E+02  0.00000000000E+00 0. -1.
</event>
<event>
 7    1  0.8300060E-011  0.4778728E+02  0.7816164E-02  0.1312668E+00
        -11   -1    0    0    0    0  0.00000000000E+00  0.00000000000E+00  0.45593999997E+02  0.45594000000E+02  0.51100000000E-03 0.  1.
         11   -1    0    0    0    0 -0.00000000000E+00 -0.00000000000E+00 -0.45593999997E+02  0.45594000000E+02  0.51100000000E-03 0. -1.
    9900012    2    1    2    0    0 -0.40551861053E+02  0.14797215844E+02 -0.44957522105E+01  0.47787276279E+02  0.20000023866E+02 0.  0.
         12    1    1    2    0    0  0.40551861053E+02 -0.14797215844E+02  0.44957522105E+01  0.43400723721E+02  0.00000000000E+00 0. -1.
         11    1    3    3    0    0 -0.32310117371E+01  0.24141189093E+00  0.52796188317E+01  0.61945211127E+01  0.51100000000E-03 0. -1.
        -11    1    3    3    0    0 -0.24454050475E+02  0.10448094987E+02 -0.39533019396E+01  0.26884788821E+02  0.51100000000E-03 0.  1.
         12    1    3    3    0    0 -0.12866798841E+02  0.41077089660E+01 -0.58220691025E+01  0.14707966345E+02  0.00000000000E+00 0. -1.
</event>
<event>
 7    1  0.8300060E-011  0.4778727E+02  0.7816164E-02  0.1312668E+00
        -11   -1    0    0    0    0  0.00000000000E+00  0.00000000000E+00  0.45593999997E+02  0.45594000000E+02  0.51100000000E-03 0. -1.
         11   -1    0    0    0    0 -0.00000000000E+00 -0.00000000000E+00 -0.45593999997E+02  0.45594000000E+02  0.51100000000E-03 0.  1.
    9900012    2    1    2    0    0 -0.13943162675E+02 -0.23657702788E+02 -0.33608402233E+02  0.47787269738E+02  0.19999994045E+02 0.  0.
         12    1    1    2    0    0  0.13943162675E+02  0.23657702788E+02  0.33608402233E+02  0.43400730262E+02  0.00000000000E+00 0. -1.
         11    1    3    3    0    0 -0.75734514006E+01 -0.22109741718E+02 -0.20995620244E+02  0.31416777598E+02  0.51100000000E-03 0.  1.
        -11    1    3    3    0    0 -0.77099956720E+01 -0.69963960957E-01 -0.70009168300E+01  0.10414497825E+02  0.51100000000E-03 0. -1.
        -12    1    3    3    0    0  0.13402843977E+01 -0.14779971091E+01 -0.56118651596E+01  0.59559943159E+01  0.00000000000E+00 0.  1.
</event>
<event>
 7    1  0.8300060E-011  0.4778727E+02  0.7816164E-02  0.1312668E+00
        -11   -1    0    0    0    0  0.00000000000E+00  0.00000000000E+00  0.45593999997E+02  0.45594000000E+02  0.51100000000E-03 0. -1.
         11   -1    0    0    0    0 -0.00000000000E+00 -0.00000000000E+00 -0.45593999997E+02  0.45594000000E+02  0.51100000000E-03 0.  1.
    9900012    2    1    2    0    0 -0.23490647147E+02  0.36493881229E+02  0.97773256024E-01  0.47787269244E+02  0.19999991792E+02 0.  0.
         12    1    1    2    0    0  0.23490647147E+02 -0.36493881229E+02 -0.97773256024E-01  0.43400730756E+02  0.00000000000E+00 0. -1.
         11    1    3    3    0    0  0.34150966308E+01  0.42970238589E+01  0.12696279664E+01  0.56337602430E+01  0.51100000000E-03 0. -1.
        -11    1    3    3    0    0 -0.20745760373E+02  0.27000360503E+02 -0.15525599806E+01  0.34085429197E+02  0.51100000000E-03 0.  1.
         12    1    3    3    0    0 -0.61599834041E+01  0.51964968672E+01  0.38070527025E+00  0.80680798045E+01  0.00000000000E+00 0. -1.
</event>
<event>
 7    1  0.8300060E-011  0.4778727E+02  0.7816164E-02  0.1312668E+00
        -11   -1    0    0    0    0  0.00000000000E+00  0.00000000000E+00  0.45593999997E+02  0.45594000000E+02  0.51100000000E-03 0. -1.
         11   -1    0    0    0    0 -0.00000000000E+00 -0.00000000000E+00 -0.45593999997E+02  0.45594000000E+02  0.51100000000E-03 0.  1.
    9900012    2    1    2    0    0  0.15193446197E+02 -0.76923761051E+01  0.39920047333E+02  0.47787266866E+02  0.19999980951E+02 0.  0.
        -12    1    1    2    0    0 -0.15193446197E+02  0.76923761051E+01 -0.39920047333E+02  0.43400733134E+02  0.00000000000E+00 0.  1.
         11    1    3    3    0    0  0.54998281307E+01 -0.87620340606E+01  0.14544207044E+02  0.17848117804E+02  0.51100000000E-03 0. -1.
        -11    1    3    3    0    0 -0.89130005130E-01  0.51639960778E+01  0.10086301152E+02  0.11331737327E+02  0.51100000000E-03 0.  1.
         12    1    3    3    0    0  0.97827480717E+01 -0.40943381223E+01  0.15289539137E+02  0.18607411736E+02  0.00000000000E+00 0. -1.
</event>
<event>
 7    1  0.8300060E-011  0.4778727E+02  0.7816164E-02  0.1312668E+00
        -11   -1    0    0    0    0  0.00000000000E+00  0.00000000000E+00  0.45593999997E+02  0.45594000000E+02  0.51100000000E-03 0. -1.
         11   -1    0    0    0    0 -0.00000000000E+00 -0.00000000000E+00 -0.45593999997E+02  0.45594000000E+02  0.51100000000E-03 0.  1.
    9900012    2    1    2    0    0  0.10952914282E+02 -0.12319730455E+01 -0.41977842675E+02  0.47787270001E+02  0.19999995241E+02 0.  0.
         12    1    1    2    0    0 -0.10952914282E+02  0.12319730455E+01  0.41977842675E+02  0.43400729999E+02  0.00000000000E+00 0. -1.
         11    1    3    3    0    0  0.25801454797E+01 -0.19576505921E+01 -0.12811561981E+02  0.13214600531E+02  0.51100000000E-03 0. -1.
        -11    1    3    3    0    0  0.49678580438E+01  0.41809918303E+01 -0.29000812111E+02  0.29718805656E+02  0.51100000000E-03 0.  1.
        -12    1    3    3    0    0  0.34049107585E+01 -0.34553142837E+01 -0.16546858231E+00  0.48538638139E+01  0.00000000000E+00 0.  1.
</event>
<event>
 7    1  0.8300060E-011  0.4778727E+02  0.7816164E-02  0.1312668E+00
        -11   -1    0    0    0    0  0.00000000000E+00  0.00000000000E+00  0.45593999997E+02  0.45594000000E+02  0.51100000000E-03 0. -1.
         11   -1    0    0    0    0 -0.00000000000E+00 -0.00000000000E+00 -0.45593999997E+02  0.45594000000E+02  0.51100000000E-03 0.  1.
    9900012    2    1    2    0    0  0.15042064518E+02  0.19289227870E+02  0.35850873841E+02  0.47787272218E+02  0.20000005351E+02 0.  0.
        -12    1    1    2    0    0 -0.15042064518E+02 -0.19289227870E+02 -0.35850873841E+02  0.43400727782E+02  0.00000000000E+00 0.  1.
         11    1    3    3    0    0  0.37023354844E+01  0.75267429429E+00  0.45242459144E+01  0.58942860456E+01  0.51100000000E-03 0. -1.
        -11    1    3    3    0    0  0.14372585903E+02  0.73197205562E+01  0.16773072423E+02  0.23269840853E+02  0.51100000000E-03 0.  1.
        -12    1    3    3    0    0 -0.30328568690E+01  0.11216833020E+02  0.14553555504E+02  0.18623145319E+02  0.00000000000E+00 0.  1.
</event>
<event>
 7    1  0.8300060E-011  0.4778727E+02  0.7816164E-02  0.1312668E+00
        -11   -1    0    0    0    0  0.00000000000E+00  0.00000000000E+00  0.45593999997E+02  0.45594000000E+02  0.51100000000E-03 0. -1.
         11   -1    0    0    0    0 -0.00000000000E+00 -0.00000000000E+00 -0.45593999997E+02  0.45594000000E+02  0.51100000000E-03 0.  1.
    9900012    2    1    2    0    0  0.10319032507E+02 -0.74630583935E+00 -0.42149545321E+02  0.47787267575E+02  0.19999984180E+02 0.  0.
         12    1    1    2    0    0 -0.10319032507E+02  0.74630583935E+00  0.42149545321E+02  0.43400732425E+02  0.00000000000E+00 0. -1.
         11    1    3    3    0    0  0.70876509015E+01 -0.44804488614E+01 -0.94149248319E+01  0.12607538505E+02  0.51100000000E-03 0. -1.
        -11    1    3    3    0    0 -0.11384913387E+01  0.49367193402E+01 -0.28598582152E+02  0.29043867885E+02  0.51100000000E-03 0.  1.
        -12    1    3    3    0    0  0.43698729444E+01 -0.12025763181E+01 -0.41360383369E+01  0.61358611844E+01  0.00000000000E+00 0.  1.
</event>
<event>
 7    1  0.8300060E-011  0.4778727E+02  0.7816164E-02  0.1312668E+00
        -11   -1    0    0    0    0  0.00000000000E+00  0.00000000000E+00  0.45593999997E+02  0.45594000000E+02  0.51100000000E-03 0. -1.
         11   -1    0    0    0    0 -0.00000000000E+00 -0.00000000000E+00 -0.45593999997E+02  0.45594000000E+02  0.51100000000E-03 0.  1.
    9900012    2    1    2    0    0 -0.21964810899E+02 -0.17784051747E+02  0.32937791429E+02  0.47787268226E+02  0.19999987149E+02 0.  0.
        -12    1    1    2    0    0  0.21964810899E+02  0.17784051747E+02 -0.32937791429E+02  0.43400731774E+02  0.00000000000E+00 0.  1.
         11    1    3    3    0    0 -0.11641072486E+02 -0.26814260644E+01  0.10306605736E+02  0.15777538985E+02  0.51100000000E-03 0. -1.
        -11    1    3    3    0    0 -0.20580564016E+01 -0.12470789711E+02  0.18490329376E+02  0.22397510417E+02  0.51100000000E-03 0.  1.
        -12    1    3    3    0    0 -0.82656820111E+01 -0.26318359711E+01  0.41408563162E+01  0.96122188239E+01  0.00000000000E+00 0.  1.
</event>
<event>
 7    1  0.8300060E-011  0.4778727E+02  0.7816164E-02  0.1312668E+00
        -11   -1    0    0    0    0  0.00000000000E+00  0.00000000000E+00  0.45593999997E+02  0.45594000000E+02  0.51100000000E-03 0. -1.
         11   -1    0    0    0    0 -0.00000000000E+00 -0.00000000000E+00 -0.45593999997E+02  0.45594000000E+02  0.51100000000E-03 0.  1.
    9900012    2    1    2    0    0  0.17618385146E+02 -0.31596804492E+02 -0.23976193798E+02  0.47787269381E+02  0.19999992416E+02 0.  0.
         12    1    1    2    0    0 -0.17618385146E+02  0.31596804492E+02  0.23976193798E+02  0.43400730619E+02  0.00000000000E+00 0. -1.
         11    1    3    3    0    0  0.94663996744E+01 -0.14174419158E+01 -0.83805267499E+01  0.12722228313E+02  0.51100000000E-03 0. -1.
        -11    1    3    3    0    0  0.72692847744E+01 -0.23340622287E+02 -0.11218671381E+02  0.26897690193E+02  0.51100000000E-03 0.  1.
         12    1    3    3    0    0  0.88270069680E+00 -0.68387402888E+01 -0.43769956669E+01  0.81673508757E+01  0.00000000000E+00 0. -1.
</event>
<event>
 7    1  0.8300060E-011  0.4778727E+02  0.7816164E-02  0.1312668E+00
        -11   -1    0    0    0    0  0.00000000000E+00  0.00000000000E+00  0.45593999997E+02  0.45594000000E+02  0.51100000000E-03 0. -1.
         11   -1    0    0    0    0 -0.00000000000E+00 -0.00000000000E+00 -0.45593999997E+02  0.45594000000E+02  0.51100000000E-03 0.  1.
    9900012    2    1    2    0    0 -0.17605220669E+02 -0.11664680147E+02  0.37915893403E+02  0.47787268091E+02  0.19999986532E+02 0.  0.
        -12    1    1    2    0    0  0.17605220669E+02  0.11664680147E+02 -0.37915893403E+02  0.43400731909E+02  0.00000000000E+00 0.  1.
         11    1    3    3    0    0 -0.71178203846E+01  0.13668335610E+01  0.18715193104E+02  0.20069630146E+02  0.51100000000E-03 0. -1.
        -11    1    3    3    0    0 -0.44156269359E+01 -0.87657534758E+00  0.10906368459E+02  0.11798941427E+02  0.51100000000E-03 0.  1.
         12    1    3    3    0    0 -0.60717733486E+01 -0.12154938361E+02  0.82943318393E+01  0.15918696517E+02  0.00000000000E+00 0. -1.
</event>
<event>
 7    1  0.8300060E-011  0.4778727E+02  0.7816164E-02  0.1312668E+00
        -11   -1    0    0    0    0  0.00000000000E+00  0.00000000000E+00  0.45593999997E+02  0.45594000000E+02  0.51100000000E-03 0. -1.
         11   -1    0    0    0    0 -0.00000000000E+00 -0.00000000000E+00 -0.45593999997E+02  0.45594000000E+02  0.51100000000E-03 0.  1.
    9900012    2    1    2    0    0  0.35981313229E+02  0.58369745930E+01 -0.23556269887E+02  0.47787273911E+02  0.20000013069E+02 0.  0.
         12    1    1    2    0    0 -0.35981313229E+02 -0.58369745930E+01  0.23556269887E+02  0.43400726089E+02  0.00000000000E+00 0. -1.
         11    1    3    3    0    0 -0.12783196055E+01  0.89508419535E+00 -0.54079903994E+01  0.56286443441E+01  0.51100000000E-03 0. -1.
        -11    1    3    3    0    0  0.29915846975E+02  0.18080101920E+01 -0.15534517378E+02  0.33757192293E+02  0.51100000000E-03 0.  1.
         12    1    3    3    0    0  0.73437858600E+01  0.31338802057E+01 -0.26137621093E+01  0.84014372738E+01  0.00000000000E+00 0. -1.
</event>
<event>
 7    1  0.8300060E-011  0.4778727E+02  0.7816164E-02  0.1312668E+00
        -11   -1    0    0    0    0  0.00000000000E+00  0.00000000000E+00  0.45593999997E+02  0.45594000000E+02  0.51100000000E-03 0.  1.
         11   -1    0    0    0    0 -0.00000000000E+00 -0.00000000000E+00 -0.45593999997E+02  0.45594000000E+02  0.51100000000E-03 0. -1.
    9900012    2    1    2    0    0 -0.31400477500E+02 -0.26993365121E+02  0.12999674103E+02  0.47787271036E+02  0.19999999963E+02 0.  0.
        -12    1    1    2    0    0  0.31400477500E+02  0.26993365121E+02 -0.12999674103E+02  0.43400728964E+02  0.00000000000E+00 0.  1.
         11    1    3    3    0    0 -0.51678178136E+01  0.59540336768E+00 -0.31962207420E+01  0.61054625883E+01  0.51100000000E-03 0. -1.
        -11    1    3    3    0    0 -0.44658097904E+01 -0.29114868532E+01  0.36737538943E+01  0.64743092850E+01  0.51100000000E-03 0.  1.
         12    1    3    3    0    0 -0.21766849896E+02 -0.24677281636E+02  0.12522140951E+02  0.35207499163E+02  0.00000000000E+00 0. -1.
</event>
<event>
 7    1  0.8300060E-011  0.4778727E+02  0.7816164E-02  0.1312668E+00
        -11   -1    0    0    0    0  0.00000000000E+00  0.00000000000E+00  0.45593999997E+02  0.45594000000E+02  0.51100000000E-03 0. -1.
         11   -1    0    0    0    0 -0.00000000000E+00 -0.00000000000E+00 -0.45593999997E+02  0.45594000000E+02  0.51100000000E-03 0.  1.
    9900012    2    1    2    0    0  0.31365691941E+02  0.12236684217E+01  0.29971972836E+02  0.47787272460E+02  0.20000006455E+02 0.  0.
        -12    1    1    2    0    0 -0.31365691941E+02 -0.12236684217E+01 -0.29971972836E+02  0.43400727540E+02  0.00000000000E+00 0.  1.
         11    1    3    3    0    0  0.16859781261E+02  0.91630643381E+00  0.47073618648E+01  0.17528579453E+02  0.51100000000E-03 0. -1.
        -11    1    3    3    0    0  0.10390512164E+02  0.21087978123E+01  0.22776544176E+02  0.25123310612E+02  0.51100000000E-03 0.  1.
        -12    1    3    3    0    0  0.41153985159E+01 -0.18014358245E+01  0.24880667949E+01  0.51353823957E+01  0.00000000000E+00 0.  1.
</event>
<event>
 7    1  0.8300060E-011  0.4778727E+02  0.7816164E-02  0.1312668E+00
        -11   -1    0    0    0    0  0.00000000000E+00  0.00000000000E+00  0.45593999997E+02  0.45594000000E+02  0.51100000000E-03 0. -1.
         11   -1    0    0    0    0 -0.00000000000E+00 -0.00000000000E+00 -0.45593999997E+02  0.45594000000E+02  0.51100000000E-03 0.  1.
    9900012    2    1    2    0    0 -0.22855753792E+01 -0.13501593980E+02 -0.41183816063E+02  0.47787267283E+02  0.19999982851E+02 0.  0.
         12    1    1    2    0    0  0.22855753792E+01  0.13501593980E+02  0.41183816063E+02  0.43400732717E+02  0.00000000000E+00 0. -1.
         11    1    3    3    0    0  0.30035692276E+01 -0.13173861959E+02 -0.16463444095E+02  0.21298287695E+02  0.51100000000E-03 0. -1.
        -11    1    3    3    0    0  0.94517279074E+00  0.24922996528E+01 -0.74525663903E+01  0.79149008349E+01  0.51100000000E-03 0.  1.
         12    1    3    3    0    0 -0.62343173976E+01 -0.28200316744E+01 -0.17267805578E+02  0.18574078753E+02  0.00000000000E+00 0. -1.
</event>
<event>
 7    1  0.8300060E-011  0.4778727E+02  0.7816164E-02  0.1312668E+00
        -11   -1    0    0    0    0  0.00000000000E+00  0.00000000000E+00  0.45593999997E+02  0.45594000000E+02  0.51100000000E-03 0. -1.
         11   -1    0    0    0    0 -0.00000000000E+00 -0.00000000000E+00 -0.45593999997E+02  0.45594000000E+02  0.51100000000E-03 0.  1.
    9900012    2    1    2    0    0 -0.10942688698E+02 -0.33026110658E+02  0.25945266402E+02  0.47787271091E+02  0.20000000213E+02 0.  0.
        -12    1    1    2    0    0  0.10942688698E+02  0.33026110658E+02 -0.25945266402E+02  0.43400728909E+02  0.00000000000E+00 0.  1.
         11    1    3    3    0    0 -0.83058848898E+01 -0.78588752044E+01  0.43352867729E+00  0.11442796453E+02  0.51100000000E-03 0. -1.
        -11    1    3    3    0    0  0.14510799884E+01 -0.12238719768E+02  0.11926970778E+02  0.17150642171E+02  0.51100000000E-03 0.  1.
         12    1    3    3    0    0 -0.40878837967E+01 -0.12928515686E+02  0.13584766947E+02  0.19193832467E+02  0.00000000000E+00 0. -1.
</event>
<event>
 7    1  0.8300060E-011  0.4778727E+02  0.7816164E-02  0.1312668E+00
        -11   -1    0    0    0    0  0.00000000000E+00  0.00000000000E+00  0.45593999997E+02  0.45594000000E+02  0.51100000000E-03 0.  1.
         11   -1    0    0    0    0 -0.00000000000E+00 -0.00000000000E+00 -0.45593999997E+02  0.45594000000E+02  0.51100000000E-03 0. -1.
    9900012    2    1    2    0    0 -0.39939901557E+02 -0.18023102926E+01 -0.16887249381E+02  0.47787271314E+02  0.20000001231E+02 0.  0.
         12    1    1    2    0    0  0.39939901557E+02  0.18023102926E+01  0.16887249381E+02  0.43400728686E+02  0.00000000000E+00 0. -1.
         11    1    3    3    0    0 -0.11270768617E+02  0.51541375017E+01  0.15994814116E+01  0.12496147392E+02  0.51100000000E-03 0. -1.
        -11    1    3    3    0    0 -0.21084463840E+02 -0.57487183186E+01 -0.10623230320E+02  0.24299288064E+02  0.51100000000E-03 0.  1.
         12    1    3    3    0    0 -0.75846691004E+01 -0.12077294756E+01 -0.78635004724E+01  0.10991835858E+02  0.00000000000E+00 0. -1.
</event>
<event>
 7    1  0.8300060E-011  0.4778726E+02  0.7816164E-02  0.1312668E+00
        -11   -1    0    0    0    0  0.00000000000E+00  0.00000000000E+00  0.45593999997E+02  0.45594000000E+02  0.51100000000E-03 0. -1.
         11   -1    0    0    0    0 -0.00000000000E+00 -0.00000000000E+00 -0.45593999997E+02  0.45594000000E+02  0.51100000000E-03 0.  1.
    9900012    2    1    2    0    0  0.20509870928E+02  0.18533685772E+02 -0.33458514254E+02  0.47787257036E+02  0.19999936130E+02 0.  0.
         12    1    1    2    0    0 -0.20509870928E+02 -0.18533685772E+02  0.33458514254E+02  0.43400742964E+02  0.00000000000E+00 0. -1.
         11    1    3    3    0    0 -0.22517264446E+01  0.70022335366E+00 -0.40333454096E+01  0.46720937684E+01  0.51100000000E-03 0. -1.
        -11    1    3    3    0    0  0.14182616778E+02  0.51807419688E+01 -0.89146390019E+01  0.17534465912E+02  0.51100000000E-03 0.  1.
        -12    1    3    3    0    0  0.85789805944E+01  0.12652720449E+02 -0.20510529842E+02  0.25580697356E+02  0.00000000000E+00 0.  1.
</event>
<event>
 7    1  0.8300060E-011  0.4778727E+02  0.7816164E-02  0.1312668E+00
        -11   -1    0    0    0    0  0.00000000000E+00  0.00000000000E+00  0.45593999997E+02  0.45594000000E+02  0.51100000000E-03 0. -1.
         11   -1    0    0    0    0 -0.00000000000E+00 -0.00000000000E+00 -0.45593999997E+02  0.45594000000E+02  0.51100000000E-03 0.  1.
    9900012    2    1    2    0    0  0.30442679939E+02  0.17580972072E+02 -0.25451442652E+02  0.47787271044E+02  0.19999999998E+02 0.  0.
         12    1    1    2    0    0 -0.30442679939E+02 -0.17580972072E+02  0.25451442652E+02  0.43400728956E+02  0.00000000000E+00 0. -1.
         11    1    3    3    0    0  0.27472316227E+01 -0.23029662061E+01  0.16390383871E+01  0.39417486006E+01  0.51100000000E-03 0. -1.
        -11    1    3    3    0    0  0.23350695615E+02  0.14306238485E+02 -0.20915503785E+02  0.34458406001E+02  0.51100000000E-03 0.  1.
         12    1    3    3    0    0  0.43447527008E+01  0.55776997932E+01 -0.61749772543E+01  0.93871164426E+01  0.00000000000E+00 0. -1.
</event>
<event>
 7    1  0.8300060E-011  0.4778728E+02  0.7816164E-02  0.1312668E+00
        -11   -1    0    0    0    0  0.00000000000E+00  0.00000000000E+00  0.45593999997E+02  0.45594000000E+02  0.51100000000E-03 0. -1.
         11   -1    0    0    0    0 -0.00000000000E+00 -0.00000000000E+00 -0.45593999997E+02  0.45594000000E+02  0.51100000000E-03 0.  1.
    9900012    2    1    2    0    0 -0.69336995645E+01 -0.23296876837E+02  0.35955559392E+02  0.47787275223E+02  0.20000019050E+02 0.  0.
        -12    1    1    2    0    0  0.69336995645E+01  0.23296876837E+02 -0.35955559392E+02  0.43400724777E+02  0.00000000000E+00 0.  1.
         11    1    3    3    0    0  0.11525990535E+01 -0.92091427282E+01  0.19319047020E+02  0.21432740665E+02  0.51100000000E-03 0. -1.
        -11    1    3    3    0    0 -0.19799701201E+01 -0.54767913967E+01 -0.89312780559E+00  0.58917911723E+01  0.51100000000E-03 0.  1.
        -12    1    3    3    0    0 -0.61063284978E+01 -0.86109427124E+01  0.17529640177E+02  0.20462743386E+02  0.00000000000E+00 0.  1.
</event>
<event>
 7    1  0.8300060E-011  0.4778727E+02  0.7816164E-02  0.1312668E+00
        -11   -1    0    0    0    0  0.00000000000E+00  0.00000000000E+00  0.45593999997E+02  0.45594000000E+02  0.51100000000E-03 0. -1.
         11   -1    0    0    0    0 -0.00000000000E+00 -0.00000000000E+00 -0.45593999997E+02  0.45594000000E+02  0.51100000000E-03 0.  1.
    9900012    2    1    2    0    0  0.21680928093E+02 -0.19340488584E+02  0.32241373332E+02  0.47787270790E+02  0.19999998840E+02 0.  0.
        -12    1    1    2    0    0 -0.21680928093E+02  0.19340488584E+02 -0.32241373332E+02  0.43400729210E+02  0.00000000000E+00 0.  1.
         11    1    3    3    0    0  0.15336063807E+02 -0.16744372118E+02  0.15999239685E+02  0.27776690254E+02  0.51100000000E-03 0. -1.
        -11    1    3    3    0    0 -0.20631144810E+01  0.10859303925E+01  0.20262576629E+01  0.30889167286E+01  0.51100000000E-03 0.  1.
        -12    1    3    3    0    0  0.84079787660E+01 -0.36820468588E+01  0.14215875985E+02  0.16921663807E+02  0.00000000000E+00 0.  1.
</event>
<event>
 7    1  0.8300060E-011  0.4778727E+02  0.7816164E-02  0.1312668E+00
        -11   -1    0    0    0    0  0.00000000000E+00  0.00000000000E+00  0.45593999997E+02  0.45594000000E+02  0.51100000000E-03 0. -1.
         11   -1    0    0    0    0 -0.00000000000E+00 -0.00000000000E+00 -0.45593999997E+02  0.45594000000E+02  0.51100000000E-03 0.  1.
    9900012    2    1    2    0    0  0.30608971241E+02  0.22128627223E+02 -0.21378442351E+02  0.47787273502E+02  0.20000011203E+02 0.  0.
         12    1    1    2    0    0 -0.30608971241E+02 -0.22128627223E+02  0.21378442351E+02  0.43400726498E+02  0.00000000000E+00 0. -1.
         11    1    3    3    0    0  0.18134208955E+02  0.48873728119E+01 -0.11876621261E+02  0.22221387901E+02  0.51100000000E-03 0. -1.
        -11    1    3    3    0    0  0.10693673478E+02  0.13738108547E+02 -0.25708474215E+01  0.17598282179E+02  0.51100000000E-03 0.  1.
         12    1    3    3    0    0  0.17810888081E+01  0.35031458642E+01 -0.69309736689E+01  0.79676034219E+01  0.00000000000E+00 0. -1.
</event>
<event>
 7    1  0.8300060E-011  0.4778727E+02  0.7816164E-02  0.1312668E+00
        -11   -1    0    0    0    0  0.00000000000E+00  0.00000000000E+00  0.45593999997E+02  0.45594000000E+02  0.51100000000E-03 0. -1.
         11   -1    0    0    0    0 -0.00000000000E+00 -0.00000000000E+00 -0.45593999997E+02  0.45594000000E+02  0.51100000000E-03 0.  1.
    9900012    2    1    2    0    0  0.26148093163E+02  0.20836706118E+01 -0.34576854363E+02  0.47787270549E+02  0.19999997740E+02 0.  0.
         12    1    1    2    0    0 -0.26148093163E+02 -0.20836706118E+01  0.34576854363E+02  0.43400729451E+02  0.00000000000E+00 0. -1.
         11    1    3    3    0    0  0.19602585808E+01 -0.38313367586E+00 -0.14138649323E+02  0.14279033933E+02  0.51100000000E-03 0.  1.
        -11    1    3    3    0    0  0.55487655582E+00  0.26296163995E+01 -0.86933245109E+00  0.28246255633E+01  0.51100000000E-03 0. -1.
         12    1    3    3    0    0  0.23632958026E+02 -0.16281211186E+00 -0.19568872589E+02  0.30683611053E+02  0.00000000000E+00 0. -1.
</event>
<event>
 7    1  0.8300060E-011  0.4778727E+02  0.7816164E-02  0.1312668E+00
        -11   -1    0    0    0    0  0.00000000000E+00  0.00000000000E+00  0.45593999997E+02  0.45594000000E+02  0.51100000000E-03 0. -1.
         11   -1    0    0    0    0 -0.00000000000E+00 -0.00000000000E+00 -0.45593999997E+02  0.45594000000E+02  0.51100000000E-03 0.  1.
    9900012    2    1    2    0    0  0.79001719488E+01 -0.16058639560E+01 -0.42645420678E+02  0.47787269353E+02  0.19999992287E+02 0.  0.
         12    1    1    2    0    0 -0.79001719488E+01  0.16058639560E+01  0.42645420678E+02  0.43400730647E+02  0.00000000000E+00 0. -1.
         11    1    3    3    0    0  0.89846581706E+01 -0.22494654788E+01 -0.99953062379E+01  0.13626823710E+02  0.51100000000E-03 0. -1.
        -11    1    3    3    0    0 -0.43030570713E+01  0.22793547019E+01 -0.27136490606E+02  0.27569927107E+02  0.51100000000E-03 0.  1.
        -12    1    3    3    0    0  0.32185708495E+01 -0.16357531790E+01 -0.55136238343E+01  0.65905185351E+01  0.00000000000E+00 0.  1.
</event>
<event>
 7    1  0.8300060E-011  0.4778727E+02  0.7816164E-02  0.1312668E+00
        -11   -1    0    0    0    0  0.00000000000E+00  0.00000000000E+00  0.45593999997E+02  0.45594000000E+02  0.51100000000E-03 0. -1.
         11   -1    0    0    0    0 -0.00000000000E+00 -0.00000000000E+00 -0.45593999997E+02  0.45594000000E+02  0.51100000000E-03 0.  1.
    9900012    2    1    2    0    0  0.22562186896E+02 -0.23706938604E+02  0.28505297105E+02  0.47787272143E+02  0.20000005007E+02 0.  0.
        -12    1    1    2    0    0 -0.22562186896E+02  0.23706938604E+02 -0.28505297105E+02  0.43400727857E+02  0.00000000000E+00 0.  1.
         11    1    3    3    0    0  0.20590282790E+02 -0.14518466934E+02  0.17056404238E+02  0.30424768746E+02  0.51100000000E-03 0. -1.
        -11    1    3    3    0    0  0.14799545813E+01 -0.10081471570E+02  0.12343662489E+02  0.16006009449E+02  0.51100000000E-03 0.  1.
        -12    1    3    3    0    0  0.49194952398E+00  0.89299989986E+00 -0.89476962067E+00  0.13564939474E+01  0.00000000000E+00 0.  1.
</event>
<event>
 7    1  0.1234044E-010  0.4778727E+02  0.7816164E-02  0.1312668E+00
        -11   -1    0    0    0    0  0.00000000000E+00  0.00000000000E+00  0.45593999997E+02  0.45594000000E+02  0.51100000000E-03 0.  1.
         11   -1    0    0    0    0 -0.00000000000E+00 -0.00000000000E+00 -0.45593999997E+02  0.45594000000E+02  0.51100000000E-03 0. -1.
    9900012    2    1    2    0    0  0.16674611447E+02  0.15260264563E+02  0.37050032645E+02  0.47787271200E+02  0.20000000708E+02 0.  0.
        -12    1    1    2    0    0 -0.16674611447E+02 -0.15260264563E+02 -0.37050032645E+02  0.43400728800E+02  0.00000000000E+00 0.  1.
         11    1    3    3    0    0  0.18803619087E+02  0.12795101133E+02  0.30496934284E+02  0.38044102102E+02  0.51100000000E-03 0. -1.
        -11    1    3    3    0    0 -0.11389904748E+01  0.15511574821E+00 -0.11587067164E+01  0.16321647321E+01  0.51100000000E-03 0.  1.
         12    1    3    3    0    0 -0.99001716457E+00  0.23100476813E+01  0.77118050770E+01  0.81110043658E+01  0.00000000000E+00 0. -1.
</event>
<event>
 7    1  0.8300060E-011  0.4778727E+02  0.7816164E-02  0.1312668E+00
        -11   -1    0    0    0    0  0.00000000000E+00  0.00000000000E+00  0.45593999997E+02  0.45594000000E+02  0.51100000000E-03 0. -1.
         11   -1    0    0    0    0 -0.00000000000E+00 -0.00000000000E+00 -0.45593999997E+02  0.45594000000E+02  0.51100000000E-03 0.  1.
    9900012    2    1    2    0    0 -0.38881397296E+02 -0.27615333662E+01 -0.19084924577E+02  0.47787268804E+02  0.19999989785E+02 0.  0.
         12    1    1    2    0    0  0.38881397296E+02  0.27615333662E+01  0.19084924577E+02  0.43400731196E+02  0.00000000000E+00 0. -1.
         11    1    3    3    0    0 -0.96105658183E+01 -0.84941899986E+00  0.28181917335E+01  0.10051203554E+02  0.51100000000E-03 0. -1.
        -11    1    3    3    0    0 -0.22041379042E+02  0.20754663594E+01 -0.18319615593E+02  0.28735661928E+02  0.51100000000E-03 0.  1.
         12    1    3    3    0    0 -0.72294524354E+01 -0.39875807258E+01 -0.35835007181E+01  0.90004033220E+01  0.00000000000E+00 0. -1.
</event>
<event>
 7    1  0.8300060E-011  0.4778727E+02  0.7816164E-02  0.1312668E+00
        -11   -1    0    0    0    0  0.00000000000E+00  0.00000000000E+00  0.45593999997E+02  0.45594000000E+02  0.51100000000E-03 0. -1.
         11   -1    0    0    0    0 -0.00000000000E+00 -0.00000000000E+00 -0.45593999997E+02  0.45594000000E+02  0.51100000000E-03 0.  1.
    9900012    2    1    2    0    0  0.69853629279E+01 -0.38146451815E+01 -0.42664702274E+02  0.47787266905E+02  0.19999981126E+02 0.  0.
         12    1    1    2    0    0 -0.69853629279E+01  0.38146451815E+01  0.42664702274E+02  0.43400733095E+02  0.00000000000E+00 0. -1.
         11    1    3    3    0    0 -0.43430515048E+00 -0.28399406328E+01 -0.12582884220E+02  0.12906698234E+02  0.51100000000E-03 0.  1.
        -11    1    3    3    0    0 -0.50343167629E+01  0.60208380452E+00 -0.96360459983E+01  0.10888536767E+02  0.51100000000E-03 0. -1.
        -12    1    3    3    0    0  0.12453984841E+02 -0.15767883532E+01 -0.20445772056E+02  0.23992031904E+02  0.00000000000E+00 0.  1.
</event>
<event>
 7    1  0.8300060E-011  0.4778727E+02  0.7816164E-02  0.1312668E+00
        -11   -1    0    0    0    0  0.00000000000E+00  0.00000000000E+00  0.45593999997E+02  0.45594000000E+02  0.51100000000E-03 0.  1.
         11   -1    0    0    0    0 -0.00000000000E+00 -0.00000000000E+00 -0.45593999997E+02  0.45594000000E+02  0.51100000000E-03 0. -1.
    9900012    2    1    2    0    0 -0.16991999546E+02  0.39305022900E+02 -0.70717921941E+01  0.47787272834E+02  0.20000008158E+02 0.  0.
        -12    1    1    2    0    0  0.16991999546E+02 -0.39305022900E+02  0.70717921941E+01  0.43400727166E+02  0.00000000000E+00 0.  1.
         11    1    3    3    0    0 -0.18113578111E+02  0.29568206563E+02 -0.11192711253E+01  0.34693418965E+02  0.51100000000E-03 0. -1.
        -11    1    3    3    0    0 -0.14031635551E+01  0.48064528371E+01 -0.56456705662E+01  0.75461548646E+01  0.51100000000E-03 0.  1.
         12    1    3    3    0    0  0.25247421202E+01  0.49303634995E+01 -0.30685050264E+00  0.55476990042E+01  0.00000000000E+00 0. -1.
</event>
<event>
 7    1  0.8300060E-011  0.4778728E+02  0.7816164E-02  0.1312668E+00
        -11   -1    0    0    0    0  0.00000000000E+00  0.00000000000E+00  0.45593999997E+02  0.45594000000E+02  0.51100000000E-03 0. -1.
         11   -1    0    0    0    0 -0.00000000000E+00 -0.00000000000E+00 -0.45593999997E+02  0.45594000000E+02  0.51100000000E-03 0.  1.
    9900012    2    1    2    0    0 -0.22744051187E+02  0.32533223052E+02  0.17547661455E+02  0.47787275477E+02  0.20000020210E+02 0.  0.
        -12    1    1    2    0    0  0.22744051187E+02 -0.32533223052E+02 -0.17547661455E+02  0.43400724523E+02  0.00000000000E+00 0.  1.
         11    1    3    3    0    0 -0.53906861363E+01  0.49201237776E+01 -0.33000420480E+01  0.80098310087E+01  0.51100000000E-03 0.  1.
        -11    1    3    3    0    0 -0.84581993916E+01  0.20608424499E+02  0.11361643254E+02  0.25006703801E+02  0.51100000000E-03 0. -1.
         12    1    3    3    0    0 -0.88951656588E+01  0.70046747754E+01  0.94860602493E+01  0.14770740667E+02  0.00000000000E+00 0. -1.
</event>
<event>
 7    1  0.8300060E-011  0.4778727E+02  0.7816164E-02  0.1312668E+00
        -11   -1    0    0    0    0  0.00000000000E+00  0.00000000000E+00  0.45593999997E+02  0.45594000000E+02  0.51100000000E-03 0. -1.
         11   -1    0    0    0    0 -0.00000000000E+00 -0.00000000000E+00 -0.45593999997E+02  0.45594000000E+02  0.51100000000E-03 0.  1.
    9900012    2    1    2    0    0  0.20789886457E+02 -0.27412059356E+01  0.37998548877E+02  0.47787270678E+02  0.19999998331E+02 0.  0.
        -12    1    1    2    0    0 -0.20789886457E+02  0.27412059356E+01 -0.37998548877E+02  0.43400729322E+02  0.00000000000E+00 0.  1.
         11    1    3    3    0    0  0.11984284391E+02  0.79202588085E+01  0.23392662014E+02  0.27451233275E+02  0.51100000000E-03 0. -1.
        -11    1    3    3    0    0  0.16614481759E+01 -0.40270061164E+01  0.52696975175E+01  0.68371705032E+01  0.51100000000E-03 0.  1.
         12    1    3    3    0    0  0.71441538896E+01 -0.66344586277E+01  0.93361893457E+01  0.13498866900E+02  0.00000000000E+00 0. -1.
</event>
<event>
 7    1  0.8300060E-011  0.4778727E+02  0.7816164E-02  0.1312668E+00
        -11   -1    0    0    0    0  0.00000000000E+00  0.00000000000E+00  0.45593999997E+02  0.45594000000E+02  0.51100000000E-03 0. -1.
         11   -1    0    0    0    0 -0.00000000000E+00 -0.00000000000E+00 -0.45593999997E+02  0.45594000000E+02  0.51100000000E-03 0.  1.
    9900012    2    1    2    0    0  0.29450678002E+02  0.21883828095E+02  0.23181430885E+02  0.47787272993E+02  0.20000008884E+02 0.  0.
        -12    1    1    2    0    0 -0.29450678002E+02 -0.21883828095E+02 -0.23181430885E+02  0.43400727007E+02  0.00000000000E+00 0.  1.
         11    1    3    3    0    0  0.22975624611E+02  0.20358079168E+02  0.16391666030E+02  0.34799675706E+02  0.51100000000E-03 0. -1.
        -11    1    3    3    0    0 -0.90311071506E+00  0.33386870989E+01  0.18127108316E+01  0.39049150219E+01  0.51100000000E-03 0.  1.
         12    1    3    3    0    0  0.73781641052E+01 -0.18129381721E+01  0.49770540235E+01  0.90826822653E+01  0.00000000000E+00 0. -1.
</event>
<event>
 7    1  0.8300060E-011  0.4778727E+02  0.7816164E-02  0.1312668E+00
        -11   -1    0    0    0    0  0.00000000000E+00  0.00000000000E+00  0.45593999997E+02  0.45594000000E+02  0.51100000000E-03 0. -1.
         11   -1    0    0    0    0 -0.00000000000E+00 -0.00000000000E+00 -0.45593999997E+02  0.45594000000E+02  0.51100000000E-03 0.  1.
    9900012    2    1    2    0    0  0.39355107895E+02  0.76298984916E+01 -0.16630804119E+02  0.47787268278E+02  0.19999987386E+02 0.  0.
         12    1    1    2    0    0 -0.39355107895E+02 -0.76298984916E+01  0.16630804119E+02  0.43400731722E+02  0.00000000000E+00 0. -1.
         11    1    3    3    0    0  0.37502913109E+01 -0.15767968879E+01  0.29773458603E+01  0.50413849263E+01  0.51100000000E-03 0. -1.
        -11    1    3    3    0    0  0.26948031552E+02  0.33463690966E+01 -0.16761070434E+02  0.31911253078E+02  0.51100000000E-03 0.  1.
        -12    1    3    3    0    0  0.86567850318E+01  0.58603262829E+01 -0.28470795455E+01  0.10834630274E+02  0.00000000000E+00 0.  1.
</event>
<event>
 7    1  0.8300060E-011  0.4778727E+02  0.7816164E-02  0.1312668E+00
        -11   -1    0    0    0    0  0.00000000000E+00  0.00000000000E+00  0.45593999997E+02  0.45594000000E+02  0.51100000000E-03 0. -1.
         11   -1    0    0    0    0 -0.00000000000E+00 -0.00000000000E+00 -0.45593999997E+02  0.45594000000E+02  0.51100000000E-03 0.  1.
    9900012    2    1    2    0    0 -0.33122917368E+02  0.15511058293E+02  0.23364563732E+02  0.47787269329E+02  0.19999992180E+02 0.  0.
        -12    1    1    2    0    0  0.33122917368E+02 -0.15511058293E+02 -0.23364563732E+02  0.43400730671E+02  0.00000000000E+00 0.  1.
         11    1    3    3    0    0 -0.28684729612E+01  0.43868739863E+01 -0.19422703274E+01  0.55897419249E+01  0.51100000000E-03 0. -1.
        -11    1    3    3    0    0 -0.25675883644E+02  0.65635519831E+01  0.16303090739E+02  0.31114658659E+02  0.51100000000E-03 0.  1.
        -12    1    3    3    0    0 -0.45785607628E+01  0.45606323233E+01  0.90037433207E+01  0.11082868746E+02  0.00000000000E+00 0.  1.
</event>
<event>
 7    1  0.8300060E-011  0.4778726E+02  0.7816164E-02  0.1312668E+00
        -11   -1    0    0    0    0  0.00000000000E+00  0.00000000000E+00  0.45593999997E+02  0.45594000000E+02  0.51100000000E-03 0.  1.
         11   -1    0    0    0    0 -0.00000000000E+00 -0.00000000000E+00 -0.45593999997E+02  0.45594000000E+02  0.51100000000E-03 0. -1.
    9900012    2    1    2    0    0  0.19053308700E+02 -0.36181140637E+02 -0.14543756293E+02  0.47787258562E+02  0.19999943090E+02 0.  0.
         12    1    1    2    0    0 -0.19053308700E+02  0.36181140637E+02  0.14543756293E+02  0.43400741438E+02  0.00000000000E+00 0. -1.
         11    1    3    3    0    0  0.11365126461E+02 -0.26045846050E+02 -0.17190211385E+02  0.33212280314E+02  0.51100000000E-03 0. -1.
        -11    1    3    3    0    0  0.58473272826E+01 -0.10762253116E+02  0.15592402852E+01  0.12347006075E+02  0.51100000000E-03 0.  1.
         12    1    3    3    0    0  0.18408549561E+01  0.62695852956E+00  0.10872148069E+01  0.22279721730E+01  0.00000000000E+00 0. -1.
</event>
<event>
 7    1  0.8325495E-011  0.4778727E+02  0.7816164E-02  0.1312668E+00
        -11   -1    0    0    0    0  0.00000000000E+00  0.00000000000E+00  0.45593999997E+02  0.45594000000E+02  0.51100000000E-03 0. -1.
         11   -1    0    0    0    0 -0.00000000000E+00 -0.00000000000E+00 -0.45593999997E+02  0.45594000000E+02  0.51100000000E-03 0.  1.
    9900012    2    1    2    0    0  0.21044237677E+02 -0.32087605630E+01 -0.37821517993E+02  0.47787270662E+02  0.19999998257E+02 0.  0.
         12    1    1    2    0    0 -0.21044237677E+02  0.32087605630E+01  0.37821517993E+02  0.43400729338E+02  0.00000000000E+00 0. -1.
         11    1    3    3    0    0 -0.42156489865E-01 -0.41029309419E+01 -0.10156808599E+02  0.10954295079E+02  0.51100000000E-03 0. -1.
        -11    1    3    3    0    0  0.19075429090E+02 -0.57277737357E-02 -0.15810786279E+02  0.24776056804E+02  0.51100000000E-03 0.  1.
        -12    1    3    3    0    0  0.20109650769E+01  0.89989815266E+00 -0.11853923115E+02  0.12056918779E+02  0.00000000000E+00 0.  1.
</event>
<event>
 7    1  0.8300060E-011  0.4778726E+02  0.7816164E-02  0.1312668E+00
        -11   -1    0    0    0    0  0.00000000000E+00  0.00000000000E+00  0.45593999997E+02  0.45594000000E+02  0.51100000000E-03 0. -1.
         11   -1    0    0    0    0 -0.00000000000E+00 -0.00000000000E+00 -0.45593999997E+02  0.45594000000E+02  0.51100000000E-03 0.  1.
    9900012    2    1    2    0    0  0.26393307847E+02  0.21646973055E+02  0.26803473578E+02  0.47787258792E+02  0.19999944136E+02 0.  0.
        -12    1    1    2    0    0 -0.26393307847E+02 -0.21646973055E+02 -0.26803473578E+02  0.43400741208E+02  0.00000000000E+00 0.  1.
         11    1    3    3    0    0  0.23798372460E+02  0.82108171932E+01  0.13013021813E+02  0.28339350517E+02  0.51100000000E-03 0. -1.
        -11    1    3    3    0    0  0.50000832217E+00  0.25230596965E+01  0.21200313344E+01  0.33332224160E+01  0.51100000000E-03 0.  1.
         12    1    3    3    0    0  0.20949270645E+01  0.10913096165E+02  0.11670420431E+02  0.16114685859E+02  0.00000000000E+00 0. -1.
</event>
<event>
 7    1  0.8300060E-011  0.4778727E+02  0.7816164E-02  0.1312668E+00
        -11   -1    0    0    0    0  0.00000000000E+00  0.00000000000E+00  0.45593999997E+02  0.45594000000E+02  0.51100000000E-03 0. -1.
         11   -1    0    0    0    0 -0.00000000000E+00 -0.00000000000E+00 -0.45593999997E+02  0.45594000000E+02  0.51100000000E-03 0.  1.
    9900012    2    1    2    0    0 -0.83720336073E+01  0.40107234794E+02  0.14315794534E+02  0.47787271865E+02  0.20000003741E+02 0.  0.
        -12    1    1    2    0    0  0.83720336073E+01 -0.40107234794E+02 -0.14315794534E+02  0.43400728135E+02  0.00000000000E+00 0.  1.
         11    1    3    3    0    0 -0.56068605570E+01  0.26234700257E+02  0.63179468103E+01  0.27561074635E+02  0.51100000000E-03 0. -1.
        -11    1    3    3    0    0 -0.68438561727E+01  0.52868159632E+01  0.59657335037E+01  0.10506129965E+02  0.51100000000E-03 0.  1.
        -12    1    3    3    0    0  0.40786831224E+01  0.85857185736E+01  0.20321142199E+01  0.97200672652E+01  0.00000000000E+00 0.  1.
</event>
<event>
 7    1  0.8300060E-011  0.4778727E+02  0.7816164E-02  0.1312668E+00
        -11   -1    0    0    0    0  0.00000000000E+00  0.00000000000E+00  0.45593999997E+02  0.45594000000E+02  0.51100000000E-03 0. -1.
         11   -1    0    0    0    0 -0.00000000000E+00 -0.00000000000E+00 -0.45593999997E+02  0.45594000000E+02  0.51100000000E-03 0.  1.
    9900012    2    1    2    0    0 -0.23809274621E+01 -0.26285415355E+02 -0.34453326475E+02  0.47787267504E+02  0.19999983858E+02 0.  0.
         12    1    1    2    0    0  0.23809274621E+01  0.26285415355E+02  0.34453326475E+02  0.43400732496E+02  0.00000000000E+00 0. -1.
         11    1    3    3    0    0  0.24399298969E+01 -0.18165613597E+02 -0.23794752737E+02  0.30035529516E+02  0.51100000000E-03 0. -1.
        -11    1    3    3    0    0 -0.31331131949E+01 -0.79320225463E+01 -0.12573080762E+02  0.15192621238E+02  0.51100000000E-03 0.  1.
         12    1    3    3    0    0 -0.16877441641E+01 -0.18777921207E+00  0.19145070237E+01  0.25591167499E+01  0.00000000000E+00 0. -1.
</event>
<event>
 7    1  0.8300060E-011  0.4778727E+02  0.7816164E-02  0.1312668E+00
        -11   -1    0    0    0    0  0.00000000000E+00  0.00000000000E+00  0.45593999997E+02  0.45594000000E+02  0.51100000000E-03 0. -1.
         11   -1    0    0    0    0 -0.00000000000E+00 -0.00000000000E+00 -0.45593999997E+02  0.45594000000E+02  0.51100000000E-03 0.  1.
    9900012    2    1    2    0    0 -0.25099295493E+02 -0.14540204771E+02 -0.32283600615E+02  0.47787273535E+02  0.20000011357E+02 0.  0.
         12    1    1    2    0    0  0.25099295493E+02  0.14540204771E+02  0.32283600615E+02  0.43400726465E+02  0.00000000000E+00 0. -1.
         11    1    3    3    0    0 -0.54002034839E+01  0.40867747890E+00 -0.39447906300E+01  0.67000439047E+01  0.51100000000E-03 0. -1.
        -11    1    3    3    0    0 -0.15558928392E+02 -0.84531350159E+01 -0.28301364443E+02  0.33384172506E+02  0.51100000000E-03 0.  1.
        -12    1    3    3    0    0 -0.41401636164E+01 -0.64957472336E+01 -0.37445541612E-01  0.77030571244E+01  0.00000000000E+00 0.  1.
</event>
<event>
 7    1  0.8300060E-011  0.4778727E+02  0.7816164E-02  0.1312668E+00
        -11   -1    0    0    0    0  0.00000000000E+00  0.00000000000E+00  0.45593999997E+02  0.45594000000E+02  0.51100000000E-03 0. -1.
         11   -1    0    0    0    0 -0.00000000000E+00 -0.00000000000E+00 -0.45593999997E+02  0.45594000000E+02  0.51100000000E-03 0.  1.
    9900012    2    1    2    0    0  0.15016526358E+02  0.33161770688E+02  0.23631011178E+02  0.47787265117E+02  0.19999972976E+02 0.  0.
        -12    1    1    2    0    0 -0.15016526358E+02 -0.33161770688E+02 -0.23631011178E+02  0.43400734883E+02  0.00000000000E+00 0.  1.
         11    1    3    3    0    0  0.17293244969E+02  0.24583828950E+02  0.21495233232E+02  0.36952212645E+02  0.51100000000E-03 0. -1.
        -11    1    3    3    0    0 -0.22763985305E+01  0.59342694569E+01  0.40806112955E+01  0.75530744113E+01  0.51100000000E-03 0.  1.
         12    1    3    3    0    0 -0.32008041915E-03  0.26436722816E+01 -0.19448333497E+01  0.32819780610E+01  0.00000000000E+00 0. -1.
</event>
<event>
 7    1  0.8300060E-011  0.4778727E+02  0.7816164E-02  0.1312668E+00
        -11   -1    0    0    0    0  0.00000000000E+00  0.00000000000E+00  0.45593999997E+02  0.45594000000E+02  0.51100000000E-03 0. -1.
         11   -1    0    0    0    0 -0.00000000000E+00 -0.00000000000E+00 -0.45593999997E+02  0.45594000000E+02  0.51100000000E-03 0.  1.
    9900012    2    1    2    0    0  0.31220080770E+02 -0.26040897580E+00 -0.30147338673E+02  0.47787270914E+02  0.19999999405E+02 0.  0.
         12    1    1    2    0    0 -0.31220080770E+02  0.26040897580E+00  0.30147338673E+02  0.43400729086E+02  0.00000000000E+00 0. -1.
         11    1    3    3    0    0  0.43795994536E+01 -0.33219189724E+01 -0.16612852441E+02  0.17498654334E+02  0.51100000000E-03 0. -1.
        -11    1    3    3    0    0  0.11576028953E+02  0.13797987252E+01 -0.46822932877E+01  0.12563127060E+02  0.51100000000E-03 0.  1.
         12    1    3    3    0    0  0.15264452364E+02  0.16817112714E+01 -0.88521929446E+01  0.17725489519E+02  0.00000000000E+00 0. -1.
</event>
<event>
 7    1  0.8300060E-011  0.4778733E+02  0.7816164E-02  0.1312668E+00
        -11   -1    0    0    0    0  0.00000000000E+00  0.00000000000E+00  0.45593999997E+02  0.45594000000E+02  0.51100000000E-03 0. -1.
         11   -1    0    0    0    0 -0.00000000000E+00 -0.00000000000E+00 -0.45593999997E+02  0.45594000000E+02  0.51100000000E-03 0.  1.
    9900012    2    1    2    0    0 -0.63571350744E+01  0.26446401968E+02 -0.33820007113E+02  0.47787329215E+02  0.20000265222E+02 0.  0.
         12    1    1    2    0    0  0.63571350744E+01 -0.26446401968E+02  0.33820007113E+02  0.43400670785E+02  0.00000000000E+00 0. -1.
         11    1    3    3    0    0 -0.98795959039E+00  0.19243498535E+02 -0.12532958023E+02  0.22986155336E+02  0.51100000000E-03 0. -1.
        -11    1    3    3    0    0 -0.19635230790E+01  0.43395415962E+01 -0.22807108153E+01  0.52809739851E+01  0.51100000000E-03 0.  1.
         12    1    3    3    0    0 -0.34056524050E+01  0.28633618364E+01 -0.19006338275E+02  0.19520199895E+02  0.00000000000E+00 0. -1.
</event>
<event>
 7    1  0.8300060E-011  0.4778728E+02  0.7816164E-02  0.1312668E+00
        -11   -1    0    0    0    0  0.00000000000E+00  0.00000000000E+00  0.45593999997E+02  0.45594000000E+02  0.51100000000E-03 0. -1.
         11   -1    0    0    0    0 -0.00000000000E+00 -0.00000000000E+00 -0.45593999997E+02  0.45594000000E+02  0.51100000000E-03 0.  1.
    9900012    2    1    2    0    0  0.68893822117E+01  0.16841972212E+02  0.39401869291E+02  0.47787275134E+02  0.20000018646E+02 0.  0.
        -12    1    1    2    0    0 -0.68893822117E+01 -0.16841972212E+02 -0.39401869291E+02  0.43400724866E+02  0.00000000000E+00 0.  1.
         11    1    3    3    0    0  0.47934420657E+01  0.14899124981E+02  0.11654599044E+02  0.19513858951E+02  0.51100000000E-03 0.  1.
        -11    1    3    3    0    0  0.11261489822E+00 -0.12963751883E+01  0.12187967302E+02  0.12257235331E+02  0.51100000000E-03 0. -1.
        -12    1    3    3    0    0  0.19833252477E+01  0.32392224192E+01  0.15559302945E+02  0.16016180851E+02  0.00000000000E+00 0.  1.
</event>
<event>
 7    1  0.9743760E-011  0.4778727E+02  0.7816164E-02  0.1312668E+00
        -11   -1    0    0    0    0  0.00000000000E+00  0.00000000000E+00  0.45593999997E+02  0.45594000000E+02  0.51100000000E-03 0. -1.
         11   -1    0    0    0    0 -0.00000000000E+00 -0.00000000000E+00 -0.45593999997E+02  0.45594000000E+02  0.51100000000E-03 0.  1.
    9900012    2    1    2    0    0 -0.78087165214E+01  0.99998444046E+01 -0.41504819774E+02  0.47787274127E+02  0.20000014056E+02 0.  0.
         12    1    1    2    0    0  0.78087165214E+01 -0.99998444046E+01  0.41504819774E+02  0.43400725873E+02  0.00000000000E+00 0. -1.
         11    1    3    3    0    0  0.24549351219E+01  0.11753521376E+01  0.28424273983E+00  0.27365952014E+01  0.51100000000E-03 0. -1.
        -11    1    3    3    0    0 -0.10907676742E+02  0.88784140039E+01 -0.28850920783E+02  0.32096405989E+02  0.51100000000E-03 0.  1.
         12    1    3    3    0    0  0.64402509880E+00 -0.53921736866E-01 -0.12938141731E+02  0.12954272937E+02  0.00000000000E+00 0. -1.
</event>
<event>
 7    1  0.8300060E-011  0.4778727E+02  0.7816164E-02  0.1312668E+00
        -11   -1    0    0    0    0  0.00000000000E+00  0.00000000000E+00  0.45593999997E+02  0.45594000000E+02  0.51100000000E-03 0.  1.
         11   -1    0    0    0    0 -0.00000000000E+00 -0.00000000000E+00 -0.45593999997E+02  0.45594000000E+02  0.51100000000E-03 0. -1.
    9900012    2    1    2    0    0 -0.20400597803E+02 -0.37358966275E+02  0.84703323992E+01  0.47787270941E+02  0.19999999530E+02 0.  0.
         12    1    1    2    0    0  0.20400597803E+02  0.37358966275E+02 -0.84703323992E+01  0.43400729059E+02  0.00000000000E+00 0. -1.
         11    1    3    3    0    0 -0.60547055927E+01 -0.19284847140E+01  0.57955291478E+01  0.86003878674E+01  0.51100000000E-03 0. -1.
        -11    1    3    3    0    0 -0.40664469217E+01 -0.45189147935E+01  0.25974515152E+01  0.66108498782E+01  0.51100000000E-03 0.  1.
         12    1    3    3    0    0 -0.10279445288E+02 -0.30911566768E+02  0.77351736220E-01  0.32576033196E+02  0.00000000000E+00 0. -1.
</event>
<event>
 7    1  0.8300060E-011  0.4778727E+02  0.7816164E-02  0.1312668E+00
        -11   -1    0    0    0    0  0.00000000000E+00  0.00000000000E+00  0.45593999997E+02  0.45594000000E+02  0.51100000000E-03 0. -1.
         11   -1    0    0    0    0 -0.00000000000E+00 -0.00000000000E+00 -0.45593999997E+02  0.45594000000E+02  0.51100000000E-03 0.  1.
    9900012    2    1    2    0    0 -0.21663538270E+02 -0.11929461834E+02  0.35665142818E+02  0.47787270026E+02  0.19999995356E+02 0.  0.
        -12    1    1    2    0    0  0.21663538270E+02  0.11929461834E+02 -0.35665142818E+02  0.43400729974E+02  0.00000000000E+00 0.  1.
         11    1    3    3    0    0 -0.61959929751E+01  0.32938598020E+01  0.55480448608E+01  0.89454258357E+01  0.51100000000E-03 0. -1.
        -11    1    3    3    0    0 -0.39681380184E+01  0.10223881837E+01  0.86255255555E+01  0.95494025102E+01  0.51100000000E-03 0.  1.
         12    1    3    3    0    0 -0.11499407276E+02 -0.16245709820E+02  0.21491572402E+02  0.29292441680E+02  0.00000000000E+00 0. -1.
</event>
<event>
 7    1  0.8300060E-011  0.4778727E+02  0.7816164E-02  0.1312668E+00
        -11   -1    0    0    0    0  0.00000000000E+00  0.00000000000E+00  0.45593999997E+02  0.45594000000E+02  0.51100000000E-03 0. -1.
         11   -1    0    0    0    0 -0.00000000000E+00 -0.00000000000E+00 -0.45593999997E+02  0.45594000000E+02  0.51100000000E-03 0.  1.
    9900012    2    1    2    0    0 -0.28108148667E+02 -0.20442905035E+02 -0.25993138462E+02  0.47787266885E+02  0.19999981035E+02 0.  0.
         12    1    1    2    0    0  0.28108148667E+02  0.20442905035E+02  0.25993138462E+02  0.43400733115E+02  0.00000000000E+00 0. -1.
         11    1    3    3    0    0 -0.88473119922E+01 -0.17362422666E+01 -0.14296996725E+02  0.16902472669E+02  0.51100000000E-03 0. -1.
        -11    1    3    3    0    0 -0.18989610907E+02 -0.19013748130E+02 -0.12757601978E+02  0.29747005712E+02  0.51100000000E-03 0.  1.
         12    1    3    3    0    0 -0.27122576823E+00  0.30708536157E+00  0.10614602407E+01  0.11377885037E+01  0.00000000000E+00 0. -1.
</event>
<event>
 7    1  0.8300060E-011  0.4778727E+02  0.7816164E-02  0.1312668E+00
        -11   -1    0    0    0    0  0.00000000000E+00  0.00000000000E+00  0.45593999997E+02  0.45594000000E+02  0.51100000000E-03 0. -1.
         11   -1    0    0    0    0 -0.00000000000E+00 -0.00000000000E+00 -0.45593999997E+02  0.45594000000E+02  0.51100000000E-03 0.  1.
    9900012    2    1    2    0    0 -0.21133549698E+02  0.74977897723E+01  0.37158838484E+02  0.47787273603E+02  0.20000011667E+02 0.  0.
        -12    1    1    2    0    0  0.21133549698E+02 -0.74977897723E+01 -0.37158838484E+02  0.43400726397E+02  0.00000000000E+00 0.  1.
         11    1    3    3    0    0 -0.16272192508E+02  0.11454150581E+01  0.13927241315E+02  0.21449108970E+02  0.51100000000E-03 0. -1.
        -11    1    3    3    0    0 -0.47893752989E+01  0.87672996589E+01  0.18939516829E+02  0.21412822258E+02  0.51100000000E-03 0.  1.
         12    1    3    3    0    0 -0.71981890793E-01 -0.24149249447E+01  0.42920803398E+01  0.49253423763E+01  0.00000000000E+00 0. -1.
</event>
<event>
 7    1  0.8300060E-011  0.4778727E+02  0.7816164E-02  0.1312668E+00
        -11   -1    0    0    0    0  0.00000000000E+00  0.00000000000E+00  0.45593999997E+02  0.45594000000E+02  0.51100000000E-03 0. -1.
         11   -1    0    0    0    0 -0.00000000000E+00 -0.00000000000E+00 -0.45593999997E+02  0.45594000000E+02  0.51100000000E-03 0.  1.
    9900012    2    1    2    0    0  0.39844412716E+01 -0.15890678791E+02 -0.40189971684E+02  0.47787271105E+02  0.20000000276E+02 0.  0.
         12    1    1    2    0    0 -0.39844412716E+01  0.15890678791E+02  0.40189971684E+02  0.43400728895E+02  0.00000000000E+00 0. -1.
         11    1    3    3    0    0  0.37532881205E+01 -0.12941338759E+01 -0.13118209143E+02  0.13705815028E+02  0.51100000000E-03 0.  1.
        -11    1    3    3    0    0  0.38187805016E+01 -0.16268640293E+02 -0.22642126342E+02  0.28141031023E+02  0.51100000000E-03 0. -1.
        -12    1    3    3    0    0 -0.35876273505E+01  0.16720953784E+01 -0.44296361993E+01  0.59404250537E+01  0.00000000000E+00 0.  1.
</event>
<event>
 7    1  0.8300060E-011  0.4778727E+02  0.7816164E-02  0.1312668E+00
        -11   -1    0    0    0    0  0.00000000000E+00  0.00000000000E+00  0.45593999997E+02  0.45594000000E+02  0.51100000000E-03 0. -1.
         11   -1    0    0    0    0 -0.00000000000E+00 -0.00000000000E+00 -0.45593999997E+02  0.45594000000E+02  0.51100000000E-03 0.  1.
    9900012    2    1    2    0    0  0.54079118585E+01  0.23285297991E+01 -0.42999485130E+02  0.47787270938E+02  0.19999999513E+02 0.  0.
         12    1    1    2    0    0 -0.54079118585E+01 -0.23285297991E+01  0.42999485130E+02  0.43400729062E+02  0.00000000000E+00 0. -1.
         11    1    3    3    0    0 -0.54086235181E+01 -0.39151303098E+01 -0.94741848624E+01  0.11590583798E+02  0.51100000000E-03 0. -1.
        -11    1    3    3    0    0  0.60521491933E+01  0.58644774602E+01 -0.25494565180E+02  0.26851321377E+02  0.51100000000E-03 0.  1.
         12    1    3    3    0    0  0.47643861833E+01  0.37918264873E+00 -0.80307350879E+01  0.93453657627E+01  0.00000000000E+00 0. -1.
</event>
<event>
 7    1  0.8300060E-011  0.4778728E+02  0.7816164E-02  0.1312668E+00
        -11   -1    0    0    0    0  0.00000000000E+00  0.00000000000E+00  0.45593999997E+02  0.45594000000E+02  0.51100000000E-03 0. -1.
         11   -1    0    0    0    0 -0.00000000000E+00 -0.00000000000E+00 -0.45593999997E+02  0.45594000000E+02  0.51100000000E-03 0.  1.
    9900012    2    1    2    0    0  0.17339173418E+02  0.22071953255E+02 -0.33102934843E+02  0.47787281682E+02  0.20000048501E+02 0.  0.
         12    1    1    2    0    0 -0.17339173418E+02 -0.22071953255E+02  0.33102934843E+02  0.43400718318E+02  0.00000000000E+00 0. -1.
         11    1    3    3    0    0  0.31883235484E+01  0.13670619210E+02 -0.17610179532E+02  0.22520427617E+02  0.51100000000E-03 0. -1.
        -11    1    3    3    0    0  0.22240831576E+01  0.74694951083E+01 -0.43871697804E+01  0.89435542156E+01  0.51100000000E-03 0.  1.
         12    1    3    3    0    0  0.11926766712E+02  0.93183893700E+00 -0.11105585530E+02  0.16323299850E+02  0.00000000000E+00 0. -1.
</event>
<event>
 7    1  0.8300060E-011  0.4778728E+02  0.7816164E-02  0.1312668E+00
        -11   -1    0    0    0    0  0.00000000000E+00  0.00000000000E+00  0.45593999997E+02  0.45594000000E+02  0.51100000000E-03 0. -1.
         11   -1    0    0    0    0 -0.00000000000E+00 -0.00000000000E+00 -0.45593999997E+02  0.45594000000E+02  0.51100000000E-03 0.  1.
    9900012    2    1    2    0    0 -0.20899453661E+02  0.13767969947E+02 -0.35458125879E+02  0.47787275920E+02  0.20000022229E+02 0.  0.
         12    1    1    2    0    0  0.20899453661E+02 -0.13767969947E+02  0.35458125879E+02  0.43400724080E+02  0.00000000000E+00 0. -1.
         11    1    3    3    0    0 -0.26407862423E+01 -0.26574760958E+01  0.30662794497E-01  0.37465813277E+01  0.51100000000E-03 0. -1.
        -11    1    3    3    0    0 -0.16646438251E+02  0.17362426579E+02 -0.31463078260E+02  0.39604078792E+02  0.51100000000E-03 0.  1.
        -12    1    3    3    0    0 -0.16122291685E+01 -0.93698053648E+00 -0.40257104141E+01  0.44366157999E+01  0.00000000000E+00 0.  1.
</event>
<event>
 7    1  0.8300060E-011  0.4778727E+02  0.7816164E-02  0.1312668E+00
        -11   -1    0    0    0    0  0.00000000000E+00  0.00000000000E+00  0.45593999997E+02  0.45594000000E+02  0.51100000000E-03 0. -1.
         11   -1    0    0    0    0 -0.00000000000E+00 -0.00000000000E+00 -0.45593999997E+02  0.45594000000E+02  0.51100000000E-03 0.  1.
    9900012    2    1    2    0    0  0.17165526678E+02  0.21851654511E+02 -0.33338761433E+02  0.47787272761E+02  0.20000007826E+02 0.  0.
         12    1    1    2    0    0 -0.17165526678E+02 -0.21851654511E+02  0.33338761433E+02  0.43400727239E+02  0.00000000000E+00 0. -1.
         11    1    3    3    0    0  0.17119662593E+02  0.87118762916E+01 -0.20808300940E+02  0.28318986989E+02  0.51100000000E-03 0. -1.
        -11    1    3    3    0    0  0.24839090958E+01  0.15246348801E+01 -0.15568261763E+01  0.33042433201E+01  0.51100000000E-03 0.  1.
         12    1    3    3    0    0 -0.24380450108E+01  0.11615143339E+02 -0.10973634317E+02  0.16164042452E+02  0.00000000000E+00 0. -1.
</event>
<event>
 7    1  0.8300060E-011  0.4778728E+02  0.7816164E-02  0.1312668E+00
        -11   -1    0    0    0    0  0.00000000000E+00  0.00000000000E+00  0.45593999997E+02  0.45594000000E+02  0.51100000000E-03 0. -1.
         11   -1    0    0    0    0 -0.00000000000E+00 -0.00000000000E+00 -0.45593999997E+02  0.45594000000E+02  0.51100000000E-03 0.  1.
    9900012    2    1    2    0    0 -0.29296128972E+02  0.12585343428E+02 -0.29444334977E+02  0.47787275304E+02  0.20000019420E+02 0.  0.
         12    1    1    2    0    0  0.29296128972E+02 -0.12585343428E+02  0.29444334977E+02  0.43400724696E+02  0.00000000000E+00 0. -1.
         11    1    3    3    0    0 -0.29100984652E+01 -0.84512531769E+00  0.25268981656E+01  0.39456462690E+01  0.51100000000E-03 0. -1.
        -11    1    3    3    0    0 -0.17536127553E+02  0.71239151525E+01 -0.22708985740E+02  0.29562881630E+02  0.51100000000E-03 0.  1.
         12    1    3    3    0    0 -0.88499029534E+01  0.63065535929E+01 -0.92622474028E+01  0.14278747405E+02  0.00000000000E+00 0. -1.
</event>
<event>
 7    1  0.8300060E-011  0.4778728E+02  0.7816164E-02  0.1312668E+00
        -11   -1    0    0    0    0  0.00000000000E+00  0.00000000000E+00  0.45593999997E+02  0.45594000000E+02  0.51100000000E-03 0. -1.
         11   -1    0    0    0    0 -0.00000000000E+00 -0.00000000000E+00 -0.45593999997E+02  0.45594000000E+02  0.51100000000E-03 0.  1.
    9900012    2    1    2    0    0  0.26220461018E+02 -0.11867424878E+02  0.32484984244E+02  0.47787279377E+02  0.20000037993E+02 0.  0.
        -12    1    1    2    0    0 -0.26220461018E+02  0.11867424878E+02 -0.32484984244E+02  0.43400720623E+02  0.00000000000E+00 0.  1.
         11    1    3    3    0    0  0.21126265197E+02 -0.49845709863E+01  0.21041044416E+02  0.30230623207E+02  0.51100000000E-03 0. -1.
        -11    1    3    3    0    0 -0.18975404902E+01 -0.24039168290E+01 -0.40365538762E+00  0.30890797927E+01  0.51100000000E-03 0.  1.
         12    1    3    3    0    0  0.69917363111E+01 -0.44789370623E+01  0.11847595215E+02  0.14467576378E+02  0.00000000000E+00 0. -1.
</event>
<event>
 7    1  0.8300060E-011  0.4778727E+02  0.7816164E-02  0.1312668E+00
        -11   -1    0    0    0    0  0.00000000000E+00  0.00000000000E+00  0.45593999997E+02  0.45594000000E+02  0.51100000000E-03 0. -1.
         11   -1    0    0    0    0 -0.00000000000E+00 -0.00000000000E+00 -0.45593999997E+02  0.45594000000E+02  0.51100000000E-03 0.  1.
    9900012    2    1    2    0    0 -0.84475972236E+01  0.52836446850E+01 -0.42241501793E+02  0.47787271046E+02  0.20000000007E+02 0.  0.
         12    1    1    2    0    0  0.84475972236E+01 -0.52836446850E+01  0.42241501793E+02  0.43400728954E+02  0.00000000000E+00 0. -1.
         11    1    3    3    0    0  0.59619423062E+01  0.33821876129E+01 -0.15680535550E+02  0.17113244710E+02  0.51100000000E-03 0. -1.
        -11    1    3    3    0    0 -0.75108540498E+01 -0.11064826207E+01 -0.10718340348E+02  0.13134688897E+02  0.51100000000E-03 0.  1.
         12    1    3    3    0    0 -0.68986854800E+01  0.30079396928E+01 -0.15842625895E+02  0.17539337439E+02  0.00000000000E+00 0. -1.
</event>
<event>
 7    1  0.8300060E-011  0.4778727E+02  0.7816164E-02  0.1312668E+00
        -11   -1    0    0    0    0  0.00000000000E+00  0.00000000000E+00  0.45593999997E+02  0.45594000000E+02  0.51100000000E-03 0. -1.
         11   -1    0    0    0    0 -0.00000000000E+00 -0.00000000000E+00 -0.45593999997E+02  0.45594000000E+02  0.51100000000E-03 0.  1.
    9900012    2    1    2    0    0  0.38189144419E+02 -0.18005174409E+02 -0.10051177161E+02  0.47787271673E+02  0.20000002867E+02 0.  0.
         12    1    1    2    0    0 -0.38189144419E+02  0.18005174409E+02  0.10051177161E+02  0.43400728327E+02  0.00000000000E+00 0. -1.
         11    1    3    3    0    0  0.38982410508E+00 -0.28187062657E+01  0.87737131410E+00  0.29777253952E+01  0.51100000000E-03 0. -1.
        -11    1    3    3    0    0  0.31945996464E+02 -0.97423159912E+01 -0.14042706079E+02  0.36230608679E+02  0.51100000000E-03 0.  1.
        -12    1    3    3    0    0  0.58533238505E+01 -0.54441521520E+01  0.31141576039E+01  0.85789375995E+01  0.00000000000E+00 0.  1.
</event>
<event>
 7    1  0.8300060E-011  0.4778727E+02  0.7816164E-02  0.1312668E+00
        -11   -1    0    0    0    0  0.00000000000E+00  0.00000000000E+00  0.45593999997E+02  0.45594000000E+02  0.51100000000E-03 0. -1.
         11   -1    0    0    0    0 -0.00000000000E+00 -0.00000000000E+00 -0.45593999997E+02  0.45594000000E+02  0.51100000000E-03 0.  1.
    9900012    2    1    2    0    0 -0.22115818114E+02 -0.18318500590E+02  0.32541457405E+02  0.47787270458E+02  0.19999997326E+02 0.  0.
        -12    1    1    2    0    0  0.22115818114E+02  0.18318500590E+02 -0.32541457405E+02  0.43400729542E+02  0.00000000000E+00 0.  1.
         11    1    3    3    0    0 -0.15157318990E+02 -0.15438032593E+02  0.26540735304E+02  0.34241609192E+02  0.51100000000E-03 0. -1.
        -11    1    3    3    0    0 -0.77221901617E+01  0.78412316865E-01  0.11430212637E+01  0.78067193657E+01  0.51100000000E-03 0.  1.
         12    1    3    3    0    0  0.76369103739E+00 -0.29588803130E+01  0.48577008379E+01  0.57389419006E+01  0.00000000000E+00 0. -1.
</event>
<event>
 7    1  0.8300060E-011  0.4778727E+02  0.7816164E-02  0.1312668E+00
        -11   -1    0    0    0    0  0.00000000000E+00  0.00000000000E+00  0.45593999997E+02  0.45594000000E+02  0.51100000000E-03 0. -1.
         11   -1    0    0    0    0 -0.00000000000E+00 -0.00000000000E+00 -0.45593999997E+02  0.45594000000E+02  0.51100000000E-03 0.  1.
    9900012    2    1    2    0    0  0.17353833778E+01  0.14872562824E+02 -0.40735962582E+02  0.47787270422E+02  0.19999997161E+02 0.  0.
         12    1    1    2    0    0 -0.17353833778E+01 -0.14872562824E+02  0.40735962582E+02  0.43400729578E+02  0.00000000000E+00 0. -1.
         11    1    3    3    0    0 -0.72633961804E+01  0.12544659101E+02 -0.28432421137E+02  0.31914384970E+02  0.51100000000E-03 0. -1.
        -11    1    3    3    0    0  0.44092313344E+01 -0.68431120647E-01 -0.80230633309E+01  0.91550832466E+01  0.51100000000E-03 0.  1.
         12    1    3    3    0    0  0.45895482238E+01  0.23963348437E+01 -0.42804781139E+01  0.67178022050E+01  0.00000000000E+00 0. -1.
</event>
<event>
 7    1  0.8300060E-011  0.4778728E+02  0.7816164E-02  0.1312668E+00
        -11   -1    0    0    0    0  0.00000000000E+00  0.00000000000E+00  0.45593999997E+02  0.45594000000E+02  0.51100000000E-03 0. -1.
         11   -1    0    0    0    0 -0.00000000000E+00 -0.00000000000E+00 -0.45593999997E+02  0.45594000000E+02  0.51100000000E-03 0.  1.
    9900012    2    1    2    0    0 -0.35937532178E+02 -0.14538419853E+02 -0.19512838415E+02  0.47787277266E+02  0.20000028365E+02 0.  0.
         12    1    1    2    0    0  0.35937532178E+02  0.14538419853E+02  0.19512838415E+02  0.43400722734E+02  0.00000000000E+00 0. -1.
         11    1    3    3    0    0 -0.30855052714E+01 -0.57186956980E+01 -0.84587314029E+01  0.10666487729E+02  0.51100000000E-03 0. -1.
        -11    1    3    3    0    0 -0.15097152001E+02 -0.33323275716E+01  0.72963360303E-01  0.15460715685E+02  0.51100000000E-03 0.  1.
         12    1    3    3    0    0 -0.17754874905E+02 -0.54873965836E+01 -0.11127070372E+02  0.21660073851E+02  0.00000000000E+00 0. -1.
</event>
<event>
 7    1  0.8300060E-011  0.4778727E+02  0.7816164E-02  0.1312668E+00
        -11   -1    0    0    0    0  0.00000000000E+00  0.00000000000E+00  0.45593999997E+02  0.45594000000E+02  0.51100000000E-03 0. -1.
         11   -1    0    0    0    0 -0.00000000000E+00 -0.00000000000E+00 -0.45593999997E+02  0.45594000000E+02  0.51100000000E-03 0.  1.
    9900012    2    1    2    0    0 -0.61416606402E+01 -0.21036966795E+02  0.37461303227E+02  0.47787271817E+02  0.20000003521E+02 0.  0.
        -12    1    1    2    0    0  0.61416606402E+01  0.21036966795E+02 -0.37461303227E+02  0.43400728183E+02  0.00000000000E+00 0.  1.
         11    1    3    3    0    0  0.71247023798E+01 -0.81755230082E+01  0.16434560359E+02  0.19689980572E+02  0.51100000000E-03 0. -1.
        -11    1    3    3    0    0 -0.33929711349E+00  0.24107387767E-01  0.16516937122E+00  0.37813341519E+00  0.51100000000E-03 0.  1.
         12    1    3    3    0    0 -0.12927065907E+02 -0.12885551175E+02  0.20861573497E+02  0.27719157830E+02  0.00000000000E+00 0. -1.
</event>
<event>
 7    1  0.8300060E-011  0.4778725E+02  0.7816164E-02  0.1312668E+00
        -11   -1    0    0    0    0  0.00000000000E+00  0.00000000000E+00  0.45593999997E+02  0.45594000000E+02  0.51100000000E-03 0. -1.
         11   -1    0    0    0    0 -0.00000000000E+00 -0.00000000000E+00 -0.45593999997E+02  0.45594000000E+02  0.51100000000E-03 0.  1.
    9900012    2    1    2    0    0  0.20450776755E+02 -0.16171067268E+01  0.38246250341E+02  0.47787251514E+02  0.19999910951E+02 0.  0.
        -12    1    1    2    0    0 -0.20450776755E+02  0.16171067268E+01 -0.38246250341E+02  0.43400748486E+02  0.00000000000E+00 0.  1.
         11    1    3    3    0    0  0.99169033900E+00  0.33786119155E+01  0.94593804501E+00  0.36459933146E+01  0.51100000000E-03 0. -1.
        -11    1    3    3    0    0  0.16304586808E+02 -0.67141695689E+01  0.20864744396E+02  0.27317708230E+02  0.51100000000E-03 0.  1.
        -12    1    3    3    0    0  0.31544996082E+01  0.17184509266E+01  0.16435567900E+02  0.16823549969E+02  0.00000000000E+00 0.  1.
</event>
<event>
 7    1  0.8300060E-011  0.4778728E+02  0.7816164E-02  0.1312668E+00
        -11   -1    0    0    0    0  0.00000000000E+00  0.00000000000E+00  0.45593999997E+02  0.45594000000E+02  0.51100000000E-03 0. -1.
         11   -1    0    0    0    0 -0.00000000000E+00 -0.00000000000E+00 -0.45593999997E+02  0.45594000000E+02  0.51100000000E-03 0.  1.
    9900012    2    1    2    0    0 -0.31882164467E+01 -0.19233368559E+02  0.38775450119E+02  0.47787277400E+02  0.20000028980E+02 0.  0.
        -12    1    1    2    0    0  0.31882164467E+01  0.19233368559E+02 -0.38775450119E+02  0.43400722600E+02  0.00000000000E+00 0.  1.
         11    1    3    3    0    0  0.81588616733E+00 -0.96998787039E+01  0.19482488480E+02  0.21778904351E+02  0.51100000000E-03 0. -1.
        -11    1    3    3    0    0 -0.23825674027E+01 -0.13188594070E+01  0.17150658959E+02  0.17365515269E+02  0.51100000000E-03 0.  1.
        -12    1    3    3    0    0 -0.16215352114E+01 -0.82146304482E+01  0.21423026802E+01  0.86428577806E+01  0.00000000000E+00 0.  1.
</event>
<event>
 7    1  0.8300060E-011  0.4778728E+02  0.7816164E-02  0.1312668E+00
        -11   -1    0    0    0    0  0.00000000000E+00  0.00000000000E+00  0.45593999997E+02  0.45594000000E+02  0.51100000000E-03 0. -1.
         11   -1    0    0    0    0 -0.00000000000E+00 -0.00000000000E+00 -0.45593999997E+02  0.45594000000E+02  0.51100000000E-03 0.  1.
    9900012    2    1    2    0    0 -0.42445898264E+01 -0.14038520789E+02  0.40847596521E+02  0.47787277077E+02  0.20000027504E+02 0.  0.
        -12    1    1    2    0    0  0.42445898264E+01  0.14038520789E+02 -0.40847596521E+02  0.43400722923E+02  0.00000000000E+00 0.  1.
         11    1    3    3    0    0  0.49719164028E+01  0.24460758463E+01  0.12259011845E+02  0.13453126456E+02  0.51100000000E-03 0. -1.
        -11    1    3    3    0    0 -0.75422462364E+01 -0.12574240973E+02  0.23531621150E+02  0.27726056491E+02  0.51100000000E-03 0.  1.
        -12    1    3    3    0    0 -0.16742599928E+01 -0.39103556624E+01  0.50569635263E+01  0.66080941304E+01  0.00000000000E+00 0.  1.
</event>
<event>
 7    1  0.8300060E-011  0.4778727E+02  0.7816164E-02  0.1312668E+00
        -11   -1    0    0    0    0  0.00000000000E+00  0.00000000000E+00  0.45593999997E+02  0.45594000000E+02  0.51100000000E-03 0. -1.
         11   -1    0    0    0    0 -0.00000000000E+00 -0.00000000000E+00 -0.45593999997E+02  0.45594000000E+02  0.51100000000E-03 0.  1.
    9900012    2    1    2    0    0  0.34293324193E+02 -0.15210045902E+02  0.21823054150E+02  0.47787271055E+02  0.20000000048E+02 0.  0.
        -12    1    1    2    0    0 -0.34293324193E+02  0.15210045902E+02 -0.21823054150E+02  0.43400728945E+02  0.00000000000E+00 0.  1.
         11    1    3    3    0    0  0.14508100281E+02  0.55029711361E+00  0.13058374914E+01  0.14577140066E+02  0.51100000000E-03 0. -1.
        -11    1    3    3    0    0  0.44093067991E+01 -0.38608780039E+01  0.85957165711E+01  0.10403591161E+02  0.51100000000E-03 0.  1.
         12    1    3    3    0    0  0.15375917112E+02 -0.11899465011E+02  0.11921500088E+02  0.22806539828E+02  0.00000000000E+00 0. -1.
</event>
<event>
 7    1  0.9728965E-011  0.4778728E+02  0.7816164E-02  0.1312668E+00
        -11   -1    0    0    0    0  0.00000000000E+00  0.00000000000E+00  0.45593999997E+02  0.45594000000E+02  0.51100000000E-03 0. -1.
         11   -1    0    0    0    0 -0.00000000000E+00 -0.00000000000E+00 -0.45593999997E+02  0.45594000000E+02  0.51100000000E-03 0.  1.
    9900012    2    1    2    0    0 -0.12845734941E+02  0.33910865912E+02 -0.23846659266E+02  0.47787275453E+02  0.20000020099E+02 0.  0.
         12    1    1    2    0    0  0.12845734941E+02 -0.33910865912E+02  0.23846659266E+02  0.43400724547E+02  0.00000000000E+00 0. -1.
         11    1    3    3    0    0 -0.36368058307E+01  0.46831330377E-01 -0.42270360705E-01  0.36373530030E+01  0.51100000000E-03 0. -1.
        -11    1    3    3    0    0 -0.45149337273E+01  0.21084105435E+02 -0.21296450871E+02  0.30306153641E+02  0.51100000000E-03 0.  1.
        -12    1    3    3    0    0 -0.46939953833E+01  0.12779929147E+02 -0.25079380348E+01  0.13843768809E+02  0.00000000000E+00 0.  1.
</event>
<event>
 7    1  0.8300060E-011  0.4778727E+02  0.7816164E-02  0.1312668E+00
        -11   -1    0    0    0    0  0.00000000000E+00  0.00000000000E+00  0.45593999997E+02  0.45594000000E+02  0.51100000000E-03 0. -1.
         11   -1    0    0    0    0 -0.00000000000E+00 -0.00000000000E+00 -0.45593999997E+02  0.45594000000E+02  0.51100000000E-03 0.  1.
    9900012    2    1    2    0    0 -0.15185149707E+02 -0.92295060171E+01 -0.39596092232E+02  0.47787273358E+02  0.20000010550E+02 0.  0.
         12    1    1    2    0    0  0.15185149707E+02  0.92295060171E+01  0.39596092232E+02  0.43400726642E+02  0.00000000000E+00 0. -1.
         11    1    3    3    0    0 -0.97076038950E+01  0.19668570569E+01 -0.14151280567E+02  0.17273240634E+02  0.51100000000E-03 0. -1.
        -11    1    3    3    0    0 -0.15690555870E+00 -0.11285702443E+02 -0.14794468546E+02  0.18608277696E+02  0.51100000000E-03 0.  1.
        -12    1    3    3    0    0 -0.53206402538E+01  0.89339369255E-01 -0.10650343119E+02  0.11905755028E+02  0.00000000000E+00 0.  1.
</event>
<event>
 7    1  0.8300060E-011  0.4778727E+02  0.7816164E-02  0.1312668E+00
        -11   -1    0    0    0    0  0.00000000000E+00  0.00000000000E+00  0.45593999997E+02  0.45594000000E+02  0.51100000000E-03 0. -1.
         11   -1    0    0    0    0 -0.00000000000E+00 -0.00000000000E+00 -0.45593999997E+02  0.45594000000E+02  0.51100000000E-03 0.  1.
    9900012    2    1    2    0    0  0.27195608911E+02  0.20893270388E+02  0.26598748941E+02  0.47787270319E+02  0.19999996694E+02 0.  0.
        -12    1    1    2    0    0 -0.27195608911E+02 -0.20893270388E+02 -0.26598748941E+02  0.43400729681E+02  0.00000000000E+00 0.  1.
         11    1    3    3    0    0  0.40185746500E+01  0.12292194470E+02  0.77801502891E+01  0.15092306844E+02  0.51100000000E-03 0. -1.
        -11    1    3    3    0    0  0.93430629649E+01 -0.16830026246E+01  0.69845136360E+01  0.11785955812E+02  0.51100000000E-03 0.  1.
         12    1    3    3    0    0  0.13833971296E+02  0.10284078543E+02  0.11834085016E+02  0.20909007664E+02  0.00000000000E+00 0. -1.
</event>
<event>
 7    1  0.8300060E-011  0.4778727E+02  0.7816164E-02  0.1312668E+00
        -11   -1    0    0    0    0  0.00000000000E+00  0.00000000000E+00  0.45593999997E+02  0.45594000000E+02  0.51100000000E-03 0. -1.
         11   -1    0    0    0    0 -0.00000000000E+00 -0.00000000000E+00 -0.45593999997E+02  0.45594000000E+02  0.51100000000E-03 0.  1.
    9900012    2    1    2    0    0 -0.27634399733E+01 -0.15847199974E+02 -0.40309463379E+02  0.47787272063E+02  0.20000004645E+02 0.  0.
         12    1    1    2    0    0  0.27634399733E+01  0.15847199974E+02  0.40309463379E+02  0.43400727937E+02  0.00000000000E+00 0. -1.
         11    1    3    3    0    0 -0.60871981268E+00  0.45580314493E+00  0.16241429098E+01  0.17933590745E+01  0.51100000000E-03 0. -1.
        -11    1    3    3    0    0  0.12624183264E+01 -0.14159404982E+02 -0.36899048762E+02  0.39542663659E+02  0.51100000000E-03 0.  1.
         12    1    3    3    0    0 -0.34171384870E+01 -0.21435981375E+01 -0.50345575274E+01  0.64512493295E+01  0.00000000000E+00 0. -1.
</event>
<event>
 7    1  0.8300060E-011  0.4778727E+02  0.7816164E-02  0.1312668E+00
        -11   -1    0    0    0    0  0.00000000000E+00  0.00000000000E+00  0.45593999997E+02  0.45594000000E+02  0.51100000000E-03 0. -1.
         11   -1    0    0    0    0 -0.00000000000E+00 -0.00000000000E+00 -0.45593999997E+02  0.45594000000E+02  0.51100000000E-03 0.  1.
    9900012    2    1    2    0    0 -0.41784680128E+01 -0.42985100527E+02  0.42947904704E+01  0.47787266280E+02  0.19999978276E+02 0.  0.
         12    1    1    2    0    0  0.41784680128E+01  0.42985100527E+02 -0.42947904704E+01  0.43400733720E+02  0.00000000000E+00 0. -1.
         11    1    3    3    0    0 -0.70215515724E+01 -0.43540237851E+02  0.21888685137E+01  0.44157056563E+02  0.51100000000E-03 0.  1.
        -11    1    3    3    0    0  0.17494832654E+01  0.62797885730E+00  0.12576129977E+01  0.22442459433E+01  0.51100000000E-03 0. -1.
        -12    1    3    3    0    0  0.10936002943E+01 -0.72841533292E-01  0.84830895901E+00  0.13859637739E+01  0.00000000000E+00 0.  1.
</event>
<event>
 7    1  0.8300060E-011  0.4778728E+02  0.7816164E-02  0.1312668E+00
        -11   -1    0    0    0    0  0.00000000000E+00  0.00000000000E+00  0.45593999997E+02  0.45594000000E+02  0.51100000000E-03 0. -1.
         11   -1    0    0    0    0 -0.00000000000E+00 -0.00000000000E+00 -0.45593999997E+02  0.45594000000E+02  0.51100000000E-03 0.  1.
    9900012    2    1    2    0    0  0.23615873104E+02  0.14810003286E+02  0.33265252421E+02  0.47787277904E+02  0.20000031276E+02 0.  0.
        -12    1    1    2    0    0 -0.23615873104E+02 -0.14810003286E+02 -0.33265252421E+02  0.43400722096E+02  0.00000000000E+00 0.  1.
         11    1    3    3    0    0  0.16285369832E+02  0.35974709258E+01  0.95989037988E+01  0.19243025282E+02  0.51100000000E-03 0. -1.
        -11    1    3    3    0    0 -0.12267372407E+01 -0.53894034230E+00  0.29091419278E+01  0.32028811978E+01  0.51100000000E-03 0.  1.
         12    1    3    3    0    0  0.85572405124E+01  0.11751472703E+02  0.20757206695E+02  0.25341371424E+02  0.00000000000E+00 0. -1.
</event>
<event>
 7    1  0.8300060E-011  0.4778727E+02  0.7816164E-02  0.1312668E+00
        -11   -1    0    0    0    0  0.00000000000E+00  0.00000000000E+00  0.45593999997E+02  0.45594000000E+02  0.51100000000E-03 0. -1.
         11   -1    0    0    0    0 -0.00000000000E+00 -0.00000000000E+00 -0.45593999997E+02  0.45594000000E+02  0.51100000000E-03 0.  1.
    9900012    2    1    2    0    0 -0.41548037905E+01 -0.20174905410E+02  0.38201230306E+02  0.47787271898E+02  0.20000003894E+02 0.  0.
        -12    1    1    2    0    0  0.41548037905E+01  0.20174905410E+02 -0.38201230306E+02  0.43400728102E+02  0.00000000000E+00 0.  1.
         11    1    3    3    0    0  0.50664698785E+01 -0.24563705233E+01  0.42511265056E+01  0.70551364271E+01  0.51100000000E-03 0. -1.
        -11    1    3    3    0    0 -0.10073845264E+02 -0.17720943711E+02  0.34225742955E+02  0.39836110321E+02  0.51100000000E-03 0.  1.
        -12    1    3    3    0    0  0.85257159474E+00  0.24088245793E-02 -0.27563915461E+00  0.89602515040E+00  0.00000000000E+00 0.  1.
</event>
<event>
 7    1  0.8300060E-011  0.4778727E+02  0.7816164E-02  0.1312668E+00
        -11   -1    0    0    0    0  0.00000000000E+00  0.00000000000E+00  0.45593999997E+02  0.45594000000E+02  0.51100000000E-03 0. -1.
         11   -1    0    0    0    0 -0.00000000000E+00 -0.00000000000E+00 -0.45593999997E+02  0.45594000000E+02  0.51100000000E-03 0.  1.
    9900012    2    1    2    0    0  0.18865990963E+02  0.18042671443E+02 -0.34672172507E+02  0.47787272423E+02  0.20000006287E+02 0.  0.
         12    1    1    2    0    0 -0.18865990963E+02 -0.18042671443E+02  0.34672172507E+02  0.43400727577E+02  0.00000000000E+00 0. -1.
         11    1    3    3    0    0  0.16524600240E+02  0.15761378304E+02 -0.33315575679E+02  0.40390729657E+02  0.51100000000E-03 0. -1.
        -11    1    3    3    0    0 -0.18295588199E+01  0.14887275134E+01  0.97564454840E+00  0.25525433651E+01  0.51100000000E-03 0.  1.
         12    1    3    3    0    0  0.41709495427E+01  0.79256562604E+00 -0.23322413761E+01  0.48439994009E+01  0.00000000000E+00 0. -1.
</event>
<event>
 7    1  0.8300060E-011  0.4778727E+02  0.7816164E-02  0.1312668E+00
        -11   -1    0    0    0    0  0.00000000000E+00  0.00000000000E+00  0.45593999997E+02  0.45594000000E+02  0.51100000000E-03 0.  1.
         11   -1    0    0    0    0 -0.00000000000E+00 -0.00000000000E+00 -0.45593999997E+02  0.45594000000E+02  0.51100000000E-03 0. -1.
    9900012    2    1    2    0    0 -0.25917719299E+02  0.31073683904E+02  0.15694628534E+02  0.47787269939E+02  0.19999994958E+02 0.  0.
         12    1    1    2    0    0  0.25917719299E+02 -0.31073683904E+02 -0.15694628534E+02  0.43400730061E+02  0.00000000000E+00 0. -1.
         11    1    3    3    0    0 -0.19917507435E+02  0.18881011205E+02  0.12214006131E+02  0.30039667651E+02  0.51100000000E-03 0. -1.
        -11    1    3    3    0    0 -0.84376010054E+01  0.66776493025E+01  0.44433113608E+01  0.11641611875E+02  0.51100000000E-03 0.  1.
         12    1    3    3    0    0  0.24373891415E+01  0.55150233965E+01 -0.96268895766E+00  0.61059904127E+01  0.00000000000E+00 0. -1.
</event>
<event>
 7    1  0.8300060E-011  0.4778727E+02  0.7816164E-02  0.1312668E+00
        -11   -1    0    0    0    0  0.00000000000E+00  0.00000000000E+00  0.45593999997E+02  0.45594000000E+02  0.51100000000E-03 0. -1.
         11   -1    0    0    0    0 -0.00000000000E+00 -0.00000000000E+00 -0.45593999997E+02  0.45594000000E+02  0.51100000000E-03 0.  1.
    9900012    2    1    2    0    0  0.12025115756E+02  0.31280221925E+02  0.27578390079E+02  0.47787270836E+02  0.19999999048E+02 0.  0.
        -12    1    1    2    0    0 -0.12025115756E+02 -0.31280221925E+02 -0.27578390079E+02  0.43400729164E+02  0.00000000000E+00 0.  1.
         11    1    3    3    0    0  0.39663877958E+01  0.21459427418E+02  0.72657784637E+01  0.23000669429E+02  0.51100000000E-03 0. -1.
        -11    1    3    3    0    0  0.37963253237E+01  0.54770902950E+01  0.15986618890E+02  0.17320005423E+02  0.51100000000E-03 0.  1.
         12    1    3    3    0    0  0.42624026362E+01  0.43437042122E+01  0.43259927259E+01  0.74665959835E+01  0.00000000000E+00 0. -1.
</event>
<event>
 7    1  0.8300060E-011  0.4778727E+02  0.7816164E-02  0.1312668E+00
        -11   -1    0    0    0    0  0.00000000000E+00  0.00000000000E+00  0.45593999997E+02  0.45594000000E+02  0.51100000000E-03 0. -1.
         11   -1    0    0    0    0 -0.00000000000E+00 -0.00000000000E+00 -0.45593999997E+02  0.45594000000E+02  0.51100000000E-03 0.  1.
    9900012    2    1    2    0    0 -0.12504416654E+02 -0.28382851423E+02 -0.30359126674E+02  0.47787271167E+02  0.20000000559E+02 0.  0.
         12    1    1    2    0    0  0.12504416654E+02  0.28382851423E+02  0.30359126674E+02  0.43400728833E+02  0.00000000000E+00 0. -1.
         11    1    3    3    0    0 -0.51155095529E+01 -0.97072135836E+01 -0.15406606585E+02  0.18914596487E+02  0.51100000000E-03 0. -1.
        -11    1    3    3    0    0  0.16891715848E+01 -0.10642460964E+02 -0.16941432989E+01  0.10908042803E+02  0.51100000000E-03 0.  1.
        -12    1    3    3    0    0 -0.90780786862E+01 -0.80331768755E+01 -0.13258376790E+02  0.17964631877E+02  0.00000000000E+00 0.  1.
</event>
<event>
 7    1  0.8300060E-011  0.4778723E+02  0.7816164E-02  0.1312668E+00
        -11   -1    0    0    0    0  0.00000000000E+00  0.00000000000E+00  0.45593999997E+02  0.45594000000E+02  0.51100000000E-03 0. -1.
         11   -1    0    0    0    0 -0.00000000000E+00 -0.00000000000E+00 -0.45593999997E+02  0.45594000000E+02  0.51100000000E-03 0.  1.
    9900012    2    1    2    0    0  0.18504811305E+02  0.23522319249E+02  0.31430864526E+02  0.47787230547E+02  0.19999815355E+02 0.  0.
        -12    1    1    2    0    0 -0.18504811305E+02 -0.23522319249E+02 -0.31430864526E+02  0.43400769453E+02  0.00000000000E+00 0.  1.
         11    1    3    3    0    0  0.14950355826E+02  0.13170935291E+02  0.28630958445E+02  0.34881491618E+02  0.51100000000E-03 0. -1.
        -11    1    3    3    0    0  0.44732997591E+01  0.10024529779E+02  0.36944769445E+01  0.11582347266E+02  0.51100000000E-03 0.  1.
         12    1    3    3    0    0 -0.91884428005E+00  0.32685417911E+00 -0.89457086339E+00  0.13233916635E+01  0.00000000000E+00 0. -1.
</event>
<event>
 7    1  0.8300060E-011  0.4778727E+02  0.7816164E-02  0.1312668E+00
        -11   -1    0    0    0    0  0.00000000000E+00  0.00000000000E+00  0.45593999997E+02  0.45594000000E+02  0.51100000000E-03 0. -1.
         11   -1    0    0    0    0 -0.00000000000E+00 -0.00000000000E+00 -0.45593999997E+02  0.45594000000E+02  0.51100000000E-03 0.  1.
    9900012    2    1    2    0    0 -0.19410414948E+02  0.24092998451E+02 -0.30436594702E+02  0.47787273280E+02  0.20000010192E+02 0.  0.
         12    1    1    2    0    0  0.19410414948E+02 -0.24092998451E+02  0.30436594702E+02  0.43400726720E+02  0.00000000000E+00 0. -1.
         11    1    3    3    0    0 -0.85107060814E+01 -0.47295263447E+00 -0.86950413231E+01  0.12176187666E+02  0.51100000000E-03 0. -1.
        -11    1    3    3    0    0 -0.32904821913E+01  0.17347480514E+02 -0.14737524681E+02  0.22999064920E+02  0.51100000000E-03 0.  1.
         12    1    3    3    0    0 -0.76092266752E+01  0.72184705712E+01 -0.70040286979E+01  0.12612020694E+02  0.00000000000E+00 0. -1.
</event>
<event>
 7    1  0.8300060E-011  0.4778727E+02  0.7816164E-02  0.1312668E+00
        -11   -1    0    0    0    0  0.00000000000E+00  0.00000000000E+00  0.45593999997E+02  0.45594000000E+02  0.51100000000E-03 0. -1.
         11   -1    0    0    0    0 -0.00000000000E+00 -0.00000000000E+00 -0.45593999997E+02  0.45594000000E+02  0.51100000000E-03 0.  1.
    9900012    2    1    2    0    0 -0.27718021093E+02 -0.14775288760E+02  0.29950379572E+02  0.47787273188E+02  0.20000009775E+02 0.  0.
        -12    1    1    2    0    0  0.27718021093E+02  0.14775288760E+02 -0.29950379572E+02  0.43400726812E+02  0.00000000000E+00 0.  1.
         11    1    3    3    0    0 -0.19571677718E+02 -0.42131250938E+01  0.10224080446E+02  0.22479608826E+02  0.51100000000E-03 0. -1.
        -11    1    3    3    0    0  0.86746821560E+00 -0.54969194198E+00  0.59534583574E+01  0.60413846931E+01  0.51100000000E-03 0.  1.
        -12    1    3    3    0    0 -0.90138115903E+01 -0.10012471725E+02  0.13772840769E+02  0.19266279669E+02  0.00000000000E+00 0.  1.
</event>
<event>
 7    1  0.8300060E-011  0.4778727E+02  0.7816164E-02  0.1312668E+00
        -11   -1    0    0    0    0  0.00000000000E+00  0.00000000000E+00  0.45593999997E+02  0.45594000000E+02  0.51100000000E-03 0. -1.
         11   -1    0    0    0    0 -0.00000000000E+00 -0.00000000000E+00 -0.45593999997E+02  0.45594000000E+02  0.51100000000E-03 0.  1.
    9900012    2    1    2    0    0  0.87885728140E+01 -0.20815733671E+02 -0.37055228705E+02  0.47787265505E+02  0.19999974742E+02 0.  0.
         12    1    1    2    0    0 -0.87885728140E+01  0.20815733671E+02  0.37055228705E+02  0.43400734495E+02  0.00000000000E+00 0. -1.
         11    1    3    3    0    0  0.66086241891E+00 -0.48161943924E+01 -0.99479494784E+00  0.49620645715E+01  0.51100000000E-03 0.  1.
        -11    1    3    3    0    0 -0.29767210297E+01 -0.70401332302E+01 -0.66295284354E+01  0.10118052754E+02  0.51100000000E-03 0. -1.
        -12    1    3    3    0    0  0.11104431425E+02 -0.89594060485E+01 -0.29430905321E+02  0.32707148180E+02  0.00000000000E+00 0.  1.
</event>
<event>
 7    1  0.8300060E-011  0.4778727E+02  0.7816164E-02  0.1312668E+00
        -11   -1    0    0    0    0  0.00000000000E+00  0.00000000000E+00  0.45593999997E+02  0.45594000000E+02  0.51100000000E-03 0. -1.
         11   -1    0    0    0    0 -0.00000000000E+00 -0.00000000000E+00 -0.45593999997E+02  0.45594000000E+02  0.51100000000E-03 0.  1.
    9900012    2    1    2    0    0  0.26122516427E+02 -0.23015905191E+02  0.25913423130E+02  0.47787271267E+02  0.20000001014E+02 0.  0.
        -12    1    1    2    0    0 -0.26122516427E+02  0.23015905191E+02 -0.25913423130E+02  0.43400728733E+02  0.00000000000E+00 0.  1.
         11    1    3    3    0    0  0.16652951869E+02 -0.13579544581E+02  0.68919829016E+01  0.22565997996E+02  0.51100000000E-03 0. -1.
        -11    1    3    3    0    0  0.25374347630E+01 -0.80790876345E+01  0.14629061358E+02  0.16903244324E+02  0.51100000000E-03 0.  1.
        -12    1    3    3    0    0  0.69321297951E+01 -0.13572729755E+01  0.43923788703E+01  0.83180289472E+01  0.00000000000E+00 0.  1.
</event>
<event>
 7    1  0.8300060E-011  0.4778727E+02  0.7816164E-02  0.1312668E+00
        -11   -1    0    0    0    0  0.00000000000E+00  0.00000000000E+00  0.45593999997E+02  0.45594000000E+02  0.51100000000E-03 0. -1.
         11   -1    0    0    0    0 -0.00000000000E+00 -0.00000000000E+00 -0.45593999997E+02  0.45594000000E+02  0.51100000000E-03 0.  1.
    9900012    2    1    2    0    0 -0.29894043753E+01 -0.12158265878E+00  0.43297480876E+02  0.47787272229E+02  0.20000005399E+02 0.  0.
        -12    1    1    2    0    0  0.29894043753E+01  0.12158265878E+00 -0.43297480876E+02  0.43400727771E+02  0.00000000000E+00 0.  1.
         11    1    3    3    0    0  0.45612365414E+01 -0.12889336735E+01  0.33523044527E+02  0.33856472696E+02  0.51100000000E-03 0. -1.
        -11    1    3    3    0    0 -0.57776167106E+01  0.36483953305E+01  0.61396409320E+01  0.91862306947E+01  0.51100000000E-03 0.  1.
         12    1    3    3    0    0 -0.17730242061E+01 -0.24810443157E+01  0.36347954176E+01  0.47445688381E+01  0.00000000000E+00 0. -1.
</event>
<event>
 7    1  0.8300060E-011  0.4778727E+02  0.7816164E-02  0.1312668E+00
        -11   -1    0    0    0    0  0.00000000000E+00  0.00000000000E+00  0.45593999997E+02  0.45594000000E+02  0.51100000000E-03 0.  1.
         11   -1    0    0    0    0 -0.00000000000E+00 -0.00000000000E+00 -0.45593999997E+02  0.45594000000E+02  0.51100000000E-03 0. -1.
    9900012    2    1    2    0    0 -0.26400852332E+02 -0.34323532847E+02  0.29177568556E+01  0.47787271711E+02  0.20000003040E+02 0.  0.
        -12    1    1    2    0    0  0.26400852332E+02  0.34323532847E+02 -0.29177568556E+01  0.43400728289E+02  0.00000000000E+00 0.  1.
         11    1    3    3    0    0 -0.91585855374E+01 -0.24269221806E+02  0.57483003302E+00  0.25946199066E+02  0.51100000000E-03 0. -1.
        -11    1    3    3    0    0 -0.42963308479E+01  0.41812789762E-01  0.32673081257E+01  0.53977319046E+01  0.51100000000E-03 0.  1.
         12    1    3    3    0    0 -0.12945935946E+02 -0.10096123831E+02 -0.92438130309E+00  0.16443340741E+02  0.00000000000E+00 0. -1.
</event>
<event>
 7    1  0.8568762E-011  0.4778727E+02  0.7816164E-02  0.1312668E+00
        -11   -1    0    0    0    0  0.00000000000E+00  0.00000000000E+00  0.45593999997E+02  0.45594000000E+02  0.51100000000E-03 0. -1.
         11   -1    0    0    0    0 -0.00000000000E+00 -0.00000000000E+00 -0.45593999997E+02  0.45594000000E+02  0.51100000000E-03 0.  1.
    9900012    2    1    2    0    0 -0.26283999966E+01  0.33543836630E+02 -0.27413968458E+02  0.47787272713E+02  0.20000007610E+02 0.  0.
         12    1    1    2    0    0  0.26283999966E+01 -0.33543836630E+02  0.27413968458E+02  0.43400727287E+02  0.00000000000E+00 0. -1.
         11    1    3    3    0    0 -0.64108306061E+00 -0.20682307306E+01 -0.31061516893E+01  0.37863893651E+01  0.51100000000E-03 0. -1.
        -11    1    3    3    0    0  0.17035993078E+01  0.21775724149E+02 -0.18206102297E+02  0.28434953383E+02  0.51100000000E-03 0.  1.
         12    1    3    3    0    0 -0.36909162437E+01  0.13836343211E+02 -0.61017144722E+01  0.15565929965E+02  0.00000000000E+00 0. -1.
</event>
<event>
 7    1  0.8300060E-011  0.4778727E+02  0.7816164E-02  0.1312668E+00
        -11   -1    0    0    0    0  0.00000000000E+00  0.00000000000E+00  0.45593999997E+02  0.45594000000E+02  0.51100000000E-03 0. -1.
         11   -1    0    0    0    0 -0.00000000000E+00 -0.00000000000E+00 -0.45593999997E+02  0.45594000000E+02  0.51100000000E-03 0.  1.
    9900012    2    1    2    0    0 -0.70949378541E+01  0.16022976380E+02 -0.39705784515E+02  0.47787271444E+02  0.20000001822E+02 0.  0.
         12    1    1    2    0    0  0.70949378541E+01 -0.16022976380E+02  0.39705784515E+02  0.43400728556E+02  0.00000000000E+00 0. -1.
         11    1    3    3    0    0 -0.57992361455E+01  0.10819429142E+02 -0.39396668364E+02  0.41264859932E+02  0.51100000000E-03 0. -1.
        -11    1    3    3    0    0  0.77317798462E+00  0.34571388405E+01 -0.10867936352E+01  0.37055004824E+01  0.51100000000E-03 0.  1.
         12    1    3    3    0    0 -0.20688796933E+01  0.17464083982E+01  0.77767748366E+00  0.28169110293E+01  0.00000000000E+00 0. -1.
</event>
<event>
 7    1  0.8300060E-011  0.4778727E+02  0.7816164E-02  0.1312668E+00
        -11   -1    0    0    0    0  0.00000000000E+00  0.00000000000E+00  0.45593999997E+02  0.45594000000E+02  0.51100000000E-03 0. -1.
         11   -1    0    0    0    0 -0.00000000000E+00 -0.00000000000E+00 -0.45593999997E+02  0.45594000000E+02  0.51100000000E-03 0.  1.
    9900012    2    1    2    0    0  0.35158269094E+02  0.18558884953E+02 -0.17409403163E+02  0.47787269420E+02  0.19999992592E+02 0.  0.
         12    1    1    2    0    0 -0.35158269094E+02 -0.18558884953E+02  0.17409403163E+02  0.43400730580E+02  0.00000000000E+00 0. -1.
         11    1    3    3    0    0  0.14145586631E+02  0.16323046817E+02 -0.47783952409E+01  0.22121766201E+02  0.51100000000E-03 0. -1.
        -11    1    3    3    0    0  0.17131179689E+02  0.45506296475E+01 -0.10998762072E+02  0.20860448583E+02  0.51100000000E-03 0.  1.
         12    1    3    3    0    0  0.38815027750E+01 -0.23147915115E+01 -0.16322458498E+01  0.48050546353E+01  0.00000000000E+00 0. -1.
</event>
<event>
 7    1  0.8300060E-011  0.4778727E+02  0.7816164E-02  0.1312668E+00
        -11   -1    0    0    0    0  0.00000000000E+00  0.00000000000E+00  0.45593999997E+02  0.45594000000E+02  0.51100000000E-03 0. -1.
         11   -1    0    0    0    0 -0.00000000000E+00 -0.00000000000E+00 -0.45593999997E+02  0.45594000000E+02  0.51100000000E-03 0.  1.
    9900012    2    1    2    0    0 -0.90352719992E+00  0.65926139214E+01 -0.42887577288E+02  0.47787271834E+02  0.20000003600E+02 0.  0.
         12    1    1    2    0    0  0.90352719992E+00 -0.65926139214E+01  0.42887577288E+02  0.43400728166E+02  0.00000000000E+00 0. -1.
         11    1    3    3    0    0  0.87979811929E+01  0.28045631270E+01 -0.26483744628E+02  0.28047437979E+02  0.51100000000E-03 0. -1.
        -11    1    3    3    0    0 -0.79965056722E+01  0.16196174847E+01 -0.11290750017E+02  0.13930122037E+02  0.51100000000E-03 0.  1.
         12    1    3    3    0    0 -0.17050027207E+01  0.21684333097E+01 -0.51130826429E+01  0.58097118181E+01  0.00000000000E+00 0. -1.
</event>
<event>
 7    1  0.9396795E-011  0.4778727E+02  0.7816164E-02  0.1312668E+00
        -11   -1    0    0    0    0  0.00000000000E+00  0.00000000000E+00  0.45593999997E+02  0.45594000000E+02  0.51100000000E-03 0. -1.
         11   -1    0    0    0    0 -0.00000000000E+00 -0.00000000000E+00 -0.45593999997E+02  0.45594000000E+02  0.51100000000E-03 0.  1.
    9900012    2    1    2    0    0  0.38271977442E+02  0.22466369521E+01 -0.20342847259E+02  0.47787273399E+02  0.20000010733E+02 0.  0.
         12    1    1    2    0    0 -0.38271977442E+02 -0.22466369521E+01  0.20342847259E+02  0.43400726601E+02  0.00000000000E+00 0. -1.
         11    1    3    3    0    0 -0.80526789582E+00 -0.10164203767E+00 -0.65434469248E+00  0.10425712089E+01  0.51100000000E-03 0. -1.
        -11    1    3    3    0    0  0.14138224451E+02 -0.69448918727E+01 -0.81737810754E+01  0.17746312605E+02  0.51100000000E-03 0.  1.
        -12    1    3    3    0    0  0.24939020887E+02  0.92931708625E+01 -0.11514721491E+02  0.28998389585E+02  0.00000000000E+00 0.  1.
</event>
<event>
 7    1  0.8300060E-011  0.4778727E+02  0.7816164E-02  0.1312668E+00
        -11   -1    0    0    0    0  0.00000000000E+00  0.00000000000E+00  0.45593999997E+02  0.45594000000E+02  0.51100000000E-03 0.  1.
         11   -1    0    0    0    0 -0.00000000000E+00 -0.00000000000E+00 -0.45593999997E+02  0.45594000000E+02  0.51100000000E-03 0. -1.
    9900012    2    1    2    0    0  0.39844439835E+02 -0.12291434138E+02 -0.12040126463E+02  0.47787269774E+02  0.19999994208E+02 0.  0.
         12    1    1    2    0    0 -0.39844439835E+02  0.12291434138E+02  0.12040126463E+02  0.43400730226E+02  0.00000000000E+00 0. -1.
         11    1    3    3    0    0  0.14492678334E+02 -0.45954179044E+01 -0.57601582509E+01  0.16258382895E+02  0.51100000000E-03 0. -1.
        -11    1    3    3    0    0  0.11113184005E+02 -0.11511971327E+02 -0.48441295702E+01  0.16718072082E+02  0.51100000000E-03 0.  1.
        -12    1    3    3    0    0  0.14238577495E+02  0.38159550939E+01 -0.14358386418E+01  0.14810814798E+02  0.00000000000E+00 0.  1.
</event>
<event>
 7    1  0.8300060E-011  0.4778727E+02  0.7816164E-02  0.1312668E+00
        -11   -1    0    0    0    0  0.00000000000E+00  0.00000000000E+00  0.45593999997E+02  0.45594000000E+02  0.51100000000E-03 0. -1.
         11   -1    0    0    0    0 -0.00000000000E+00 -0.00000000000E+00 -0.45593999997E+02  0.45594000000E+02  0.51100000000E-03 0.  1.
    9900012    2    1    2    0    0  0.29967539307E+02 -0.22981571489E+02 -0.21387311646E+02  0.47787272591E+02  0.20000007051E+02 0.  0.
         12    1    1    2    0    0 -0.29967539307E+02  0.22981571489E+02  0.21387311646E+02  0.43400727409E+02  0.00000000000E+00 0. -1.
         11    1    3    3    0    0  0.18139879473E+02 -0.68784736200E+01 -0.40286425608E+01  0.19814100731E+02  0.51100000000E-03 0. -1.
        -11    1    3    3    0    0  0.94889568645E+01 -0.57852102416E+01 -0.10962105345E+02  0.15610147782E+02  0.51100000000E-03 0.  1.
         12    1    3    3    0    0  0.23387029689E+01 -0.10317887627E+02 -0.63965637404E+01  0.12363024078E+02  0.00000000000E+00 0. -1.
</event>
<event>
 7    1  0.8300060E-011  0.4778727E+02  0.7816164E-02  0.1312668E+00
        -11   -1    0    0    0    0  0.00000000000E+00  0.00000000000E+00  0.45593999997E+02  0.45594000000E+02  0.51100000000E-03 0. -1.
         11   -1    0    0    0    0 -0.00000000000E+00 -0.00000000000E+00 -0.45593999997E+02  0.45594000000E+02  0.51100000000E-03 0.  1.
    9900012    2    1    2    0    0  0.20420165789E+02  0.83617246862E+01 -0.37372737244E+02  0.47787273051E+02  0.20000009151E+02 0.  0.
         12    1    1    2    0    0 -0.20420165789E+02 -0.83617246862E+01  0.37372737244E+02  0.43400726949E+02  0.00000000000E+00 0. -1.
         11    1    3    3    0    0  0.13172641241E+02  0.34544301418E+01 -0.12715181898E+02  0.18631355716E+02  0.51100000000E-03 0. -1.
        -11    1    3    3    0    0 -0.53274748057E+00  0.72965761086E+01 -0.13359872238E+02  0.15231875435E+02  0.51100000000E-03 0.  1.
        -12    1    3    3    0    0  0.77802720287E+01 -0.23892815642E+01 -0.11297683108E+02  0.13924041900E+02  0.00000000000E+00 0.  1.
</event>
<event>
 7    1  0.8300060E-011  0.4778727E+02  0.7816164E-02  0.1312668E+00
        -11   -1    0    0    0    0  0.00000000000E+00  0.00000000000E+00  0.45593999997E+02  0.45594000000E+02  0.51100000000E-03 0. -1.
         11   -1    0    0    0    0 -0.00000000000E+00 -0.00000000000E+00 -0.45593999997E+02  0.45594000000E+02  0.51100000000E-03 0.  1.
    9900012    2    1    2    0    0 -0.24261875723E+02  0.17185593923E+02 -0.31617091434E+02  0.47787265872E+02  0.19999976418E+02 0.  0.
         12    1    1    2    0    0  0.24261875723E+02 -0.17185593923E+02  0.31617091434E+02  0.43400734128E+02  0.00000000000E+00 0. -1.
         11    1    3    3    0    0 -0.19487181001E+02  0.10910626822E+02 -0.20714577474E+02  0.30461216673E+02  0.51100000000E-03 0. -1.
        -11    1    3    3    0    0 -0.74185531281E+01  0.70569197237E+01 -0.64884186465E+01  0.12121659263E+02  0.51100000000E-03 0.  1.
         12    1    3    3    0    0  0.26438584057E+01 -0.78195262223E+00 -0.44140953130E+01  0.52043899359E+01  0.00000000000E+00 0. -1.
</event>
<event>
 7    1  0.8300060E-011  0.4778727E+02  0.7816164E-02  0.1312668E+00
        -11   -1    0    0    0    0  0.00000000000E+00  0.00000000000E+00  0.45593999997E+02  0.45594000000E+02  0.51100000000E-03 0. -1.
         11   -1    0    0    0    0 -0.00000000000E+00 -0.00000000000E+00 -0.45593999997E+02  0.45594000000E+02  0.51100000000E-03 0.  1.
    9900012    2    1    2    0    0 -0.11218544186E+02 -0.11877790678E+02  0.40208028480E+02  0.47787271903E+02  0.20000003916E+02 0.  0.
        -12    1    1    2    0    0  0.11218544186E+02  0.11877790678E+02 -0.40208028480E+02  0.43400728097E+02  0.00000000000E+00 0.  1.
         11    1    3    3    0    0 -0.95107810806E+01 -0.13364210103E+02  0.16912228983E+02  0.23560147663E+02  0.51100000000E-03 0. -1.
        -11    1    3    3    0    0  0.53970440865E+00  0.29831912505E+01  0.60062502002E+01  0.67279828042E+01  0.51100000000E-03 0.  1.
         12    1    3    3    0    0 -0.22474675142E+01 -0.14967718254E+01  0.17289549297E+02  0.17499141437E+02  0.00000000000E+00 0. -1.
</event>
<event>
 7    1  0.8300060E-011  0.4778727E+02  0.7816164E-02  0.1312668E+00
        -11   -1    0    0    0    0  0.00000000000E+00  0.00000000000E+00  0.45593999997E+02  0.45594000000E+02  0.51100000000E-03 0. -1.
         11   -1    0    0    0    0 -0.00000000000E+00 -0.00000000000E+00 -0.45593999997E+02  0.45594000000E+02  0.51100000000E-03 0.  1.
    9900012    2    1    2    0    0  0.30817191548E+01 -0.10664337982E+02 -0.41957100562E+02  0.47787269763E+02  0.19999994158E+02 0.  0.
         12    1    1    2    0    0 -0.30817191548E+01  0.10664337982E+02  0.41957100562E+02  0.43400730237E+02  0.00000000000E+00 0. -1.
         11    1    3    3    0    0 -0.23337515761E+01 -0.12716545895E+02 -0.22715897884E+02  0.26137500891E+02  0.51100000000E-03 0. -1.
        -11    1    3    3    0    0 -0.49574226632E+00  0.20451990700E+01 -0.12534118778E+02  0.12709552842E+02  0.51100000000E-03 0.  1.
         12    1    3    3    0    0  0.59112129972E+01  0.70088429923E-02 -0.67070838994E+01  0.89402160296E+01  0.00000000000E+00 0. -1.
</event>
<event>
 7    1  0.8300060E-011  0.4778726E+02  0.7816164E-02  0.1312668E+00
        -11   -1    0    0    0    0  0.00000000000E+00  0.00000000000E+00  0.45593999997E+02  0.45594000000E+02  0.51100000000E-03 0. -1.
         11   -1    0    0    0    0 -0.00000000000E+00 -0.00000000000E+00 -0.45593999997E+02  0.45594000000E+02  0.51100000000E-03 0.  1.
    9900012    2    1    2    0    0 -0.12624523251E+02  0.30767385884E+02 -0.27885725312E+02  0.47787259250E+02  0.19999946226E+02 0.  0.
         12    1    1    2    0    0  0.12624523251E+02 -0.30767385884E+02  0.27885725312E+02  0.43400740750E+02  0.00000000000E+00 0. -1.
         11    1    3    3    0    0 -0.96958067315E+01  0.13497677828E+02 -0.42820613853E+01  0.17161935348E+02  0.51100000000E-03 0.  1.
        -11    1    3    3    0    0 -0.90541575786E+00  0.35884668970E+00 -0.61947094121E+01  0.62708032662E+01  0.51100000000E-03 0. -1.
         12    1    3    3    0    0 -0.20233007617E+01  0.16910861366E+02 -0.17408954515E+02  0.24354520636E+02  0.00000000000E+00 0. -1.
</event>
<event>
 7    1  0.8300060E-011  0.4778727E+02  0.7816164E-02  0.1312668E+00
        -11   -1    0    0    0    0  0.00000000000E+00  0.00000000000E+00  0.45593999997E+02  0.45594000000E+02  0.51100000000E-03 0. -1.
         11   -1    0    0    0    0 -0.00000000000E+00 -0.00000000000E+00 -0.45593999997E+02  0.45594000000E+02  0.51100000000E-03 0.  1.
    9900012    2    1    2    0    0 -0.17539085212E+02  0.89171104377E+01  0.38684482444E+02  0.47787267857E+02  0.19999985466E+02 0.  0.
        -12    1    1    2    0    0  0.17539085212E+02 -0.89171104377E+01 -0.38684482444E+02  0.43400732143E+02  0.00000000000E+00 0.  1.
         11    1    3    3    0    0 -0.39916879405E+01  0.64549367421E+01  0.26990493261E+02  0.28037234309E+02  0.51100000000E-03 0. -1.
        -11    1    3    3    0    0 -0.67713047132E+01 -0.10104629739E+01  0.14700279780E+01  0.70023271459E+01  0.51100000000E-03 0.  1.
        -12    1    3    3    0    0 -0.67760925582E+01  0.34726366694E+01  0.10223961205E+02  0.12747706402E+02  0.00000000000E+00 0.  1.
</event>
<event>
 7    1  0.8300060E-011  0.4778727E+02  0.7816164E-02  0.1312668E+00
        -11   -1    0    0    0    0  0.00000000000E+00  0.00000000000E+00  0.45593999997E+02  0.45594000000E+02  0.51100000000E-03 0. -1.
         11   -1    0    0    0    0 -0.00000000000E+00 -0.00000000000E+00 -0.45593999997E+02  0.45594000000E+02  0.51100000000E-03 0.  1.
    9900012    2    1    2    0    0 -0.13090559683E+01  0.64753779377E+01  0.42894974646E+02  0.47787274236E+02  0.20000014549E+02 0.  0.
        -12    1    1    2    0    0  0.13090559683E+01 -0.64753779377E+01 -0.42894974646E+02  0.43400725764E+02  0.00000000000E+00 0.  1.
         11    1    3    3    0    0 -0.59853184849E+01 -0.40822095668E+01  0.95782957316E+01  0.12009672006E+02  0.51100000000E-03 0. -1.
        -11    1    3    3    0    0 -0.11698591339E+01  0.71433958765E+00  0.19224322267E+01  0.23610585268E+01  0.51100000000E-03 0.  1.
         12    1    3    3    0    0  0.58461216505E+01  0.98432479168E+01  0.31394246688E+02  0.33416543702E+02  0.00000000000E+00 0. -1.
</event>
<event>
 7    1  0.8300060E-011  0.4778726E+02  0.7816164E-02  0.1312668E+00
        -11   -1    0    0    0    0  0.00000000000E+00  0.00000000000E+00  0.45593999997E+02  0.45594000000E+02  0.51100000000E-03 0. -1.
         11   -1    0    0    0    0 -0.00000000000E+00 -0.00000000000E+00 -0.45593999997E+02  0.45594000000E+02  0.51100000000E-03 0.  1.
    9900012    2    1    2    0    0 -0.20640359582E+02  0.20471509233E+02 -0.32226025332E+02  0.47787264492E+02  0.19999970124E+02 0.  0.
         12    1    1    2    0    0  0.20640359582E+02 -0.20471509233E+02  0.32226025332E+02  0.43400735508E+02  0.00000000000E+00 0. -1.
         11    1    3    3    0    0 -0.66766960073E+00 -0.37440905762E+00  0.39159623093E+00  0.85983295317E+00  0.51100000000E-03 0. -1.
        -11    1    3    3    0    0 -0.99329028149E+01  0.16059141289E+02 -0.92045182529E+01  0.21006706876E+02  0.51100000000E-03 0.  1.
        -12    1    3    3    0    0 -0.10039787166E+02  0.47867770016E+01 -0.23413103310E+02  0.25920724662E+02  0.00000000000E+00 0.  1.
</event>
<event>
 7    1  0.8300060E-011  0.4778729E+02  0.7816164E-02  0.1312668E+00
        -11   -1    0    0    0    0  0.00000000000E+00  0.00000000000E+00  0.45593999997E+02  0.45594000000E+02  0.51100000000E-03 0. -1.
         11   -1    0    0    0    0 -0.00000000000E+00 -0.00000000000E+00 -0.45593999997E+02  0.45594000000E+02  0.51100000000E-03 0.  1.
    9900012    2    1    2    0    0 -0.23047923922E+02 -0.13969542932E+02  0.34018623910E+02  0.47787289181E+02  0.20000082692E+02 0.  0.
        -12    1    1    2    0    0  0.23047923922E+02  0.13969542932E+02 -0.34018623910E+02  0.43400710819E+02  0.00000000000E+00 0.  1.
         11    1    3    3    0    0 -0.13508999377E+02 -0.39352003695E+01  0.28921756663E+02  0.32162818205E+02  0.51100000000E-03 0. -1.
        -11    1    3    3    0    0 -0.24583171716E+01 -0.45984252067E+01 -0.24777234549E+00  0.52201751976E+01  0.51100000000E-03 0.  1.
         12    1    3    3    0    0 -0.70806073739E+01 -0.54359173562E+01  0.53446395920E+01  0.10404295779E+02  0.00000000000E+00 0. -1.
</event>
<event>
 7    1  0.8300060E-011  0.4778728E+02  0.7816164E-02  0.1312668E+00
        -11   -1    0    0    0    0  0.00000000000E+00  0.00000000000E+00  0.45593999997E+02  0.45594000000E+02  0.51100000000E-03 0. -1.
         11   -1    0    0    0    0 -0.00000000000E+00 -0.00000000000E+00 -0.45593999997E+02  0.45594000000E+02  0.51100000000E-03 0.  1.
    9900012    2    1    2    0    0 -0.69152551496E+01 -0.20912534660E+02  0.37396089419E+02  0.47787281532E+02  0.20000047818E+02 0.  0.
        -12    1    1    2    0    0  0.69152551496E+01  0.20912534660E+02 -0.37396089419E+02  0.43400718468E+02  0.00000000000E+00 0.  1.
         11    1    3    3    0    0 -0.60473433072E+01 -0.39929705418E+01  0.34838668612E+01  0.80406158589E+01  0.51100000000E-03 0. -1.
        -11    1    3    3    0    0 -0.57918836266E+00 -0.50879137233E+01  0.23281688833E+02  0.23838191215E+02  0.51100000000E-03 0.  1.
        -12    1    3    3    0    0 -0.28872347974E+00 -0.11831650395E+02  0.10630533724E+02  0.15908474458E+02  0.00000000000E+00 0.  1.
</event>
<event>
 7    1  0.8300060E-011  0.4778727E+02  0.7816164E-02  0.1312668E+00
        -11   -1    0    0    0    0  0.00000000000E+00  0.00000000000E+00  0.45593999997E+02  0.45594000000E+02  0.51100000000E-03 0. -1.
         11   -1    0    0    0    0 -0.00000000000E+00 -0.00000000000E+00 -0.45593999997E+02  0.45594000000E+02  0.51100000000E-03 0.  1.
    9900012    2    1    2    0    0 -0.84908446596E+01  0.31820124129E+02 -0.28266733096E+02  0.47787274861E+02  0.20000017403E+02 0.  0.
         12    1    1    2    0    0  0.84908446596E+01 -0.31820124129E+02  0.28266733096E+02  0.43400725139E+02  0.00000000000E+00 0. -1.
         11    1    3    3    0    0  0.18209956442E+01  0.24839849023E+01 -0.33914354190E+01  0.45812706309E+01  0.51100000000E-03 0. -1.
        -11    1    3    3    0    0 -0.68516340386E+00  0.15395334446E+01  0.25048907200E+01  0.30189551002E+01  0.51100000000E-03 0.  1.
        -12    1    3    3    0    0 -0.96266768999E+01  0.27796605782E+02 -0.27380188397E+02  0.40187049130E+02  0.00000000000E+00 0.  1.
</event>
<event>
 7    1  0.8300060E-011  0.4778727E+02  0.7816164E-02  0.1312668E+00
        -11   -1    0    0    0    0  0.00000000000E+00  0.00000000000E+00  0.45593999997E+02  0.45594000000E+02  0.51100000000E-03 0. -1.
         11   -1    0    0    0    0 -0.00000000000E+00 -0.00000000000E+00 -0.45593999997E+02  0.45594000000E+02  0.51100000000E-03 0.  1.
    9900012    2    1    2    0    0 -0.94330192919E+01 -0.31268424436E+02  0.28581934963E+02  0.47787271597E+02  0.20000002520E+02 0.  0.
        -12    1    1    2    0    0  0.94330192919E+01  0.31268424436E+02 -0.28581934963E+02  0.43400728403E+02  0.00000000000E+00 0.  1.
         11    1    3    3    0    0  0.92845561051E-01 -0.17434857407E+01  0.89589897852E+01  0.91275331311E+01  0.51100000000E-03 0.  1.
        -11    1    3    3    0    0 -0.24850192799E+01 -0.26729463949E+01  0.75549185161E+01  0.83902775459E+01  0.51100000000E-03 0. -1.
        -12    1    3    3    0    0 -0.70408455731E+01 -0.26851992300E+02  0.12068026662E+02  0.30269460920E+02  0.00000000000E+00 0.  1.
</event>
<event>
 7    1  0.8300060E-011  0.4778727E+02  0.7816164E-02  0.1312668E+00
        -11   -1    0    0    0    0  0.00000000000E+00  0.00000000000E+00  0.45593999997E+02  0.45594000000E+02  0.51100000000E-03 0.  1.
         11   -1    0    0    0    0 -0.00000000000E+00 -0.00000000000E+00 -0.45593999997E+02  0.45594000000E+02  0.51100000000E-03 0. -1.
    9900012    2    1    2    0    0  0.38001809960E+01 -0.43197811106E+02 -0.17694595518E+01  0.47787271354E+02  0.20000001409E+02 0.  0.
         12    1    1    2    0    0 -0.38001809960E+01  0.43197811106E+02  0.17694595518E+01  0.43400728646E+02  0.00000000000E+00 0. -1.
         11    1    3    3    0    0 -0.25433280131E+01 -0.71735825044E+01  0.19772708424E+01  0.78637397957E+01  0.51100000000E-03 0. -1.
        -11    1    3    3    0    0 -0.28094155848E+01 -0.17352262986E+02 -0.69139235598E+01  0.18889049365E+02  0.51100000000E-03 0.  1.
        -12    1    3    3    0    0  0.91529245939E+01 -0.18671965615E+02  0.31671931657E+01  0.21034482193E+02  0.00000000000E+00 0.  1.
</event>
<event>
 7    1 -0.2485926E-010  0.4778727E+02  0.7816164E-02  0.1312668E+00
        -11   -1    0    0    0    0  0.00000000000E+00  0.00000000000E+00  0.45593999997E+02  0.45594000000E+02  0.51100000000E-03 0.  1.
         11   -1    0    0    0    0 -0.00000000000E+00 -0.00000000000E+00 -0.45593999997E+02  0.45594000000E+02  0.51100000000E-03 0. -1.
    9900012    2    1    2    0    0  0.13521885360E+02  0.40469634694E+02  0.79366669811E+01  0.47787269606E+02  0.19999993441E+02 0.  0.
        -12    1    1    2    0    0 -0.13521885360E+02 -0.40469634694E+02 -0.79366669811E+01  0.43400730394E+02  0.00000000000E+00 0.  1.
         11    1    3    3    0    0  0.16432719977E+01  0.25207369703E+02  0.79427083810E+01  0.26480151942E+02  0.51100000000E-03 0. -1.
        -11    1    3    3    0    0  0.15094487105E+01 -0.71734644040E+00  0.14361339589E+01  0.22035204411E+01  0.51100000000E-03 0.  1.
         12    1    3    3    0    0  0.10369164652E+02  0.15979611432E+02 -0.14421753587E+01  0.19103597223E+02  0.00000000000E+00 0. -1.
</event>
<event>
 7    1  0.8300060E-011  0.4778728E+02  0.7816164E-02  0.1312668E+00
        -11   -1    0    0    0    0  0.00000000000E+00  0.00000000000E+00  0.45593999997E+02  0.45594000000E+02  0.51100000000E-03 0. -1.
         11   -1    0    0    0    0 -0.00000000000E+00 -0.00000000000E+00 -0.45593999997E+02  0.45594000000E+02  0.51100000000E-03 0.  1.
    9900012    2    1    2    0    0  0.10410741317E+02 -0.21103266787E+02  0.36467675018E+02  0.47787277366E+02  0.20000028825E+02 0.  0.
        -12    1    1    2    0    0 -0.10410741317E+02  0.21103266787E+02 -0.36467675018E+02  0.43400722634E+02  0.00000000000E+00 0.  1.
         11    1    3    3    0    0  0.75367471206E+01 -0.17530475189E+02  0.24309596854E+02  0.30904313889E+02  0.51100000000E-03 0. -1.
        -11    1    3    3    0    0  0.39459167791E+01  0.26856036253E+01  0.26783290736E+01  0.54732232685E+01  0.51100000000E-03 0.  1.
         12    1    3    3    0    0 -0.10719225828E+01 -0.62583952237E+01  0.94797490908E+01  0.11409740208E+02  0.00000000000E+00 0. -1.
</event>
<event>
 7    1  0.8300060E-011  0.4778727E+02  0.7816164E-02  0.1312668E+00
        -11   -1    0    0    0    0  0.00000000000E+00  0.00000000000E+00  0.45593999997E+02  0.45594000000E+02  0.51100000000E-03 0. -1.
         11   -1    0    0    0    0 -0.00000000000E+00 -0.00000000000E+00 -0.45593999997E+02  0.45594000000E+02  0.51100000000E-03 0.  1.
    9900012    2    1    2    0    0  0.41361254528E+02 -0.47152776444E+01 -0.12273386355E+02  0.47787271527E+02  0.20000002200E+02 0.  0.
         12    1    1    2    0    0 -0.41361254528E+02  0.47152776444E+01  0.12273386355E+02  0.43400728473E+02  0.00000000000E+00 0. -1.
         11    1    3    3    0    0  0.69932232329E+01  0.41361946630E+01  0.10218319699E+01  0.81888594023E+01  0.51100000000E-03 0. -1.
        -11    1    3    3    0    0  0.23269149483E+02 -0.10381464792E+02 -0.12460357861E+02  0.28363509078E+02  0.51100000000E-03 0.  1.
         12    1    3    3    0    0  0.11098881812E+02  0.15299924850E+01 -0.83486046328E+00  0.11234903047E+02  0.00000000000E+00 0. -1.
</event>
<event>
 7    1  0.8300060E-011  0.4778728E+02  0.7816164E-02  0.1312668E+00
        -11   -1    0    0    0    0  0.00000000000E+00  0.00000000000E+00  0.45593999997E+02  0.45594000000E+02  0.51100000000E-03 0. -1.
         11   -1    0    0    0    0 -0.00000000000E+00 -0.00000000000E+00 -0.45593999997E+02  0.45594000000E+02  0.51100000000E-03 0.  1.
    9900012    2    1    2    0    0  0.38503594033E+02 -0.14106317649E+02  0.14216465888E+02  0.47787275888E+02  0.20000022084E+02 0.  0.
        -12    1    1    2    0    0 -0.38503594033E+02  0.14106317649E+02 -0.14216465888E+02  0.43400724112E+02  0.00000000000E+00 0.  1.
         11    1    3    3    0    0  0.91867837807E+01  0.38072441557E+01  0.34715762621E+01  0.10532993226E+02  0.51100000000E-03 0. -1.
        -11    1    3    3    0    0  0.12720443075E+02 -0.11579015045E+02  0.89756951325E+01  0.19402225770E+02  0.51100000000E-03 0.  1.
         12    1    3    3    0    0  0.16596367177E+02 -0.63345467590E+01  0.17691944936E+01  0.17852056892E+02  0.00000000000E+00 0. -1.
</event>
<event>
 7    1  0.8300060E-011  0.4778727E+02  0.7816164E-02  0.1312668E+00
        -11   -1    0    0    0    0  0.00000000000E+00  0.00000000000E+00  0.45593999997E+02  0.45594000000E+02  0.51100000000E-03 0. -1.
         11   -1    0    0    0    0 -0.00000000000E+00 -0.00000000000E+00 -0.45593999997E+02  0.45594000000E+02  0.51100000000E-03 0.  1.
    9900012    2    1    2    0    0 -0.33553129418E+02 -0.20124790567E+02  0.18783058727E+02  0.47787274381E+02  0.20000015214E+02 0.  0.
        -12    1    1    2    0    0  0.33553129418E+02  0.20124790567E+02 -0.18783058727E+02  0.43400725619E+02  0.00000000000E+00 0.  1.
         11    1    3    3    0    0 -0.10204638629E+02 -0.14021567812E+02  0.30562349112E+01  0.17609076795E+02  0.51100000000E-03 0. -1.
        -11    1    3    3    0    0 -0.13383333915E+02 -0.63613521167E+00  0.12593521493E+02  0.18387905768E+02  0.51100000000E-03 0.  1.
        -12    1    3    3    0    0 -0.99651568730E+01 -0.54670875436E+01  0.31333023231E+01  0.11790291818E+02  0.00000000000E+00 0.  1.
</event>
<event>
 7    1  0.8300060E-011  0.4778727E+02  0.7816164E-02  0.1312668E+00
        -11   -1    0    0    0    0  0.00000000000E+00  0.00000000000E+00  0.45593999997E+02  0.45594000000E+02  0.51100000000E-03 0. -1.
         11   -1    0    0    0    0 -0.00000000000E+00 -0.00000000000E+00 -0.45593999997E+02  0.45594000000E+02  0.51100000000E-03 0.  1.
    9900012    2    1    2    0    0  0.27774852485E+02  0.57258082399E+01  0.32854165084E+02  0.47787268740E+02  0.19999989494E+02 0.  0.
        -12    1    1    2    0    0 -0.27774852485E+02 -0.57258082399E+01 -0.32854165084E+02  0.43400731260E+02  0.00000000000E+00 0.  1.
         11    1    3    3    0    0  0.87080683010E+01  0.68464073974E+01  0.37857838643E+01  0.11706233703E+02  0.51100000000E-03 0.  1.
        -11    1    3    3    0    0  0.11752991748E+02  0.27447053713E+01  0.22443464457E+02  0.25482843634E+02  0.51100000000E-03 0. -1.
         12    1    3    3    0    0  0.73137924360E+01 -0.38653045288E+01  0.66249167626E+01  0.10598191403E+02  0.00000000000E+00 0. -1.
</event>
<event>
 7    1  0.8300060E-011  0.4778727E+02  0.7816164E-02  0.1312668E+00
        -11   -1    0    0    0    0  0.00000000000E+00  0.00000000000E+00  0.45593999997E+02  0.45594000000E+02  0.51100000000E-03 0. -1.
         11   -1    0    0    0    0 -0.00000000000E+00 -0.00000000000E+00 -0.45593999997E+02  0.45594000000E+02  0.51100000000E-03 0.  1.
    9900012    2    1    2    0    0  0.86981193470E+01  0.35093078501E+02 -0.24009204221E+02  0.47787270442E+02  0.19999997253E+02 0.  0.
         12    1    1    2    0    0 -0.86981193470E+01 -0.35093078501E+02  0.24009204221E+02  0.43400729558E+02  0.00000000000E+00 0. -1.
         11    1    3    3    0    0 -0.36615690308E+01  0.80991372482E+01 -0.15190603583E+01  0.90172421819E+01  0.51100000000E-03 0. -1.
        -11    1    3    3    0    0  0.80203965683E+01  0.25834347881E+02 -0.18603580383E+02  0.32830374577E+02  0.51100000000E-03 0.  1.
        -12    1    3    3    0    0  0.43392918094E+01  0.11595933721E+01 -0.38865634793E+01  0.59396536831E+01  0.00000000000E+00 0.  1.
</event>
<event>
 7    1  0.8300060E-011  0.4778727E+02  0.7816164E-02  0.1312668E+00
        -11   -1    0    0    0    0  0.00000000000E+00  0.00000000000E+00  0.45593999997E+02  0.45594000000E+02  0.51100000000E-03 0.  1.
         11   -1    0    0    0    0 -0.00000000000E+00 -0.00000000000E+00 -0.45593999997E+02  0.45594000000E+02  0.51100000000E-03 0. -1.
    9900012    2    1    2    0    0  0.13023094792E+02 -0.40588271827E+02  0.81617682259E+01  0.47787271107E+02  0.20000000287E+02 0.  0.
        -12    1    1    2    0    0 -0.13023094792E+02  0.40588271827E+02 -0.81617682259E+01  0.43400728893E+02  0.00000000000E+00 0.  1.
         11    1    3    3    0    0 -0.28535949036E+01 -0.69265594501E+00  0.12100526288E+01  0.31760043699E+01  0.51100000000E-03 0. -1.
        -11    1    3    3    0    0  0.15737282276E+02 -0.32547894230E+02  0.84119095414E+01  0.37118562669E+02  0.51100000000E-03 0.  1.
        -12    1    3    3    0    0  0.13940741938E+00 -0.73477216518E+01 -0.14601939443E+01  0.74927040684E+01  0.00000000000E+00 0.  1.
</event>
<event>
 7    1  0.8300060E-011  0.4778725E+02  0.7816164E-02  0.1312668E+00
        -11   -1    0    0    0    0  0.00000000000E+00  0.00000000000E+00  0.45593999997E+02  0.45594000000E+02  0.51100000000E-03 0. -1.
         11   -1    0    0    0    0 -0.00000000000E+00 -0.00000000000E+00 -0.45593999997E+02  0.45594000000E+02  0.51100000000E-03 0.  1.
    9900012    2    1    2    0    0  0.24141965022E+02  0.61733170951E+01  0.35534223040E+02  0.47787247402E+02  0.19999892204E+02 0.  0.
        -12    1    1    2    0    0 -0.24141965022E+02 -0.61733170951E+01 -0.35534223040E+02  0.43400752598E+02  0.00000000000E+00 0.  1.
         11    1    3    3    0    0  0.73106803926E+00  0.66816382525E+01  0.11044080392E+02  0.12928668229E+02  0.51100000000E-03 0. -1.
        -11    1    3    3    0    0  0.11830445884E+02 -0.34698609497E+01  0.88622617299E+01  0.15183513034E+02  0.51100000000E-03 0.  1.
         12    1    3    3    0    0  0.11580451098E+02  0.29615397923E+01  0.15627880917E+02  0.19675066138E+02  0.00000000000E+00 0. -1.
</event>
<event>
 7    1  0.8300060E-011  0.4778727E+02  0.7816164E-02  0.1312668E+00
        -11   -1    0    0    0    0  0.00000000000E+00  0.00000000000E+00  0.45593999997E+02  0.45594000000E+02  0.51100000000E-03 0. -1.
         11   -1    0    0    0    0 -0.00000000000E+00 -0.00000000000E+00 -0.45593999997E+02  0.45594000000E+02  0.51100000000E-03 0.  1.
    9900012    2    1    2    0    0  0.21400001162E+01  0.31332645699E+02  0.29955113319E+02  0.47787273037E+02  0.20000009084E+02 0.  0.
        -12    1    1    2    0    0 -0.21400001162E+01 -0.31332645699E+02 -0.29955113319E+02  0.43400726963E+02  0.00000000000E+00 0.  1.
         11    1    3    3    0    0 -0.53113662751E+01  0.17690496543E+02  0.98978004102E+01  0.20955446377E+02  0.51100000000E-03 0. -1.
        -11    1    3    3    0    0 -0.17548335119E+01  0.80434611832E+00  0.13991556470E+01  0.23841246021E+01  0.51100000000E-03 0.  1.
         12    1    3    3    0    0  0.92061999032E+01  0.12837803037E+02  0.18658157262E+02  0.24447702057E+02  0.00000000000E+00 0. -1.
</event>
<event>
 7    1  0.8300060E-011  0.4778727E+02  0.7816164E-02  0.1312668E+00
        -11   -1    0    0    0    0  0.00000000000E+00  0.00000000000E+00  0.45593999997E+02  0.45594000000E+02  0.51100000000E-03 0. -1.
         11   -1    0    0    0    0 -0.00000000000E+00 -0.00000000000E+00 -0.45593999997E+02  0.45594000000E+02  0.51100000000E-03 0.  1.
    9900012    2    1    2    0    0  0.36437245999E+01 -0.27352033096E+01 -0.43160922535E+02  0.47787270741E+02  0.19999998616E+02 0.  0.
         12    1    1    2    0    0 -0.36437245999E+01  0.27352033096E+01  0.43160922535E+02  0.43400729259E+02  0.00000000000E+00 0. -1.
         11    1    3    3    0    0  0.30343589071E+01 -0.85191188336E+01 -0.99202777601E+01  0.13423659366E+02  0.51100000000E-03 0. -1.
        -11    1    3    3    0    0 -0.23063731583E+01  0.45363724295E+01 -0.25419927559E+02  0.25924327365E+02  0.51100000000E-03 0.  1.
         12    1    3    3    0    0  0.29157388510E+01  0.12475430945E+01 -0.78207172161E+01  0.84392840096E+01  0.00000000000E+00 0. -1.
</event>
<event>
 7    1  0.8300060E-011  0.4778727E+02  0.7816164E-02  0.1312668E+00
        -11   -1    0    0    0    0  0.00000000000E+00  0.00000000000E+00  0.45593999997E+02  0.45594000000E+02  0.51100000000E-03 0. -1.
         11   -1    0    0    0    0 -0.00000000000E+00 -0.00000000000E+00 -0.45593999997E+02  0.45594000000E+02  0.51100000000E-03 0.  1.
    9900012    2    1    2    0    0  0.11806108144E+02  0.32072128118E+02 -0.26751031047E+02  0.47787271278E+02  0.20000001064E+02 0.  0.
         12    1    1    2    0    0 -0.11806108144E+02 -0.32072128118E+02  0.26751031047E+02  0.43400728722E+02  0.00000000000E+00 0. -1.
         11    1    3    3    0    0  0.15777504670E+02  0.20263992349E+02 -0.11981881058E+02  0.28339451538E+02  0.51100000000E-03 0. -1.
        -11    1    3    3    0    0 -0.13328840797E+01  0.28096237089E+01 -0.51363754615E+01  0.60044082555E+01  0.51100000000E-03 0.  1.
         12    1    3    3    0    0 -0.26385124471E+01  0.89985120609E+01 -0.96327745271E+01  0.13443411484E+02  0.00000000000E+00 0. -1.
</event>
<event>
 7    1  0.8300060E-011  0.4778727E+02  0.7816164E-02  0.1312668E+00
        -11   -1    0    0    0    0  0.00000000000E+00  0.00000000000E+00  0.45593999997E+02  0.45594000000E+02  0.51100000000E-03 0. -1.
         11   -1    0    0    0    0 -0.00000000000E+00 -0.00000000000E+00 -0.45593999997E+02  0.45594000000E+02  0.51100000000E-03 0.  1.
    9900012    2    1    2    0    0  0.16503848311E+01  0.93072752022E+01  0.42358870010E+02  0.47787274081E+02  0.20000013846E+02 0.  0.
        -12    1    1    2    0    0 -0.16503848311E+01 -0.93072752022E+01 -0.42358870010E+02  0.43400725919E+02  0.00000000000E+00 0.  1.
         11    1    3    3    0    0  0.21595766748E+01  0.86334592004E+01  0.13486066870E+02  0.16157796541E+02  0.51100000000E-03 0. -1.
        -11    1    3    3    0    0 -0.95678333065E+00 -0.48431924093E+01  0.23139445040E+02  0.23660216906E+02  0.51100000000E-03 0.  1.
        -12    1    3    3    0    0  0.44759148694E+00  0.55170084111E+01  0.57333580998E+01  0.79692606338E+01  0.00000000000E+00 0.  1.
</event>
<event>
 7    1  0.8300060E-011  0.4778727E+02  0.7816164E-02  0.1312668E+00
        -11   -1    0    0    0    0  0.00000000000E+00  0.00000000000E+00  0.45593999997E+02  0.45594000000E+02  0.51100000000E-03 0. -1.
         11   -1    0    0    0    0 -0.00000000000E+00 -0.00000000000E+00 -0.45593999997E+02  0.45594000000E+02  0.51100000000E-03 0.  1.
    9900012    2    1    2    0    0  0.99192357151E+01 -0.33928902830E+02 -0.25180582903E+02  0.47787269133E+02  0.19999991287E+02 0.  0.
         12    1    1    2    0    0 -0.99192357151E+01  0.33928902830E+02  0.25180582903E+02  0.43400730867E+02  0.00000000000E+00 0. -1.
         11    1    3    3    0    0  0.63383779189E+01 -0.11647684220E+01 -0.88822579615E+01  0.10973888412E+02  0.51100000000E-03 0. -1.
        -11    1    3    3    0    0  0.23538782879E+01 -0.16606447723E+02 -0.74755688893E+01  0.18362978501E+02  0.51100000000E-03 0.  1.
         12    1    3    3    0    0  0.12269795084E+01 -0.16157686685E+02 -0.88227560521E+01  0.18450402220E+02  0.00000000000E+00 0. -1.
</event>
<event>
 7    1  0.8300060E-011  0.4778727E+02  0.7816164E-02  0.1312668E+00
        -11   -1    0    0    0    0  0.00000000000E+00  0.00000000000E+00  0.45593999997E+02  0.45594000000E+02  0.51100000000E-03 0. -1.
         11   -1    0    0    0    0 -0.00000000000E+00 -0.00000000000E+00 -0.45593999997E+02  0.45594000000E+02  0.51100000000E-03 0.  1.
    9900012    2    1    2    0    0  0.23858073330E+01 -0.45793137597E+01  0.43092471120E+02  0.47787271223E+02  0.20000000816E+02 0.  0.
        -12    1    1    2    0    0 -0.23858073330E+01  0.45793137597E+01 -0.43092471120E+02  0.43400728777E+02  0.00000000000E+00 0.  1.
         11    1    3    3    0    0  0.12356318069E+01 -0.78826363943E+01  0.32541949152E+02  0.33505838258E+02  0.51100000000E-03 0. -1.
        -11    1    3    3    0    0  0.21921936346E+01  0.56863331636E+01  0.41512250186E+01  0.73737892020E+01  0.51100000000E-03 0.  1.
        -12    1    3    3    0    0 -0.10420181085E+01 -0.23830105290E+01  0.63992969495E+01  0.69076437638E+01  0.00000000000E+00 0.  1.
</event>
<event>
 7    1  0.8300060E-011  0.4778727E+02  0.7816164E-02  0.1312668E+00
        -11   -1    0    0    0    0  0.00000000000E+00  0.00000000000E+00  0.45593999997E+02  0.45594000000E+02  0.51100000000E-03 0. -1.
         11   -1    0    0    0    0 -0.00000000000E+00 -0.00000000000E+00 -0.45593999997E+02  0.45594000000E+02  0.51100000000E-03 0.  1.
    9900012    2    1    2    0    0 -0.23731568387E+02 -0.14835589255E+02 -0.33171396504E+02  0.47787267372E+02  0.19999983255E+02 0.  0.
         12    1    1    2    0    0  0.23731568387E+02  0.14835589255E+02  0.33171396504E+02  0.43400732628E+02  0.00000000000E+00 0. -1.
         11    1    3    3    0    0 -0.18466101657E+02 -0.76517302807E+01 -0.14621232259E+02  0.24765425894E+02  0.51100000000E-03 0. -1.
        -11    1    3    3    0    0 -0.33531419175E+01 -0.32042006075E+01 -0.17981616170E+02  0.18570109925E+02  0.51100000000E-03 0.  1.
        -12    1    3    3    0    0 -0.19123248123E+01 -0.39796583669E+01 -0.56854807457E+00  0.44517315528E+01  0.00000000000E+00 0.  1.
</event>
<event>
 7    1  0.8300060E-011  0.4778728E+02  0.7816164E-02  0.1312668E+00
        -11   -1    0    0    0    0  0.00000000000E+00  0.00000000000E+00  0.45593999997E+02  0.45594000000E+02  0.51100000000E-03 0.  1.
         11   -1    0    0    0    0 -0.00000000000E+00 -0.00000000000E+00 -0.45593999997E+02  0.45594000000E+02  0.51100000000E-03 0. -1.
    9900012    2    1    2    0    0  0.54026717373E+01 -0.36655997645E+02  0.22600258486E+02  0.47787277553E+02  0.20000029677E+02 0.  0.
         12    1    1    2    0    0 -0.54026717373E+01  0.36655997645E+02 -0.22600258486E+02  0.43400722447E+02  0.00000000000E+00 0. -1.
         11    1    3    3    0    0 -0.45310097729E+00 -0.40482019087E+00 -0.27777595686E+01  0.28434360139E+01  0.51100000000E-03 0. -1.
        -11    1    3    3    0    0  0.87681561434E+00 -0.18256692070E+02  0.10571220149E+02  0.21114599372E+02  0.51100000000E-03 0.  1.
         12    1    3    3    0    0  0.49789571003E+01 -0.17994485384E+02  0.14806797906E+02  0.23829242167E+02  0.00000000000E+00 0. -1.
</event>
<event>
 7    1  0.8300060E-011  0.4778727E+02  0.7816164E-02  0.1312668E+00
        -11   -1    0    0    0    0  0.00000000000E+00  0.00000000000E+00  0.45593999997E+02  0.45594000000E+02  0.51100000000E-03 0. -1.
         11   -1    0    0    0    0 -0.00000000000E+00 -0.00000000000E+00 -0.45593999997E+02  0.45594000000E+02  0.51100000000E-03 0.  1.
    9900012    2    1    2    0    0  0.33647358945E+02  0.14044050623E+02 -0.23542374832E+02  0.47787268041E+02  0.19999986306E+02 0.  0.
         12    1    1    2    0    0 -0.33647358945E+02 -0.14044050623E+02  0.23542374832E+02  0.43400731959E+02  0.00000000000E+00 0. -1.
         11    1    3    3    0    0  0.12505894340E+02  0.14998070836E+02 -0.77337453432E+01  0.21003579203E+02  0.51100000000E-03 0. -1.
        -11    1    3    3    0    0  0.93359345253E+01 -0.15612390464E+01 -0.47257390084E+01  0.10579685735E+02  0.51100000000E-03 0.  1.
         12    1    3    3    0    0  0.11805530079E+02  0.60721883423E+00 -0.11082890480E+02  0.16204003103E+02  0.00000000000E+00 0. -1.
</event>
<event>
 7    1  0.8300060E-011  0.4778727E+02  0.7816164E-02  0.1312668E+00
        -11   -1    0    0    0    0  0.00000000000E+00  0.00000000000E+00  0.45593999997E+02  0.45594000000E+02  0.51100000000E-03 0. -1.
         11   -1    0    0    0    0 -0.00000000000E+00 -0.00000000000E+00 -0.45593999997E+02  0.45594000000E+02  0.51100000000E-03 0.  1.
    9900012    2    1    2    0    0 -0.37981068167E+02  0.59454963000E+01 -0.20142308530E+02  0.47787273528E+02  0.20000011326E+02 0.  0.
         12    1    1    2    0    0  0.37981068167E+02 -0.59454963000E+01  0.20142308530E+02  0.43400726472E+02  0.00000000000E+00 0. -1.
         11    1    3    3    0    0 -0.12067056329E+02 -0.15097687630E+01 -0.15611683419E+02  0.19789338281E+02  0.51100000000E-03 0. -1.
        -11    1    3    3    0    0 -0.19500144169E+02  0.28473934788E+01 -0.26996819128E+01  0.19890991803E+02  0.51100000000E-03 0.  1.
         12    1    3    3    0    0 -0.64138676695E+01  0.46078715842E+01 -0.18309431985E+01  0.81069434446E+01  0.00000000000E+00 0. -1.
</event>
<event>
 7    1  0.8300060E-011  0.4778730E+02  0.7816164E-02  0.1312668E+00
        -11   -1    0    0    0    0  0.00000000000E+00  0.00000000000E+00  0.45593999997E+02  0.45594000000E+02  0.51100000000E-03 0. -1.
         11   -1    0    0    0    0 -0.00000000000E+00 -0.00000000000E+00 -0.45593999997E+02  0.45594000000E+02  0.51100000000E-03 0.  1.
    9900012    2    1    2    0    0 -0.13946107038E+02 -0.34921823073E+02  0.21670088247E+02  0.47787304696E+02  0.20000153429E+02 0.  0.
        -12    1    1    2    0    0  0.13946107038E+02  0.34921823073E+02 -0.21670088247E+02  0.43400695304E+02  0.00000000000E+00 0.  1.
         11    1    3    3    0    0 -0.13088738914E+02 -0.13937880495E+02  0.15084945147E+02  0.24354366537E+02  0.51100000000E-03 0. -1.
        -11    1    3    3    0    0 -0.27352605151E+01 -0.56357125352E+01 -0.76728624802E+00  0.63112308081E+01  0.51100000000E-03 0.  1.
         12    1    3    3    0    0  0.18778923914E+01 -0.15348230043E+02  0.73524293480E+01  0.17121707350E+02  0.00000000000E+00 0. -1.
</event>
<event>
 7    1  0.8300060E-011  0.4778728E+02  0.7816164E-02  0.1312668E+00
        -11   -1    0    0    0    0  0.00000000000E+00  0.00000000000E+00  0.45593999997E+02  0.45594000000E+02  0.51100000000E-03 0. -1.
         11   -1    0    0    0    0 -0.00000000000E+00 -0.00000000000E+00 -0.45593999997E+02  0.45594000000E+02  0.51100000000E-03 0.  1.
    9900012    2    1    2    0    0 -0.20231559391E+02  0.27800494626E+02 -0.26484701732E+02  0.47787275090E+02  0.20000018445E+02 0.  0.
         12    1    1    2    0    0  0.20231559391E+02 -0.27800494626E+02  0.26484701732E+02  0.43400724910E+02  0.00000000000E+00 0. -1.
         11    1    3    3    0    0 -0.96304237619E+01  0.32550744116E+01 -0.23092270007E+00  0.10168278950E+02  0.51100000000E-03 0. -1.
        -11    1    3    3    0    0 -0.86824975041E+01  0.20879170947E+02 -0.20429380488E+02  0.30474335591E+02  0.51100000000E-03 0.  1.
         12    1    3    3    0    0 -0.19186381250E+01  0.36662492678E+01 -0.58243985446E+01  0.71446605486E+01  0.00000000000E+00 0. -1.
</event>
<event>
 7    1  0.1918416E-010  0.4778727E+02  0.7816164E-02  0.1312668E+00
        -11   -1    0    0    0    0  0.00000000000E+00  0.00000000000E+00  0.45593999997E+02  0.45594000000E+02  0.51100000000E-03 0. -1.
         11   -1    0    0    0    0 -0.00000000000E+00 -0.00000000000E+00 -0.45593999997E+02  0.45594000000E+02  0.51100000000E-03 0.  1.
    9900012    2    1    2    0    0  0.17132227793E+02  0.40147754465E+01 -0.39673561282E+02  0.47787272865E+02  0.20000008299E+02 0.  0.
         12    1    1    2    0    0 -0.17132227793E+02 -0.40147754465E+01  0.39673561282E+02  0.43400727135E+02  0.00000000000E+00 0. -1.
         11    1    3    3    0    0  0.24420268532E+01 -0.24477416078E+01  0.13647981763E+00  0.34602833890E+01  0.51100000000E-03 0. -1.
        -11    1    3    3    0    0  0.15056158451E+02  0.24027363778E+01 -0.28804140253E+02  0.32590482435E+02  0.51100000000E-03 0.  1.
        -12    1    3    3    0    0 -0.36595751102E+00  0.40597806765E+01 -0.11005900848E+02  0.11736507040E+02  0.00000000000E+00 0.  1.
</event>
<event>
 7    1  0.8300060E-011  0.4778727E+02  0.7816164E-02  0.1312668E+00
        -11   -1    0    0    0    0  0.00000000000E+00  0.00000000000E+00  0.45593999997E+02  0.45594000000E+02  0.51100000000E-03 0. -1.
         11   -1    0    0    0    0 -0.00000000000E+00 -0.00000000000E+00 -0.45593999997E+02  0.45594000000E+02  0.51100000000E-03 0.  1.
    9900012    2    1    2    0    0  0.26437000434E+02 -0.26636226400E+02  0.21799535730E+02  0.47787270665E+02  0.19999998270E+02 0.  0.
        -12    1    1    2    0    0 -0.26437000434E+02  0.26636226400E+02 -0.21799535730E+02  0.43400729335E+02  0.00000000000E+00 0.  1.
         11    1    3    3    0    0  0.18723519384E+01 -0.12485642166E+02  0.58792020772E+01  0.13927023351E+02  0.51100000000E-03 0. -1.
        -11    1    3    3    0    0  0.19935639021E+02 -0.12955456496E+02  0.16647655140E+02  0.29024437602E+02  0.51100000000E-03 0.  1.
         12    1    3    3    0    0  0.46290094747E+01 -0.11951277375E+01 -0.72732148760E+00  0.48358097121E+01  0.00000000000E+00 0. -1.
</event>
<event>
 7    1  0.8300060E-011  0.4778727E+02  0.7816164E-02  0.1312668E+00
        -11   -1    0    0    0    0  0.00000000000E+00  0.00000000000E+00  0.45593999997E+02  0.45594000000E+02  0.51100000000E-03 0. -1.
         11   -1    0    0    0    0 -0.00000000000E+00 -0.00000000000E+00 -0.45593999997E+02  0.45594000000E+02  0.51100000000E-03 0.  1.
    9900012    2    1    2    0    0  0.41793304883E+01 -0.40722154715E+02  0.14417441671E+02  0.47787270602E+02  0.19999997984E+02 0.  0.
         12    1    1    2    0    0 -0.41793304883E+01  0.40722154715E+02 -0.14417441671E+02  0.43400729398E+02  0.00000000000E+00 0. -1.
         11    1    3    3    0    0 -0.33111653926E+01 -0.30071425533E+02  0.91452481279E+01  0.31605221301E+02  0.51100000000E-03 0. -1.
        -11    1    3    3    0    0  0.70563614393E+01 -0.11043454480E+02  0.24910922004E+01  0.13340002407E+02  0.51100000000E-03 0.  1.
         12    1    3    3    0    0  0.43413444165E+00  0.39272529878E+00  0.27811013423E+01  0.28420468944E+01  0.00000000000E+00 0. -1.
</event>
<event>
 7    1  0.8300060E-011  0.4778728E+02  0.7816164E-02  0.1312668E+00
        -11   -1    0    0    0    0  0.00000000000E+00  0.00000000000E+00  0.45593999997E+02  0.45594000000E+02  0.51100000000E-03 0. -1.
         11   -1    0    0    0    0 -0.00000000000E+00 -0.00000000000E+00 -0.45593999997E+02  0.45594000000E+02  0.51100000000E-03 0.  1.
    9900012    2    1    2    0    0 -0.60511279310E+01  0.60732821368E+01 -0.42545528218E+02  0.47787275622E+02  0.20000020873E+02 0.  0.
         12    1    1    2    0    0  0.60511279310E+01 -0.60732821368E+01  0.42545528218E+02  0.43400724378E+02  0.00000000000E+00 0. -1.
         11    1    3    3    0    0 -0.48864626708E+01  0.98780638544E+01 -0.10146835729E+02  0.14980385126E+02  0.51100000000E-03 0. -1.
        -11    1    3    3    0    0 -0.21005432812E+01 -0.13056309840E+01 -0.14248132402E+02  0.14461197446E+02  0.51100000000E-03 0.  1.
         12    1    3    3    0    0  0.93587802095E+00 -0.24991507335E+01 -0.18150560087E+02  0.18345693051E+02  0.00000000000E+00 0. -1.
</event>
<event>
 7    1  0.8300060E-011  0.4778727E+02  0.7816164E-02  0.1312668E+00
        -11   -1    0    0    0    0  0.00000000000E+00  0.00000000000E+00  0.45593999997E+02  0.45594000000E+02  0.51100000000E-03 0. -1.
         11   -1    0    0    0    0 -0.00000000000E+00 -0.00000000000E+00 -0.45593999997E+02  0.45594000000E+02  0.51100000000E-03 0.  1.
    9900012    2    1    2    0    0  0.11398154310E+02 -0.30248848018E+02 -0.28960532516E+02  0.47787272221E+02  0.20000005366E+02 0.  0.
         12    1    1    2    0    0 -0.11398154310E+02  0.30248848018E+02  0.28960532516E+02  0.43400727779E+02  0.00000000000E+00 0. -1.
         11    1    3    3    0    0  0.42495846870E+01 -0.24036539245E+02 -0.13721126144E+02  0.28001490885E+02  0.51100000000E-03 0.  1.
        -11    1    3    3    0    0  0.81034042399E+01 -0.21805001271E+01 -0.90950907862E+01  0.12374991626E+02  0.51100000000E-03 0. -1.
         12    1    3    3    0    0 -0.95483461642E+00 -0.40318086461E+01 -0.61443155860E+01  0.74107897098E+01  0.00000000000E+00 0. -1.
</event>
<event>
 7    1  0.8300060E-011  0.4778727E+02  0.7816164E-02  0.1312668E+00
        -11   -1    0    0    0    0  0.00000000000E+00  0.00000000000E+00  0.45593999997E+02  0.45594000000E+02  0.51100000000E-03 0. -1.
         11   -1    0    0    0    0 -0.00000000000E+00 -0.00000000000E+00 -0.45593999997E+02  0.45594000000E+02  0.51100000000E-03 0.  1.
    9900012    2    1    2    0    0 -0.20970972884E+02  0.37997585379E+02  0.15899574688E+00  0.47787268693E+02  0.19999989281E+02 0.  0.
        -12    1    1    2    0    0  0.20970972884E+02 -0.37997585379E+02 -0.15899574688E+00  0.43400731307E+02  0.00000000000E+00 0.  1.
         11    1    3    3    0    0 -0.14030682162E+02  0.16055525139E+02 -0.29574439141E+01  0.21526411781E+02  0.51100000000E-03 0. -1.
        -11    1    3    3    0    0 -0.58049579292E+01  0.23408609491E+02  0.34903197485E+01  0.24368891380E+02  0.51100000000E-03 0.  1.
        -12    1    3    3    0    0 -0.11353327925E+01 -0.14665492512E+01 -0.37388008756E+00  0.18919655324E+01  0.00000000000E+00 0.  1.
</event>
<event>
 7    1  0.8300060E-011  0.4778727E+02  0.7816164E-02  0.1312668E+00
        -11   -1    0    0    0    0  0.00000000000E+00  0.00000000000E+00  0.45593999997E+02  0.45594000000E+02  0.51100000000E-03 0. -1.
         11   -1    0    0    0    0 -0.00000000000E+00 -0.00000000000E+00 -0.45593999997E+02  0.45594000000E+02  0.51100000000E-03 0.  1.
    9900012    2    1    2    0    0 -0.15533106109E+02 -0.29283470078E+02  0.28014709632E+02  0.47787274649E+02  0.20000016435E+02 0.  0.
        -12    1    1    2    0    0  0.15533106109E+02  0.29283470078E+02 -0.28014709632E+02  0.43400725351E+02  0.00000000000E+00 0.  1.
         11    1    3    3    0    0 -0.44515813785E+01 -0.16131277978E+02  0.21511988266E+02  0.27254363786E+02  0.51100000000E-03 0. -1.
        -11    1    3    3    0    0 -0.14561552210E+01  0.13844837067E+01  0.32016738203E+00  0.20346229566E+01  0.51100000000E-03 0.  1.
         12    1    3    3    0    0 -0.96253695091E+01 -0.14536675807E+02  0.61825539846E+01  0.18498287907E+02  0.00000000000E+00 0. -1.
</event>
<event>
 7    1  0.8300060E-011  0.4778727E+02  0.7816164E-02  0.1312668E+00
        -11   -1    0    0    0    0  0.00000000000E+00  0.00000000000E+00  0.45593999997E+02  0.45594000000E+02  0.51100000000E-03 0. -1.
         11   -1    0    0    0    0 -0.00000000000E+00 -0.00000000000E+00 -0.45593999997E+02  0.45594000000E+02  0.51100000000E-03 0.  1.
    9900012    2    1    2    0    0 -0.18993275656E+02  0.53916762623E+01 -0.38649819233E+02  0.47787271667E+02  0.20000002840E+02 0.  0.
         12    1    1    2    0    0  0.18993275656E+02 -0.53916762623E+01  0.38649819233E+02  0.43400728333E+02  0.00000000000E+00 0. -1.
         11    1    3    3    0    0 -0.45781358800E+01 -0.33476348392E+01 -0.47307310547E+01  0.73855130983E+01  0.51100000000E-03 0. -1.
        -11    1    3    3    0    0 -0.10355478647E+02  0.85038873298E+01 -0.11624211257E+02  0.17739062132E+02  0.51100000000E-03 0.  1.
        -12    1    3    3    0    0 -0.40596611290E+01  0.23542377169E+00 -0.22294876922E+02  0.22662696437E+02  0.00000000000E+00 0.  1.
</event>
<event>
 7    1  0.8300060E-011  0.4778727E+02  0.7816164E-02  0.1312668E+00
        -11   -1    0    0    0    0  0.00000000000E+00  0.00000000000E+00  0.45593999997E+02  0.45594000000E+02  0.51100000000E-03 0. -1.
         11   -1    0    0    0    0 -0.00000000000E+00 -0.00000000000E+00 -0.45593999997E+02  0.45594000000E+02  0.51100000000E-03 0.  1.
    9900012    2    1    2    0    0  0.12740118419E+02  0.17038543334E+02 -0.37828565729E+02  0.47787274645E+02  0.20000016414E+02 0.  0.
         12    1    1    2    0    0 -0.12740118419E+02 -0.17038543334E+02  0.37828565729E+02  0.43400725355E+02  0.00000000000E+00 0. -1.
         11    1    3    3    0    0  0.22648936433E+01  0.15004692067E+02 -0.18248738299E+02  0.23733667584E+02  0.51100000000E-03 0.  1.
        -11    1    3    3    0    0  0.77373478760E+01 -0.14578786149E+01 -0.63987589797E+01  0.10145741912E+02  0.51100000000E-03 0. -1.
        -12    1    3    3    0    0  0.27378768995E+01  0.34917298823E+01 -0.13181068450E+02  0.13907865148E+02  0.00000000000E+00 0.  1.
</event>
<event>
 7    1  0.8300060E-011  0.4778727E+02  0.7816164E-02  0.1312668E+00
        -11   -1    0    0    0    0  0.00000000000E+00  0.00000000000E+00  0.45593999997E+02  0.45594000000E+02  0.51100000000E-03 0. -1.
         11   -1    0    0    0    0 -0.00000000000E+00 -0.00000000000E+00 -0.45593999997E+02  0.45594000000E+02  0.51100000000E-03 0.  1.
    9900012    2    1    2    0    0 -0.22906545685E+02 -0.24391830317E+02  0.27639690560E+02  0.47787265954E+02  0.19999976793E+02 0.  0.
        -12    1    1    2    0    0  0.22906545685E+02  0.24391830317E+02 -0.27639690560E+02  0.43400734046E+02  0.00000000000E+00 0.  1.
         11    1    3    3    0    0 -0.11371868181E+02 -0.86926142363E+01  0.19441503879E+02  0.24142348716E+02  0.51100000000E-03 0. -1.
        -11    1    3    3    0    0 -0.30084773089E+01 -0.22228365155E+01 -0.24482651141E+01  0.44705637478E+01  0.51100000000E-03 0.  1.
         12    1    3    3    0    0 -0.85262001945E+01 -0.13476379566E+02  0.10646451795E+02  0.19174353490E+02  0.00000000000E+00 0. -1.
</event>
<event>
 7    1  0.8300060E-011  0.4778727E+02  0.7816164E-02  0.1312668E+00
        -11   -1    0    0    0    0  0.00000000000E+00  0.00000000000E+00  0.45593999997E+02  0.45594000000E+02  0.51100000000E-03 0. -1.
         11   -1    0    0    0    0 -0.00000000000E+00 -0.00000000000E+00 -0.45593999997E+02  0.45594000000E+02  0.51100000000E-03 0.  1.
    9900012    2    1    2    0    0  0.11420989371E+02 -0.10390761672E+02  0.40561265774E+02  0.47787271809E+02  0.20000003484E+02 0.  0.
        -12    1    1    2    0    0 -0.11420989371E+02  0.10390761672E+02 -0.40561265774E+02  0.43400728191E+02  0.00000000000E+00 0.  1.
         11    1    3    3    0    0  0.31394153806E+01 -0.27972813312E+01  0.92557100254E+01  0.10166065124E+02  0.51100000000E-03 0. -1.
        -11    1    3    3    0    0  0.15955713967E+01 -0.10747461018E+02  0.26909627267E+02  0.29020368817E+02  0.51100000000E-03 0.  1.
        -12    1    3    3    0    0  0.66860025938E+01  0.31539806764E+01  0.43959284821E+01  0.86008378668E+01  0.00000000000E+00 0.  1.
</event>
<event>
 7    1  0.8300060E-011  0.4778727E+02  0.7816164E-02  0.1312668E+00
        -11   -1    0    0    0    0  0.00000000000E+00  0.00000000000E+00  0.45593999997E+02  0.45594000000E+02  0.51100000000E-03 0. -1.
         11   -1    0    0    0    0 -0.00000000000E+00 -0.00000000000E+00 -0.45593999997E+02  0.45594000000E+02  0.51100000000E-03 0.  1.
    9900012    2    1    2    0    0 -0.13177471775E+02 -0.17457663522E+02  0.37486096392E+02  0.47787271887E+02  0.20000003844E+02 0.  0.
        -12    1    1    2    0    0  0.13177471775E+02  0.17457663522E+02 -0.37486096392E+02  0.43400728113E+02  0.00000000000E+00 0.  1.
         11    1    3    3    0    0 -0.43551074128E+01  0.23324510882E+00  0.20380966024E+02  0.20842388063E+02  0.51100000000E-03 0. -1.
        -11    1    3    3    0    0 -0.85574584592E+01 -0.10386358856E+02  0.10159978643E+02  0.16862138413E+02  0.51100000000E-03 0.  1.
         12    1    3    3    0    0 -0.26490590252E+00 -0.73045497747E+01  0.69451517246E+01  0.10082745411E+02  0.00000000000E+00 0. -1.
</event>
<event>
 7    1  0.8300060E-011  0.4778729E+02  0.7816164E-02  0.1312668E+00
        -11   -1    0    0    0    0  0.00000000000E+00  0.00000000000E+00  0.45593999997E+02  0.45594000000E+02  0.51100000000E-03 0. -1.
         11   -1    0    0    0    0 -0.00000000000E+00 -0.00000000000E+00 -0.45593999997E+02  0.45594000000E+02  0.51100000000E-03 0.  1.
    9900012    2    1    2    0    0  0.14943354967E+02  0.35690341281E+02 -0.19660051841E+02  0.47787286218E+02  0.20000069184E+02 0.  0.
         12    1    1    2    0    0 -0.14943354967E+02 -0.35690341281E+02  0.19660051841E+02  0.43400713782E+02  0.00000000000E+00 0. -1.
         11    1    3    3    0    0  0.69119140131E+01  0.59818137565E+01 -0.63842008341E+01  0.11149648949E+02  0.51100000000E-03 0. -1.
        -11    1    3    3    0    0  0.82950631971E+01  0.29471382897E+02 -0.15547863615E+02  0.34338120895E+02  0.51100000000E-03 0.  1.
        -12    1    3    3    0    0 -0.26362224370E+00  0.23714462657E+00  0.22720126086E+01  0.22995163741E+01  0.00000000000E+00 0.  1.
</event>
<event>
 7    1  0.8300060E-011  0.4778727E+02  0.7816164E-02  0.1312668E+00
        -11   -1    0    0    0    0  0.00000000000E+00  0.00000000000E+00  0.45593999997E+02  0.45594000000E+02  0.51100000000E-03 0. -1.
         11   -1    0    0    0    0 -0.00000000000E+00 -0.00000000000E+00 -0.45593999997E+02  0.45594000000E+02  0.51100000000E-03 0.  1.
    9900012    2    1    2    0    0  0.33469220152E+02  0.72486841943E+01 -0.26662545918E+02  0.47787268727E+02  0.19999989436E+02 0.  0.
         12    1    1    2    0    0 -0.33469220152E+02 -0.72486841943E+01  0.26662545918E+02  0.43400731273E+02  0.00000000000E+00 0. -1.
         11    1    3    3    0    0  0.56156193833E+01  0.80091358327E+01 -0.10555155631E+01  0.98384730121E+01  0.51100000000E-03 0. -1.
        -11    1    3    3    0    0  0.17591620457E+02  0.23346571128E+00 -0.17696747910E+02  0.24953847467E+02  0.51100000000E-03 0.  1.
        -12    1    3    3    0    0  0.10261980312E+02 -0.99391734969E+00 -0.79102824450E+01  0.12994948249E+02  0.00000000000E+00 0.  1.
</event>
<event>
 7    1  0.8300060E-011  0.4778727E+02  0.7816164E-02  0.1312668E+00
        -11   -1    0    0    0    0  0.00000000000E+00  0.00000000000E+00  0.45593999997E+02  0.45594000000E+02  0.51100000000E-03 0. -1.
         11   -1    0    0    0    0 -0.00000000000E+00 -0.00000000000E+00 -0.45593999997E+02  0.45594000000E+02  0.51100000000E-03 0.  1.
    9900012    2    1    2    0    0  0.23186716218E+02 -0.32086196624E+02  0.17789763349E+02  0.47787268407E+02  0.19999987976E+02 0.  0.
        -12    1    1    2    0    0 -0.23186716218E+02  0.32086196624E+02 -0.17789763349E+02  0.43400731593E+02  0.00000000000E+00 0.  1.
         11    1    3    3    0    0 -0.29235852629E+01 -0.43047620749E+01  0.61002131672E+00  0.52393180452E+01  0.51100000000E-03 0.  1.
        -11    1    3    3    0    0  0.22627437680E+02 -0.19352665186E+02  0.12427389241E+02  0.32264013845E+02  0.51100000000E-03 0. -1.
         12    1    3    3    0    0  0.34828638003E+01 -0.84287693636E+01  0.47523527915E+01  0.10283936517E+02  0.00000000000E+00 0. -1.
</event>
<event>
 7    1  0.8300060E-011  0.4778727E+02  0.7816164E-02  0.1312668E+00
        -11   -1    0    0    0    0  0.00000000000E+00  0.00000000000E+00  0.45593999997E+02  0.45594000000E+02  0.51100000000E-03 0. -1.
         11   -1    0    0    0    0 -0.00000000000E+00 -0.00000000000E+00 -0.45593999997E+02  0.45594000000E+02  0.51100000000E-03 0.  1.
    9900012    2    1    2    0    0 -0.31271195753E+02  0.19588158571E+02 -0.22848188758E+02  0.47787269943E+02  0.19999994976E+02 0.  0.
         12    1    1    2    0    0  0.31271195753E+02 -0.19588158571E+02  0.22848188758E+02  0.43400730057E+02  0.00000000000E+00 0. -1.
         11    1    3    3    0    0 -0.67387012379E+01  0.13026836876E+02 -0.56374596358E+01  0.15712718567E+02  0.51100000000E-03 0. -1.
        -11    1    3    3    0    0 -0.11155974121E+02  0.45229400843E+01 -0.13408695293E+02  0.18019596425E+02  0.51100000000E-03 0.  1.
         12    1    3    3    0    0 -0.13376520394E+02  0.20383816111E+01 -0.38020338295E+01  0.14054954951E+02  0.00000000000E+00 0. -1.
</event>
<event>
 7    1  0.8300060E-011  0.4778727E+02  0.7816164E-02  0.1312668E+00
        -11   -1    0    0    0    0  0.00000000000E+00  0.00000000000E+00  0.45593999997E+02  0.45594000000E+02  0.51100000000E-03 0. -1.
         11   -1    0    0    0    0 -0.00000000000E+00 -0.00000000000E+00 -0.45593999997E+02  0.45594000000E+02  0.51100000000E-03 0.  1.
    9900012    2    1    2    0    0  0.98832471931E+01 -0.11918970264E+02  0.40544824875E+02  0.47787271304E+02  0.20000001182E+02 0.  0.
        -12    1    1    2    0    0 -0.98832471931E+01  0.11918970264E+02 -0.40544824875E+02  0.43400728696E+02  0.00000000000E+00 0.  1.
         11    1    3    3    0    0  0.13708167675E+02 -0.13377992167E+02  0.32990376680E+02  0.38147732425E+02  0.51100000000E-03 0. -1.
        -11    1    3    3    0    0 -0.39965437606E+01  0.19997213402E+01  0.38700623884E+01  0.59117366840E+01  0.51100000000E-03 0.  1.
        -12    1    3    3    0    0  0.17162327883E+00 -0.54069943704E+00  0.36843858065E+01  0.37278021946E+01  0.00000000000E+00 0.  1.
</event>
<event>
 7    1  0.8300060E-011  0.4778726E+02  0.7816164E-02  0.1312668E+00
        -11   -1    0    0    0    0  0.00000000000E+00  0.00000000000E+00  0.45593999997E+02  0.45594000000E+02  0.51100000000E-03 0.  1.
         11   -1    0    0    0    0 -0.00000000000E+00 -0.00000000000E+00 -0.45593999997E+02  0.45594000000E+02  0.51100000000E-03 0. -1.
    9900012    2    1    2    0    0  0.22240151370E+02 -0.35272841967E+02 -0.12034392149E+02  0.47787259133E+02  0.19999945692E+02 0.  0.
         12    1    1    2    0    0 -0.22240151370E+02  0.35272841967E+02  0.12034392149E+02  0.43400740867E+02  0.00000000000E+00 0. -1.
         11    1    3    3    0    0  0.13057370792E+02 -0.56470843575E+01 -0.47267244480E+01  0.14990877827E+02  0.51100000000E-03 0. -1.
        -11    1    3    3    0    0 -0.25493293656E+00 -0.90215710888E+01 -0.13703450759E+00  0.90262126294E+01  0.51100000000E-03 0.  1.
         12    1    3    3    0    0  0.94377135146E+01 -0.20604186520E+02 -0.71706331934E+01  0.23770168677E+02  0.00000000000E+00 0. -1.
</event>
<event>
 7    1  0.8300060E-011  0.4778721E+02  0.7816164E-02  0.1312668E+00
        -11   -1    0    0    0    0  0.00000000000E+00  0.00000000000E+00  0.45593999997E+02  0.45594000000E+02  0.51100000000E-03 0. -1.
         11   -1    0    0    0    0 -0.00000000000E+00 -0.00000000000E+00 -0.45593999997E+02  0.45594000000E+02  0.51100000000E-03 0.  1.
    9900012    2    1    2    0    0 -0.96752616264E+01 -0.21405234533E+02 -0.36494296133E+02  0.47787211952E+02  0.19999730570E+02 0.  0.
         12    1    1    2    0    0  0.96752616264E+01  0.21405234533E+02  0.36494296133E+02  0.43400788048E+02  0.00000000000E+00 0. -1.
         11    1    3    3    0    0 -0.50622080624E+01 -0.11050243505E+02 -0.28291395783E+02  0.30791831833E+02  0.51100000000E-03 0.  1.
        -11    1    3    3    0    0  0.10238302086E+01 -0.59407540561E+01 -0.77540560295E+01  0.98217194127E+01  0.51100000000E-03 0. -1.
         12    1    3    3    0    0 -0.56368837726E+01 -0.44142369713E+01 -0.44884432093E+00  0.71736607063E+01  0.00000000000E+00 0. -1.
</event>
<event>
 7    1  0.8300060E-011  0.4778727E+02  0.7816164E-02  0.1312668E+00
        -11   -1    0    0    0    0  0.00000000000E+00  0.00000000000E+00  0.45593999997E+02  0.45594000000E+02  0.51100000000E-03 0. -1.
         11   -1    0    0    0    0 -0.00000000000E+00 -0.00000000000E+00 -0.45593999997E+02  0.45594000000E+02  0.51100000000E-03 0.  1.
    9900012    2    1    2    0    0 -0.16142380320E+02 -0.16097782459E+02  0.36931125736E+02  0.47787273155E+02  0.20000009624E+02 0.  0.
        -12    1    1    2    0    0  0.16142380320E+02  0.16097782459E+02 -0.36931125736E+02  0.43400726845E+02  0.00000000000E+00 0.  1.
         11    1    3    3    0    0 -0.49988141266E+01 -0.38055896932E+01  0.11048891541E+02  0.12710179390E+02  0.51100000000E-03 0. -1.
        -11    1    3    3    0    0 -0.90493365417E+01 -0.14049400643E+02  0.27291386079E+02  0.32001498475E+02  0.51100000000E-03 0.  1.
        -12    1    3    3    0    0 -0.20942296519E+01  0.17572078777E+01 -0.14091518831E+01  0.30755952904E+01  0.00000000000E+00 0.  1.
</event>
<event>
 7    1  0.8300060E-011  0.4778728E+02  0.7816164E-02  0.1312668E+00
        -11   -1    0    0    0    0  0.00000000000E+00  0.00000000000E+00  0.45593999997E+02  0.45594000000E+02  0.51100000000E-03 0. -1.
         11   -1    0    0    0    0 -0.00000000000E+00 -0.00000000000E+00 -0.45593999997E+02  0.45594000000E+02  0.51100000000E-03 0.  1.
    9900012    2    1    2    0    0  0.10391345952E+01  0.11505868987E+02  0.41834890560E+02  0.47787275466E+02  0.20000020162E+02 0.  0.
        -12    1    1    2    0    0 -0.10391345952E+01 -0.11505868987E+02 -0.41834890560E+02  0.43400724534E+02  0.00000000000E+00 0.  1.
         11    1    3    3    0    0  0.95019330178E+01  0.32966584956E+01  0.18604155287E+02  0.21148741866E+02  0.51100000000E-03 0. -1.
        -11    1    3    3    0    0 -0.41602838267E+01  0.13066840312E+01  0.47555703425E+01  0.64521960773E+01  0.51100000000E-03 0.  1.
         12    1    3    3    0    0 -0.43025145959E+01  0.69025264607E+01  0.18475164931E+02  0.20186337523E+02  0.00000000000E+00 0. -1.
</event>
<event>
 7    1  0.8300060E-011  0.4778727E+02  0.7816164E-02  0.1312668E+00
        -11   -1    0    0    0    0  0.00000000000E+00  0.00000000000E+00  0.45593999997E+02  0.45594000000E+02  0.51100000000E-03 0. -1.
         11   -1    0    0    0    0 -0.00000000000E+00 -0.00000000000E+00 -0.45593999997E+02  0.45594000000E+02  0.51100000000E-03 0.  1.
    9900012    2    1    2    0    0 -0.12044218465E+02  0.18961878902E+02  0.37134984874E+02  0.47787272454E+02  0.20000006426E+02 0.  0.
        -12    1    1    2    0    0  0.12044218465E+02 -0.18961878902E+02 -0.37134984874E+02  0.43400727546E+02  0.00000000000E+00 0.  1.
         11    1    3    3    0    0 -0.56190391959E+01  0.16417677215E+02  0.18201346131E+02  0.25147618732E+02  0.51100000000E-03 0. -1.
        -11    1    3    3    0    0 -0.57847557765E+01 -0.31800351888E+01  0.90792539372E+01  0.11225367500E+02  0.51100000000E-03 0.  1.
        -12    1    3    3    0    0 -0.64042349266E+00  0.57242368760E+01  0.98543848056E+01  0.11414286222E+02  0.00000000000E+00 0.  1.
</event>
<event>
 7    1  0.8300060E-011  0.4778728E+02  0.7816164E-02  0.1312668E+00
        -11   -1    0    0    0    0  0.00000000000E+00  0.00000000000E+00  0.45593999997E+02  0.45594000000E+02  0.51100000000E-03 0. -1.
         11   -1    0    0    0    0 -0.00000000000E+00 -0.00000000000E+00 -0.45593999997E+02  0.45594000000E+02  0.51100000000E-03 0.  1.
    9900012    2    1    2    0    0 -0.22804043623E+02  0.66514059882E+01 -0.36322947968E+02  0.47787283920E+02  0.20000058706E+02 0.  0.
         12    1    1    2    0    0  0.22804043623E+02 -0.66514059882E+01  0.36322947968E+02  0.43400716080E+02  0.00000000000E+00 0. -1.
         11    1    3    3    0    0 -0.49304288508E+01 -0.65551231405E+01 -0.12893016576E+02  0.15280989651E+02  0.51100000000E-03 0. -1.
        -11    1    3    3    0    0 -0.12228320331E+02  0.95347306911E+01 -0.18617277956E+02  0.24229031063E+02  0.51100000000E-03 0.  1.
         12    1    3    3    0    0 -0.56452944415E+01  0.36717984376E+01 -0.48126534353E+01  0.82772632063E+01  0.00000000000E+00 0. -1.
</event>
<event>
 7    1  0.8300060E-011  0.4778727E+02  0.7816164E-02  0.1312668E+00
        -11   -1    0    0    0    0  0.00000000000E+00  0.00000000000E+00  0.45593999997E+02  0.45594000000E+02  0.51100000000E-03 0. -1.
         11   -1    0    0    0    0 -0.00000000000E+00 -0.00000000000E+00 -0.45593999997E+02  0.45594000000E+02  0.51100000000E-03 0.  1.
    9900012    2    1    2    0    0  0.13093857203E+02  0.38394521872E+02 -0.15428382864E+02  0.47787269545E+02  0.19999993163E+02 0.  0.
         12    1    1    2    0    0 -0.13093857203E+02 -0.38394521872E+02  0.15428382864E+02  0.43400730455E+02  0.00000000000E+00 0. -1.
         11    1    3    3    0    0 -0.25356049544E+01  0.80438000371E+01 -0.24200726080E+01  0.87743240886E+01  0.51100000000E-03 0. -1.
        -11    1    3    3    0    0  0.12120626061E+02  0.23706701238E+02 -0.34395313401E+01  0.26846743486E+02  0.51100000000E-03 0.  1.
        -12    1    3    3    0    0  0.35088360966E+01  0.66440205970E+01 -0.95687789155E+01  0.12166201970E+02  0.00000000000E+00 0.  1.
</event>
<event>
 7    1  0.8300060E-011  0.4778726E+02  0.7816164E-02  0.1312668E+00
        -11   -1    0    0    0    0  0.00000000000E+00  0.00000000000E+00  0.45593999997E+02  0.45594000000E+02  0.51100000000E-03 0.  1.
         11   -1    0    0    0    0 -0.00000000000E+00 -0.00000000000E+00 -0.45593999997E+02  0.45594000000E+02  0.51100000000E-03 0. -1.
    9900012    2    1    2    0    0 -0.40202810518E+02  0.16349070034E+02  0.25788285723E+00  0.47787256135E+02  0.19999932020E+02 0.  0.
        -12    1    1    2    0    0  0.40202810518E+02 -0.16349070034E+02 -0.25788285723E+00  0.43400743865E+02  0.00000000000E+00 0.  1.
         11    1    3    3    0    0 -0.85202435052E+01  0.12833740724E+02 -0.28227416011E+01  0.15661012763E+02  0.51100000000E-03 0. -1.
        -11    1    3    3    0    0 -0.18798731184E+02  0.32215051348E+01  0.13057484143E+01  0.19117410093E+02  0.51100000000E-03 0.  1.
         12    1    3    3    0    0 -0.12883835828E+02  0.29382417520E+00  0.17748760441E+01  0.13008833278E+02  0.00000000000E+00 0. -1.
</event>
<event>
 7    1  0.8300060E-011  0.4778727E+02  0.7816164E-02  0.1312668E+00
        -11   -1    0    0    0    0  0.00000000000E+00  0.00000000000E+00  0.45593999997E+02  0.45594000000E+02  0.51100000000E-03 0. -1.
         11   -1    0    0    0    0 -0.00000000000E+00 -0.00000000000E+00 -0.45593999997E+02  0.45594000000E+02  0.51100000000E-03 0.  1.
    9900012    2    1    2    0    0  0.15940290598E+02  0.21686843127E+02  0.34047192826E+02  0.47787269954E+02  0.19999995030E+02 0.  0.
        -12    1    1    2    0    0 -0.15940290598E+02 -0.21686843127E+02 -0.34047192826E+02  0.43400730046E+02  0.00000000000E+00 0.  1.
         11    1    3    3    0    0  0.41996006532E+01  0.85195041314E+01  0.23741830576E+02  0.25571333865E+02  0.51100000000E-03 0. -1.
        -11    1    3    3    0    0  0.11656883783E+02  0.13715010649E+02  0.11173807662E+02  0.21185807385E+02  0.51100000000E-03 0.  1.
         12    1    3    3    0    0  0.83806162073E-01 -0.54767165363E+00 -0.86844541192E+00  0.10301287038E+01  0.00000000000E+00 0. -1.
</event>
<event>
 7    1  0.8300060E-011  0.4778727E+02  0.7816164E-02  0.1312668E+00
        -11   -1    0    0    0    0  0.00000000000E+00  0.00000000000E+00  0.45593999997E+02  0.45594000000E+02  0.51100000000E-03 0. -1.
         11   -1    0    0    0    0 -0.00000000000E+00 -0.00000000000E+00 -0.45593999997E+02  0.45594000000E+02  0.51100000000E-03 0.  1.
    9900012    2    1    2    0    0  0.21089360573E+01 -0.20565572395E+02  0.38160617595E+02  0.47787272880E+02  0.20000008371E+02 0.  0.
        -12    1    1    2    0    0 -0.21089360573E+01  0.20565572395E+02 -0.38160617595E+02  0.43400727120E+02  0.00000000000E+00 0.  1.
         11    1    3    3    0    0  0.51241531411E+01  0.68264052725E+00  0.41435971604E+01  0.66251295226E+01  0.51100000000E-03 0. -1.
        -11    1    3    3    0    0  0.12505882126E+00 -0.39707682940E+00  0.64095922484E+01  0.64230975992E+01  0.51100000000E-03 0.  1.
         12    1    3    3    0    0 -0.31402759050E+01 -0.20851136093E+02  0.27607428187E+02  0.34739045759E+02  0.00000000000E+00 0. -1.
</event>
<event>
 7    1  0.8300060E-011  0.4778727E+02  0.7816164E-02  0.1312668E+00
        -11   -1    0    0    0    0  0.00000000000E+00  0.00000000000E+00  0.45593999997E+02  0.45594000000E+02  0.51100000000E-03 0.  1.
         11   -1    0    0    0    0 -0.00000000000E+00 -0.00000000000E+00 -0.45593999997E+02  0.45594000000E+02  0.51100000000E-03 0. -1.
    9900012    2    1    2    0    0 -0.40922306061E+02 -0.12574038208E+02 -0.71331411578E+01  0.47787271055E+02  0.20000000049E+02 0.  0.
        -12    1    1    2    0    0  0.40922306061E+02  0.12574038208E+02  0.71331411578E+01  0.43400728945E+02  0.00000000000E+00 0.  1.
         11    1    3    3    0    0 -0.22544687606E+02 -0.53198384270E+01 -0.64752871447E+01  0.24051880675E+02  0.51100000000E-03 0. -1.
        -11    1    3    3    0    0 -0.45888833512E+01 -0.50319620609E+01  0.52216756541E+01  0.85816309342E+01  0.51100000000E-03 0.  1.
        -12    1    3    3    0    0 -0.13788735103E+02 -0.22222377196E+01 -0.58795296672E+01  0.15153759446E+02  0.00000000000E+00 0.  1.
</event>
<event>
 7    1  0.8300060E-011  0.4778727E+02  0.7816164E-02  0.1312668E+00
        -11   -1    0    0    0    0  0.00000000000E+00  0.00000000000E+00  0.45593999997E+02  0.45594000000E+02  0.51100000000E-03 0. -1.
         11   -1    0    0    0    0 -0.00000000000E+00 -0.00000000000E+00 -0.45593999997E+02  0.45594000000E+02  0.51100000000E-03 0.  1.
    9900012    2    1    2    0    0 -0.29733616061E+02 -0.78949337958E+01 -0.30613811871E+02  0.47787269811E+02  0.19999994374E+02 0.  0.
         12    1    1    2    0    0  0.29733616061E+02  0.78949337958E+01  0.30613811871E+02  0.43400730189E+02  0.00000000000E+00 0. -1.
         11    1    3    3    0    0 -0.14500466983E+02  0.33763868279E+01 -0.77137036698E+01  0.16767968133E+02  0.51100000000E-03 0. -1.
        -11    1    3    3    0    0 -0.10887624136E+02 -0.42983098037E+01 -0.85931483922E+01  0.14520951279E+02  0.51100000000E-03 0.  1.
         12    1    3    3    0    0 -0.43455249425E+01 -0.69730108200E+01 -0.14306959809E+02  0.16498350399E+02  0.00000000000E+00 0. -1.
</event>
<event>
 7    1  0.8300060E-011  0.4778727E+02  0.7816164E-02  0.1312668E+00
        -11   -1    0    0    0    0  0.00000000000E+00  0.00000000000E+00  0.45593999997E+02  0.45594000000E+02  0.51100000000E-03 0. -1.
         11   -1    0    0    0    0 -0.00000000000E+00 -0.00000000000E+00 -0.45593999997E+02  0.45594000000E+02  0.51100000000E-03 0.  1.
    9900012    2    1    2    0    0 -0.64632097292E+01  0.23468174416E+02  0.35931812927E+02  0.47787268777E+02  0.19999989664E+02 0.  0.
        -12    1    1    2    0    0  0.64632097292E+01 -0.23468174416E+02 -0.35931812927E+02  0.43400731223E+02  0.00000000000E+00 0.  1.
         11    1    3    3    0    0  0.82450027872E+00  0.23960718522E+02  0.27632988117E+02  0.36583847054E+02  0.51100000000E-03 0. -1.
        -11    1    3    3    0    0 -0.44475127469E+01  0.54473336055E+00  0.53696277893E+01  0.69935689690E+01  0.51100000000E-03 0.  1.
         12    1    3    3    0    0 -0.28401972610E+01 -0.10372774659E+01  0.29291970212E+01  0.42098527541E+01  0.00000000000E+00 0. -1.
</event>
<event>
 7    1  0.8754453E-011  0.4778727E+02  0.7816164E-02  0.1312668E+00
        -11   -1    0    0    0    0  0.00000000000E+00  0.00000000000E+00  0.45593999997E+02  0.45594000000E+02  0.51100000000E-03 0. -1.
         11   -1    0    0    0    0 -0.00000000000E+00 -0.00000000000E+00 -0.45593999997E+02  0.45594000000E+02  0.51100000000E-03 0.  1.
    9900012    2    1    2    0    0  0.21945755569E+02  0.66709307804E+01 -0.36844344800E+02  0.47787271334E+02  0.20000001322E+02 0.  0.
         12    1    1    2    0    0 -0.21945755569E+02 -0.66709307804E+01  0.36844344800E+02  0.43400728666E+02  0.00000000000E+00 0. -1.
         11    1    3    3    0    0  0.78149594866E+01 -0.94420825373E+00 -0.15694938331E+01  0.80267323462E+01  0.51100000000E-03 0.  1.
        -11    1    3    3    0    0  0.66429103190E+01  0.84906941517E+01 -0.19691671440E+02  0.22449544963E+02  0.51100000000E-03 0. -1.
        -12    1    3    3    0    0  0.74878857631E+01 -0.87555511755E+00 -0.15583179527E+02  0.17310994025E+02  0.00000000000E+00 0.  1.
</event>
<event>
 7    1  0.8300060E-011  0.4778727E+02  0.7816164E-02  0.1312668E+00
        -11   -1    0    0    0    0  0.00000000000E+00  0.00000000000E+00  0.45593999997E+02  0.45594000000E+02  0.51100000000E-03 0. -1.
         11   -1    0    0    0    0 -0.00000000000E+00 -0.00000000000E+00 -0.45593999997E+02  0.45594000000E+02  0.51100000000E-03 0.  1.
    9900012    2    1    2    0    0  0.39265724324E+02  0.12814632810E+02 -0.13327088763E+02  0.47787271715E+02  0.20000003058E+02 0.  0.
         12    1    1    2    0    0 -0.39265724324E+02 -0.12814632810E+02  0.13327088763E+02  0.43400728285E+02  0.00000000000E+00 0. -1.
         11    1    3    3    0    0 -0.17214550737E+01  0.13904377249E+01  0.10927691842E+01  0.24679686766E+01  0.51100000000E-03 0. -1.
        -11    1    3    3    0    0  0.23990946822E+02  0.47156514853E+01 -0.58654526332E+01  0.25143715580E+02  0.51100000000E-03 0.  1.
        -12    1    3    3    0    0  0.16996232576E+02  0.67085435995E+01 -0.85544053141E+01  0.20175587458E+02  0.00000000000E+00 0.  1.
</event>
<event>
 7    1  0.8300060E-011  0.4778727E+02  0.7816164E-02  0.1312668E+00
        -11   -1    0    0    0    0  0.00000000000E+00  0.00000000000E+00  0.45593999997E+02  0.45594000000E+02  0.51100000000E-03 0. -1.
         11   -1    0    0    0    0 -0.00000000000E+00 -0.00000000000E+00 -0.45593999997E+02  0.45594000000E+02  0.51100000000E-03 0.  1.
    9900012    2    1    2    0    0 -0.18778362054E+02 -0.16336245364E+01  0.39093833007E+02  0.47787269710E+02  0.19999993915E+02 0.  0.
        -12    1    1    2    0    0  0.18778362054E+02  0.16336245364E+01 -0.39093833007E+02  0.43400730290E+02  0.00000000000E+00 0.  1.
         11    1    3    3    0    0 -0.98916756698E+01 -0.73170175665E+01  0.31739053884E+02  0.34040439705E+02  0.51100000000E-03 0. -1.
        -11    1    3    3    0    0 -0.38101056847E+01  0.33494240505E+01  0.80315537059E+00  0.51362053706E+01  0.51100000000E-03 0.  1.
         12    1    3    3    0    0 -0.50765806992E+01  0.23339689796E+01  0.65516237526E+01  0.86106246341E+01  0.00000000000E+00 0. -1.
</event>
<event>
 7    1  0.8300060E-011  0.4778727E+02  0.7816164E-02  0.1312668E+00
        -11   -1    0    0    0    0  0.00000000000E+00  0.00000000000E+00  0.45593999997E+02  0.45594000000E+02  0.51100000000E-03 0. -1.
         11   -1    0    0    0    0 -0.00000000000E+00 -0.00000000000E+00 -0.45593999997E+02  0.45594000000E+02  0.51100000000E-03 0.  1.
    9900012    2    1    2    0    0  0.82437414516E+00 -0.43312886300E+02 -0.26339100650E+01  0.47787271957E+02  0.20000004163E+02 0.  0.
         12    1    1    2    0    0 -0.82437414516E+00  0.43312886300E+02  0.26339100650E+01  0.43400728043E+02  0.00000000000E+00 0. -1.
         11    1    3    3    0    0  0.15919583355E+01 -0.83476866570E+01  0.37486038126E+01  0.92881771446E+01  0.51100000000E-03 0. -1.
        -11    1    3    3    0    0 -0.44904893315E+01 -0.21864930744E+02  0.21554015469E+01  0.22425107513E+02  0.51100000000E-03 0.  1.
        -12    1    3    3    0    0  0.37229051411E+01 -0.13100268900E+02 -0.85379154246E+01  0.16073987300E+02  0.00000000000E+00 0.  1.
</event>
<event>
 7    1  0.8300060E-011  0.4778728E+02  0.7816164E-02  0.1312668E+00
        -11   -1    0    0    0    0  0.00000000000E+00  0.00000000000E+00  0.45593999997E+02  0.45594000000E+02  0.51100000000E-03 0. -1.
         11   -1    0    0    0    0 -0.00000000000E+00 -0.00000000000E+00 -0.45593999997E+02  0.45594000000E+02  0.51100000000E-03 0.  1.
    9900012    2    1    2    0    0  0.35753296460E+02  0.23602230645E+02  0.69468982915E+01  0.47787275409E+02  0.20000019901E+02 0.  0.
        -12    1    1    2    0    0 -0.35753296460E+02 -0.23602230645E+02 -0.69468982915E+01  0.43400724591E+02  0.00000000000E+00 0.  1.
         11    1    3    3    0    0  0.20673136082E+02  0.73199187793E+01  0.10701534297E+02  0.24402512227E+02  0.51100000000E-03 0. -1.
        -11    1    3    3    0    0  0.13868585560E+02  0.14382434489E+02 -0.12546507053E+01  0.20019146732E+02  0.51100000000E-03 0.  1.
         12    1    3    3    0    0  0.12115748179E+01  0.18998773769E+01 -0.24999853003E+01  0.33656164500E+01  0.00000000000E+00 0. -1.
</event>
<event>
 7    1  0.8300060E-011  0.4778727E+02  0.7816164E-02  0.1312668E+00
        -11   -1    0    0    0    0  0.00000000000E+00  0.00000000000E+00  0.45593999997E+02  0.45594000000E+02  0.51100000000E-03 0. -1.
         11   -1    0    0    0    0 -0.00000000000E+00 -0.00000000000E+00 -0.45593999997E+02  0.45594000000E+02  0.51100000000E-03 0.  1.
    9900012    2    1    2    0    0  0.19992749312E+01  0.22183725926E+01  0.43297861849E+02  0.47787272841E+02  0.20000008191E+02 0.  0.
        -12    1    1    2    0    0 -0.19992749312E+01 -0.22183725926E+01 -0.43297861849E+02  0.43400727159E+02  0.00000000000E+00 0.  1.
         11    1    3    3    0    0  0.20261719145E+01 -0.73152019013E+01  0.95135851846E+01  0.12170696562E+02  0.51100000000E-03 0. -1.
        -11    1    3    3    0    0  0.27799263030E+01  0.54109403786E+01  0.21875749770E+02  0.22705829523E+02  0.51100000000E-03 0.  1.
        -12    1    3    3    0    0 -0.28068232863E+01  0.41226341153E+01  0.11908526894E+02  0.12910746756E+02  0.00000000000E+00 0.  1.
</event>
<event>
 7    1  0.8300060E-011  0.4778727E+02  0.7816164E-02  0.1312668E+00
        -11   -1    0    0    0    0  0.00000000000E+00  0.00000000000E+00  0.45593999997E+02  0.45594000000E+02  0.51100000000E-03 0. -1.
         11   -1    0    0    0    0 -0.00000000000E+00 -0.00000000000E+00 -0.45593999997E+02  0.45594000000E+02  0.51100000000E-03 0.  1.
    9900012    2    1    2    0    0 -0.20004999144E+02 -0.22681490529E+02  0.31128334219E+02  0.47787271957E+02  0.20000004161E+02 0.  0.
        -12    1    1    2    0    0  0.20004999144E+02  0.22681490529E+02 -0.31128334219E+02  0.43400728043E+02  0.00000000000E+00 0.  1.
         11    1    3    3    0    0 -0.83994038094E+01 -0.98361023338E+01  0.19248626776E+02  0.23190699137E+02  0.51100000000E-03 0. -1.
        -11    1    3    3    0    0 -0.58534104844E+00 -0.14229717269E+01 -0.26591752400E+01  0.30722444396E+01  0.51100000000E-03 0.  1.
        -12    1    3    3    0    0 -0.11020254286E+02 -0.11422416469E+02  0.14538882684E+02  0.21524328380E+02  0.00000000000E+00 0.  1.
</event>
<event>
 7    1  0.8300060E-011  0.4778727E+02  0.7816164E-02  0.1312668E+00
        -11   -1    0    0    0    0  0.00000000000E+00  0.00000000000E+00  0.45593999997E+02  0.45594000000E+02  0.51100000000E-03 0. -1.
         11   -1    0    0    0    0 -0.00000000000E+00 -0.00000000000E+00 -0.45593999997E+02  0.45594000000E+02  0.51100000000E-03 0.  1.
    9900012    2    1    2    0    0 -0.13027464760E+02 -0.36209665383E+02 -0.20069105302E+02  0.47787266218E+02  0.19999977995E+02 0.  0.
         12    1    1    2    0    0  0.13027464760E+02  0.36209665383E+02  0.20069105302E+02  0.43400733782E+02  0.00000000000E+00 0. -1.
         11    1    3    3    0    0 -0.13274853851E+01 -0.22136178441E+02 -0.81843729546E+01  0.23638032370E+02  0.51100000000E-03 0.  1.
        -11    1    3    3    0    0  0.61084321328E+00 -0.61509338725E+01 -0.51006070874E+01  0.80139447126E+01  0.51100000000E-03 0. -1.
         12    1    3    3    0    0 -0.12310822589E+02 -0.79225530692E+01 -0.67841252596E+01  0.16135289135E+02  0.00000000000E+00 0. -1.
</event>
<event>
 7    1  0.8300060E-011  0.4778727E+02  0.7816164E-02  0.1312668E+00
        -11   -1    0    0    0    0  0.00000000000E+00  0.00000000000E+00  0.45593999997E+02  0.45594000000E+02  0.51100000000E-03 0. -1.
         11   -1    0    0    0    0 -0.00000000000E+00 -0.00000000000E+00 -0.45593999997E+02  0.45594000000E+02  0.51100000000E-03 0.  1.
    9900012    2    1    2    0    0 -0.20915647996E+02 -0.93119533842E+01  0.36870673268E+02  0.47787270120E+02  0.19999995783E+02 0.  0.
        -12    1    1    2    0    0  0.20915647996E+02  0.93119533842E+01 -0.36870673268E+02  0.43400729880E+02  0.00000000000E+00 0.  1.
         11    1    3    3    0    0 -0.12175174726E+02  0.36272360972E+01  0.14257106247E+02  0.19095989111E+02  0.51100000000E-03 0. -1.
        -11    1    3    3    0    0 -0.61731462057E+01 -0.10508001478E+02  0.10546618844E+02  0.16116978577E+02  0.51100000000E-03 0.  1.
         12    1    3    3    0    0 -0.25673270645E+01 -0.24311880035E+01  0.12066948176E+02  0.12574302432E+02  0.00000000000E+00 0. -1.
</event>
<event>
 7    1  0.8300060E-011  0.4778727E+02  0.7816164E-02  0.1312668E+00
        -11   -1    0    0    0    0  0.00000000000E+00  0.00000000000E+00  0.45593999997E+02  0.45594000000E+02  0.51100000000E-03 0. -1.
         11   -1    0    0    0    0 -0.00000000000E+00 -0.00000000000E+00 -0.45593999997E+02  0.45594000000E+02  0.51100000000E-03 0.  1.
    9900012    2    1    2    0    0  0.25356858524E+02 -0.33791248061E+02  0.99400465853E+01  0.47787271367E+02  0.20000001471E+02 0.  0.
        -12    1    1    2    0    0 -0.25356858524E+02  0.33791248061E+02 -0.99400465853E+01  0.43400728633E+02  0.00000000000E+00 0.  1.
         11    1    3    3    0    0  0.21597389275E+02 -0.33051334141E+02  0.27399924862E+01  0.39577082650E+02  0.51100000000E-03 0. -1.
        -11    1    3    3    0    0  0.26097317760E+01 -0.36114395326E+00  0.57241643505E+01  0.63013635564E+01  0.51100000000E-03 0.  1.
         12    1    3    3    0    0  0.11497374733E+01 -0.37876996722E+00  0.14758897486E+01  0.19088251611E+01  0.00000000000E+00 0. -1.
</event>
<event>
 7    1  0.8300060E-011  0.4778730E+02  0.7816164E-02  0.1312668E+00
        -11   -1    0    0    0    0  0.00000000000E+00  0.00000000000E+00  0.45593999997E+02  0.45594000000E+02  0.51100000000E-03 0. -1.
         11   -1    0    0    0    0 -0.00000000000E+00 -0.00000000000E+00 -0.45593999997E+02  0.45594000000E+02  0.51100000000E-03 0.  1.
    9900012    2    1    2    0    0 -0.16135239732E-01  0.37811024165E+02 -0.21306040233E+02  0.47787295407E+02  0.20000111076E+02 0.  0.
         12    1    1    2    0    0  0.16135239732E-01 -0.37811024165E+02  0.21306040233E+02  0.43400704593E+02  0.00000000000E+00 0. -1.
         11    1    3    3    0    0 -0.42912242233E+01  0.10997697972E+02  0.56529424025E+00  0.11818778442E+02  0.51100000000E-03 0. -1.
        -11    1    3    3    0    0  0.61145737607E+01  0.14912297856E+02 -0.95231249029E+01  0.18720431293E+02  0.51100000000E-03 0.  1.
         12    1    3    3    0    0 -0.18394847772E+01  0.11901028337E+02 -0.12348209571E+02  0.17248085672E+02  0.00000000000E+00 0. -1.
</event>
<event>
 7    1  0.8300060E-011  0.4778727E+02  0.7816164E-02  0.1312668E+00
        -11   -1    0    0    0    0  0.00000000000E+00  0.00000000000E+00  0.45593999997E+02  0.45594000000E+02  0.51100000000E-03 0. -1.
         11   -1    0    0    0    0 -0.00000000000E+00 -0.00000000000E+00 -0.45593999997E+02  0.45594000000E+02  0.51100000000E-03 0.  1.
    9900012    2    1    2    0    0 -0.31267532600E+02  0.27664297174E+01 -0.29971843575E+02  0.47787272638E+02  0.20000007265E+02 0.  0.
         12    1    1    2    0    0  0.31267532600E+02 -0.27664297174E+01  0.29971843575E+02  0.43400727362E+02  0.00000000000E+00 0. -1.
         11    1    3    3    0    0 -0.36449398579E+01 -0.12852251410E+01 -0.12698878855E+02  0.13273993922E+02  0.51100000000E-03 0. -1.
        -11    1    3    3    0    0 -0.83193827115E+01 -0.27987113904E+01 -0.85402779290E+01  0.12246683694E+02  0.51100000000E-03 0.  1.
         12    1    3    3    0    0 -0.19303210031E+02  0.68503662489E+01 -0.87326867915E+01  0.22266595021E+02  0.00000000000E+00 0. -1.
</event>
<event>
 7    1  0.8300060E-011  0.4778727E+02  0.7816164E-02  0.1312668E+00
        -11   -1    0    0    0    0  0.00000000000E+00  0.00000000000E+00  0.45593999997E+02  0.45594000000E+02  0.51100000000E-03 0.  1.
         11   -1    0    0    0    0 -0.00000000000E+00 -0.00000000000E+00 -0.45593999997E+02  0.45594000000E+02  0.51100000000E-03 0. -1.
    9900012    2    1    2    0    0  0.36711180836E+02  0.20951370230E+02 -0.98464444220E+01  0.47787272118E+02  0.20000004897E+02 0.  0.
         12    1    1    2    0    0 -0.36711180836E+02 -0.20951370230E+02  0.98464444220E+01  0.43400727882E+02  0.00000000000E+00 0. -1.
         11    1    3    3    0    0  0.67499433236E+01 -0.16235580632E+01 -0.14307295316E-01  0.69424693458E+01  0.51100000000E-03 0. -1.
        -11    1    3    3    0    0  0.12267030862E+02  0.17239317569E+02 -0.55470272629E+01  0.21873354296E+02  0.51100000000E-03 0.  1.
        -12    1    3    3    0    0  0.17694206650E+02  0.53356107243E+01 -0.42851098638E+01  0.18971448477E+02  0.00000000000E+00 0.  1.
</event>
<event>
 7    1  0.8300060E-011  0.4778727E+02  0.7816164E-02  0.1312668E+00
        -11   -1    0    0    0    0  0.00000000000E+00  0.00000000000E+00  0.45593999997E+02  0.45594000000E+02  0.51100000000E-03 0. -1.
         11   -1    0    0    0    0 -0.00000000000E+00 -0.00000000000E+00 -0.45593999997E+02  0.45594000000E+02  0.51100000000E-03 0.  1.
    9900012    2    1    2    0    0 -0.20580577276E+02  0.13998820206E+02  0.35554129359E+02  0.47787271405E+02  0.20000001642E+02 0.  0.
        -12    1    1    2    0    0  0.20580577276E+02 -0.13998820206E+02 -0.35554129359E+02  0.43400728595E+02  0.00000000000E+00 0.  1.
         11    1    3    3    0    0 -0.21872172675E+02  0.10531989848E+02  0.34735961087E+02  0.42378080897E+02  0.51100000000E-03 0. -1.
        -11    1    3    3    0    0  0.23575157181E+01  0.14589841624E+01  0.13362259510E+01  0.30776639193E+01  0.51100000000E-03 0.  1.
         12    1    3    3    0    0 -0.10659203189E+01  0.20078461955E+01 -0.51805767888E+00  0.23315265878E+01  0.00000000000E+00 0. -1.
</event>
<event>
 7    1  0.8300060E-011  0.4778727E+02  0.7816164E-02  0.1312668E+00
        -11   -1    0    0    0    0  0.00000000000E+00  0.00000000000E+00  0.45593999997E+02  0.45594000000E+02  0.51100000000E-03 0. -1.
         11   -1    0    0    0    0 -0.00000000000E+00 -0.00000000000E+00 -0.45593999997E+02  0.45594000000E+02  0.51100000000E-03 0.  1.
    9900012    2    1    2    0    0  0.13394833553E+02  0.36365221942E+02 -0.19538990939E+02  0.47787273050E+02  0.20000009144E+02 0.  0.
         12    1    1    2    0    0 -0.13394833553E+02 -0.36365221942E+02  0.19538990939E+02  0.43400726950E+02  0.00000000000E+00 0. -1.
         11    1    3    3    0    0  0.81174844386E+01  0.33274636748E+01 -0.50974591919E+01  0.10146411119E+02  0.51100000000E-03 0. -1.
        -11    1    3    3    0    0  0.37734499058E+01  0.26212353476E+02 -0.69166191218E+01  0.27370897305E+02  0.51100000000E-03 0.  1.
        -12    1    3    3    0    0  0.15038992091E+01  0.68254047920E+01 -0.75249126258E+01  0.10269964627E+02  0.00000000000E+00 0.  1.
</event>
<event>
 7    1  0.8300060E-011  0.4778727E+02  0.7816164E-02  0.1312668E+00
        -11   -1    0    0    0    0  0.00000000000E+00  0.00000000000E+00  0.45593999997E+02  0.45594000000E+02  0.51100000000E-03 0. -1.
         11   -1    0    0    0    0 -0.00000000000E+00 -0.00000000000E+00 -0.45593999997E+02  0.45594000000E+02  0.51100000000E-03 0.  1.
    9900012    2    1    2    0    0  0.21399946993E+02 -0.15519683285E+02  0.34420997814E+02  0.47787269694E+02  0.19999993844E+02 0.  0.
        -12    1    1    2    0    0 -0.21399946993E+02  0.15519683285E+02 -0.34420997814E+02  0.43400730306E+02  0.00000000000E+00 0.  1.
         11    1    3    3    0    0  0.15036236388E+02 -0.15608659324E+02  0.24339870621E+02  0.32590611420E+02  0.51100000000E-03 0. -1.
        -11    1    3    3    0    0  0.83808372707E+01  0.19224187562E+01  0.82243279073E+01  0.11898474567E+02  0.51100000000E-03 0.  1.
        -12    1    3    3    0    0 -0.20171266655E+01 -0.18334427173E+01  0.18567992853E+01  0.32981837074E+01  0.00000000000E+00 0.  1.
</event>
<event>
 7    1  0.8300060E-011  0.4778727E+02  0.7816164E-02  0.1312668E+00
        -11   -1    0    0    0    0  0.00000000000E+00  0.00000000000E+00  0.45593999997E+02  0.45594000000E+02  0.51100000000E-03 0. -1.
         11   -1    0    0    0    0 -0.00000000000E+00 -0.00000000000E+00 -0.45593999997E+02  0.45594000000E+02  0.51100000000E-03 0.  1.
    9900012    2    1    2    0    0 -0.10134635833E+02 -0.24441035854E+01 -0.42130020965E+02  0.47787272445E+02  0.20000006386E+02 0.  0.
         12    1    1    2    0    0  0.10134635833E+02  0.24441035854E+01  0.42130020965E+02  0.43400727555E+02  0.00000000000E+00 0. -1.
         11    1    3    3    0    0  0.57960043494E+01 -0.30332503813E+01 -0.10691626277E+02  0.12534159206E+02  0.51100000000E-03 0. -1.
        -11    1    3    3    0    0 -0.96956578591E+01  0.16339630987E+00 -0.18746441089E+02  0.21105959666E+02  0.51100000000E-03 0.  1.
         12    1    3    3    0    0 -0.62349823234E+01  0.42575048605E+00 -0.12691953599E+02  0.14147153573E+02  0.00000000000E+00 0. -1.
</event>
<event>
 7    1  0.8300060E-011  0.4778727E+02  0.7816164E-02  0.1312668E+00
        -11   -1    0    0    0    0  0.00000000000E+00  0.00000000000E+00  0.45593999997E+02  0.45594000000E+02  0.51100000000E-03 0. -1.
         11   -1    0    0    0    0 -0.00000000000E+00 -0.00000000000E+00 -0.45593999997E+02  0.45594000000E+02  0.51100000000E-03 0.  1.
    9900012    2    1    2    0    0 -0.31171512986E+02  0.19918683902E+02  0.22698147150E+02  0.47787273344E+02  0.20000010485E+02 0.  0.
        -12    1    1    2    0    0  0.31171512986E+02 -0.19918683902E+02 -0.22698147150E+02  0.43400726656E+02  0.00000000000E+00 0.  1.
         11    1    3    3    0    0 -0.96885328230E+01  0.41268134558E+01  0.79248057824E+01  0.13179560103E+02  0.51100000000E-03 0. -1.
        -11    1    3    3    0    0 -0.14258725816E+02  0.56478696147E+00  0.85868553670E+01  0.16654258661E+02  0.51100000000E-03 0.  1.
        -12    1    3    3    0    0 -0.72242543473E+01  0.15227083484E+02  0.61864860005E+01  0.17953454580E+02  0.00000000000E+00 0.  1.
</event>
<event>
 7    1  0.8300060E-011  0.4778725E+02  0.7816164E-02  0.1312668E+00
        -11   -1    0    0    0    0  0.00000000000E+00  0.00000000000E+00  0.45593999997E+02  0.45594000000E+02  0.51100000000E-03 0. -1.
         11   -1    0    0    0    0 -0.00000000000E+00 -0.00000000000E+00 -0.45593999997E+02  0.45594000000E+02  0.51100000000E-03 0.  1.
    9900012    2    1    2    0    0 -0.20679647738E+02  0.24872326680E+02 -0.28936903594E+02  0.47787252833E+02  0.19999916964E+02 0.  0.
         12    1    1    2    0    0  0.20679647738E+02 -0.24872326680E+02  0.28936903594E+02  0.43400747167E+02  0.00000000000E+00 0. -1.
         11    1    3    3    0    0 -0.51429961829E+01  0.92985006214E+00 -0.48713407500E+01  0.71445777930E+01  0.51100000000E-03 0. -1.
        -11    1    3    3    0    0 -0.34794350971E+01  0.82508427046E+00  0.17240841332E+01  0.39698487386E+01  0.51100000000E-03 0.  1.
        -12    1    3    3    0    0 -0.12057216458E+02  0.23117392348E+02 -0.25789646977E+02  0.36672826301E+02  0.00000000000E+00 0.  1.
</event>
<event>
 7    1  0.8300060E-011  0.4778727E+02  0.7816164E-02  0.1312668E+00
        -11   -1    0    0    0    0  0.00000000000E+00  0.00000000000E+00  0.45593999997E+02  0.45594000000E+02  0.51100000000E-03 0. -1.
         11   -1    0    0    0    0 -0.00000000000E+00 -0.00000000000E+00 -0.45593999997E+02  0.45594000000E+02  0.51100000000E-03 0.  1.
    9900012    2    1    2    0    0 -0.13554432134E+02 -0.14893543431E+02  0.38445844778E+02  0.47787271353E+02  0.20000001408E+02 0.  0.
        -12    1    1    2    0    0  0.13554432134E+02  0.14893543431E+02 -0.38445844778E+02  0.43400728647E+02  0.00000000000E+00 0.  1.
         11    1    3    3    0    0 -0.12290475099E+00 -0.15652169816E+01  0.17417807762E+02  0.17488425809E+02  0.51100000000E-03 0. -1.
        -11    1    3    3    0    0 -0.14942538525E+02 -0.10413257368E+02  0.15728113798E+02  0.24064267088E+02  0.51100000000E-03 0.  1.
        -12    1    3    3    0    0  0.15110111413E+01 -0.29150690812E+01  0.52999232171E+01  0.62345784561E+01  0.00000000000E+00 0.  1.
</event>
<event>
 7    1  0.8300060E-011  0.4778727E+02  0.7816164E-02  0.1312668E+00
        -11   -1    0    0    0    0  0.00000000000E+00  0.00000000000E+00  0.45593999997E+02  0.45594000000E+02  0.51100000000E-03 0. -1.
         11   -1    0    0    0    0 -0.00000000000E+00 -0.00000000000E+00 -0.45593999997E+02  0.45594000000E+02  0.51100000000E-03 0.  1.
    9900012    2    1    2    0    0 -0.21826419658E+02  0.87649781920E+01  0.36474724400E+02  0.47787274685E+02  0.20000016599E+02 0.  0.
        -12    1    1    2    0    0  0.21826419658E+02 -0.87649781920E+01 -0.36474724400E+02  0.43400725315E+02  0.00000000000E+00 0.  1.
         11    1    3    3    0    0 -0.12123996349E+02  0.10719540903E+02  0.33275027856E+02  0.37001720551E+02  0.51100000000E-03 0. -1.
        -11    1    3    3    0    0 -0.68350726689E+01 -0.47424243660E+00  0.31921166320E+01  0.75586197901E+01  0.51100000000E-03 0.  1.
         12    1    3    3    0    0 -0.28673506398E+01 -0.14803202748E+01  0.75799128976E-02  0.32269343443E+01  0.00000000000E+00 0. -1.
</event>
<event>
 7    1  0.1004631E-010  0.4778727E+02  0.7816164E-02  0.1312668E+00
        -11   -1    0    0    0    0  0.00000000000E+00  0.00000000000E+00  0.45593999997E+02  0.45594000000E+02  0.51100000000E-03 0. -1.
         11   -1    0    0    0    0 -0.00000000000E+00 -0.00000000000E+00 -0.45593999997E+02  0.45594000000E+02  0.51100000000E-03 0.  1.
    9900012    2    1    2    0    0  0.14647302112E+02  0.16569900270E+02  0.37343247660E+02  0.47787271896E+02  0.20000003883E+02 0.  0.
        -12    1    1    2    0    0 -0.14647302112E+02 -0.16569900270E+02 -0.37343247660E+02  0.43400728104E+02  0.00000000000E+00 0.  1.
         11    1    3    3    0    0  0.12680427060E+02  0.32116066554E+01  0.16260497916E+02  0.20868910860E+02  0.51100000000E-03 0. -1.
        -11    1    3    3    0    0 -0.36677036461E+01  0.31812962634E+01  0.42221108638E+01  0.64341989679E+01  0.51100000000E-03 0.  1.
         12    1    3    3    0    0  0.56345786985E+01  0.10176997351E+02  0.16860638881E+02  0.20484162069E+02  0.00000000000E+00 0. -1.
</event>
<event>
 7    1  0.8300060E-011  0.4778729E+02  0.7816164E-02  0.1312668E+00
        -11   -1    0    0    0    0  0.00000000000E+00  0.00000000000E+00  0.45593999997E+02  0.45594000000E+02  0.51100000000E-03 0. -1.
         11   -1    0    0    0    0 -0.00000000000E+00 -0.00000000000E+00 -0.45593999997E+02  0.45594000000E+02  0.51100000000E-03 0.  1.
    9900012    2    1    2    0    0  0.18772279455E+01 -0.71544019939E+01  0.42765782752E+02  0.47787290017E+02  0.20000086504E+02 0.  0.
        -12    1    1    2    0    0 -0.18772279455E+01  0.71544019939E+01 -0.42765782752E+02  0.43400709983E+02  0.00000000000E+00 0.  1.
         11    1    3    3    0    0 -0.72249558007E+01 -0.41517452191E+01  0.11923735077E+02  0.14546904590E+02  0.51100000000E-03 0. -1.
        -11    1    3    3    0    0  0.12875390043E+01 -0.36374571833E+01  0.55393246688E+01  0.67507754737E+01  0.51100000000E-03 0.  1.
         12    1    3    3    0    0  0.78146447418E+01  0.63480040848E+00  0.25302723006E+02  0.26489609954E+02  0.00000000000E+00 0. -1.
</event>
<event>
 7    1  0.8300060E-011  0.4778727E+02  0.7816164E-02  0.1312668E+00
        -11   -1    0    0    0    0  0.00000000000E+00  0.00000000000E+00  0.45593999997E+02  0.45594000000E+02  0.51100000000E-03 0.  1.
         11   -1    0    0    0    0 -0.00000000000E+00 -0.00000000000E+00 -0.45593999997E+02  0.45594000000E+02  0.51100000000E-03 0. -1.
    9900012    2    1    2    0    0  0.16794580270E+02 -0.38267997864E+02  0.11710069268E+02  0.47787270637E+02  0.19999998143E+02 0.  0.
        -12    1    1    2    0    0 -0.16794580270E+02  0.38267997864E+02 -0.11710069268E+02  0.43400729363E+02  0.00000000000E+00 0.  1.
         11    1    3    3    0    0  0.14312879162E+02 -0.20352415856E+02  0.23365608309E+01  0.24990775455E+02  0.51100000000E-03 0. -1.
        -11    1    3    3    0    0  0.15848269332E+01 -0.17603817996E+02  0.11067777238E+02  0.20854298782E+02  0.51100000000E-03 0.  1.
         12    1    3    3    0    0  0.89687417488E+00 -0.31176401180E+00 -0.16942688009E+01  0.19421963995E+01  0.00000000000E+00 0. -1.
</event>
<event>
 7    1  0.8300060E-011  0.4778727E+02  0.7816164E-02  0.1312668E+00
        -11   -1    0    0    0    0  0.00000000000E+00  0.00000000000E+00  0.45593999997E+02  0.45594000000E+02  0.51100000000E-03 0. -1.
         11   -1    0    0    0    0 -0.00000000000E+00 -0.00000000000E+00 -0.45593999997E+02  0.45594000000E+02  0.51100000000E-03 0.  1.
    9900012    2    1    2    0    0  0.17603561471E+02 -0.14233917816E+02  0.37028817647E+02  0.47787272711E+02  0.20000007599E+02 0.  0.
        -12    1    1    2    0    0 -0.17603561471E+02  0.14233917816E+02 -0.37028817647E+02  0.43400727289E+02  0.00000000000E+00 0.  1.
         11    1    3    3    0    0 -0.16160945111E+01 -0.35382004245E+01  0.15830263541E+02  0.16301161546E+02  0.51100000000E-03 0. -1.
        -11    1    3    3    0    0  0.24453666696E-01 -0.12997261733E+01 -0.11269146790E+00  0.13048316885E+01  0.51100000000E-03 0.  1.
         12    1    3    3    0    0  0.19195202316E+02 -0.93959912182E+01  0.21311245574E+02  0.30181279476E+02  0.00000000000E+00 0. -1.
</event>
<event>
 7    1  0.8300060E-011  0.4778729E+02  0.7816164E-02  0.1312668E+00
        -11   -1    0    0    0    0  0.00000000000E+00  0.00000000000E+00  0.45593999997E+02  0.45594000000E+02  0.51100000000E-03 0. -1.
         11   -1    0    0    0    0 -0.00000000000E+00 -0.00000000000E+00 -0.45593999997E+02  0.45594000000E+02  0.51100000000E-03 0.  1.
    9900012    2    1    2    0    0  0.78848001766E+01  0.94611038798E+01  0.41616567329E+02  0.47787294514E+02  0.20000107008E+02 0.  0.
        -12    1    1    2    0    0 -0.78848001766E+01 -0.94611038798E+01 -0.41616567329E+02  0.43400705486E+02  0.00000000000E+00 0.  1.
         11    1    3    3    0    0  0.43234362576E+01  0.39891829714E+01  0.15221905585E+02  0.16319071412E+02  0.51100000000E-03 0. -1.
        -11    1    3    3    0    0 -0.39964724020E+00  0.31015455811E+01  0.26661648356E+02  0.26844418344E+02  0.51100000000E-03 0.  1.
        -12    1    3    3    0    0  0.39610111592E+01  0.23703753272E+01 -0.26698661180E+00  0.46238047587E+01  0.00000000000E+00 0.  1.
</event>
<event>
 7    1  0.8300060E-011  0.4778727E+02  0.7816164E-02  0.1312668E+00
        -11   -1    0    0    0    0  0.00000000000E+00  0.00000000000E+00  0.45593999997E+02  0.45594000000E+02  0.51100000000E-03 0. -1.
         11   -1    0    0    0    0 -0.00000000000E+00 -0.00000000000E+00 -0.45593999997E+02  0.45594000000E+02  0.51100000000E-03 0.  1.
    9900012    2    1    2    0    0 -0.42136071844E+02  0.28061494250E-01 -0.10400665499E+02  0.47787272117E+02  0.20000004892E+02 0.  0.
         12    1    1    2    0    0  0.42136071844E+02 -0.28061494250E-01  0.10400665499E+02  0.43400727883E+02  0.00000000000E+00 0. -1.
         11    1    3    3    0    0 -0.35210878309E+01 -0.31743878640E+01 -0.81012790571E+00  0.48094807732E+01  0.51100000000E-03 0. -1.
        -11    1    3    3    0    0 -0.16785690746E+02  0.99198731736E+00  0.38463985393E+01  0.17249296642E+02  0.51100000000E-03 0.  1.
        -12    1    3    3    0    0 -0.21829293267E+02  0.22104620408E+01 -0.13436936133E+02  0.25728494702E+02  0.00000000000E+00 0.  1.
</event>
<event>
 7    1  0.8300060E-011  0.4778724E+02  0.7816164E-02  0.1312668E+00
        -11   -1    0    0    0    0  0.00000000000E+00  0.00000000000E+00  0.45593999997E+02  0.45594000000E+02  0.51100000000E-03 0.  1.
         11   -1    0    0    0    0 -0.00000000000E+00 -0.00000000000E+00 -0.45593999997E+02  0.45594000000E+02  0.51100000000E-03 0. -1.
    9900012    2    1    2    0    0 -0.49254309058E+01 -0.38179112114E+02  0.20043000019E+02  0.47787235938E+02  0.19999839934E+02 0.  0.
        -12    1    1    2    0    0  0.49254309058E+01  0.38179112114E+02 -0.20043000019E+02  0.43400764062E+02  0.00000000000E+00 0.  1.
         11    1    3    3    0    0 -0.41992559202E+01 -0.32049449917E+02  0.12611241262E+02  0.34696460867E+02  0.51100000000E-03 0. -1.
        -11    1    3    3    0    0  0.38201527915E+01 -0.38917292885E+01  0.24284132351E+01  0.59696160099E+01  0.51100000000E-03 0.  1.
         12    1    3    3    0    0 -0.45463277771E+01 -0.22379329088E+01  0.50033455219E+01  0.71211590610E+01  0.00000000000E+00 0. -1.
</event>
<event>
 7    1  0.8300060E-011  0.4778727E+02  0.7816164E-02  0.1312668E+00
        -11   -1    0    0    0    0  0.00000000000E+00  0.00000000000E+00  0.45593999997E+02  0.45594000000E+02  0.51100000000E-03 0. -1.
         11   -1    0    0    0    0 -0.00000000000E+00 -0.00000000000E+00 -0.45593999997E+02  0.45594000000E+02  0.51100000000E-03 0.  1.
    9900012    2    1    2    0    0 -0.37430440928E+02  0.18477041132E+02 -0.11882096497E+02  0.47787272193E+02  0.20000005236E+02 0.  0.
         12    1    1    2    0    0  0.37430440928E+02 -0.18477041132E+02  0.11882096497E+02  0.43400727807E+02  0.00000000000E+00 0. -1.
         11    1    3    3    0    0 -0.34256939795E+02  0.14141525567E+02 -0.11236556374E+02  0.38727004388E+02  0.51100000000E-03 0.  1.
        -11    1    3    3    0    0 -0.30400031348E+00  0.40627599626E+01 -0.32219899727E+01  0.51941942927E+01  0.51100000000E-03 0. -1.
         12    1    3    3    0    0 -0.28695008197E+01  0.27275560229E+00  0.25764498499E+01  0.38660735122E+01  0.00000000000E+00 0. -1.
</event>
<event>
 7    1  0.8300060E-011  0.4778727E+02  0.7816164E-02  0.1312668E+00
        -11   -1    0    0    0    0  0.00000000000E+00  0.00000000000E+00  0.45593999997E+02  0.45594000000E+02  0.51100000000E-03 0.  1.
         11   -1    0    0    0    0 -0.00000000000E+00 -0.00000000000E+00 -0.45593999997E+02  0.45594000000E+02  0.51100000000E-03 0. -1.
    9900012    2    1    2    0    0  0.36026191671E+02  0.24185736810E+02 -0.88730595273E+00  0.47787266559E+02  0.19999979550E+02 0.  0.
         12    1    1    2    0    0 -0.36026191671E+02 -0.24185736810E+02  0.88730595273E+00  0.43400733441E+02  0.00000000000E+00 0. -1.
         11    1    3    3    0    0  0.52293552738E+01  0.76031067432E+00 -0.60773664000E+00  0.53191703287E+01  0.51100000000E-03 0. -1.
        -11    1    3    3    0    0  0.23191711250E+02  0.69039795846E+01  0.11448891670E+01  0.24224598578E+02  0.51100000000E-03 0.  1.
        -12    1    3    3    0    0  0.76051251471E+01  0.16521446551E+02 -0.14244584798E+01  0.18243497652E+02  0.00000000000E+00 0.  1.
</event>
<event>
 7    1  0.8300060E-011  0.4778726E+02  0.7816164E-02  0.1312668E+00
        -11   -1    0    0    0    0  0.00000000000E+00  0.00000000000E+00  0.45593999997E+02  0.45594000000E+02  0.51100000000E-03 0. -1.
         11   -1    0    0    0    0 -0.00000000000E+00 -0.00000000000E+00 -0.45593999997E+02  0.45594000000E+02  0.51100000000E-03 0.  1.
    9900012    2    1    2    0    0  0.28025087745E+02  0.19423923980E+02  0.26850138604E+02  0.47787259120E+02  0.19999945631E+02 0.  0.
        -12    1    1    2    0    0 -0.28025087745E+02 -0.19423923980E+02 -0.26850138604E+02  0.43400740880E+02  0.00000000000E+00 0.  1.
         11    1    3    3    0    0  0.33504767101E+01 -0.15459394624E+01  0.11141203758E+02  0.11736355671E+02  0.51100000000E-03 0. -1.
        -11    1    3    3    0    0  0.19972275820E+02  0.16944791026E+02  0.11776863453E+02  0.28717803840E+02  0.51100000000E-03 0.  1.
         12    1    3    3    0    0  0.47023352156E+01  0.40250724159E+01  0.39320713925E+01  0.73330996086E+01  0.00000000000E+00 0. -1.
</event>
<event>
 7    1  0.8300060E-011  0.4778727E+02  0.7816164E-02  0.1312668E+00
        -11   -1    0    0    0    0  0.00000000000E+00  0.00000000000E+00  0.45593999997E+02  0.45594000000E+02  0.51100000000E-03 0. -1.
         11   -1    0    0    0    0 -0.00000000000E+00 -0.00000000000E+00 -0.45593999997E+02  0.45594000000E+02  0.51100000000E-03 0.  1.
    9900012    2    1    2    0    0  0.11941044118E+02  0.39202337674E+02 -0.14290267942E+02  0.47787267614E+02  0.19999984361E+02 0.  0.
         12    1    1    2    0    0 -0.11941044118E+02 -0.39202337674E+02  0.14290267942E+02  0.43400732386E+02  0.00000000000E+00 0. -1.
         11    1    3    3    0    0  0.22458273369E+01  0.56967993295E+01  0.38362037564E+01  0.72259063479E+01  0.51100000000E-03 0. -1.
        -11    1    3    3    0    0  0.13551669488E+01  0.21632737305E+02 -0.12332604772E+02  0.24938022005E+02  0.51100000000E-03 0.  1.
         12    1    3    3    0    0  0.83400498318E+01  0.11872801039E+02 -0.57938669273E+01  0.15623339262E+02  0.00000000000E+00 0. -1.
</event>
<event>
 7    1  0.8300060E-011  0.4778727E+02  0.7816164E-02  0.1312668E+00
        -11   -1    0    0    0    0  0.00000000000E+00  0.00000000000E+00  0.45593999997E+02  0.45594000000E+02  0.51100000000E-03 0. -1.
         11   -1    0    0    0    0 -0.00000000000E+00 -0.00000000000E+00 -0.45593999997E+02  0.45594000000E+02  0.51100000000E-03 0.  1.
    9900012    2    1    2    0    0 -0.17242256255E+02 -0.39770516207E+02  0.21526668733E+01  0.47787270342E+02  0.19999996798E+02 0.  0.
         12    1    1    2    0    0  0.17242256255E+02  0.39770516207E+02 -0.21526668733E+01  0.43400729658E+02  0.00000000000E+00 0. -1.
         11    1    3    3    0    0  0.21095190427E+01  0.22660883092E+00 -0.75595527658E+00  0.22523078819E+01  0.51100000000E-03 0. -1.
        -11    1    3    3    0    0 -0.19098369084E+02 -0.33766167842E+02  0.46228415661E+01  0.39067537123E+02  0.51100000000E-03 0.  1.
        -12    1    3    3    0    0 -0.25340621317E+00 -0.62309571964E+01 -0.17142194162E+01  0.64674253377E+01  0.00000000000E+00 0.  1.
</event>
<event>
 7    1  0.8300060E-011  0.4778727E+02  0.7816164E-02  0.1312668E+00
        -11   -1    0    0    0    0  0.00000000000E+00  0.00000000000E+00  0.45593999997E+02  0.45594000000E+02  0.51100000000E-03 0.  1.
         11   -1    0    0    0    0 -0.00000000000E+00 -0.00000000000E+00 -0.45593999997E+02  0.45594000000E+02  0.51100000000E-03 0. -1.
    9900012    2    1    2    0    0  0.31981164135E+02  0.98530308396E+01  0.27635964851E+02  0.47787266949E+02  0.19999981325E+02 0.  0.
        -12    1    1    2    0    0 -0.31981164135E+02 -0.98530308396E+01 -0.27635964851E+02  0.43400733051E+02  0.00000000000E+00 0.  1.
         11    1    3    3    0    0  0.13663300515E+02  0.81495103707E+01  0.10297445888E+02  0.18950928535E+02  0.51100000000E-03 0. -1.
        -11    1    3    3    0    0 -0.17746529727E+01 -0.16476957202E+01  0.33171107142E+01  0.41070084138E+01  0.51100000000E-03 0.  1.
        -12    1    3    3    0    0  0.20092516593E+02  0.33512161890E+01  0.14021408249E+02  0.24729330000E+02  0.00000000000E+00 0.  1.
</event>
<event>
 7    1  0.8300060E-011  0.4778727E+02  0.7816164E-02  0.1312668E+00
        -11   -1    0    0    0    0  0.00000000000E+00  0.00000000000E+00  0.45593999997E+02  0.45594000000E+02  0.51100000000E-03 0.  1.
         11   -1    0    0    0    0 -0.00000000000E+00 -0.00000000000E+00 -0.45593999997E+02  0.45594000000E+02  0.51100000000E-03 0. -1.
    9900012    2    1    2    0    0  0.18622725508E+02 -0.38375793276E+02  0.80072203272E+01  0.47787274288E+02  0.20000014790E+02 0.  0.
         12    1    1    2    0    0 -0.18622725508E+02  0.38375793276E+02 -0.80072203272E+01  0.43400725712E+02  0.00000000000E+00 0. -1.
         11    1    3    3    0    0  0.13518474323E+02 -0.33196851088E+02  0.78906185421E+01  0.36702069852E+02  0.51100000000E-03 0.  1.
        -11    1    3    3    0    0  0.15679159069E+01 -0.68029455017E+01 -0.96155824012E+00  0.70471996070E+01  0.51100000000E-03 0. -1.
         12    1    3    3    0    0  0.35363352780E+01  0.16240033136E+01  0.10781600252E+01  0.40380048293E+01  0.00000000000E+00 0. -1.
</event>
<event>
 7    1  0.8300060E-011  0.4778727E+02  0.7816164E-02  0.1312668E+00
        -11   -1    0    0    0    0  0.00000000000E+00  0.00000000000E+00  0.45593999997E+02  0.45594000000E+02  0.51100000000E-03 0. -1.
         11   -1    0    0    0    0 -0.00000000000E+00 -0.00000000000E+00 -0.45593999997E+02  0.45594000000E+02  0.51100000000E-03 0.  1.
    9900012    2    1    2    0    0  0.26075719085E+02  0.12663378306E+02 -0.32300448220E+02  0.47787271537E+02  0.20000002247E+02 0.  0.
         12    1    1    2    0    0 -0.26075719085E+02 -0.12663378306E+02  0.32300448220E+02  0.43400728463E+02  0.00000000000E+00 0. -1.
         11    1    3    3    0    0  0.15388723652E+01  0.10014924326E+02 -0.68689506198E+01  0.12241295695E+02  0.51100000000E-03 0. -1.
        -11    1    3    3    0    0  0.21388071241E+02  0.14133344158E+01 -0.22410365053E+02  0.31010829845E+02  0.51100000000E-03 0.  1.
         12    1    3    3    0    0  0.31487754788E+01  0.12351195638E+01 -0.30211325467E+01  0.45351459974E+01  0.00000000000E+00 0. -1.
</event>
<event>
 7    1  0.8300060E-011  0.4778727E+02  0.7816164E-02  0.1312668E+00
        -11   -1    0    0    0    0  0.00000000000E+00  0.00000000000E+00  0.45593999997E+02  0.45594000000E+02  0.51100000000E-03 0.  1.
         11   -1    0    0    0    0 -0.00000000000E+00 -0.00000000000E+00 -0.45593999997E+02  0.45594000000E+02  0.51100000000E-03 0. -1.
    9900012    2    1    2    0    0  0.25170769154E+02 -0.28658931517E+02 -0.20705584693E+02  0.47787271746E+02  0.20000003200E+02 0.  0.
         12    1    1    2    0    0 -0.25170769154E+02  0.28658931517E+02  0.20705584693E+02  0.43400728254E+02  0.00000000000E+00 0. -1.
         11    1    3    3    0    0 -0.56840586851E+00 -0.12834612125E+01  0.29800907858E+01  0.32941310338E+01  0.51100000000E-03 0. -1.
        -11    1    3    3    0    0  0.22576294568E+02 -0.23428737406E+02 -0.19533341687E+02  0.37949258894E+02  0.51100000000E-03 0.  1.
         12    1    3    3    0    0  0.31628804542E+01 -0.39467328990E+01 -0.41523337911E+01  0.65438818187E+01  0.00000000000E+00 0. -1.
</event>
<event>
 7    1  0.8300060E-011  0.4778727E+02  0.7816164E-02  0.1312668E+00
        -11   -1    0    0    0    0  0.00000000000E+00  0.00000000000E+00  0.45593999997E+02  0.45594000000E+02  0.51100000000E-03 0. -1.
         11   -1    0    0    0    0 -0.00000000000E+00 -0.00000000000E+00 -0.45593999997E+02  0.45594000000E+02  0.51100000000E-03 0.  1.
    9900012    2    1    2    0    0 -0.30839357661E+02 -0.84183879227E+01  0.29354522346E+02  0.47787271684E+02  0.20000002916E+02 0.  0.
        -12    1    1    2    0    0  0.30839357661E+02  0.84183879227E+01 -0.29354522346E+02  0.43400728316E+02  0.00000000000E+00 0.  1.
         11    1    3    3    0    0 -0.68295351203E+01  0.24017456612E+01  0.16904853997E+02  0.18389807533E+02  0.51100000000E-03 0. -1.
        -11    1    3    3    0    0 -0.23826735480E+02 -0.10449235268E+02  0.12659379748E+02  0.28933712814E+02  0.51100000000E-03 0.  1.
         12    1    3    3    0    0 -0.18308706133E+00 -0.37089831554E+00 -0.20971139852E+00  0.46375133765E+00  0.00000000000E+00 0. -1.
</event>
<event>
 7    1  0.8300060E-011  0.4778727E+02  0.7816164E-02  0.1312668E+00
        -11   -1    0    0    0    0  0.00000000000E+00  0.00000000000E+00  0.45593999997E+02  0.45594000000E+02  0.51100000000E-03 0. -1.
         11   -1    0    0    0    0 -0.00000000000E+00 -0.00000000000E+00 -0.45593999997E+02  0.45594000000E+02  0.51100000000E-03 0.  1.
    9900012    2    1    2    0    0  0.24842073366E+02  0.85843838705E+01  0.34536977161E+02  0.47787273659E+02  0.20000011919E+02 0.  0.
        -12    1    1    2    0    0 -0.24842073366E+02 -0.85843838705E+01 -0.34536977161E+02  0.43400726341E+02  0.00000000000E+00 0.  1.
         11    1    3    3    0    0  0.17191088703E+02  0.13450934006E+02  0.25916299646E+02  0.33883856688E+02  0.51100000000E-03 0. -1.
        -11    1    3    3    0    0  0.37834613769E+01 -0.26094664460E+01  0.49123239647E+00  0.46222510372E+01  0.51100000000E-03 0.  1.
         12    1    3    3    0    0  0.38675232860E+01 -0.22570836899E+01  0.81294451184E+01  0.92811659334E+01  0.00000000000E+00 0. -1.
</event>
<event>
 7    1  0.8300060E-011  0.4778727E+02  0.7816164E-02  0.1312668E+00
        -11   -1    0    0    0    0  0.00000000000E+00  0.00000000000E+00  0.45593999997E+02  0.45594000000E+02  0.51100000000E-03 0. -1.
         11   -1    0    0    0    0 -0.00000000000E+00 -0.00000000000E+00 -0.45593999997E+02  0.45594000000E+02  0.51100000000E-03 0.  1.
    9900012    2    1    2    0    0 -0.33281090178E+01  0.27476248055E+02  0.33430565790E+02  0.47787271367E+02  0.20000001471E+02 0.  0.
        -12    1    1    2    0    0  0.33281090178E+01 -0.27476248055E+02 -0.33430565790E+02  0.43400728633E+02  0.00000000000E+00 0.  1.
         11    1    3    3    0    0 -0.37294884299E+00  0.15024877162E+02  0.13214581708E+02  0.20012775783E+02  0.51100000000E-03 0. -1.
        -11    1    3    3    0    0 -0.19831416416E+01  0.58830573515E+00 -0.18031408706E+01  0.27441340472E+01  0.51100000000E-03 0.  1.
        -12    1    3    3    0    0 -0.97201853319E+00  0.11863065158E+02  0.22019124953E+02  0.25030361537E+02  0.00000000000E+00 0.  1.
</event>
<event>
 7    1  0.8300060E-011  0.4778727E+02  0.7816164E-02  0.1312668E+00
        -11   -1    0    0    0    0  0.00000000000E+00  0.00000000000E+00  0.45593999997E+02  0.45594000000E+02  0.51100000000E-03 0. -1.
         11   -1    0    0    0    0 -0.00000000000E+00 -0.00000000000E+00 -0.45593999997E+02  0.45594000000E+02  0.51100000000E-03 0.  1.
    9900012    2    1    2    0    0  0.16618183338E+02  0.30019181215E+02 -0.26576454669E+02  0.47787271884E+02  0.20000003826E+02 0.  0.
         12    1    1    2    0    0 -0.16618183338E+02 -0.30019181215E+02  0.26576454669E+02  0.43400728116E+02  0.00000000000E+00 0. -1.
         11    1    3    3    0    0  0.63519391937E+00  0.18625685207E+01  0.57756663987E+00  0.20509062129E+01  0.51100000000E-03 0. -1.
        -11    1    3    3    0    0  0.42623702869E+01  0.52769260618E+01 -0.16626857257E+02  0.17957341998E+02  0.51100000000E-03 0.  1.
        -12    1    3    3    0    0  0.11720619132E+02  0.22879686632E+02 -0.10527164051E+02  0.27779023672E+02  0.00000000000E+00 0.  1.
</event>
<event>
 7    1  0.8300060E-011  0.4778727E+02  0.7816164E-02  0.1312668E+00
        -11   -1    0    0    0    0  0.00000000000E+00  0.00000000000E+00  0.45593999997E+02  0.45594000000E+02  0.51100000000E-03 0. -1.
         11   -1    0    0    0    0 -0.00000000000E+00 -0.00000000000E+00 -0.45593999997E+02  0.45594000000E+02  0.51100000000E-03 0.  1.
    9900012    2    1    2    0    0 -0.13979175818E+02 -0.22888500210E+01 -0.41023983418E+02  0.47787269517E+02  0.19999993038E+02 0.  0.
         12    1    1    2    0    0  0.13979175818E+02  0.22888500210E+01  0.41023983418E+02  0.43400730483E+02  0.00000000000E+00 0. -1.
         11    1    3    3    0    0 -0.11268750968E+02  0.78047987876E+01 -0.20878896192E+02  0.24976547779E+02  0.51100000000E-03 0. -1.
        -11    1    3    3    0    0 -0.10825796993E+01 -0.76148232072E+01 -0.13578527500E+02  0.15605573383E+02  0.51100000000E-03 0.  1.
         12    1    3    3    0    0 -0.16278451508E+01 -0.24788256013E+01 -0.65665597251E+01  0.72051483552E+01  0.00000000000E+00 0. -1.
</event>
<event>
 7    1  0.8300060E-011  0.4778727E+02  0.7816164E-02  0.1312668E+00
        -11   -1    0    0    0    0  0.00000000000E+00  0.00000000000E+00  0.45593999997E+02  0.45594000000E+02  0.51100000000E-03 0. -1.
         11   -1    0    0    0    0 -0.00000000000E+00 -0.00000000000E+00 -0.45593999997E+02  0.45594000000E+02  0.51100000000E-03 0.  1.
    9900012    2    1    2    0    0 -0.13290786589E+02 -0.40820359465E+02  0.63778176133E+01  0.47787270600E+02  0.19999997972E+02 0.  0.
        -12    1    1    2    0    0  0.13290786589E+02  0.40820359465E+02 -0.63778176133E+01  0.43400729400E+02  0.00000000000E+00 0.  1.
         11    1    3    3    0    0 -0.56406896140E+01 -0.15718190150E+02  0.18701090122E+01  0.16804052752E+02  0.51100000000E-03 0. -1.
        -11    1    3    3    0    0 -0.88959673218E+01 -0.12620710448E+02  0.87426245025E+01  0.17744127204E+02  0.51100000000E-03 0.  1.
        -12    1    3    3    0    0  0.12458703471E+01 -0.12481458867E+02 -0.42349159014E+01  0.13239090643E+02  0.00000000000E+00 0.  1.
</event>
<event>
 7    1  0.8300060E-011  0.4778727E+02  0.7816164E-02  0.1312668E+00
        -11   -1    0    0    0    0  0.00000000000E+00  0.00000000000E+00  0.45593999997E+02  0.45594000000E+02  0.51100000000E-03 0. -1.
         11   -1    0    0    0    0 -0.00000000000E+00 -0.00000000000E+00 -0.45593999997E+02  0.45594000000E+02  0.51100000000E-03 0.  1.
    9900012    2    1    2    0    0 -0.42746539268E+02 -0.74396119093E+01 -0.10045836367E+01  0.47787266906E+02  0.19999981133E+02 0.  0.
        -12    1    1    2    0    0  0.42746539268E+02  0.74396119093E+01  0.10045836367E+01  0.43400733094E+02  0.00000000000E+00 0.  1.
         11    1    3    3    0    0 -0.10027367494E+02  0.84015195403E-01  0.26275773921E+01  0.10366258757E+02  0.51100000000E-03 0. -1.
        -11    1    3    3    0    0 -0.26390350004E+02 -0.10350421868E+02  0.21017349664E+01  0.28425324911E+02  0.51100000000E-03 0.  1.
        -12    1    3    3    0    0 -0.63288217703E+01  0.28267947630E+01 -0.57338959952E+01  0.89956832379E+01  0.00000000000E+00 0.  1.
</event>
<event>
 7    1  0.8300060E-011  0.4778728E+02  0.7816164E-02  0.1312668E+00
        -11   -1    0    0    0    0  0.00000000000E+00  0.00000000000E+00  0.45593999997E+02  0.45594000000E+02  0.51100000000E-03 0.  1.
         11   -1    0    0    0    0 -0.00000000000E+00 -0.00000000000E+00 -0.45593999997E+02  0.45594000000E+02  0.51100000000E-03 0. -1.
    9900012    2    1    2    0    0 -0.11162587493E+01 -0.43287963395E+02 -0.29204458404E+01  0.47787276361E+02  0.20000024242E+02 0.  0.
        -12    1    1    2    0    0  0.11162587493E+01  0.43287963395E+02  0.29204458404E+01  0.43400723639E+02  0.00000000000E+00 0.  1.
         11    1    3    3    0    0  0.14008586120E+01  0.12700964508E+01 -0.12654411838E+00  0.18951420844E+01  0.51100000000E-03 0.  1.
        -11    1    3    3    0    0 -0.26220699977E+01 -0.20643745251E+02  0.36438721641E+01  0.21126222418E+02  0.51100000000E-03 0. -1.
         12    1    3    3    0    0  0.10495263640E+00 -0.23914314595E+02 -0.64377738861E+01  0.24765911859E+02  0.00000000000E+00 0. -1.
</event>
<event>
 7    1  0.8300060E-011  0.4778727E+02  0.7816164E-02  0.1312668E+00
        -11   -1    0    0    0    0  0.00000000000E+00  0.00000000000E+00  0.45593999997E+02  0.45594000000E+02  0.51100000000E-03 0. -1.
         11   -1    0    0    0    0 -0.00000000000E+00 -0.00000000000E+00 -0.45593999997E+02  0.45594000000E+02  0.51100000000E-03 0.  1.
    9900012    2    1    2    0    0  0.16709063858E+02 -0.32084563286E+02  0.23979389620E+02  0.47787272554E+02  0.20000006884E+02 0.  0.
        -12    1    1    2    0    0 -0.16709063858E+02  0.32084563286E+02 -0.23979389620E+02  0.43400727446E+02  0.00000000000E+00 0.  1.
         11    1    3    3    0    0  0.96073322289E+01 -0.18128404028E+02  0.10741084428E+02  0.23158384230E+02  0.51100000000E-03 0. -1.
        -11    1    3    3    0    0 -0.26028636330E+01 -0.32222850407E+01  0.84089093433E+01  0.93737813384E+01  0.51100000000E-03 0.  1.
        -12    1    3    3    0    0  0.97045952618E+01 -0.10733874217E+02  0.48293958486E+01  0.15255106986E+02  0.00000000000E+00 0.  1.
</event>
<event>
 7    1  0.8300060E-011  0.4778727E+02  0.7816164E-02  0.1312668E+00
        -11   -1    0    0    0    0  0.00000000000E+00  0.00000000000E+00  0.45593999997E+02  0.45594000000E+02  0.51100000000E-03 0.  1.
         11   -1    0    0    0    0 -0.00000000000E+00 -0.00000000000E+00 -0.45593999997E+02  0.45594000000E+02  0.51100000000E-03 0. -1.
    9900012    2    1    2    0    0 -0.16815674164E+02  0.30454243599E+02  0.25949865476E+02  0.47787269948E+02  0.19999995003E+02 0.  0.
        -12    1    1    2    0    0  0.16815674164E+02 -0.30454243599E+02 -0.25949865476E+02  0.43400730052E+02  0.00000000000E+00 0.  1.
         11    1    3    3    0    0  0.16557983530E+01  0.10559196283E+02  0.27075907513E+01  0.11025848823E+02  0.51100000000E-03 0.  1.
        -11    1    3    3    0    0 -0.33143827501E+01  0.50700493225E+01  0.11953511881E+01  0.61740908538E+01  0.51100000000E-03 0. -1.
         12    1    3    3    0    0 -0.15157089766E+02  0.14824997993E+02  0.22046923537E+02  0.30587330271E+02  0.00000000000E+00 0. -1.
</event>
<event>
 7    1  0.8300060E-011  0.4778727E+02  0.7816164E-02  0.1312668E+00
        -11   -1    0    0    0    0  0.00000000000E+00  0.00000000000E+00  0.45593999997E+02  0.45594000000E+02  0.51100000000E-03 0. -1.
         11   -1    0    0    0    0 -0.00000000000E+00 -0.00000000000E+00 -0.45593999997E+02  0.45594000000E+02  0.51100000000E-03 0.  1.
    9900012    2    1    2    0    0 -0.20193534412E+02 -0.28423015494E+02  0.25845244851E+02  0.47787270476E+02  0.19999997407E+02 0.  0.
        -12    1    1    2    0    0  0.20193534412E+02  0.28423015494E+02 -0.25845244851E+02  0.43400729524E+02  0.00000000000E+00 0.  1.
         11    1    3    3    0    0 -0.39272351450E+01 -0.11629791993E+02  0.72435941644E+01  0.14252890737E+02  0.51100000000E-03 0. -1.
        -11    1    3    3    0    0 -0.39267630640E+01 -0.79038888329E+01  0.15760334788E+02  0.18063196830E+02  0.51100000000E-03 0.  1.
        -12    1    3    3    0    0 -0.12339536203E+02 -0.88893346677E+01  0.28413158993E+01  0.15471182908E+02  0.00000000000E+00 0.  1.
</event>
<event>
 7    1  0.8300060E-011  0.4778727E+02  0.7816164E-02  0.1312668E+00
        -11   -1    0    0    0    0  0.00000000000E+00  0.00000000000E+00  0.45593999997E+02  0.45594000000E+02  0.51100000000E-03 0. -1.
         11   -1    0    0    0    0 -0.00000000000E+00 -0.00000000000E+00 -0.45593999997E+02  0.45594000000E+02  0.51100000000E-03 0.  1.
    9900012    2    1    2    0    0  0.18452052339E+02 -0.71934871384E+01  0.38618636314E+02  0.47787267707E+02  0.19999984785E+02 0.  0.
        -12    1    1    2    0    0 -0.18452052339E+02  0.71934871384E+01 -0.38618636314E+02  0.43400732293E+02  0.00000000000E+00 0.  1.
         11    1    3    3    0    0  0.10726518357E+02 -0.25128281216E+01  0.20403375826E+02  0.23187717580E+02  0.51100000000E-03 0. -1.
        -11    1    3    3    0    0  0.94815383285E+01  0.19417223672E+01  0.10415182648E+02  0.14217801682E+02  0.51100000000E-03 0.  1.
        -12    1    3    3    0    0 -0.17560043458E+01 -0.66223813840E+01  0.78000778412E+01  0.10381748446E+02  0.00000000000E+00 0.  1.
</event>
<event>
 7    1  0.8300060E-011  0.4778727E+02  0.7816164E-02  0.1312668E+00
        -11   -1    0    0    0    0  0.00000000000E+00  0.00000000000E+00  0.45593999997E+02  0.45594000000E+02  0.51100000000E-03 0. -1.
         11   -1    0    0    0    0 -0.00000000000E+00 -0.00000000000E+00 -0.45593999997E+02  0.45594000000E+02  0.51100000000E-03 0.  1.
    9900012    2    1    2    0    0  0.81360080379E+01  0.27190659860E+02 -0.32834377480E+02  0.47787274719E+02  0.20000016754E+02 0.  0.
         12    1    1    2    0    0 -0.81360080379E+01 -0.27190659860E+02  0.32834377480E+02  0.43400725281E+02  0.00000000000E+00 0. -1.
         11    1    3    3    0    0 -0.10400247905E+01  0.48118852009E+01  0.19957464124E+01  0.53121459652E+01  0.51100000000E-03 0. -1.
        -11    1    3    3    0    0  0.34161607110E+01  0.91146660201E+01 -0.16076996907E+02  0.18794071418E+02  0.51100000000E-03 0.  1.
         12    1    3    3    0    0  0.57598721174E+01  0.13264108639E+02 -0.18753126985E+02  0.23681057335E+02  0.00000000000E+00 0. -1.
</event>
<event>
 7    1  0.8300060E-011  0.4778727E+02  0.7816164E-02  0.1312668E+00
        -11   -1    0    0    0    0  0.00000000000E+00  0.00000000000E+00  0.45593999997E+02  0.45594000000E+02  0.51100000000E-03 0. -1.
         11   -1    0    0    0    0 -0.00000000000E+00 -0.00000000000E+00 -0.45593999997E+02  0.45594000000E+02  0.51100000000E-03 0.  1.
    9900012    2    1    2    0    0 -0.11113376129E+02 -0.14627484232E+02 -0.39321148970E+02  0.47787272123E+02  0.20000004916E+02 0.  0.
         12    1    1    2    0    0  0.11113376129E+02  0.14627484232E+02  0.39321148970E+02  0.43400727877E+02  0.00000000000E+00 0. -1.
         11    1    3    3    0    0 -0.29601356469E+01  0.32618937625E+01 -0.98081962071E+01  0.10751886675E+02  0.51100000000E-03 0. -1.
        -11    1    3    3    0    0 -0.21136567166E+01 -0.15250216167E+02 -0.17309849954E+02  0.23166086065E+02  0.51100000000E-03 0.  1.
         12    1    3    3    0    0 -0.60395837655E+01 -0.26391618273E+01 -0.12203102809E+02  0.13869299383E+02  0.00000000000E+00 0. -1.
</event>
<event>
 7    1  0.8300060E-011  0.4778727E+02  0.7816164E-02  0.1312668E+00
        -11   -1    0    0    0    0  0.00000000000E+00  0.00000000000E+00  0.45593999997E+02  0.45594000000E+02  0.51100000000E-03 0. -1.
         11   -1    0    0    0    0 -0.00000000000E+00 -0.00000000000E+00 -0.45593999997E+02  0.45594000000E+02  0.51100000000E-03 0.  1.
    9900012    2    1    2    0    0  0.38906771968E+02  0.11162293869E+02 -0.15661712704E+02  0.47787274727E+02  0.20000016789E+02 0.  0.
         12    1    1    2    0    0 -0.38906771968E+02 -0.11162293869E+02  0.15661712704E+02  0.43400725273E+02  0.00000000000E+00 0. -1.
         11    1    3    3    0    0  0.18866917616E+01  0.58591195734E+00  0.90329704294E+00  0.21722901358E+01  0.51100000000E-03 0. -1.
        -11    1    3    3    0    0  0.16594753434E+02  0.16394808710E+01 -0.16299674256E+02  0.23318514536E+02  0.51100000000E-03 0.  1.
        -12    1    3    3    0    0  0.20425326773E+02  0.89369010402E+01 -0.26533549143E+00  0.22296470055E+02  0.00000000000E+00 0.  1.
</event>
<event>
 7    1  0.8300060E-011  0.4778727E+02  0.7816164E-02  0.1312668E+00
        -11   -1    0    0    0    0  0.00000000000E+00  0.00000000000E+00  0.45593999997E+02  0.45594000000E+02  0.51100000000E-03 0. -1.
         11   -1    0    0    0    0 -0.00000000000E+00 -0.00000000000E+00 -0.45593999997E+02  0.45594000000E+02  0.51100000000E-03 0.  1.
    9900012    2    1    2    0    0 -0.10520653508E+02  0.26964886766E+02 -0.32339357781E+02  0.47787270395E+02  0.19999997038E+02 0.  0.
         12    1    1    2    0    0  0.10520653508E+02 -0.26964886766E+02  0.32339357781E+02  0.43400729605E+02  0.00000000000E+00 0. -1.
         11    1    3    3    0    0 -0.14458276519E+01  0.75857032240E+00  0.24897735116E+01  0.29773845793E+01  0.51100000000E-03 0. -1.
        -11    1    3    3    0    0 -0.85187856928E+01  0.26143043451E+02 -0.33318754006E+02  0.43199164336E+02  0.51100000000E-03 0.  1.
        -12    1    3    3    0    0 -0.55604016364E+00  0.63272992554E-01 -0.15103772871E+01  0.16107214795E+01  0.00000000000E+00 0.  1.
</event>
<event>
 7    1  0.8300060E-011  0.4778727E+02  0.7816164E-02  0.1312668E+00
        -11   -1    0    0    0    0  0.00000000000E+00  0.00000000000E+00  0.45593999997E+02  0.45594000000E+02  0.51100000000E-03 0. -1.
         11   -1    0    0    0    0 -0.00000000000E+00 -0.00000000000E+00 -0.45593999997E+02  0.45594000000E+02  0.51100000000E-03 0.  1.
    9900012    2    1    2    0    0 -0.13796769078E+02  0.20867319700E+02 -0.35465861559E+02  0.47787271843E+02  0.20000003640E+02 0.  0.
         12    1    1    2    0    0  0.13796769078E+02 -0.20867319700E+02  0.35465861559E+02  0.43400728157E+02  0.00000000000E+00 0. -1.
         11    1    3    3    0    0  0.30548955119E+01  0.18969880344E+01 -0.17602258479E+01  0.40036665056E+01  0.51100000000E-03 0. -1.
        -11    1    3    3    0    0 -0.14191788158E+02  0.15699839039E+02 -0.33421236938E+02  0.39558448854E+02  0.51100000000E-03 0.  1.
        -12    1    3    3    0    0 -0.26598764310E+01  0.32704926265E+01 -0.28439877349E+00  0.42251564835E+01  0.00000000000E+00 0.  1.
</event>
<event>
 7    1  0.8300060E-011  0.4778727E+02  0.7816164E-02  0.1312668E+00
        -11   -1    0    0    0    0  0.00000000000E+00  0.00000000000E+00  0.45593999997E+02  0.45594000000E+02  0.51100000000E-03 0.  1.
         11   -1    0    0    0    0 -0.00000000000E+00 -0.00000000000E+00 -0.45593999997E+02  0.45594000000E+02  0.51100000000E-03 0. -1.
    9900012    2    1    2    0    0  0.40754408692E+02 -0.10653384452E+02  0.10450211039E+02  0.47787270296E+02  0.19999996587E+02 0.  0.
        -12    1    1    2    0    0 -0.40754408692E+02  0.10653384452E+02 -0.10450211039E+02  0.43400729704E+02  0.00000000000E+00 0.  1.
         11    1    3    3    0    0  0.23516046996E+02 -0.88667281862E+01  0.70866764681E+01  0.26112148871E+02  0.51100000000E-03 0. -1.
        -11    1    3    3    0    0  0.39200925722E+01 -0.12091237818E+01 -0.45867315778E+01  0.61536341232E+01  0.51100000000E-03 0.  1.
        -12    1    3    3    0    0  0.13318269124E+02 -0.57753248394E+00  0.79502661482E+01  0.15521487302E+02  0.00000000000E+00 0.  1.
</event>
<event>
 7    1  0.8300060E-011  0.4778727E+02  0.7816164E-02  0.1312668E+00
        -11   -1    0    0    0    0  0.00000000000E+00  0.00000000000E+00  0.45593999997E+02  0.45594000000E+02  0.51100000000E-03 0. -1.
         11   -1    0    0    0    0 -0.00000000000E+00 -0.00000000000E+00 -0.45593999997E+02  0.45594000000E+02  0.51100000000E-03 0.  1.
    9900012    2    1    2    0    0 -0.73737829286E+01 -0.30329283442E+02  0.30156010565E+02  0.47787273255E+02  0.20000010081E+02 0.  0.
        -12    1    1    2    0    0  0.73737829286E+01  0.30329283442E+02 -0.30156010565E+02  0.43400726745E+02  0.00000000000E+00 0.  1.
         11    1    3    3    0    0  0.44601104311E+01 -0.48561934933E-01  0.32264527161E+01  0.55049923442E+01  0.51100000000E-03 0. -1.
        -11    1    3    3    0    0 -0.45142072278E+01 -0.14281207436E+02  0.11554139471E+02  0.18916371003E+02  0.51100000000E-03 0.  1.
         12    1    3    3    0    0 -0.73196861319E+01 -0.15999514071E+02  0.15375418377E+02  0.23365909908E+02  0.00000000000E+00 0. -1.
</event>
<event>
 7    1  0.8300060E-011  0.4778726E+02  0.7816164E-02  0.1312668E+00
        -11   -1    0    0    0    0  0.00000000000E+00  0.00000000000E+00  0.45593999997E+02  0.45594000000E+02  0.51100000000E-03 0. -1.
         11   -1    0    0    0    0 -0.00000000000E+00 -0.00000000000E+00 -0.45593999997E+02  0.45594000000E+02  0.51100000000E-03 0.  1.
    9900012    2    1    2    0    0  0.44679701328E+01 -0.24148994765E+02 -0.35783896362E+02  0.47787263323E+02  0.19999964794E+02 0.  0.
         12    1    1    2    0    0 -0.44679701328E+01  0.24148994765E+02  0.35783896362E+02  0.43400736677E+02  0.00000000000E+00 0. -1.
         11    1    3    3    0    0 -0.17650388354E+01 -0.17226214283E+02 -0.13772855052E+02  0.22125762296E+02  0.51100000000E-03 0. -1.
        -11    1    3    3    0    0  0.82308971503E+01 -0.29801438166E+01 -0.13980190496E+02  0.16494685557E+02  0.51100000000E-03 0.  1.
         12    1    3    3    0    0 -0.19978881820E+01 -0.39426366653E+01 -0.80308508145E+01  0.91668154703E+01  0.00000000000E+00 0. -1.
</event>
<event>
 7    1  0.8300060E-011  0.4778727E+02  0.7816164E-02  0.1312668E+00
        -11   -1    0    0    0    0  0.00000000000E+00  0.00000000000E+00  0.45593999997E+02  0.45594000000E+02  0.51100000000E-03 0. -1.
         11   -1    0    0    0    0 -0.00000000000E+00 -0.00000000000E+00 -0.45593999997E+02  0.45594000000E+02  0.51100000000E-03 0.  1.
    9900012    2    1    2    0    0  0.20069549683E+02  0.98721534353E+01 -0.37193775793E+02  0.47787271945E+02  0.20000004108E+02 0.  0.
         12    1    1    2    0    0 -0.20069549683E+02 -0.98721534353E+01  0.37193775793E+02  0.43400728055E+02  0.00000000000E+00 0. -1.
         11    1    3    3    0    0  0.22223312990E+01 -0.57747517913E+00  0.14011803598E+01  0.26898960290E+01  0.51100000000E-03 0. -1.
        -11    1    3    3    0    0  0.16107507820E+02  0.47123834499E+01 -0.23693799674E+02  0.29035400965E+02  0.51100000000E-03 0.  1.
         12    1    3    3    0    0  0.17397105636E+01  0.57372451645E+01 -0.14901156479E+02  0.16061974951E+02  0.00000000000E+00 0. -1.
</event>
<event>
 7    1  0.8300060E-011  0.4778727E+02  0.7816164E-02  0.1312668E+00
        -11   -1    0    0    0    0  0.00000000000E+00  0.00000000000E+00  0.45593999997E+02  0.45594000000E+02  0.51100000000E-03 0. -1.
         11   -1    0    0    0    0 -0.00000000000E+00 -0.00000000000E+00 -0.45593999997E+02  0.45594000000E+02  0.51100000000E-03 0.  1.
    9900012    2    1    2    0    0 -0.15398750420E+02 -0.24436531154E+02 -0.32393790689E+02  0.47787271383E+02  0.20000001543E+02 0.  0.
         12    1    1    2    0    0  0.15398750420E+02  0.24436531154E+02  0.32393790689E+02  0.43400728617E+02  0.00000000000E+00 0. -1.
         11    1    3    3    0    0 -0.71457871377E+00  0.29039193469E+01 -0.68812069387E+01  0.75029580504E+01  0.51100000000E-03 0. -1.
        -11    1    3    3    0    0 -0.23903819258E+01 -0.31831370964E+01 -0.43444319312E+01  0.58923999009E+01  0.51100000000E-03 0.  1.
         12    1    3    3    0    0 -0.12293789780E+02 -0.24157313404E+02 -0.21168151819E+02  0.34391913432E+02  0.00000000000E+00 0. -1.
</event>
<event>
 7    1  0.8300060E-011  0.4778727E+02  0.7816164E-02  0.1312668E+00
        -11   -1    0    0    0    0  0.00000000000E+00  0.00000000000E+00  0.45593999997E+02  0.45594000000E+02  0.51100000000E-03 0. -1.
         11   -1    0    0    0    0 -0.00000000000E+00 -0.00000000000E+00 -0.45593999997E+02  0.45594000000E+02  0.51100000000E-03 0.  1.
    9900012    2    1    2    0    0  0.18594556065E+02  0.31762063949E+02 -0.23000814880E+02  0.47787266058E+02  0.19999977264E+02 0.  0.
         12    1    1    2    0    0 -0.18594556065E+02 -0.31762063949E+02  0.23000814880E+02  0.43400733942E+02  0.00000000000E+00 0. -1.
         11    1    3    3    0    0  0.12098467762E+02  0.27564870347E+02 -0.18962272035E+02  0.35577559788E+02  0.51100000000E-03 0.  1.
        -11    1    3    3    0    0  0.56647373324E+01 -0.42535261086E-01 -0.52489825409E+01  0.77228800501E+01  0.51100000000E-03 0. -1.
        -12    1    3    3    0    0  0.83135097144E+00  0.42397288629E+01  0.12104396963E+01  0.44868262199E+01  0.00000000000E+00 0.  1.
</event>
<event>
 7    1  0.8300060E-011  0.4778727E+02  0.7816164E-02  0.1312668E+00
        -11   -1    0    0    0    0  0.00000000000E+00  0.00000000000E+00  0.45593999997E+02  0.45594000000E+02  0.51100000000E-03 0. -1.
         11   -1    0    0    0    0 -0.00000000000E+00 -0.00000000000E+00 -0.45593999997E+02  0.45594000000E+02  0.51100000000E-03 0.  1.
    9900012    2    1    2    0    0  0.38651035650E+01  0.41032534540E+01 -0.43033097280E+02  0.47787272172E+02  0.20000005141E+02 0.  0.
         12    1    1    2    0    0 -0.38651035650E+01 -0.41032534540E+01  0.43033097280E+02  0.43400727828E+02  0.00000000000E+00 0. -1.
         11    1    3    3    0    0  0.28270929943E+01  0.41463022386E+00  0.12815940179E+01  0.31315900927E+01  0.51100000000E-03 0. -1.
        -11    1    3    3    0    0 -0.14083864592E+01  0.63448948211E+00 -0.15430849007E+02  0.15507973132E+02  0.51100000000E-03 0.  1.
         12    1    3    3    0    0  0.24463970300E+01  0.30541337480E+01 -0.28883842291E+02  0.29147708947E+02  0.00000000000E+00 0. -1.
</event>
<event>
 7    1  0.8300060E-011  0.4778727E+02  0.7816164E-02  0.1312668E+00
        -11   -1    0    0    0    0  0.00000000000E+00  0.00000000000E+00  0.45593999997E+02  0.45594000000E+02  0.51100000000E-03 0. -1.
         11   -1    0    0    0    0 -0.00000000000E+00 -0.00000000000E+00 -0.45593999997E+02  0.45594000000E+02  0.51100000000E-03 0.  1.
    9900012    2    1    2    0    0 -0.26998717528E+02 -0.80373872795E+01  0.33016553989E+02  0.47787272129E+02  0.20000004945E+02 0.  0.
        -12    1    1    2    0    0  0.26998717528E+02  0.80373872795E+01 -0.33016553989E+02  0.43400727871E+02  0.00000000000E+00 0.  1.
         11    1    3    3    0    0 -0.20738701645E+02 -0.66812150161E+01  0.17034385375E+02  0.27656873745E+02  0.51100000000E-03 0. -1.
        -11    1    3    3    0    0  0.91715433754E+00 -0.26648275396E+01  0.10851328307E+02  0.11211324818E+02  0.51100000000E-03 0.  1.
         12    1    3    3    0    0 -0.71771702204E+01  0.13086552761E+01  0.51308403075E+01  0.89190735654E+01  0.00000000000E+00 0. -1.
</event>
<event>
 7    1  0.8300060E-011  0.4778727E+02  0.7816164E-02  0.1312668E+00
        -11   -1    0    0    0    0  0.00000000000E+00  0.00000000000E+00  0.45593999997E+02  0.45594000000E+02  0.51100000000E-03 0. -1.
         11   -1    0    0    0    0 -0.00000000000E+00 -0.00000000000E+00 -0.45593999997E+02  0.45594000000E+02  0.51100000000E-03 0.  1.
    9900012    2    1    2    0    0 -0.14565878987E+02 -0.13175325474E+02 -0.38702313885E+02  0.47787272678E+02  0.20000007448E+02 0.  0.
         12    1    1    2    0    0  0.14565878987E+02  0.13175325474E+02  0.38702313885E+02  0.43400727322E+02  0.00000000000E+00 0. -1.
         11    1    3    3    0    0 -0.86694641521E+01  0.35313594670E+01 -0.14556780579E+02  0.17306934143E+02  0.51100000000E-03 0. -1.
        -11    1    3    3    0    0 -0.51379734004E+01 -0.16374753107E+02 -0.24180414921E+02  0.29651707809E+02  0.51100000000E-03 0.  1.
         12    1    3    3    0    0 -0.75844143431E+00 -0.33193183390E+00  0.34881614849E-01  0.82863072517E+00  0.00000000000E+00 0. -1.
</event>
<event>
 7    1  0.8300060E-011  0.4778727E+02  0.7816164E-02  0.1312668E+00
        -11   -1    0    0    0    0  0.00000000000E+00  0.00000000000E+00  0.45593999997E+02  0.45594000000E+02  0.51100000000E-03 0. -1.
         11   -1    0    0    0    0 -0.00000000000E+00 -0.00000000000E+00 -0.45593999997E+02  0.45594000000E+02  0.51100000000E-03 0.  1.
    9900012    2    1    2    0    0 -0.15397212493E+02  0.32449410968E+02 -0.24363593501E+02  0.47787272897E+02  0.20000008449E+02 0.  0.
         12    1    1    2    0    0  0.15397212493E+02 -0.32449410968E+02  0.24363593501E+02  0.43400727103E+02  0.00000000000E+00 0. -1.
         11    1    3    3    0    0 -0.51862333818E-01  0.13402631892E+01  0.16034298860E+01  0.20904503769E+01  0.51100000000E-03 0. -1.
        -11    1    3    3    0    0 -0.13551075892E+02  0.30054511799E+02 -0.27643719484E+02  0.43024185809E+02  0.51100000000E-03 0.  1.
        -12    1    3    3    0    0 -0.17942742665E+01  0.10546359796E+01  0.16766960965E+01  0.26726367118E+01  0.00000000000E+00 0.  1.
</event>
<event>
 7    1  0.8300060E-011  0.4778727E+02  0.7816164E-02  0.1312668E+00
        -11   -1    0    0    0    0  0.00000000000E+00  0.00000000000E+00  0.45593999997E+02  0.45594000000E+02  0.51100000000E-03 0. -1.
         11   -1    0    0    0    0 -0.00000000000E+00 -0.00000000000E+00 -0.45593999997E+02  0.45594000000E+02  0.51100000000E-03 0.  1.
    9900012    2    1    2    0    0  0.27924961908E+02  0.13637682955E+02 -0.30295763371E+02  0.47787272216E+02  0.20000005340E+02 0.  0.
         12    1    1    2    0    0 -0.27924961908E+02 -0.13637682955E+02  0.30295763371E+02  0.43400727784E+02  0.00000000000E+00 0. -1.
         11    1    3    3    0    0  0.16130664155E+02  0.13090798538E+02 -0.16013603929E+02  0.26229808301E+02  0.51100000000E-03 0. -1.
        -11    1    3    3    0    0  0.74451079094E+01 -0.35806665313E+01 -0.30153315669E+01  0.87944885758E+01  0.51100000000E-03 0.  1.
        -12    1    3    3    0    0  0.43491898438E+01  0.41275509476E+01 -0.11266827875E+02  0.12762975339E+02  0.00000000000E+00 0.  1.
</event>
<event>
 7    1  0.8300060E-011  0.4778729E+02  0.7816164E-02  0.1312668E+00
        -11   -1    0    0    0    0  0.00000000000E+00  0.00000000000E+00  0.45593999997E+02  0.45594000000E+02  0.51100000000E-03 0. -1.
         11   -1    0    0    0    0 -0.00000000000E+00 -0.00000000000E+00 -0.45593999997E+02  0.45594000000E+02  0.51100000000E-03 0.  1.
    9900012    2    1    2    0    0 -0.25429177808E+02  0.32981297081E+02 -0.12215265999E+02  0.47787288432E+02  0.20000079278E+02 0.  0.
         12    1    1    2    0    0  0.25429177808E+02 -0.32981297081E+02  0.12215265999E+02  0.43400711568E+02  0.00000000000E+00 0. -1.
         11    1    3    3    0    0 -0.16183708625E+02  0.19886865092E+02  0.20890072297E+01  0.25724769766E+02  0.51100000000E-03 0. -1.
        -11    1    3    3    0    0 -0.89348764236E+01  0.11787956571E+02 -0.10814384510E+02  0.18323177929E+02  0.51100000000E-03 0.  1.
         12    1    3    3    0    0 -0.31059275903E+00  0.13064754194E+01 -0.34898887192E+01  0.37393407381E+01  0.00000000000E+00 0. -1.
</event>
<event>
 7    1  0.8300060E-011  0.4778727E+02  0.7816164E-02  0.1312668E+00
        -11   -1    0    0    0    0  0.00000000000E+00  0.00000000000E+00  0.45593999997E+02  0.45594000000E+02  0.51100000000E-03 0. -1.
         11   -1    0    0    0    0 -0.00000000000E+00 -0.00000000000E+00 -0.45593999997E+02  0.45594000000E+02  0.51100000000E-03 0.  1.
    9900012    2    1    2    0    0  0.31958791650E+02 -0.15366995789E+02  0.25022277216E+02  0.47787270969E+02  0.19999999658E+02 0.  0.
        -12    1    1    2    0    0 -0.31958791650E+02  0.15366995789E+02 -0.25022277216E+02  0.43400729031E+02  0.00000000000E+00 0.  1.
         11    1    3    3    0    0  0.24167631224E+02 -0.10648183559E+02  0.10465403626E+02  0.28407444190E+02  0.51100000000E-03 0. -1.
        -11    1    3    3    0    0  0.56545215216E+01  0.17144740348E+01  0.80294949156E+01  0.99692438888E+01  0.51100000000E-03 0.  1.
         12    1    3    3    0    0  0.21366389039E+01 -0.64332862650E+01  0.65273786753E+01  0.94105828908E+01  0.00000000000E+00 0. -1.
</event>
<event>
 7    1  0.8300060E-011  0.4778727E+02  0.7816164E-02  0.1312668E+00
        -11   -1    0    0    0    0  0.00000000000E+00  0.00000000000E+00  0.45593999997E+02  0.45594000000E+02  0.51100000000E-03 0.  1.
         11   -1    0    0    0    0 -0.00000000000E+00 -0.00000000000E+00 -0.45593999997E+02  0.45594000000E+02  0.51100000000E-03 0. -1.
    9900012    2    1    2    0    0 -0.62800842016E+00  0.37813027719E+02  0.21293287056E+02  0.47787268054E+02  0.19999986363E+02 0.  0.
        -12    1    1    2    0    0  0.62800842016E+00 -0.37813027719E+02 -0.21293287056E+02  0.43400731946E+02  0.00000000000E+00 0.  1.
         11    1    3    3    0    0  0.19233671666E+01  0.94660083859E+01  0.69861489456E+00  0.96846641166E+01  0.51100000000E-03 0. -1.
        -11    1    3    3    0    0 -0.36853478385E+01  0.27411527647E+02  0.22529373556E+02  0.35672767060E+02  0.51100000000E-03 0.  1.
        -12    1    3    3    0    0  0.11339722517E+01  0.93549168598E+00 -0.19347013947E+01  0.24298368770E+01  0.00000000000E+00 0.  1.
</event>
<event>
 7    1  0.8300060E-011  0.4778728E+02  0.7816164E-02  0.1312668E+00
        -11   -1    0    0    0    0  0.00000000000E+00  0.00000000000E+00  0.45593999997E+02  0.45594000000E+02  0.51100000000E-03 0. -1.
         11   -1    0    0    0    0 -0.00000000000E+00 -0.00000000000E+00 -0.45593999997E+02  0.45594000000E+02  0.51100000000E-03 0.  1.
    9900012    2    1    2    0    0  0.34720453197E+02 -0.19684045552E+02  0.17048495521E+02  0.47787277436E+02  0.20000029143E+02 0.  0.
        -12    1    1    2    0    0 -0.34720453197E+02  0.19684045552E+02 -0.17048495521E+02  0.43400722564E+02  0.00000000000E+00 0.  1.
         11    1    3    3    0    0  0.26184686397E+02 -0.13186509331E+02  0.10261403015E+02  0.31061523178E+02  0.51100000000E-03 0. -1.
        -11    1    3    3    0    0  0.16299301465E+01 -0.53829428255E+01  0.78431230178E+01  0.96512861671E+01  0.51100000000E-03 0.  1.
        -12    1    3    3    0    0  0.69058366539E+01 -0.11145933955E+01 -0.10560305119E+01  0.70744680909E+01  0.00000000000E+00 0.  1.
</event>
<event>
 7    1  0.8300060E-011  0.4778727E+02  0.7816164E-02  0.1312668E+00
        -11   -1    0    0    0    0  0.00000000000E+00  0.00000000000E+00  0.45593999997E+02  0.45594000000E+02  0.51100000000E-03 0. -1.
         11   -1    0    0    0    0 -0.00000000000E+00 -0.00000000000E+00 -0.45593999997E+02  0.45594000000E+02  0.51100000000E-03 0.  1.
    9900012    2    1    2    0    0  0.30093252365E+02 -0.27728888500E+02  0.14461280425E+02  0.47787265825E+02  0.19999976202E+02 0.  0.
        -12    1    1    2    0    0 -0.30093252365E+02  0.27728888500E+02 -0.14461280425E+02  0.43400734175E+02  0.00000000000E+00 0.  1.
         11    1    3    3    0    0  0.22602556156E+02 -0.23181447748E+02  0.15255566972E+02  0.35790884152E+02  0.51100000000E-03 0. -1.
        -11    1    3    3    0    0 -0.17242676630E+01 -0.10582617925E+01  0.42660676242E+00  0.20676098728E+01  0.51100000000E-03 0.  1.
         12    1    3    3    0    0  0.92149638724E+01 -0.34891789597E+01 -0.12208933097E+01  0.99287718000E+01  0.00000000000E+00 0. -1.
</event>
<event>
 7    1  0.8300060E-011  0.4778727E+02  0.7816164E-02  0.1312668E+00
        -11   -1    0    0    0    0  0.00000000000E+00  0.00000000000E+00  0.45593999997E+02  0.45594000000E+02  0.51100000000E-03 0.  1.
         11   -1    0    0    0    0 -0.00000000000E+00 -0.00000000000E+00 -0.45593999997E+02  0.45594000000E+02  0.51100000000E-03 0. -1.
    9900012    2    1    2    0    0  0.14293906680E+02 -0.35688693961E+02  0.20140125730E+02  0.47787270637E+02  0.19999998140E+02 0.  0.
        -12    1    1    2    0    0 -0.14293906680E+02  0.35688693961E+02 -0.20140125730E+02  0.43400729363E+02  0.00000000000E+00 0.  1.
         11    1    3    3    0    0 -0.26396240449E+01 -0.36855703296E+01  0.59691450812E+01  0.74954477528E+01  0.51100000000E-03 0.  1.
        -11    1    3    3    0    0  0.78581315605E+01 -0.10860330570E+02  0.26509131481E+00  0.13407732298E+02  0.51100000000E-03 0. -1.
         12    1    3    3    0    0  0.90753991644E+01 -0.21142793062E+02  0.13905889334E+02  0.26884090586E+02  0.00000000000E+00 0. -1.
</event>
<event>
 7    1  0.8300060E-011  0.4778729E+02  0.7816164E-02  0.1312668E+00
        -11   -1    0    0    0    0  0.00000000000E+00  0.00000000000E+00  0.45593999997E+02  0.45594000000E+02  0.51100000000E-03 0. -1.
         11   -1    0    0    0    0 -0.00000000000E+00 -0.00000000000E+00 -0.45593999997E+02  0.45594000000E+02  0.51100000000E-03 0.  1.
    9900012    2    1    2    0    0 -0.26720334800E+02 -0.24532726276E+02  0.23828354796E+02  0.47787292141E+02  0.20000096189E+02 0.  0.
        -12    1    1    2    0    0  0.26720334800E+02  0.24532726276E+02 -0.23828354796E+02  0.43400707859E+02  0.00000000000E+00 0.  1.
         11    1    3    3    0    0 -0.15438702596E+02 -0.17261094017E+02  0.17389738845E+02  0.28960350859E+02  0.51100000000E-03 0. -1.
        -11    1    3    3    0    0 -0.26034927958E+01 -0.39737597997E+01 -0.29752782715E+01  0.56054636505E+01  0.51100000000E-03 0.  1.
        -12    1    3    3    0    0 -0.86781394077E+01 -0.32978724601E+01  0.94138942223E+01  0.13221477632E+02  0.00000000000E+00 0.  1.
</event>
<event>
 7    1  0.8300060E-011  0.4778727E+02  0.7816164E-02  0.1312668E+00
        -11   -1    0    0    0    0  0.00000000000E+00  0.00000000000E+00  0.45593999997E+02  0.45594000000E+02  0.51100000000E-03 0. -1.
         11   -1    0    0    0    0 -0.00000000000E+00 -0.00000000000E+00 -0.45593999997E+02  0.45594000000E+02  0.51100000000E-03 0.  1.
    9900012    2    1    2    0    0  0.28779394769E+02  0.51896937752E+01  0.32069253725E+02  0.47787268218E+02  0.19999987111E+02 0.  0.
        -12    1    1    2    0    0 -0.28779394769E+02 -0.51896937752E+01 -0.32069253725E+02  0.43400731782E+02  0.00000000000E+00 0.  1.
         11    1    3    3    0    0  0.24351935052E+01 -0.93960372357E+00  0.90967731719E+01  0.94638419771E+01  0.51100000000E-03 0. -1.
        -11    1    3    3    0    0  0.11350824689E+02 -0.27761254272E+01  0.35319457680E+01  0.12207486829E+02  0.51100000000E-03 0.  1.
        -12    1    3    3    0    0  0.14993376575E+02  0.89054229260E+01  0.19440534786E+02  0.26115939412E+02  0.00000000000E+00 0.  1.
</event>
<event>
 7    1  0.8300060E-011  0.4778727E+02  0.7816164E-02  0.1312668E+00
        -11   -1    0    0    0    0  0.00000000000E+00  0.00000000000E+00  0.45593999997E+02  0.45594000000E+02  0.51100000000E-03 0.  1.
         11   -1    0    0    0    0 -0.00000000000E+00 -0.00000000000E+00 -0.45593999997E+02  0.45594000000E+02  0.51100000000E-03 0. -1.
    9900012    2    1    2    0    0 -0.29347500410E+02  0.10214193227E+02 -0.30298808534E+02  0.47787270488E+02  0.19999997463E+02 0.  0.
         12    1    1    2    0    0  0.29347500410E+02 -0.10214193227E+02  0.30298808534E+02  0.43400729512E+02  0.00000000000E+00 0. -1.
         11    1    3    3    0    0 -0.19624487458E+01 -0.15777781616E+01 -0.26049512352E+01  0.36230319079E+01  0.51100000000E-03 0. -1.
        -11    1    3    3    0    0  0.16581530119E+01 -0.13969298735E+01 -0.44707146610E+00  0.22137654888E+01  0.51100000000E-03 0.  1.
        -12    1    3    3    0    0 -0.29043204676E+02  0.13188901262E+02 -0.27246785832E+02  0.41950473091E+02  0.00000000000E+00 0.  1.
</event>
<event>
 7    1  0.8300060E-011  0.4778728E+02  0.7816164E-02  0.1312668E+00
        -11   -1    0    0    0    0  0.00000000000E+00  0.00000000000E+00  0.45593999997E+02  0.45594000000E+02  0.51100000000E-03 0. -1.
         11   -1    0    0    0    0 -0.00000000000E+00 -0.00000000000E+00 -0.45593999997E+02  0.45594000000E+02  0.51100000000E-03 0.  1.
    9900012    2    1    2    0    0 -0.13801496471E+02 -0.26841105355E+02 -0.31188079033E+02  0.47787279784E+02  0.20000039846E+02 0.  0.
         12    1    1    2    0    0  0.13801496471E+02  0.26841105355E+02  0.31188079033E+02  0.43400720216E+02  0.00000000000E+00 0. -1.
         11    1    3    3    0    0  0.22272505791E+01  0.16680727657E+01 -0.51948197004E+00  0.28307196385E+01  0.51100000000E-03 0. -1.
        -11    1    3    3    0    0 -0.14752988762E+02 -0.23917437273E+02 -0.25964907879E+02  0.38260566181E+02  0.51100000000E-03 0.  1.
         12    1    3    3    0    0 -0.12757582882E+01 -0.45917408483E+01 -0.47036891839E+01  0.66959939641E+01  0.00000000000E+00 0. -1.
</event>
<event>
 7    1  0.8300060E-011  0.4778725E+02  0.7816164E-02  0.1312668E+00
        -11   -1    0    0    0    0  0.00000000000E+00  0.00000000000E+00  0.45593999997E+02  0.45594000000E+02  0.51100000000E-03 0. -1.
         11   -1    0    0    0    0 -0.00000000000E+00 -0.00000000000E+00 -0.45593999997E+02  0.45594000000E+02  0.51100000000E-03 0.  1.
    9900012    2    1    2    0    0  0.86223723481E+01 -0.27769833554E+02 -0.32219805064E+02  0.47787253475E+02  0.19999919895E+02 0.  0.
         12    1    1    2    0    0 -0.86223723481E+01  0.27769833554E+02  0.32219805064E+02  0.43400746525E+02  0.00000000000E+00 0. -1.
         11    1    3    3    0    0  0.38795637394E+01 -0.12453654175E+02 -0.51946968550E+01  0.14040277518E+02  0.51100000000E-03 0. -1.
        -11    1    3    3    0    0 -0.15847648774E+01 -0.13037495987E+02 -0.20698165011E+02  0.24513298767E+02  0.51100000000E-03 0.  1.
        -12    1    3    3    0    0  0.63275734862E+01 -0.22786833925E+01 -0.63269431980E+01  0.92336771904E+01  0.00000000000E+00 0.  1.
</event>
<event>
 7    1  0.8300060E-011  0.4778727E+02  0.7816164E-02  0.1312668E+00
        -11   -1    0    0    0    0  0.00000000000E+00  0.00000000000E+00  0.45593999997E+02  0.45594000000E+02  0.51100000000E-03 0. -1.
         11   -1    0    0    0    0 -0.00000000000E+00 -0.00000000000E+00 -0.45593999997E+02  0.45594000000E+02  0.51100000000E-03 0.  1.
    9900012    2    1    2    0    0  0.70694554668E+01  0.19978137992E+02 -0.37875061430E+02  0.47787268710E+02  0.19999989355E+02 0.  0.
         12    1    1    2    0    0 -0.70694554668E+01 -0.19978137992E+02  0.37875061430E+02  0.43400731290E+02  0.00000000000E+00 0. -1.
         11    1    3    3    0    0 -0.34822019865E+01  0.13886981906E+02 -0.18538690104E+02  0.23423429044E+02  0.51100000000E-03 0. -1.
        -11    1    3    3    0    0  0.77658159116E+01  0.73883853444E+01 -0.18131655522E+02  0.21063073541E+02  0.51100000000E-03 0.  1.
         12    1    3    3    0    0  0.27858415418E+01 -0.12972292582E+01 -0.12047158033E+01  0.33007661248E+01  0.00000000000E+00 0. -1.
</event>
<event>
 7    1  0.8300060E-011  0.4778728E+02  0.7816164E-02  0.1312668E+00
        -11   -1    0    0    0    0  0.00000000000E+00  0.00000000000E+00  0.45593999997E+02  0.45594000000E+02  0.51100000000E-03 0. -1.
         11   -1    0    0    0    0 -0.00000000000E+00 -0.00000000000E+00 -0.45593999997E+02  0.45594000000E+02  0.51100000000E-03 0.  1.
    9900012    2    1    2    0    0  0.34195917074E+02  0.51407455597E+01  0.26226601850E+02  0.47787278185E+02  0.20000032558E+02 0.  0.
        -12    1    1    2    0    0 -0.34195917074E+02 -0.51407455597E+01 -0.26226601850E+02  0.43400721815E+02  0.00000000000E+00 0.  1.
         11    1    3    3    0    0  0.12101670274E+02  0.51325829722E+01 -0.18773416695E+00  0.13146447268E+02  0.51100000000E-03 0. -1.
        -11    1    3    3    0    0  0.17145928305E+02 -0.12981726850E+01  0.21659664755E+02  0.27655183733E+02  0.51100000000E-03 0.  1.
         12    1    3    3    0    0  0.49483184953E+01  0.13063352725E+01  0.47546712617E+01  0.69856471842E+01  0.00000000000E+00 0. -1.
</event>
<event>
 7    1  0.9499878E-011  0.4778727E+02  0.7816164E-02  0.1312668E+00
        -11   -1    0    0    0    0  0.00000000000E+00  0.00000000000E+00  0.45593999997E+02  0.45594000000E+02  0.51100000000E-03 0. -1.
         11   -1    0    0    0    0 -0.00000000000E+00 -0.00000000000E+00 -0.45593999997E+02  0.45594000000E+02  0.51100000000E-03 0.  1.
    9900012    2    1    2    0    0 -0.18713667657E+02  0.12920407706E+02 -0.36965997801E+02  0.47787270906E+02  0.19999999368E+02 0.  0.
         12    1    1    2    0    0  0.18713667657E+02 -0.12920407706E+02  0.36965997801E+02  0.43400729094E+02  0.00000000000E+00 0. -1.
         11    1    3    3    0    0 -0.65356631686E+00  0.44305482521E+01 -0.15641916242E+01  0.47437962059E+01  0.51100000000E-03 0. -1.
        -11    1    3    3    0    0 -0.53765035964E+01  0.51846360903E+01 -0.25625681523E+02  0.26691998728E+02  0.51100000000E-03 0.  1.
        -12    1    3    3    0    0 -0.12683597744E+02  0.33052233631E+01 -0.97761246545E+01  0.16351475972E+02  0.00000000000E+00 0.  1.
</event>
<event>
 7    1  0.8300060E-011  0.4778728E+02  0.7816164E-02  0.1312668E+00
        -11   -1    0    0    0    0  0.00000000000E+00  0.00000000000E+00  0.45593999997E+02  0.45594000000E+02  0.51100000000E-03 0. -1.
         11   -1    0    0    0    0 -0.00000000000E+00 -0.00000000000E+00 -0.45593999997E+02  0.45594000000E+02  0.51100000000E-03 0.  1.
    9900012    2    1    2    0    0 -0.15861271910E+02 -0.28150679264E+02  0.28975541829E+02  0.47787277496E+02  0.20000029414E+02 0.  0.
        -12    1    1    2    0    0  0.15861271910E+02  0.28150679264E+02 -0.28975541829E+02  0.43400722504E+02  0.00000000000E+00 0.  1.
         11    1    3    3    0    0 -0.10121964778E+02 -0.53890544994E+01  0.44141913432E+01  0.12287439312E+02  0.51100000000E-03 0. -1.
        -11    1    3    3    0    0  0.28892241186E+01 -0.65840017633E+01  0.84200853386E+01  0.11072241534E+02  0.51100000000E-03 0.  1.
        -12    1    3    3    0    0 -0.86285312502E+01 -0.16177623001E+02  0.16141265147E+02  0.24427596649E+02  0.00000000000E+00 0.  1.
</event>
<event>
 7    1  0.8300060E-011  0.4778728E+02  0.7816164E-02  0.1312668E+00
        -11   -1    0    0    0    0  0.00000000000E+00  0.00000000000E+00  0.45593999997E+02  0.45594000000E+02  0.51100000000E-03 0. -1.
         11   -1    0    0    0    0 -0.00000000000E+00 -0.00000000000E+00 -0.45593999997E+02  0.45594000000E+02  0.51100000000E-03 0.  1.
    9900012    2    1    2    0    0  0.24849179240E+02 -0.21791421739E+02 -0.28129611169E+02  0.47787276563E+02  0.20000025163E+02 0.  0.
         12    1    1    2    0    0 -0.24849179240E+02  0.21791421739E+02  0.28129611169E+02  0.43400723437E+02  0.00000000000E+00 0. -1.
         11    1    3    3    0    0  0.36523961435E+01 -0.11534826558E+01 -0.65152906764E+00  0.38852297504E+01  0.51100000000E-03 0. -1.
        -11    1    3    3    0    0  0.21964324969E+02 -0.11383917727E+02 -0.17711464870E+02  0.30425665847E+02  0.51100000000E-03 0.  1.
        -12    1    3    3    0    0 -0.76754187237E+00 -0.92540213571E+01 -0.97666172306E+01  0.13476380966E+02  0.00000000000E+00 0.  1.
</event>
<event>
 7    1  0.8300060E-011  0.4778726E+02  0.7816164E-02  0.1312668E+00
        -11   -1    0    0    0    0  0.00000000000E+00  0.00000000000E+00  0.45593999997E+02  0.45594000000E+02  0.51100000000E-03 0.  1.
         11   -1    0    0    0    0 -0.00000000000E+00 -0.00000000000E+00 -0.45593999997E+02  0.45594000000E+02  0.51100000000E-03 0. -1.
    9900012    2    1    2    0    0 -0.40566301326E+02  0.13063506346E+02  0.82063300543E+01  0.47787264358E+02  0.19999969513E+02 0.  0.
        -12    1    1    2    0    0  0.40566301326E+02 -0.13063506346E+02 -0.82063300543E+01  0.43400735642E+02  0.00000000000E+00 0.  1.
         11    1    3    3    0    0 -0.83135192802E+01  0.20341536094E+01  0.73114278542E+01  0.11256525275E+02  0.51100000000E-03 0. -1.
        -11    1    3    3    0    0 -0.23821364573E+02  0.54384715067E+01 -0.48292410211E+01  0.24906945849E+02  0.51100000000E-03 0.  1.
        -12    1    3    3    0    0 -0.84314174731E+01  0.55908812297E+01  0.57241432212E+01  0.11623793234E+02  0.00000000000E+00 0.  1.
</event>
<event>
 7    1  0.8300060E-011  0.4778727E+02  0.7816164E-02  0.1312668E+00
        -11   -1    0    0    0    0  0.00000000000E+00  0.00000000000E+00  0.45593999997E+02  0.45594000000E+02  0.51100000000E-03 0. -1.
         11   -1    0    0    0    0 -0.00000000000E+00 -0.00000000000E+00 -0.45593999997E+02  0.45594000000E+02  0.51100000000E-03 0.  1.
    9900012    2    1    2    0    0  0.26230387161E+02 -0.16173217664E+02 -0.30561693495E+02  0.47787270864E+02  0.19999999178E+02 0.  0.
         12    1    1    2    0    0 -0.26230387161E+02  0.16173217664E+02  0.30561693495E+02  0.43400729136E+02  0.00000000000E+00 0. -1.
         11    1    3    3    0    0  0.12283565367E+02 -0.16940159134E+02 -0.23285695170E+02  0.31306206564E+02  0.51100000000E-03 0. -1.
        -11    1    3    3    0    0  0.10996286410E+02 -0.12213819906E+01 -0.44024791742E+01  0.11907640905E+02  0.51100000000E-03 0.  1.
         12    1    3    3    0    0  0.29505353840E+01  0.19883234612E+01 -0.28735191511E+01  0.45734233951E+01  0.00000000000E+00 0. -1.
</event>
<event>
 7    1  0.8300060E-011  0.4778727E+02  0.7816164E-02  0.1312668E+00
        -11   -1    0    0    0    0  0.00000000000E+00  0.00000000000E+00  0.45593999997E+02  0.45594000000E+02  0.51100000000E-03 0. -1.
         11   -1    0    0    0    0 -0.00000000000E+00 -0.00000000000E+00 -0.45593999997E+02  0.45594000000E+02  0.51100000000E-03 0.  1.
    9900012    2    1    2    0    0  0.21673805858E+01  0.37726500244E+01  0.43182089059E+02  0.47787271408E+02  0.20000001657E+02 0.  0.
        -12    1    1    2    0    0 -0.21673805858E+01 -0.37726500244E+01 -0.43182089059E+02  0.43400728592E+02  0.00000000000E+00 0.  1.
         11    1    3    3    0    0  0.42728747716E+01 -0.10243642117E+01  0.18360272570E+02  0.18878728505E+02  0.51100000000E-03 0. -1.
        -11    1    3    3    0    0  0.62694631730E+00  0.94168472180E+01  0.15231049401E+02  0.17918006009E+02  0.51100000000E-03 0.  1.
        -12    1    3    3    0    0 -0.27324405031E+01 -0.46198329819E+01  0.95907670877E+01  0.10990536894E+02  0.00000000000E+00 0.  1.
</event>
<event>
 7    1  0.1064903E-010  0.4778727E+02  0.7816164E-02  0.1312668E+00
        -11   -1    0    0    0    0  0.00000000000E+00  0.00000000000E+00  0.45593999997E+02  0.45594000000E+02  0.51100000000E-03 0. -1.
         11   -1    0    0    0    0 -0.00000000000E+00 -0.00000000000E+00 -0.45593999997E+02  0.45594000000E+02  0.51100000000E-03 0.  1.
    9900012    2    1    2    0    0 -0.12158391965E+02 -0.86100909310E+00 -0.41653996930E+02  0.47787270834E+02  0.19999999042E+02 0.  0.
         12    1    1    2    0    0  0.12158391965E+02  0.86100909310E+00  0.41653996930E+02  0.43400729166E+02  0.00000000000E+00 0. -1.
         11    1    3    3    0    0  0.13350653213E+01  0.57981287537E+01 -0.58567878645E+01  0.83488119399E+01  0.51100000000E-03 0. -1.
        -11    1    3    3    0    0 -0.58857448099E+01 -0.26464385313E+01 -0.23911913935E+02  0.24767423305E+02  0.51100000000E-03 0.  1.
         12    1    3    3    0    0 -0.76077124766E+01 -0.40126993155E+01 -0.11885295131E+02  0.14671035590E+02  0.00000000000E+00 0. -1.
</event>
<event>
 7    1  0.8300060E-011  0.4778726E+02  0.7816164E-02  0.1312668E+00
        -11   -1    0    0    0    0  0.00000000000E+00  0.00000000000E+00  0.45593999997E+02  0.45594000000E+02  0.51100000000E-03 0. -1.
         11   -1    0    0    0    0 -0.00000000000E+00 -0.00000000000E+00 -0.45593999997E+02  0.45594000000E+02  0.51100000000E-03 0.  1.
    9900012    2    1    2    0    0  0.14792316734E+02  0.83617344885E+01 -0.39936107563E+02  0.47787263540E+02  0.19999965783E+02 0.  0.
         12    1    1    2    0    0 -0.14792316734E+02 -0.83617344885E+01  0.39936107563E+02  0.43400736460E+02  0.00000000000E+00 0. -1.
         11    1    3    3    0    0  0.47708754412E+01 -0.14607618608E+01 -0.23699398564E+02  0.24218929998E+02  0.51100000000E-03 0. -1.
        -11    1    3    3    0    0  0.11583792001E+02  0.10236661283E+02 -0.14480658839E+02  0.21181665468E+02  0.51100000000E-03 0.  1.
        -12    1    3    3    0    0 -0.15623507079E+01 -0.41416493419E+00 -0.17560501599E+01  0.23866680731E+01  0.00000000000E+00 0.  1.
</event>
<event>
 7    1  0.8300060E-011  0.4778727E+02  0.7816164E-02  0.1312668E+00
        -11   -1    0    0    0    0  0.00000000000E+00  0.00000000000E+00  0.45593999997E+02  0.45594000000E+02  0.51100000000E-03 0.  1.
         11   -1    0    0    0    0 -0.00000000000E+00 -0.00000000000E+00 -0.45593999997E+02  0.45594000000E+02  0.51100000000E-03 0. -1.
    9900012    2    1    2    0    0  0.43020263970E+02  0.31629528880E+00  0.57254121935E+01  0.47787268445E+02  0.19999988147E+02 0.  0.
        -12    1    1    2    0    0 -0.43020263970E+02 -0.31629528880E+00 -0.57254121935E+01  0.43400731555E+02  0.00000000000E+00 0.  1.
         11    1    3    3    0    0  0.94993356907E+01 -0.21080527615E+01  0.34458955444E+01  0.10322570483E+02  0.51100000000E-03 0. -1.
        -11    1    3    3    0    0  0.13265395818E+02  0.41104253607E+01  0.84089108450E+01  0.16235027093E+02  0.51100000000E-03 0.  1.
        -12    1    3    3    0    0  0.20255532461E+02 -0.16860773104E+01 -0.61293941959E+01  0.21229670869E+02  0.00000000000E+00 0.  1.
</event>
<event>
 7    1  0.8300060E-011  0.4778727E+02  0.7816164E-02  0.1312668E+00
        -11   -1    0    0    0    0  0.00000000000E+00  0.00000000000E+00  0.45593999997E+02  0.45594000000E+02  0.51100000000E-03 0. -1.
         11   -1    0    0    0    0 -0.00000000000E+00 -0.00000000000E+00 -0.45593999997E+02  0.45594000000E+02  0.51100000000E-03 0.  1.
    9900012    2    1    2    0    0 -0.20609811665E+02  0.14709198717E+02  0.35249091793E+02  0.47787270329E+02  0.19999996737E+02 0.  0.
        -12    1    1    2    0    0  0.20609811665E+02 -0.14709198717E+02 -0.35249091793E+02  0.43400729671E+02  0.00000000000E+00 0.  1.
         11    1    3    3    0    0 -0.89705884175E+01  0.33855373167E+01  0.87719201270E+01  0.12995380043E+02  0.51100000000E-03 0. -1.
        -11    1    3    3    0    0 -0.94538877077E+01  0.13566851237E+02  0.13222819099E+02  0.21172585823E+02  0.51100000000E-03 0.  1.
        -12    1    3    3    0    0 -0.21853355397E+01 -0.22431898366E+01  0.13254352567E+02  0.13619304463E+02  0.00000000000E+00 0.  1.
</event>
<event>
 7    1  0.8300060E-011  0.4778727E+02  0.7816164E-02  0.1312668E+00
        -11   -1    0    0    0    0  0.00000000000E+00  0.00000000000E+00  0.45593999997E+02  0.45594000000E+02  0.51100000000E-03 0. -1.
         11   -1    0    0    0    0 -0.00000000000E+00 -0.00000000000E+00 -0.45593999997E+02  0.45594000000E+02  0.51100000000E-03 0.  1.
    9900012    2    1    2    0    0 -0.72432869347E+01  0.32915565516E+02  0.27344531145E+02  0.47787273711E+02  0.20000012159E+02 0.  0.
        -12    1    1    2    0    0  0.72432869347E+01 -0.32915565516E+02 -0.27344531145E+02  0.43400726289E+02  0.00000000000E+00 0.  1.
         11    1    3    3    0    0 -0.41462740585E+01  0.55449829387E+01  0.45361302101E+01  0.82773728865E+01  0.51100000000E-03 0. -1.
        -11    1    3    3    0    0 -0.25659972458E+01  0.88176762848E+01  0.18200254041E+02  0.20385902098E+02  0.51100000000E-03 0.  1.
        -12    1    3    3    0    0 -0.53101563048E+00  0.18552906292E+02  0.46081468936E+01  0.19123998726E+02  0.00000000000E+00 0.  1.
</event>
<event>
 7    1  0.8300060E-011  0.4778727E+02  0.7816164E-02  0.1312668E+00
        -11   -1    0    0    0    0  0.00000000000E+00  0.00000000000E+00  0.45593999997E+02  0.45594000000E+02  0.51100000000E-03 0. -1.
         11   -1    0    0    0    0 -0.00000000000E+00 -0.00000000000E+00 -0.45593999997E+02  0.45594000000E+02  0.51100000000E-03 0.  1.
    9900012    2    1    2    0    0  0.29706656335E+02  0.11070367977E+02 -0.29640929802E+02  0.47787271927E+02  0.20000004025E+02 0.  0.
         12    1    1    2    0    0 -0.29706656335E+02 -0.11070367977E+02  0.29640929802E+02  0.43400728073E+02  0.00000000000E+00 0. -1.
         11    1    3    3    0    0  0.66097852885E+00 -0.79827202077E+00 -0.20514301346E+00  0.10565106492E+01  0.51100000000E-03 0. -1.
        -11    1    3    3    0    0  0.96054787518E+01 -0.44111135423E+01 -0.57508521901E+01  0.12033097935E+02  0.51100000000E-03 0.  1.
        -12    1    3    3    0    0  0.19440199054E+02  0.16279753540E+02 -0.23684934598E+02  0.34697663343E+02  0.00000000000E+00 0.  1.
</event>
<event>
 7    1  0.8300060E-011  0.4778728E+02  0.7816164E-02  0.1312668E+00
        -11   -1    0    0    0    0  0.00000000000E+00  0.00000000000E+00  0.45593999997E+02  0.45594000000E+02  0.51100000000E-03 0. -1.
         11   -1    0    0    0    0 -0.00000000000E+00 -0.00000000000E+00 -0.45593999997E+02  0.45594000000E+02  0.51100000000E-03 0.  1.
    9900012    2    1    2    0    0 -0.97299554098E+01 -0.17364451031E+02  0.38567171235E+02  0.47787275478E+02  0.20000020216E+02 0.  0.
        -12    1    1    2    0    0  0.97299554098E+01  0.17364451031E+02 -0.38567171235E+02  0.43400724522E+02  0.00000000000E+00 0.  1.
         11    1    3    3    0    0 -0.19100044352E+01 -0.45171518522E+01  0.86509302588E+01  0.99444141307E+01  0.51100000000E-03 0. -1.
        -11    1    3    3    0    0 -0.11919384665E+02 -0.60542294277E+01  0.10939343750E+02  0.17274103934E+02  0.51100000000E-03 0.  1.
        -12    1    3    3    0    0  0.40994336904E+01 -0.67930697515E+01  0.18976897226E+02  0.20568757414E+02  0.00000000000E+00 0.  1.
</event>
<event>
 7    1  0.8300060E-011  0.4778727E+02  0.7816164E-02  0.1312668E+00
        -11   -1    0    0    0    0  0.00000000000E+00  0.00000000000E+00  0.45593999997E+02  0.45594000000E+02  0.51100000000E-03 0. -1.
         11   -1    0    0    0    0 -0.00000000000E+00 -0.00000000000E+00 -0.45593999997E+02  0.45594000000E+02  0.51100000000E-03 0.  1.
    9900012    2    1    2    0    0 -0.65398908290E+01 -0.10130998883E+02  0.41691914250E+02  0.47787273920E+02  0.20000013110E+02 0.  0.
        -12    1    1    2    0    0  0.65398908290E+01  0.10130998883E+02 -0.41691914250E+02  0.43400726080E+02  0.00000000000E+00 0.  1.
         11    1    3    3    0    0 -0.24309163188E+01 -0.12491240131E+02  0.36091694323E+02  0.38269450395E+02  0.51100000000E-03 0. -1.
        -11    1    3    3    0    0 -0.12050216200E+01  0.38317014650E+00 -0.12758439910E+01  0.17962946909E+01  0.51100000000E-03 0.  1.
         12    1    3    3    0    0 -0.29039528902E+01  0.19770711009E+01  0.68760639181E+01  0.77215288338E+01  0.00000000000E+00 0. -1.
</event>
<event>
 7    1  0.8300060E-011  0.4778727E+02  0.7816164E-02  0.1312668E+00
        -11   -1    0    0    0    0  0.00000000000E+00  0.00000000000E+00  0.45593999997E+02  0.45594000000E+02  0.51100000000E-03 0. -1.
         11   -1    0    0    0    0 -0.00000000000E+00 -0.00000000000E+00 -0.45593999997E+02  0.45594000000E+02  0.51100000000E-03 0.  1.
    9900012    2    1    2    0    0 -0.20832451406E+02  0.10302244696E+02  0.36653728114E+02  0.47787273485E+02  0.20000011126E+02 0.  0.
        -12    1    1    2    0    0  0.20832451406E+02 -0.10302244696E+02 -0.36653728114E+02  0.43400726515E+02  0.00000000000E+00 0.  1.
         11    1    3    3    0    0 -0.14042012852E+02  0.22437388921E+01  0.29501317223E+02  0.32749659651E+02  0.51100000000E-03 0. -1.
        -11    1    3    3    0    0 -0.27414663833E+00  0.63348649628E+01  0.45849147816E+01  0.78247756704E+01  0.51100000000E-03 0.  1.
        -12    1    3    3    0    0 -0.65162919162E+01  0.17236408415E+01  0.25674961101E+01  0.72128381628E+01  0.00000000000E+00 0.  1.
</event>
<event>
 7    1  0.8300060E-011  0.4778728E+02  0.7816164E-02  0.1312668E+00
        -11   -1    0    0    0    0  0.00000000000E+00  0.00000000000E+00  0.45593999997E+02  0.45594000000E+02  0.51100000000E-03 0. -1.
         11   -1    0    0    0    0 -0.00000000000E+00 -0.00000000000E+00 -0.45593999997E+02  0.45594000000E+02  0.51100000000E-03 0.  1.
    9900012    2    1    2    0    0  0.11691581691E+02  0.15285963019E+02 -0.38900751012E+02  0.47787283679E+02  0.20000057606E+02 0.  0.
         12    1    1    2    0    0 -0.11691581691E+02 -0.15285963019E+02  0.38900751012E+02  0.43400716321E+02  0.00000000000E+00 0. -1.
         11    1    3    3    0    0 -0.67514402671E+00  0.30195557663E+01  0.14002448496E+01  0.33962070583E+01  0.51100000000E-03 0. -1.
        -11    1    3    3    0    0  0.62326614216E+01  0.27012401093E+01 -0.20056402077E+02  0.21175505450E+02  0.51100000000E-03 0.  1.
         12    1    3    3    0    0  0.61340642958E+01  0.95651671433E+01 -0.20244593785E+02  0.23215571171E+02  0.00000000000E+00 0. -1.
</event>
<event>
 7    1  0.8300060E-011  0.4778727E+02  0.7816164E-02  0.1312668E+00
        -11   -1    0    0    0    0  0.00000000000E+00  0.00000000000E+00  0.45593999997E+02  0.45594000000E+02  0.51100000000E-03 0. -1.
         11   -1    0    0    0    0 -0.00000000000E+00 -0.00000000000E+00 -0.45593999997E+02  0.45594000000E+02  0.51100000000E-03 0.  1.
    9900012    2    1    2    0    0 -0.35391492198E+02  0.35764250332E+01 -0.24865138251E+02  0.47787266870E+02  0.19999980966E+02 0.  0.
         12    1    1    2    0    0  0.35391492198E+02 -0.35764250332E+01  0.24865138251E+02  0.43400733130E+02  0.00000000000E+00 0. -1.
         11    1    3    3    0    0 -0.11884622100E+02  0.85233465038E+01 -0.79954397039E+01  0.16667895320E+02  0.51100000000E-03 0.  1.
        -11    1    3    3    0    0 -0.65352251434E+01 -0.32634375661E+01 -0.25481564332E+00  0.73091807815E+01  0.51100000000E-03 0. -1.
         12    1    3    3    0    0 -0.16971644955E+02 -0.16834839046E+01 -0.16614882903E+02  0.23810190768E+02  0.00000000000E+00 0. -1.
</event>
<event>
 7    1  0.8300060E-011  0.4778727E+02  0.7816164E-02  0.1312668E+00
        -11   -1    0    0    0    0  0.00000000000E+00  0.00000000000E+00  0.45593999997E+02  0.45594000000E+02  0.51100000000E-03 0. -1.
         11   -1    0    0    0    0 -0.00000000000E+00 -0.00000000000E+00 -0.45593999997E+02  0.45594000000E+02  0.51100000000E-03 0.  1.
    9900012    2    1    2    0    0 -0.31780372776E+00 -0.18650374291E+02  0.39187826615E+02  0.47787271721E+02  0.20000003083E+02 0.  0.
        -12    1    1    2    0    0  0.31780372776E+00  0.18650374291E+02 -0.39187826615E+02  0.43400728279E+02  0.00000000000E+00 0.  1.
         11    1    3    3    0    0  0.79683955457E+01 -0.15840426082E+02  0.29642970710E+02  0.34541571169E+02  0.51100000000E-03 0. -1.
        -11    1    3    3    0    0 -0.31026478824E+01 -0.25929845755E+00  0.18433592402E+01  0.36182361894E+01  0.51100000000E-03 0.  1.
         12    1    3    3    0    0 -0.51835513910E+01 -0.25506497509E+01  0.77014966640E+01  0.96274643620E+01  0.00000000000E+00 0. -1.
</event>
<event>
 7    1  0.8300060E-011  0.4778727E+02  0.7816164E-02  0.1312668E+00
        -11   -1    0    0    0    0  0.00000000000E+00  0.00000000000E+00  0.45593999997E+02  0.45594000000E+02  0.51100000000E-03 0. -1.
         11   -1    0    0    0    0 -0.00000000000E+00 -0.00000000000E+00 -0.45593999997E+02  0.45594000000E+02  0.51100000000E-03 0.  1.
    9900012    2    1    2    0    0 -0.11365145827E+02  0.34388077469E+02  0.23914784463E+02  0.47787270426E+02  0.19999997178E+02 0.  0.
        -12    1    1    2    0    0  0.11365145827E+02 -0.34388077469E+02 -0.23914784463E+02  0.43400729574E+02  0.00000000000E+00 0.  1.
         11    1    3    3    0    0 -0.12625905972E+02  0.24674933970E+02  0.12238362342E+02  0.30299230702E+02  0.51100000000E-03 0. -1.
        -11    1    3    3    0    0  0.10946648372E+01  0.75863700420E+01  0.12917218250E+02  0.15020180728E+02  0.51100000000E-03 0.  1.
         12    1    3    3    0    0  0.16609530699E+00  0.21267734568E+01 -0.12407961295E+01  0.24678589957E+01  0.00000000000E+00 0. -1.
</event>
<event>
 7    1  0.8300060E-011  0.4778727E+02  0.7816164E-02  0.1312668E+00
        -11   -1    0    0    0    0  0.00000000000E+00  0.00000000000E+00  0.45593999997E+02  0.45594000000E+02  0.51100000000E-03 0. -1.
         11   -1    0    0    0    0 -0.00000000000E+00 -0.00000000000E+00 -0.45593999997E+02  0.45594000000E+02  0.51100000000E-03 0.  1.
    9900012    2    1    2    0    0 -0.13508157781E+02  0.18101468811E+02  0.37060625178E+02  0.47787269149E+02  0.19999991360E+02 0.  0.
        -12    1    1    2    0    0  0.13508157781E+02 -0.18101468811E+02 -0.37060625178E+02  0.43400730851E+02  0.00000000000E+00 0.  1.
         11    1    3    3    0    0 -0.62956561397E+01 -0.19464414246E+01  0.11434432911E+02  0.13197354913E+02  0.51100000000E-03 0. -1.
        -11    1    3    3    0    0 -0.83708854454E+01  0.14016905827E+02  0.14288373124E+02  0.21695690330E+02  0.51100000000E-03 0.  1.
         12    1    3    3    0    0  0.11583838041E+01  0.60310044085E+01  0.11337819143E+02  0.12894223906E+02  0.00000000000E+00 0. -1.
</event>
<event>
 7    1  0.8300060E-011  0.4778727E+02  0.7816164E-02  0.1312668E+00
        -11   -1    0    0    0    0  0.00000000000E+00  0.00000000000E+00  0.45593999997E+02  0.45594000000E+02  0.51100000000E-03 0. -1.
         11   -1    0    0    0    0 -0.00000000000E+00 -0.00000000000E+00 -0.45593999997E+02  0.45594000000E+02  0.51100000000E-03 0.  1.
    9900012    2    1    2    0    0 -0.36432986776E+02 -0.13184045588E+02 -0.19556128963E+02  0.47787265403E+02  0.19999974280E+02 0.  0.
         12    1    1    2    0    0  0.36432986776E+02  0.13184045588E+02  0.19556128963E+02  0.43400734597E+02  0.00000000000E+00 0. -1.
         11    1    3    3    0    0 -0.82572536861E+01  0.11363935032E+01  0.25953212956E+01  0.87297950445E+01  0.51100000000E-03 0. -1.
        -11    1    3    3    0    0 -0.27744142789E+02 -0.14539572128E+02 -0.20744400914E+02  0.37569492760E+02  0.51100000000E-03 0.  1.
        -12    1    3    3    0    0 -0.43159030149E+00  0.21913303609E+00 -0.14070493447E+01  0.14879775987E+01  0.00000000000E+00 0.  1.
</event>
<event>
 7    1  0.8300060E-011  0.4778727E+02  0.7816164E-02  0.1312668E+00
        -11   -1    0    0    0    0  0.00000000000E+00  0.00000000000E+00  0.45593999997E+02  0.45594000000E+02  0.51100000000E-03 0. -1.
         11   -1    0    0    0    0 -0.00000000000E+00 -0.00000000000E+00 -0.45593999997E+02  0.45594000000E+02  0.51100000000E-03 0.  1.
    9900012    2    1    2    0    0 -0.34993742451E+02 -0.17314727726E+02 -0.18954198194E+02  0.47787269175E+02  0.19999991477E+02 0.  0.
         12    1    1    2    0    0  0.34993742451E+02  0.17314727726E+02  0.18954198194E+02  0.43400730825E+02  0.00000000000E+00 0. -1.
         11    1    3    3    0    0 -0.10409498816E+02 -0.58815152328E+01 -0.15247806046E+02  0.19376415471E+02  0.51100000000E-03 0.  1.
        -11    1    3    3    0    0 -0.10788745923E+02 -0.85639161548E+01  0.24453207829E+00  0.13776701155E+02  0.51100000000E-03 0. -1.
        -12    1    3    3    0    0 -0.13795497712E+02 -0.28692963383E+01 -0.39509242265E+01  0.14634152549E+02  0.00000000000E+00 0.  1.
</event>
<event>
 7    1  0.8300060E-011  0.4778727E+02  0.7816164E-02  0.1312668E+00
        -11   -1    0    0    0    0  0.00000000000E+00  0.00000000000E+00  0.45593999997E+02  0.45594000000E+02  0.51100000000E-03 0. -1.
         11   -1    0    0    0    0 -0.00000000000E+00 -0.00000000000E+00 -0.45593999997E+02  0.45594000000E+02  0.51100000000E-03 0.  1.
    9900012    2    1    2    0    0 -0.21425017105E+01 -0.41717442416E+01  0.43146601368E+02  0.47787274508E+02  0.20000015791E+02 0.  0.
        -12    1    1    2    0    0  0.21425017105E+01  0.41717442416E+01 -0.43146601368E+02  0.43400725492E+02  0.00000000000E+00 0.  1.
         11    1    3    3    0    0 -0.82579514000E+01 -0.39581265381E+00  0.25986260394E+02  0.27269693040E+02  0.51100000000E-03 0. -1.
        -11    1    3    3    0    0  0.37925474942E+01 -0.35326211856E+01  0.26512032918E+01  0.58216585345E+01  0.51100000000E-03 0.  1.
        -12    1    3    3    0    0  0.23229021953E+01 -0.24331040226E+00  0.14509137683E+02  0.14695922933E+02  0.00000000000E+00 0.  1.
</event>
<event>
 7    1  0.8300060E-011  0.4778727E+02  0.7816164E-02  0.1312668E+00
        -11   -1    0    0    0    0  0.00000000000E+00  0.00000000000E+00  0.45593999997E+02  0.45594000000E+02  0.51100000000E-03 0. -1.
         11   -1    0    0    0    0 -0.00000000000E+00 -0.00000000000E+00 -0.45593999997E+02  0.45594000000E+02  0.51100000000E-03 0.  1.
    9900012    2    1    2    0    0  0.20203304420E+02  0.33448364517E+02  0.18885350270E+02  0.47787273587E+02  0.20000011594E+02 0.  0.
        -12    1    1    2    0    0 -0.20203304420E+02 -0.33448364517E+02 -0.18885350270E+02  0.43400726413E+02  0.00000000000E+00 0.  1.
         11    1    3    3    0    0  0.42401632761E+01  0.11232375658E+02  0.30531102026E+01  0.12388168941E+02  0.51100000000E-03 0. -1.
        -11    1    3    3    0    0  0.11693333895E+01  0.40597934834E+01  0.10586864852E+02  0.11398726743E+02  0.51100000000E-03 0.  1.
        -12    1    3    3    0    0  0.14793807755E+02  0.18156195375E+02  0.52453752157E+01  0.24000377904E+02  0.00000000000E+00 0.  1.
</event>
<event>
 7    1  0.8300060E-011  0.4778727E+02  0.7816164E-02  0.1312668E+00
        -11   -1    0    0    0    0  0.00000000000E+00  0.00000000000E+00  0.45593999997E+02  0.45594000000E+02  0.51100000000E-03 0. -1.
         11   -1    0    0    0    0 -0.00000000000E+00 -0.00000000000E+00 -0.45593999997E+02  0.45594000000E+02  0.51100000000E-03 0.  1.
    9900012    2    1    2    0    0  0.10022442391E+02  0.17551448687E+01  0.42191149780E+02  0.47787274145E+02  0.20000014138E+02 0.  0.
        -12    1    1    2    0    0 -0.10022442391E+02 -0.17551448687E+01 -0.42191149780E+02  0.43400725855E+02  0.00000000000E+00 0.  1.
         11    1    3    3    0    0  0.11577279474E+02  0.74886621491E+01  0.38220021683E+02  0.40631065929E+02  0.51100000000E-03 0. -1.
        -11    1    3    3    0    0 -0.11650688067E+01 -0.43082656119E+01  0.31810004570E+01  0.54806297152E+01  0.51100000000E-03 0.  1.
         12    1    3    3    0    0 -0.38976827619E+00 -0.14252516685E+01  0.79012763980E+00  0.16755785016E+01  0.00000000000E+00 0. -1.
</event>
<event>
 7    1  0.8300060E-011  0.4778726E+02  0.7816164E-02  0.1312668E+00
        -11   -1    0    0    0    0  0.00000000000E+00  0.00000000000E+00  0.45593999997E+02  0.45594000000E+02  0.51100000000E-03 0. -1.
         11   -1    0    0    0    0 -0.00000000000E+00 -0.00000000000E+00 -0.45593999997E+02  0.45594000000E+02  0.51100000000E-03 0.  1.
    9900012    2    1    2    0    0  0.26546915583E+02  0.22666316802E+01  0.34259999377E+02  0.47787263791E+02  0.19999966928E+02 0.  0.
        -12    1    1    2    0    0 -0.26546915583E+02 -0.22666316802E+01 -0.34259999377E+02  0.43400736209E+02  0.00000000000E+00 0.  1.
         11    1    3    3    0    0  0.47665771391E+01 -0.52761265647E+01  0.45023842770E+01  0.84160105506E+01  0.51100000000E-03 0. -1.
        -11    1    3    3    0    0  0.18051012902E+02  0.53630863477E+01  0.15241650043E+02  0.24226218406E+02  0.51100000000E-03 0.  1.
        -12    1    3    3    0    0  0.37293255419E+01  0.21796718971E+01  0.14515965057E+02  0.15145034834E+02  0.00000000000E+00 0.  1.
</event>
<event>
 7    1  0.8300060E-011  0.4778727E+02  0.7816164E-02  0.1312668E+00
        -11   -1    0    0    0    0  0.00000000000E+00  0.00000000000E+00  0.45593999997E+02  0.45594000000E+02  0.51100000000E-03 0. -1.
         11   -1    0    0    0    0 -0.00000000000E+00 -0.00000000000E+00 -0.45593999997E+02  0.45594000000E+02  0.51100000000E-03 0.  1.
    9900012    2    1    2    0    0 -0.12968888136E+02  0.38636311046E+02 -0.14922021617E+02  0.47787270515E+02  0.19999997585E+02 0.  0.
         12    1    1    2    0    0  0.12968888136E+02 -0.38636311046E+02  0.14922021617E+02  0.43400729485E+02  0.00000000000E+00 0. -1.
         11    1    3    3    0    0 -0.80596400626E+01  0.15383819588E+02  0.15185851113E+01  0.17433467930E+02  0.51100000000E-03 0.  1.
        -11    1    3    3    0    0 -0.51812046074E+01  0.15865083521E+02 -0.15718274338E+02  0.22926183824E+02  0.51100000000E-03 0. -1.
        -12    1    3    3    0    0  0.27195653372E+00  0.73874079372E+01 -0.72233239105E+00  0.74276187617E+01  0.00000000000E+00 0.  1.
</event>
<event>
 7    1  0.8300060E-011  0.4778726E+02  0.7816164E-02  0.1312668E+00
        -11   -1    0    0    0    0  0.00000000000E+00  0.00000000000E+00  0.45593999997E+02  0.45594000000E+02  0.51100000000E-03 0. -1.
         11   -1    0    0    0    0 -0.00000000000E+00 -0.00000000000E+00 -0.45593999997E+02  0.45594000000E+02  0.51100000000E-03 0.  1.
    9900012    2    1    2    0    0 -0.17200976313E+02 -0.28017864095E+02 -0.28332846958E+02  0.47787256788E+02  0.19999934999E+02 0.  0.
         12    1    1    2    0    0  0.17200976313E+02  0.28017864095E+02  0.28332846958E+02  0.43400743212E+02  0.00000000000E+00 0. -1.
         11    1    3    3    0    0 -0.54363895191E+01 -0.13001202452E+02 -0.35691205401E+01  0.14536994803E+02  0.51100000000E-03 0. -1.
        -11    1    3    3    0    0 -0.11090828392E+02 -0.16884501315E+02 -0.22427167293E+02  0.30183947590E+02  0.51100000000E-03 0.  1.
         12    1    3    3    0    0 -0.67375840192E+00  0.18678396718E+01 -0.23365591252E+01  0.30663143950E+01  0.00000000000E+00 0. -1.
</event>
<event>
 7    1  0.8300060E-011  0.4778727E+02  0.7816164E-02  0.1312668E+00
        -11   -1    0    0    0    0  0.00000000000E+00  0.00000000000E+00  0.45593999997E+02  0.45594000000E+02  0.51100000000E-03 0. -1.
         11   -1    0    0    0    0 -0.00000000000E+00 -0.00000000000E+00 -0.45593999997E+02  0.45594000000E+02  0.51100000000E-03 0.  1.
    9900012    2    1    2    0    0 -0.36314086124E+01  0.23469498955E+01 -0.43184809187E+02  0.47787273660E+02  0.20000011927E+02 0.  0.
         12    1    1    2    0    0  0.36314086124E+01 -0.23469498955E+01  0.43184809187E+02  0.43400726340E+02  0.00000000000E+00 0. -1.
         11    1    3    3    0    0  0.76042193495E+00 -0.13112743734E+01 -0.41003953851E+02  0.41031962099E+02  0.51100000000E-03 0. -1.
        -11    1    3    3    0    0 -0.27659049266E+01  0.24455891606E+01 -0.28009979154E+01  0.46342988670E+01  0.51100000000E-03 0.  1.
         12    1    3    3    0    0 -0.16259256207E+01  0.12126351083E+01  0.62014257995E+00  0.21210126943E+01  0.00000000000E+00 0. -1.
</event>
<event>
 7    1  0.8300060E-011  0.4778727E+02  0.7816164E-02  0.1312668E+00
        -11   -1    0    0    0    0  0.00000000000E+00  0.00000000000E+00  0.45593999997E+02  0.45594000000E+02  0.51100000000E-03 0. -1.
         11   -1    0    0    0    0 -0.00000000000E+00 -0.00000000000E+00 -0.45593999997E+02  0.45594000000E+02  0.51100000000E-03 0.  1.
    9900012    2    1    2    0    0  0.16176110763E+02  0.30359206737E+02  0.26462714460E+02  0.47787271323E+02  0.20000001270E+02 0.  0.
        -12    1    1    2    0    0 -0.16176110763E+02 -0.30359206737E+02 -0.26462714460E+02  0.43400728677E+02  0.00000000000E+00 0.  1.
         11    1    3    3    0    0  0.99615201898E+01  0.79573034712E+01  0.95927154265E+01  0.15955273502E+02  0.51100000000E-03 0. -1.
        -11    1    3    3    0    0  0.11878868747E+01  0.15411764494E+02  0.17314757182E+02  0.23210652222E+02  0.51100000000E-03 0.  1.
        -12    1    3    3    0    0  0.50267036985E+01  0.69901387715E+01 -0.44475814823E+00  0.86213455985E+01  0.00000000000E+00 0.  1.
</event>
<event>
 7    1  0.8300060E-011  0.4778727E+02  0.7816164E-02  0.1312668E+00
        -11   -1    0    0    0    0  0.00000000000E+00  0.00000000000E+00  0.45593999997E+02  0.45594000000E+02  0.51100000000E-03 0.  1.
         11   -1    0    0    0    0 -0.00000000000E+00 -0.00000000000E+00 -0.45593999997E+02  0.45594000000E+02  0.51100000000E-03 0. -1.
    9900012    2    1    2    0    0 -0.20702230566E+01  0.10856465467E+02 -0.41969925872E+02  0.47787270241E+02  0.19999996338E+02 0.  0.
         12    1    1    2    0    0  0.20702230566E+01 -0.10856465467E+02  0.41969925872E+02  0.43400729759E+02  0.00000000000E+00 0. -1.
         11    1    3    3    0    0 -0.34128833044E+00 -0.26854766420E+00 -0.12428585541E+01  0.13165459426E+01  0.51100000000E-03 0. -1.
        -11    1    3    3    0    0 -0.14896825335E+01  0.60996903838E+00  0.19431837564E+01  0.25233270994E+01  0.51100000000E-03 0.  1.
        -12    1    3    3    0    0 -0.23925219267E+00  0.10515044092E+02 -0.42670251074E+02  0.43947397199E+02  0.00000000000E+00 0.  1.
</event>
<event>
 7    1  0.8300060E-011  0.4778727E+02  0.7816164E-02  0.1312668E+00
        -11   -1    0    0    0    0  0.00000000000E+00  0.00000000000E+00  0.45593999997E+02  0.45594000000E+02  0.51100000000E-03 0. -1.
         11   -1    0    0    0    0 -0.00000000000E+00 -0.00000000000E+00 -0.45593999997E+02  0.45594000000E+02  0.51100000000E-03 0.  1.
    9900012    2    1    2    0    0 -0.24167971824E+02  0.20237811314E+01 -0.35992174221E+02  0.47787272387E+02  0.20000006123E+02 0.  0.
         12    1    1    2    0    0  0.24167971824E+02 -0.20237811314E+01  0.35992174221E+02  0.43400727613E+02  0.00000000000E+00 0. -1.
         11    1    3    3    0    0 -0.13836536259E+02 -0.74670633519E+01 -0.18037390444E+02  0.23928105338E+02  0.51100000000E-03 0. -1.
        -11    1    3    3    0    0 -0.76083969102E+01  0.31386759515E+01 -0.12879235099E+02  0.15284426298E+02  0.51100000000E-03 0.  1.
         12    1    3    3    0    0 -0.27230386544E+01  0.63521685319E+01 -0.50755486778E+01  0.85747407512E+01  0.00000000000E+00 0. -1.
</event>
<event>
 7    1  0.8300060E-011  0.4778727E+02  0.7816164E-02  0.1312668E+00
        -11   -1    0    0    0    0  0.00000000000E+00  0.00000000000E+00  0.45593999997E+02  0.45594000000E+02  0.51100000000E-03 0. -1.
         11   -1    0    0    0    0 -0.00000000000E+00 -0.00000000000E+00 -0.45593999997E+02  0.45594000000E+02  0.51100000000E-03 0.  1.
    9900012    2    1    2    0    0 -0.27090464157E+02  0.20811110375E+02 -0.26769900103E+02  0.47787272877E+02  0.20000008354E+02 0.  0.
         12    1    1    2    0    0  0.27090464157E+02 -0.20811110375E+02  0.26769900103E+02  0.43400727123E+02  0.00000000000E+00 0. -1.
         11    1    3    3    0    0 -0.12849734500E+02  0.58211693179E+01 -0.48434724984E+01  0.14915123702E+02  0.51100000000E-03 0. -1.
        -11    1    3    3    0    0 -0.55111933879E+01  0.82164980155E+01 -0.19032288888E+02  0.21450224073E+02  0.51100000000E-03 0.  1.
        -12    1    3    3    0    0 -0.87295362693E+01  0.67734430416E+01 -0.28941387169E+01  0.11421925102E+02  0.00000000000E+00 0.  1.
</event>
<event>
 7    1  0.8300060E-011  0.4778727E+02  0.7816164E-02  0.1312668E+00
        -11   -1    0    0    0    0  0.00000000000E+00  0.00000000000E+00  0.45593999997E+02  0.45594000000E+02  0.51100000000E-03 0. -1.
         11   -1    0    0    0    0 -0.00000000000E+00 -0.00000000000E+00 -0.45593999997E+02  0.45594000000E+02  0.51100000000E-03 0.  1.
    9900012    2    1    2    0    0 -0.25486244918E+01 -0.14643552464E+02  0.40776146888E+02  0.47787271082E+02  0.20000000170E+02 0.  0.
        -12    1    1    2    0    0  0.25486244918E+01  0.14643552464E+02 -0.40776146888E+02  0.43400728918E+02  0.00000000000E+00 0.  1.
         11    1    3    3    0    0 -0.94875856714E+01 -0.34749897937E+01  0.22065229209E+02  0.24268584141E+02  0.51100000000E-03 0. -1.
        -11    1    3    3    0    0  0.42410949870E+01 -0.10605147519E+02  0.15947856656E+02  0.19616069248E+02  0.51100000000E-03 0.  1.
        -12    1    3    3    0    0  0.26978661926E+01 -0.56341515200E+00  0.27630610243E+01  0.39026176920E+01  0.00000000000E+00 0.  1.
</event>
<event>
 7    1  0.8300060E-011  0.4778727E+02  0.7816164E-02  0.1312668E+00
        -11   -1    0    0    0    0  0.00000000000E+00  0.00000000000E+00  0.45593999997E+02  0.45594000000E+02  0.51100000000E-03 0. -1.
         11   -1    0    0    0    0 -0.00000000000E+00 -0.00000000000E+00 -0.45593999997E+02  0.45594000000E+02  0.51100000000E-03 0.  1.
    9900012    2    1    2    0    0 -0.55696333464E+01  0.34680717099E+02 -0.25492162556E+02  0.47787270675E+02  0.19999998317E+02 0.  0.
         12    1    1    2    0    0  0.55696333464E+01 -0.34680717099E+02  0.25492162556E+02  0.43400729325E+02  0.00000000000E+00 0. -1.
         11    1    3    3    0    0 -0.40686265588E+00 -0.17593655072E+01 -0.27429458029E+01  0.32840000224E+01  0.51100000000E-03 0. -1.
        -11    1    3    3    0    0  0.17610019587E+01  0.23156541683E+02 -0.12754655927E+02  0.26495429770E+02  0.51100000000E-03 0.  1.
         12    1    3    3    0    0 -0.69237726493E+01  0.13283540924E+02 -0.99945608257E+01  0.18007840883E+02  0.00000000000E+00 0. -1.
</event>
<event>
 7    1  0.8300060E-011  0.4778727E+02  0.7816164E-02  0.1312668E+00
        -11   -1    0    0    0    0  0.00000000000E+00  0.00000000000E+00  0.45593999997E+02  0.45594000000E+02  0.51100000000E-03 0. -1.
         11   -1    0    0    0    0 -0.00000000000E+00 -0.00000000000E+00 -0.45593999997E+02  0.45594000000E+02  0.51100000000E-03 0.  1.
    9900012    2    1    2    0    0  0.41607293671E+02 -0.48551512357E+01 -0.11352705696E+02  0.47787270665E+02  0.19999998271E+02 0.  0.
         12    1    1    2    0    0 -0.41607293671E+02  0.48551512357E+01  0.11352705696E+02  0.43400729335E+02  0.00000000000E+00 0. -1.
         11    1    3    3    0    0  0.83203497425E+01 -0.44050105814E+00 -0.96387463563E+01  0.12740788539E+02  0.51100000000E-03 0. -1.
        -11    1    3    3    0    0  0.32725340504E+02 -0.58983392099E+01 -0.90323605190E+00  0.33264908720E+02  0.51100000000E-03 0.  1.
        -12    1    3    3    0    0  0.56160342481E+00  0.14836890323E+01 -0.81072328770E+00  0.17815734059E+01  0.00000000000E+00 0.  1.
</event>
<event>
 7    1  0.1663180E-010  0.4778727E+02  0.7816164E-02  0.1312668E+00
        -11   -1    0    0    0    0  0.00000000000E+00  0.00000000000E+00  0.45593999997E+02  0.45594000000E+02  0.51100000000E-03 0. -1.
         11   -1    0    0    0    0 -0.00000000000E+00 -0.00000000000E+00 -0.45593999997E+02  0.45594000000E+02  0.51100000000E-03 0.  1.
    9900012    2    1    2    0    0  0.32396136159E+02  0.91644445530E+01 -0.27388444445E+02  0.47787267620E+02  0.19999984385E+02 0.  0.
         12    1    1    2    0    0 -0.32396136159E+02 -0.91644445530E+01  0.27388444445E+02  0.43400732380E+02  0.00000000000E+00 0. -1.
         11    1    3    3    0    0  0.53695608894E+01  0.73569617653E+01 -0.14543419291E+01  0.92234582056E+01  0.51100000000E-03 0. -1.
        -11    1    3    3    0    0  0.11452394209E+02 -0.15512247632E+01 -0.59274583327E+01  0.12988394586E+02  0.51100000000E-03 0.  1.
         12    1    3    3    0    0  0.15574181061E+02  0.33587075508E+01 -0.20006644183E+02  0.25575414828E+02  0.00000000000E+00 0. -1.
</event>
<event>
 7    1  0.8300060E-011  0.4778727E+02  0.7816164E-02  0.1312668E+00
        -11   -1    0    0    0    0  0.00000000000E+00  0.00000000000E+00  0.45593999997E+02  0.45594000000E+02  0.51100000000E-03 0. -1.
         11   -1    0    0    0    0 -0.00000000000E+00 -0.00000000000E+00 -0.45593999997E+02  0.45594000000E+02  0.51100000000E-03 0.  1.
    9900012    2    1    2    0    0 -0.26128461458E+02  0.48600221298E+01 -0.34311906643E+02  0.47787271311E+02  0.20000001216E+02 0.  0.
         12    1    1    2    0    0  0.26128461458E+02 -0.48600221298E+01  0.34311906643E+02  0.43400728689E+02  0.00000000000E+00 0. -1.
         11    1    3    3    0    0 -0.45709075979E+01  0.14529711709E+01 -0.20304888848E+02  0.20863672564E+02  0.51100000000E-03 0. -1.
        -11    1    3    3    0    0 -0.15794743326E+02  0.44230033826E+00 -0.12792148439E+02  0.20329992825E+02  0.51100000000E-03 0.  1.
        -12    1    3    3    0    0 -0.57628105341E+01  0.29647506207E+01 -0.12148693558E+01  0.65936059214E+01  0.00000000000E+00 0.  1.
</event>
<event>
 7    1  0.8300060E-011  0.4778727E+02  0.7816164E-02  0.1312668E+00
        -11   -1    0    0    0    0  0.00000000000E+00  0.00000000000E+00  0.45593999997E+02  0.45594000000E+02  0.51100000000E-03 0. -1.
         11   -1    0    0    0    0 -0.00000000000E+00 -0.00000000000E+00 -0.45593999997E+02  0.45594000000E+02  0.51100000000E-03 0.  1.
    9900012    2    1    2    0    0  0.27975085847E+02 -0.22260392695E+02 -0.24606762826E+02  0.47787270884E+02  0.19999999267E+02 0.  0.
         12    1    1    2    0    0 -0.27975085847E+02  0.22260392695E+02  0.24606762826E+02  0.43400729116E+02  0.00000000000E+00 0. -1.
         11    1    3    3    0    0  0.13090011766E+02 -0.19751099740E+02 -0.14171881400E+02  0.27609718790E+02  0.51100000000E-03 0. -1.
        -11    1    3    3    0    0  0.15550738171E+02 -0.36153149696E+01 -0.94372807473E+01  0.18546110863E+02  0.51100000000E-03 0.  1.
         12    1    3    3    0    0 -0.66566408974E+00  0.11060220146E+01 -0.99760067794E+00  0.16314412309E+01  0.00000000000E+00 0. -1.
</event>
<event>
 7    1  0.8300060E-011  0.4778727E+02  0.7816164E-02  0.1312668E+00
        -11   -1    0    0    0    0  0.00000000000E+00  0.00000000000E+00  0.45593999997E+02  0.45594000000E+02  0.51100000000E-03 0. -1.
         11   -1    0    0    0    0 -0.00000000000E+00 -0.00000000000E+00 -0.45593999997E+02  0.45594000000E+02  0.51100000000E-03 0.  1.
    9900012    2    1    2    0    0 -0.32704772534E+02  0.48795559470E+01 -0.28110694511E+02  0.47787270068E+02  0.19999995550E+02 0.  0.
         12    1    1    2    0    0  0.32704772534E+02 -0.48795559470E+01  0.28110694511E+02  0.43400729932E+02  0.00000000000E+00 0. -1.
         11    1    3    3    0    0 -0.62862087678E+01  0.53689683446E+01 -0.15146513116E+02  0.17255697656E+02  0.51100000000E-03 0. -1.
        -11    1    3    3    0    0 -0.11359362546E+01 -0.14085293680E+01 -0.26537551044E+01  0.32119655307E+01  0.51100000000E-03 0.  1.
         12    1    3    3    0    0 -0.25282627511E+02  0.91911697038E+00 -0.10310426290E+02  0.27319606882E+02  0.00000000000E+00 0. -1.
</event>
<event>
 7    1  0.9210436E-011  0.4778727E+02  0.7816164E-02  0.1312668E+00
        -11   -1    0    0    0    0  0.00000000000E+00  0.00000000000E+00  0.45593999997E+02  0.45594000000E+02  0.51100000000E-03 0. -1.
         11   -1    0    0    0    0 -0.00000000000E+00 -0.00000000000E+00 -0.45593999997E+02  0.45594000000E+02  0.51100000000E-03 0.  1.
    9900012    2    1    2    0    0  0.29933839278E+02  0.40250319201E+01  0.31167090044E+02  0.47787272844E+02  0.20000008203E+02 0.  0.
        -12    1    1    2    0    0 -0.29933839278E+02 -0.40250319201E+01 -0.31167090044E+02  0.43400727156E+02  0.00000000000E+00 0.  1.
         11    1    3    3    0    0  0.14826126538E+02  0.97637685974E+01  0.14367831285E+02  0.22838121233E+02  0.51100000000E-03 0. -1.
        -11    1    3    3    0    0  0.31239658274E+01 -0.40083727131E+01  0.12350024503E+01  0.52298609553E+01  0.51100000000E-03 0.  1.
         12    1    3    3    0    0  0.11983746912E+02 -0.17303639641E+01  0.15564256309E+02  0.19719290656E+02  0.00000000000E+00 0. -1.
</event>
<event>
 7    1  0.8300060E-011  0.4778728E+02  0.7816164E-02  0.1312668E+00
        -11   -1    0    0    0    0  0.00000000000E+00  0.00000000000E+00  0.45593999997E+02  0.45594000000E+02  0.51100000000E-03 0. -1.
         11   -1    0    0    0    0 -0.00000000000E+00 -0.00000000000E+00 -0.45593999997E+02  0.45594000000E+02  0.51100000000E-03 0.  1.
    9900012    2    1    2    0    0 -0.10330875655E+02 -0.74295685561E+01 -0.41493342209E+02  0.47787275024E+02  0.20000018146E+02 0.  0.
         12    1    1    2    0    0  0.10330875655E+02  0.74295685561E+01  0.41493342209E+02  0.43400724976E+02  0.00000000000E+00 0. -1.
         11    1    3    3    0    0 -0.14264138973E+01  0.55876938419E+01 -0.61727852735E+01  0.84475000663E+01  0.51100000000E-03 0. -1.
        -11    1    3    3    0    0 -0.36170623619E+01 -0.11090264048E+02 -0.24887581118E+02  0.27485792529E+02  0.51100000000E-03 0.  1.
        -12    1    3    3    0    0 -0.52873993955E+01 -0.19269983496E+01 -0.10432975818E+02  0.11853982429E+02  0.00000000000E+00 0.  1.
</event>
<event>
 7    1  0.8300060E-011  0.4778727E+02  0.7816164E-02  0.1312668E+00
        -11   -1    0    0    0    0  0.00000000000E+00  0.00000000000E+00  0.45593999997E+02  0.45594000000E+02  0.51100000000E-03 0.  1.
         11   -1    0    0    0    0 -0.00000000000E+00 -0.00000000000E+00 -0.45593999997E+02  0.45594000000E+02  0.51100000000E-03 0. -1.
    9900012    2    1    2    0    0 -0.13710290982E+02 -0.39475392738E+02  0.11719411816E+02  0.47787270467E+02  0.19999997369E+02 0.  0.
        -12    1    1    2    0    0  0.13710290982E+02  0.39475392738E+02 -0.11719411816E+02  0.43400729533E+02  0.00000000000E+00 0.  1.
         11    1    3    3    0    0 -0.62385531137E+01 -0.29306280572E+02  0.31314461338E+01  0.30126127880E+02  0.51100000000E-03 0. -1.
        -11    1    3    3    0    0 -0.47427982005E+01 -0.74588575888E+01  0.10194633209E+02  0.13492932884E+02  0.51100000000E-03 0.  1.
        -12    1    3    3    0    0 -0.27289396680E+01 -0.27102545773E+01 -0.16066675266E+01  0.41682097028E+01  0.00000000000E+00 0.  1.
</event>
<event>
 7    1  0.8300060E-011  0.4778727E+02  0.7816164E-02  0.1312668E+00
        -11   -1    0    0    0    0  0.00000000000E+00  0.00000000000E+00  0.45593999997E+02  0.45594000000E+02  0.51100000000E-03 0. -1.
         11   -1    0    0    0    0 -0.00000000000E+00 -0.00000000000E+00 -0.45593999997E+02  0.45594000000E+02  0.51100000000E-03 0.  1.
    9900012    2    1    2    0    0  0.44440439485E+01  0.20292409611E+02 -0.38106320264E+02  0.47787273526E+02  0.20000011313E+02 0.  0.
         12    1    1    2    0    0 -0.44440439485E+01 -0.20292409611E+02  0.38106320264E+02  0.43400726474E+02  0.00000000000E+00 0. -1.
         11    1    3    3    0    0  0.26546411586E+01  0.22659785690E+01  0.50816349837E+00  0.35270396876E+01  0.51100000000E-03 0.  1.
        -11    1    3    3    0    0 -0.29057735509E+01  0.75404581713E+01 -0.72458398292E+01  0.10853765450E+02  0.51100000000E-03 0. -1.
        -12    1    3    3    0    0  0.46951763408E+01  0.10485972870E+02 -0.31368643933E+02  0.33406468388E+02  0.00000000000E+00 0.  1.
</event>
<event>
 7    1  0.8300060E-011  0.4778727E+02  0.7816164E-02  0.1312668E+00
        -11   -1    0    0    0    0  0.00000000000E+00  0.00000000000E+00  0.45593999997E+02  0.45594000000E+02  0.51100000000E-03 0.  1.
         11   -1    0    0    0    0 -0.00000000000E+00 -0.00000000000E+00 -0.45593999997E+02  0.45594000000E+02  0.51100000000E-03 0. -1.
    9900012    2    1    2    0    0  0.20626839850E+02  0.35257219140E+02  0.14665776380E+02  0.47787273963E+02  0.20000013308E+02 0.  0.
        -12    1    1    2    0    0 -0.20626839850E+02 -0.35257219140E+02 -0.14665776380E+02  0.43400726037E+02  0.00000000000E+00 0.  1.
         11    1    3    3    0    0  0.23224087395E+02  0.33288190350E+02  0.13609705783E+02  0.42809881381E+02  0.51100000000E-03 0. -1.
        -11    1    3    3    0    0 -0.31209857486E+01  0.10814583337E+01  0.17470478845E+01  0.37366135393E+01  0.51100000000E-03 0.  1.
        -12    1    3    3    0    0  0.52373820358E+00  0.88757045651E+00 -0.69097728743E+00  0.12407790427E+01  0.00000000000E+00 0.  1.
</event>
<event>
 7    1  0.8300060E-011  0.4778727E+02  0.7816164E-02  0.1312668E+00
        -11   -1    0    0    0    0  0.00000000000E+00  0.00000000000E+00  0.45593999997E+02  0.45594000000E+02  0.51100000000E-03 0. -1.
         11   -1    0    0    0    0 -0.00000000000E+00 -0.00000000000E+00 -0.45593999997E+02  0.45594000000E+02  0.51100000000E-03 0.  1.
    9900012    2    1    2    0    0  0.27831804299E+02 -0.25666968282E+02 -0.21218407994E+02  0.47787269257E+02  0.19999991848E+02 0.  0.
         12    1    1    2    0    0 -0.27831804299E+02  0.25666968282E+02  0.21218407994E+02  0.43400730743E+02  0.00000000000E+00 0. -1.
         11    1    3    3    0    0  0.39076028388E+01  0.11533812754E+01 -0.13798331857E+01  0.43015797323E+01  0.51100000000E-03 0. -1.
        -11    1    3    3    0    0  0.22414168548E+02 -0.20218193901E+02 -0.10520620204E+02  0.31966447505E+02  0.51100000000E-03 0.  1.
        -12    1    3    3    0    0  0.15100329114E+01 -0.66021556557E+01 -0.93179546041E+01  0.11519242019E+02  0.00000000000E+00 0.  1.
</event>
<event>
 7    1  0.1068021E-010  0.4778727E+02  0.7816164E-02  0.1312668E+00
        -11   -1    0    0    0    0  0.00000000000E+00  0.00000000000E+00  0.45593999997E+02  0.45594000000E+02  0.51100000000E-03 0. -1.
         11   -1    0    0    0    0 -0.00000000000E+00 -0.00000000000E+00 -0.45593999997E+02  0.45594000000E+02  0.51100000000E-03 0.  1.
    9900012    2    1    2    0    0 -0.14254877748E+02  0.51139962733E+01 -0.40672704533E+02  0.47787269689E+02  0.19999993821E+02 0.  0.
         12    1    1    2    0    0  0.14254877748E+02 -0.51139962733E+01  0.40672704533E+02  0.43400730311E+02  0.00000000000E+00 0. -1.
         11    1    3    3    0    0 -0.24822020176E+01 -0.20926814808E+01 -0.79077356369E+00  0.33415513951E+01  0.51100000000E-03 0. -1.
        -11    1    3    3    0    0  0.86233863488E-01  0.75612066362E+01 -0.12586042153E+02  0.14682906368E+02  0.51100000000E-03 0.  1.
        -12    1    3    3    0    0 -0.11858909594E+02 -0.35452888214E+00 -0.27295888816E+02  0.29762811926E+02  0.00000000000E+00 0.  1.
</event>
<event>
 7    1  0.8300060E-011  0.4778728E+02  0.7816164E-02  0.1312668E+00
        -11   -1    0    0    0    0  0.00000000000E+00  0.00000000000E+00  0.45593999997E+02  0.45594000000E+02  0.51100000000E-03 0.  1.
         11   -1    0    0    0    0 -0.00000000000E+00 -0.00000000000E+00 -0.45593999997E+02  0.45594000000E+02  0.51100000000E-03 0. -1.
    9900012    2    1    2    0    0  0.26092327770E+02 -0.33220606689E+02 -0.99601201939E+01  0.47787282592E+02  0.20000052651E+02 0.  0.
         12    1    1    2    0    0 -0.26092327770E+02  0.33220606689E+02  0.99601201939E+01  0.43400717408E+02  0.00000000000E+00 0. -1.
         11    1    3    3    0    0  0.14664500412E+02 -0.12269797240E+02 -0.11323033713E+02  0.22221759367E+02  0.51100000000E-03 0.  1.
        -11    1    3    3    0    0  0.21660974042E+01 -0.13398985168E+02  0.44994145521E+00  0.13580398708E+02  0.51100000000E-03 0. -1.
         12    1    3    3    0    0  0.92617299539E+01 -0.75518242803E+01  0.91297206345E+00  0.11985124517E+02  0.00000000000E+00 0. -1.
</event>
<event>
 7    1  0.8300060E-011  0.4778727E+02  0.7816164E-02  0.1312668E+00
        -11   -1    0    0    0    0  0.00000000000E+00  0.00000000000E+00  0.45593999997E+02  0.45594000000E+02  0.51100000000E-03 0. -1.
         11   -1    0    0    0    0 -0.00000000000E+00 -0.00000000000E+00 -0.45593999997E+02  0.45594000000E+02  0.51100000000E-03 0.  1.
    9900012    2    1    2    0    0  0.41809313013E+02 -0.60645451272E+00 -0.11629145522E+02  0.47787268816E+02  0.19999989842E+02 0.  0.
         12    1    1    2    0    0 -0.41809313013E+02  0.60645451272E+00  0.11629145522E+02  0.43400731184E+02  0.00000000000E+00 0. -1.
         11    1    3    3    0    0  0.20095232283E+01 -0.36059035266E+01  0.21050336830E+01  0.46337771759E+01  0.51100000000E-03 0. -1.
        -11    1    3    3    0    0  0.16834325674E+02  0.53333735187E+01 -0.78899211459E+01  0.19341412822E+02  0.51100000000E-03 0.  1.
        -12    1    3    3    0    0  0.22965464111E+02 -0.23339245048E+01 -0.58442580587E+01  0.23812078819E+02  0.00000000000E+00 0.  1.
</event>
<event>
 7    1  0.8300060E-011  0.4778727E+02  0.7816164E-02  0.1312668E+00
        -11   -1    0    0    0    0  0.00000000000E+00  0.00000000000E+00  0.45593999997E+02  0.45594000000E+02  0.51100000000E-03 0. -1.
         11   -1    0    0    0    0 -0.00000000000E+00 -0.00000000000E+00 -0.45593999997E+02  0.45594000000E+02  0.51100000000E-03 0.  1.
    9900012    2    1    2    0    0 -0.13935288483E+02 -0.26345628973E+02  0.31548989232E+02  0.47787272442E+02  0.20000006370E+02 0.  0.
        -12    1    1    2    0    0  0.13935288483E+02  0.26345628973E+02 -0.31548989232E+02  0.43400727558E+02  0.00000000000E+00 0.  1.
         11    1    3    3    0    0 -0.65111826931E+01 -0.23452885349E+02  0.29648270223E+02  0.38359526310E+02  0.51100000000E-03 0. -1.
        -11    1    3    3    0    0 -0.59190726217E+01 -0.38731183013E+01  0.39624585528E+00  0.70847355008E+01  0.51100000000E-03 0.  1.
         12    1    3    3    0    0 -0.15050331683E+01  0.98037467766E+00  0.15044731530E+01  0.23430106304E+01  0.00000000000E+00 0. -1.
</event>
<event>
 7    1  0.8300060E-011  0.4778725E+02  0.7816164E-02  0.1312668E+00
        -11   -1    0    0    0    0  0.00000000000E+00  0.00000000000E+00  0.45593999997E+02  0.45594000000E+02  0.51100000000E-03 0. -1.
         11   -1    0    0    0    0 -0.00000000000E+00 -0.00000000000E+00 -0.45593999997E+02  0.45594000000E+02  0.51100000000E-03 0.  1.
    9900012    2    1    2    0    0  0.32468411040E+01  0.34233011795E+02 -0.26479885089E+02  0.47787246688E+02  0.19999888951E+02 0.  0.
         12    1    1    2    0    0 -0.32468411040E+01 -0.34233011795E+02  0.26479885089E+02  0.43400753312E+02  0.00000000000E+00 0. -1.
         11    1    3    3    0    0 -0.49035295104E+01  0.11402254759E+02 -0.80031418964E+01  0.14768422249E+02  0.51100000000E-03 0. -1.
        -11    1    3    3    0    0  0.82300792133E+01  0.14887045926E+02 -0.18422092341E+02  0.25074525454E+02  0.51100000000E-03 0.  1.
         12    1    3    3    0    0 -0.79708598871E-01  0.79437111096E+01 -0.54650851531E-01  0.79442989854E+01  0.00000000000E+00 0. -1.
</event>
<event>
 7    1  0.8300060E-011  0.4778727E+02  0.7816164E-02  0.1312668E+00
        -11   -1    0    0    0    0  0.00000000000E+00  0.00000000000E+00  0.45593999997E+02  0.45594000000E+02  0.51100000000E-03 0. -1.
         11   -1    0    0    0    0 -0.00000000000E+00 -0.00000000000E+00 -0.45593999997E+02  0.45594000000E+02  0.51100000000E-03 0.  1.
    9900012    2    1    2    0    0 -0.33350486302E+02 -0.14654460814E+02  0.23592689995E+02  0.47787272132E+02  0.20000004957E+02 0.  0.
        -12    1    1    2    0    0  0.33350486302E+02  0.14654460814E+02 -0.23592689995E+02  0.43400727868E+02  0.00000000000E+00 0.  1.
         11    1    3    3    0    0 -0.73217269413E+01  0.12823224017E+01  0.94229906913E+01  0.12001866104E+02  0.51100000000E-03 0. -1.
        -11    1    3    3    0    0 -0.14093869249E+02 -0.71528364351E+01  0.79767357911E+00  0.15825185713E+02  0.51100000000E-03 0.  1.
        -12    1    3    3    0    0 -0.11934890112E+02 -0.87839467804E+01  0.13372025725E+02  0.19960220314E+02  0.00000000000E+00 0.  1.
</event>
<event>
 7    1  0.8300060E-011  0.4778726E+02  0.7816164E-02  0.1312668E+00
        -11   -1    0    0    0    0  0.00000000000E+00  0.00000000000E+00  0.45593999997E+02  0.45594000000E+02  0.51100000000E-03 0. -1.
         11   -1    0    0    0    0 -0.00000000000E+00 -0.00000000000E+00 -0.45593999997E+02  0.45594000000E+02  0.51100000000E-03 0.  1.
    9900012    2    1    2    0    0 -0.29241925881E+01 -0.78808963883E+01 -0.42578926401E+02  0.47787258029E+02  0.19999940658E+02 0.  0.
         12    1    1    2    0    0  0.29241925881E+01  0.78808963883E+01  0.42578926401E+02  0.43400741971E+02  0.00000000000E+00 0. -1.
         11    1    3    3    0    0  0.53931841353E+01 -0.48117570177E+01 -0.32164557825E+02  0.32966622834E+02  0.51100000000E-03 0.  1.
        -11    1    3    3    0    0 -0.49789776866E+01  0.92450912310E+00 -0.34566944665E+01  0.61313679402E+01  0.51100000000E-03 0. -1.
        -12    1    3    3    0    0 -0.33383990368E+01 -0.39936484937E+01 -0.69576741089E+01  0.86892672548E+01  0.00000000000E+00 0.  1.
</event>
<event>
 7    1  0.8300060E-011  0.4778726E+02  0.7816164E-02  0.1312668E+00
        -11   -1    0    0    0    0  0.00000000000E+00  0.00000000000E+00  0.45593999997E+02  0.45594000000E+02  0.51100000000E-03 0. -1.
         11   -1    0    0    0    0 -0.00000000000E+00 -0.00000000000E+00 -0.45593999997E+02  0.45594000000E+02  0.51100000000E-03 0.  1.
    9900012    2    1    2    0    0  0.54238910489E+00 -0.27180851650E+02  0.33830919947E+02  0.47787262370E+02  0.19999960449E+02 0.  0.
        -12    1    1    2    0    0 -0.54238910489E+00  0.27180851650E+02 -0.33830919947E+02  0.43400737630E+02  0.00000000000E+00 0.  1.
         11    1    3    3    0    0  0.31304224774E+00 -0.66307779841E+01  0.10686520750E+02  0.12580418837E+02  0.51100000000E-03 0. -1.
        -11    1    3    3    0    0 -0.61866704426E+01 -0.80806677798E+01  0.17179600740E+02  0.19967743107E+02  0.51100000000E-03 0.  1.
        -12    1    3    3    0    0  0.64160172998E+01 -0.12469405886E+02  0.59647984575E+01  0.15239100426E+02  0.00000000000E+00 0.  1.
</event>
<event>
 7    1  0.8300060E-011  0.4778727E+02  0.7816164E-02  0.1312668E+00
        -11   -1    0    0    0    0  0.00000000000E+00  0.00000000000E+00  0.45593999997E+02  0.45594000000E+02  0.51100000000E-03 0. -1.
         11   -1    0    0    0    0 -0.00000000000E+00 -0.00000000000E+00 -0.45593999997E+02  0.45594000000E+02  0.51100000000E-03 0.  1.
    9900012    2    1    2    0    0 -0.33781893985E+02 -0.17943491902E+02 -0.20504583065E+02  0.47787272017E+02  0.20000004432E+02 0.  0.
         12    1    1    2    0    0  0.33781893985E+02  0.17943491902E+02  0.20504583065E+02  0.43400727983E+02  0.00000000000E+00 0. -1.
         11    1    3    3    0    0 -0.61425653379E+01 -0.11130394781E+02 -0.37074810000E+01  0.13242439826E+02  0.51100000000E-03 0. -1.
        -11    1    3    3    0    0 -0.13566038439E+02  0.18013621102E+01 -0.77167884801E+01  0.15710860227E+02  0.51100000000E-03 0.  1.
        -12    1    3    3    0    0 -0.14073290208E+02 -0.86144592310E+01 -0.90803135848E+01  0.18833971963E+02  0.00000000000E+00 0.  1.
</event>
<event>
 7    1  0.8300060E-011  0.4778733E+02  0.7816164E-02  0.1312667E+00
        -11   -1    0    0    0    0  0.00000000000E+00  0.00000000000E+00  0.45593999997E+02  0.45594000000E+02  0.51100000000E-03 0. -1.
         11   -1    0    0    0    0 -0.00000000000E+00 -0.00000000000E+00 -0.45593999997E+02  0.45594000000E+02  0.51100000000E-03 0.  1.
    9900012    2    1    2    0    0 -0.45153016210E+01  0.26485330240E+02  0.34084564534E+02  0.47787329428E+02  0.20000266192E+02 0.  0.
        -12    1    1    2    0    0  0.45153016210E+01 -0.26485330240E+02 -0.34084564534E+02  0.43400670572E+02  0.00000000000E+00 0.  1.
         11    1    3    3    0    0 -0.12616854353E+01  0.17813342172E+02  0.71104223199E+01  0.19221475368E+02  0.51100000000E-03 0. -1.
        -11    1    3    3    0    0 -0.28425825248E+01  0.62754167782E+01  0.21478590605E+02  0.22556395674E+02  0.51100000000E-03 0.  1.
         12    1    3    3    0    0 -0.41103366092E+00  0.23965712896E+01  0.54955516088E+01  0.60094583867E+01  0.00000000000E+00 0. -1.
</event>
<event>
 7    1  0.8300060E-011  0.4778727E+02  0.7816164E-02  0.1312668E+00
        -11   -1    0    0    0    0  0.00000000000E+00  0.00000000000E+00  0.45593999997E+02  0.45594000000E+02  0.51100000000E-03 0. -1.
         11   -1    0    0    0    0 -0.00000000000E+00 -0.00000000000E+00 -0.45593999997E+02  0.45594000000E+02  0.51100000000E-03 0.  1.
    9900012    2    1    2    0    0 -0.41868424713E+02 -0.11363419608E+02  0.12375338340E+01  0.47787265178E+02  0.19999973251E+02 0.  0.
         12    1    1    2    0    0  0.41868424713E+02  0.11363419608E+02 -0.12375338340E+01  0.43400734822E+02  0.00000000000E+00 0. -1.
         11    1    3    3    0    0 -0.18567292748E+02 -0.13476382463E+02  0.16279341376E+01  0.23000161175E+02  0.51100000000E-03 0. -1.
        -11    1    3    3    0    0 -0.13049453971E+02  0.78528824513E+00  0.38283623134E+01  0.13622088123E+02  0.51100000000E-03 0.  1.
         12    1    3    3    0    0 -0.10251677994E+02  0.13276746102E+01 -0.42187626171E+01  0.11165015880E+02  0.00000000000E+00 0. -1.
</event>
<event>
 7    1  0.8300060E-011  0.4778727E+02  0.7816164E-02  0.1312668E+00
        -11   -1    0    0    0    0  0.00000000000E+00  0.00000000000E+00  0.45593999997E+02  0.45594000000E+02  0.51100000000E-03 0. -1.
         11   -1    0    0    0    0 -0.00000000000E+00 -0.00000000000E+00 -0.45593999997E+02  0.45594000000E+02  0.51100000000E-03 0.  1.
    9900012    2    1    2    0    0  0.22830816949E+02  0.11308724582E+01  0.36893060832E+02  0.47787274054E+02  0.20000013722E+02 0.  0.
        -12    1    1    2    0    0 -0.22830816949E+02 -0.11308724582E+01 -0.36893060832E+02  0.43400725946E+02  0.00000000000E+00 0.  1.
         11    1    3    3    0    0 -0.19187265327E+01  0.16182003043E+01  0.83745639092E-01  0.25113935026E+01  0.51100000000E-03 0.  1.
        -11    1    3    3    0    0  0.15427235754E+02 -0.25702308863E+01  0.15975857552E+02  0.22356961211E+02  0.51100000000E-03 0. -1.
         12    1    3    3    0    0  0.93223077275E+01  0.20829030403E+01  0.20833457641E+02  0.22918919340E+02  0.00000000000E+00 0. -1.
</event>
<event>
 7    1  0.8300060E-011  0.4778727E+02  0.7816164E-02  0.1312668E+00
        -11   -1    0    0    0    0  0.00000000000E+00  0.00000000000E+00  0.45593999997E+02  0.45594000000E+02  0.51100000000E-03 0. -1.
         11   -1    0    0    0    0 -0.00000000000E+00 -0.00000000000E+00 -0.45593999997E+02  0.45594000000E+02  0.51100000000E-03 0.  1.
    9900012    2    1    2    0    0  0.41528223998E+02  0.53157034252E+01 -0.11435605749E+02  0.47787272239E+02  0.20000005448E+02 0.  0.
        -12    1    1    2    0    0 -0.41528223998E+02 -0.53157034252E+01  0.11435605749E+02  0.43400727761E+02  0.00000000000E+00 0.  1.
         11    1    3    3    0    0  0.29579727998E+02  0.70141607431E+01 -0.67144320601E+01  0.31132657412E+02  0.51100000000E-03 0. -1.
        -11    1    3    3    0    0  0.75788220383E+01 -0.43027798901E+01  0.12568133182E+01  0.88052278931E+01  0.51100000000E-03 0.  1.
        -12    1    3    3    0    0  0.43696739609E+01  0.26043225721E+01 -0.59779870073E+01  0.78493869343E+01  0.00000000000E+00 0.  1.
</event>
<event>
 7    1  0.8300060E-011  0.4778728E+02  0.7816164E-02  0.1312668E+00
        -11   -1    0    0    0    0  0.00000000000E+00  0.00000000000E+00  0.45593999997E+02  0.45594000000E+02  0.51100000000E-03 0. -1.
         11   -1    0    0    0    0 -0.00000000000E+00 -0.00000000000E+00 -0.45593999997E+02  0.45594000000E+02  0.51100000000E-03 0.  1.
    9900012    2    1    2    0    0 -0.57575033202E+00 -0.31554744043E+02 -0.29792428678E+02  0.47787283801E+02  0.20000058162E+02 0.  0.
         12    1    1    2    0    0  0.57575033202E+00  0.31554744043E+02  0.29792428678E+02  0.43400716199E+02  0.00000000000E+00 0. -1.
         11    1    3    3    0    0 -0.12741983800E+01 -0.13645904401E+02 -0.31810256522E+01  0.14069584674E+02  0.51100000000E-03 0.  1.
        -11    1    3    3    0    0 -0.37776875780E+01 -0.68586715343E+01 -0.58411695856E+01  0.97689078735E+01  0.51100000000E-03 0. -1.
         12    1    3    3    0    0  0.44761356259E+01 -0.11050168108E+02 -0.20770233440E+02  0.23948791254E+02  0.00000000000E+00 0. -1.
</event>
<event>
 7    1  0.8300060E-011  0.4778727E+02  0.7816164E-02  0.1312668E+00
        -11   -1    0    0    0    0  0.00000000000E+00  0.00000000000E+00  0.45593999997E+02  0.45594000000E+02  0.51100000000E-03 0. -1.
         11   -1    0    0    0    0 -0.00000000000E+00 -0.00000000000E+00 -0.45593999997E+02  0.45594000000E+02  0.51100000000E-03 0.  1.
    9900012    2    1    2    0    0  0.21752234848E+02  0.36850910768E+01  0.37374906046E+02  0.47787271675E+02  0.20000002877E+02 0.  0.
        -12    1    1    2    0    0 -0.21752234848E+02 -0.36850910768E+01 -0.37374906046E+02  0.43400728325E+02  0.00000000000E+00 0.  1.
         11    1    3    3    0    0  0.13648630449E+02 -0.29237282705E+01  0.30725655514E+02  0.33747580760E+02  0.51100000000E-03 0. -1.
        -11    1    3    3    0    0  0.90114999063E+01  0.48535014446E+01  0.46965891185E+01  0.11261507734E+02  0.51100000000E-03 0.  1.
         12    1    3    3    0    0 -0.90789550748E+00  0.17553179027E+01  0.19526614140E+01  0.27781831814E+01  0.00000000000E+00 0. -1.
</event>
<event>
 7    1  0.8300060E-011  0.4778727E+02  0.7816164E-02  0.1312668E+00
        -11   -1    0    0    0    0  0.00000000000E+00  0.00000000000E+00  0.45593999997E+02  0.45594000000E+02  0.51100000000E-03 0. -1.
         11   -1    0    0    0    0 -0.00000000000E+00 -0.00000000000E+00 -0.45593999997E+02  0.45594000000E+02  0.51100000000E-03 0.  1.
    9900012    2    1    2    0    0 -0.34572347209E+02  0.19518280114E+01 -0.26164219229E+02  0.47787271987E+02  0.20000004299E+02 0.  0.
         12    1    1    2    0    0  0.34572347209E+02 -0.19518280114E+01  0.26164219229E+02  0.43400728013E+02  0.00000000000E+00 0. -1.
         11    1    3    3    0    0 -0.45379896136E+01  0.58304363825E+01 -0.61561757188E+01  0.96169557494E+01  0.51100000000E-03 0. -1.
        -11    1    3    3    0    0 -0.22585569017E+02 -0.17359288574E+01 -0.82913125767E+01  0.24121924495E+02  0.51100000000E-03 0.  1.
         12    1    3    3    0    0 -0.74487885783E+01 -0.21426795137E+01 -0.11716730934E+02  0.14048391743E+02  0.00000000000E+00 0. -1.
</event>
<event>
 7    1  0.8300060E-011  0.4778727E+02  0.7816164E-02  0.1312668E+00
        -11   -1    0    0    0    0  0.00000000000E+00  0.00000000000E+00  0.45593999997E+02  0.45594000000E+02  0.51100000000E-03 0. -1.
         11   -1    0    0    0    0 -0.00000000000E+00 -0.00000000000E+00 -0.45593999997E+02  0.45594000000E+02  0.51100000000E-03 0.  1.
    9900012    2    1    2    0    0  0.24085058068E+02 -0.23174818349E+02  0.27685036893E+02  0.47787268492E+02  0.19999988363E+02 0.  0.
        -12    1    1    2    0    0 -0.24085058068E+02  0.23174818349E+02 -0.27685036893E+02  0.43400731508E+02  0.00000000000E+00 0.  1.
         11    1    3    3    0    0  0.20712721034E+02 -0.73260925517E+01  0.14490170805E+02  0.26318311020E+02  0.51100000000E-03 0. -1.
        -11    1    3    3    0    0  0.19535417390E+00 -0.26718823589E-01 -0.34899750099E+00  0.40084493962E+00  0.51100000000E-03 0.  1.
         12    1    3    3    0    0  0.31769828601E+01 -0.15822006974E+02  0.13543863589E+02  0.21068112532E+02  0.00000000000E+00 0. -1.
</event>
<event>
 7    1  0.8300060E-011  0.4778727E+02  0.7816164E-02  0.1312668E+00
        -11   -1    0    0    0    0  0.00000000000E+00  0.00000000000E+00  0.45593999997E+02  0.45594000000E+02  0.51100000000E-03 0. -1.
         11   -1    0    0    0    0 -0.00000000000E+00 -0.00000000000E+00 -0.45593999997E+02  0.45594000000E+02  0.51100000000E-03 0.  1.
    9900012    2    1    2    0    0 -0.89387359202E+01 -0.70997467424E+01 -0.41872612975E+02  0.47787272806E+02  0.20000008029E+02 0.  0.
         12    1    1    2    0    0  0.89387359202E+01  0.70997467424E+01  0.41872612975E+02  0.43400727194E+02  0.00000000000E+00 0. -1.
         11    1    3    3    0    0 -0.24143544137E+01 -0.32151228410E+01 -0.49944920816E+01  0.64117917568E+01  0.51100000000E-03 0. -1.
        -11    1    3    3    0    0 -0.11786516194E+02 -0.14875157085E+01 -0.30675372964E+02  0.32895488653E+02  0.51100000000E-03 0.  1.
        -12    1    3    3    0    0  0.52621346875E+01 -0.23971081929E+01 -0.62027479293E+01  0.84799923957E+01  0.00000000000E+00 0.  1.
</event>
<event>
 7    1  0.8300060E-011  0.4778726E+02  0.7816164E-02  0.1312668E+00
        -11   -1    0    0    0    0  0.00000000000E+00  0.00000000000E+00  0.45593999997E+02  0.45594000000E+02  0.51100000000E-03 0. -1.
         11   -1    0    0    0    0 -0.00000000000E+00 -0.00000000000E+00 -0.45593999997E+02  0.45594000000E+02  0.51100000000E-03 0.  1.
    9900012    2    1    2    0    0  0.84056451858E+01 -0.57690029891E+00 -0.42575066245E+02  0.47787263246E+02  0.19999964446E+02 0.  0.
         12    1    1    2    0    0 -0.84056451858E+01  0.57690029891E+00  0.42575066245E+02  0.43400736754E+02  0.00000000000E+00 0. -1.
         11    1    3    3    0    0  0.77898927352E+01 -0.26256366893E+01 -0.71090645942E+01  0.10868081547E+02  0.51100000000E-03 0. -1.
        -11    1    3    3    0    0 -0.25938064502E+01 -0.23242684342E+01 -0.23802895623E+02  0.24056348351E+02  0.51100000000E-03 0.  1.
         12    1    3    3    0    0  0.32095589008E+01  0.43730048246E+01 -0.11663106028E+02  0.12862833349E+02  0.00000000000E+00 0. -1.
</event>
<event>
 7    1  0.8300060E-011  0.4778727E+02  0.7816164E-02  0.1312668E+00
        -11   -1    0    0    0    0  0.00000000000E+00  0.00000000000E+00  0.45593999997E+02  0.45594000000E+02  0.51100000000E-03 0. -1.
         11   -1    0    0    0    0 -0.00000000000E+00 -0.00000000000E+00 -0.45593999997E+02  0.45594000000E+02  0.51100000000E-03 0.  1.
    9900012    2    1    2    0    0  0.16135694399E+01 -0.97600983386E+01  0.42258254607E+02  0.47787271800E+02  0.20000003443E+02 0.  0.
        -12    1    1    2    0    0 -0.16135694399E+01  0.97600983386E+01 -0.42258254607E+02  0.43400728200E+02  0.00000000000E+00 0.  1.
         11    1    3    3    0    0 -0.89743792747E+00 -0.65498515303E+01  0.11590308277E+02  0.13343207865E+02  0.51100000000E-03 0. -1.
        -11    1    3    3    0    0  0.47352132655E+01  0.51519401040E+01  0.14774338812E+02  0.16347654850E+02  0.51100000000E-03 0.  1.
        -12    1    3    3    0    0 -0.22242058981E+01 -0.83621869123E+01  0.15893607518E+02  0.18096409085E+02  0.00000000000E+00 0.  1.
</event>
<event>
 7    1  0.8300060E-011  0.4778727E+02  0.7816164E-02  0.1312668E+00
        -11   -1    0    0    0    0  0.00000000000E+00  0.00000000000E+00  0.45593999997E+02  0.45594000000E+02  0.51100000000E-03 0. -1.
         11   -1    0    0    0    0 -0.00000000000E+00 -0.00000000000E+00 -0.45593999997E+02  0.45594000000E+02  0.51100000000E-03 0.  1.
    9900012    2    1    2    0    0  0.49573155924E+01  0.99566077456E+01 -0.41951331390E+02  0.47787271653E+02  0.20000002773E+02 0.  0.
         12    1    1    2    0    0 -0.49573155924E+01 -0.99566077456E+01  0.41951331390E+02  0.43400728347E+02  0.00000000000E+00 0. -1.
         11    1    3    3    0    0  0.12470611106E+02  0.47381025684E+01 -0.20412825540E+02  0.24385430160E+02  0.51100000000E-03 0. -1.
        -11    1    3    3    0    0 -0.42208600221E+01  0.30721282507E+01 -0.12347539022E+02  0.13405795444E+02  0.51100000000E-03 0.  1.
         12    1    3    3    0    0 -0.32924354915E+01  0.21463769265E+01 -0.91909668283E+01  0.99960460491E+01  0.00000000000E+00 0. -1.
</event>
<event>
 7    1  0.8300060E-011  0.4778727E+02  0.7816164E-02  0.1312668E+00
        -11   -1    0    0    0    0  0.00000000000E+00  0.00000000000E+00  0.45593999997E+02  0.45594000000E+02  0.51100000000E-03 0. -1.
         11   -1    0    0    0    0 -0.00000000000E+00 -0.00000000000E+00 -0.45593999997E+02  0.45594000000E+02  0.51100000000E-03 0.  1.
    9900012    2    1    2    0    0 -0.33084778867E+02 -0.19974294881E+02 -0.19749635856E+02  0.47787272297E+02  0.20000005713E+02 0.  0.
         12    1    1    2    0    0  0.33084778867E+02  0.19974294881E+02  0.19749635856E+02  0.43400727703E+02  0.00000000000E+00 0. -1.
         11    1    3    3    0    0 -0.24458874961E+02 -0.10601984017E+02 -0.47571978848E+01  0.27078950523E+02  0.51100000000E-03 0. -1.
        -11    1    3    3    0    0 -0.40486938779E+01 -0.80952765326E+01 -0.71336184236E+01  0.11524492888E+02  0.51100000000E-03 0.  1.
         12    1    3    3    0    0 -0.45772100277E+01 -0.12770343314E+01 -0.78588195480E+01  0.91838288861E+01  0.00000000000E+00 0. -1.
</event>
<event>
 7    1  0.8300060E-011  0.4778727E+02  0.7816164E-02  0.1312668E+00
        -11   -1    0    0    0    0  0.00000000000E+00  0.00000000000E+00  0.45593999997E+02  0.45594000000E+02  0.51100000000E-03 0. -1.
         11   -1    0    0    0    0 -0.00000000000E+00 -0.00000000000E+00 -0.45593999997E+02  0.45594000000E+02  0.51100000000E-03 0.  1.
    9900012    2    1    2    0    0 -0.31543090428E+02 -0.93189500458E+01  0.28316318536E+02  0.47787270984E+02  0.19999999725E+02 0.  0.
        -12    1    1    2    0    0  0.31543090428E+02  0.93189500458E+01 -0.28316318536E+02  0.43400729016E+02  0.00000000000E+00 0.  1.
         11    1    3    3    0    0 -0.19248995932E+02  0.24937312829E+01  0.84114844191E+01  0.21154092051E+02  0.51100000000E-03 0. -1.
        -11    1    3    3    0    0 -0.84250367651E+01 -0.73737464089E+01  0.16143260228E+02  0.19645819699E+02  0.51100000000E-03 0.  1.
        -12    1    3    3    0    0 -0.38690577305E+01 -0.44389349198E+01  0.37615738887E+01  0.69873592340E+01  0.00000000000E+00 0.  1.
</event>
<event>
 7    1  0.8300060E-011  0.4778727E+02  0.7816164E-02  0.1312668E+00
        -11   -1    0    0    0    0  0.00000000000E+00  0.00000000000E+00  0.45593999997E+02  0.45594000000E+02  0.51100000000E-03 0. -1.
         11   -1    0    0    0    0 -0.00000000000E+00 -0.00000000000E+00 -0.45593999997E+02  0.45594000000E+02  0.51100000000E-03 0.  1.
    9900012    2    1    2    0    0 -0.37475010521E+01  0.72638053910E+01 -0.42624132722E+02  0.47787270476E+02  0.19999997410E+02 0.  0.
         12    1    1    2    0    0  0.37475010521E+01 -0.72638053910E+01  0.42624132722E+02  0.43400729524E+02  0.00000000000E+00 0. -1.
         11    1    3    3    0    0 -0.75709268871E+01  0.22759181767E+01 -0.16241870693E+02  0.18063695673E+02  0.51100000000E-03 0. -1.
        -11    1    3    3    0    0  0.69008342968E+01  0.53164309261E+01 -0.24721112609E+02  0.26211054170E+02  0.51100000000E-03 0.  1.
        -12    1    3    3    0    0 -0.30774084618E+01 -0.32854371176E+00 -0.16611494196E+01  0.35125206342E+01  0.00000000000E+00 0.  1.
</event>
<event>
 7    1  0.8300060E-011  0.4778727E+02  0.7816164E-02  0.1312668E+00
        -11   -1    0    0    0    0  0.00000000000E+00  0.00000000000E+00  0.45593999997E+02  0.45594000000E+02  0.51100000000E-03 0. -1.
         11   -1    0    0    0    0 -0.00000000000E+00 -0.00000000000E+00 -0.45593999997E+02  0.45594000000E+02  0.51100000000E-03 0.  1.
    9900012    2    1    2    0    0 -0.56744164625E+01 -0.15579308731E+02 -0.40108724376E+02  0.47787266898E+02  0.19999981095E+02 0.  0.
         12    1    1    2    0    0  0.56744164625E+01  0.15579308731E+02  0.40108724376E+02  0.43400733102E+02  0.00000000000E+00 0. -1.
         11    1    3    3    0    0 -0.20180380935E+01  0.33433269098E+01 -0.94439782718E+01  0.10219541987E+02  0.51100000000E-03 0. -1.
        -11    1    3    3    0    0 -0.16804942780E+01 -0.17594602595E+02 -0.30410139305E+02  0.35173437055E+02  0.51100000000E-03 0.  1.
        -12    1    3    3    0    0 -0.19758840909E+01 -0.13280330462E+01 -0.25460679905E+00  0.23942878554E+01  0.00000000000E+00 0.  1.
</event>
<event>
 7    1  0.8300060E-011  0.4778727E+02  0.7816164E-02  0.1312668E+00
        -11   -1    0    0    0    0  0.00000000000E+00  0.00000000000E+00  0.45593999997E+02  0.45594000000E+02  0.51100000000E-03 0. -1.
         11   -1    0    0    0    0 -0.00000000000E+00 -0.00000000000E+00 -0.45593999997E+02  0.45594000000E+02  0.51100000000E-03 0.  1.
    9900012    2    1    2    0    0  0.24306418815E+02 -0.30197655556E+02  0.19517241498E+02  0.47787272905E+02  0.20000008482E+02 0.  0.
        -12    1    1    2    0    0 -0.24306418815E+02  0.30197655556E+02 -0.19517241498E+02  0.43400727095E+02  0.00000000000E+00 0.  1.
         11    1    3    3    0    0  0.20176769051E+02 -0.21938125034E+02  0.59960348560E+01  0.30402890876E+02  0.51100000000E-03 0. -1.
        -11    1    3    3    0    0 -0.95880676439E-01 -0.59620109859E+01  0.89109972963E+01  0.10721970023E+02  0.51100000000E-03 0.  1.
        -12    1    3    3    0    0  0.42255304405E+01 -0.22975195361E+01  0.46102093457E+01  0.66624120057E+01  0.00000000000E+00 0.  1.
</event>
<event>
 7    1  0.8300060E-011  0.4778727E+02  0.7816164E-02  0.1312668E+00
        -11   -1    0    0    0    0  0.00000000000E+00  0.00000000000E+00  0.45593999997E+02  0.45594000000E+02  0.51100000000E-03 0.  1.
         11   -1    0    0    0    0 -0.00000000000E+00 -0.00000000000E+00 -0.45593999997E+02  0.45594000000E+02  0.51100000000E-03 0. -1.
    9900012    2    1    2    0    0  0.23427368259E+02  0.28248239205E+02  0.23169344889E+02  0.47787272537E+02  0.20000006806E+02 0.  0.
        -12    1    1    2    0    0 -0.23427368259E+02 -0.28248239205E+02 -0.23169344889E+02  0.43400727463E+02  0.00000000000E+00 0.  1.
         11    1    3    3    0    0  0.11569383290E+02  0.21508673137E+02  0.19030851635E+02  0.30962024546E+02  0.51100000000E-03 0. -1.
        -11    1    3    3    0    0  0.42471437663E+00 -0.13614315006E+01  0.22812582844E+01  0.26903564176E+01  0.51100000000E-03 0.  1.
         12    1    3    3    0    0  0.11433270592E+02  0.81009975686E+01  0.18572349702E+01  0.14134891573E+02  0.00000000000E+00 0. -1.
</event>
<event>
 7    1  0.8300060E-011  0.4778727E+02  0.7816164E-02  0.1312668E+00
        -11   -1    0    0    0    0  0.00000000000E+00  0.00000000000E+00  0.45593999997E+02  0.45594000000E+02  0.51100000000E-03 0. -1.
         11   -1    0    0    0    0 -0.00000000000E+00 -0.00000000000E+00 -0.45593999997E+02  0.45594000000E+02  0.51100000000E-03 0.  1.
    9900012    2    1    2    0    0  0.12467091871E+02 -0.83086050779E+01 -0.40732815663E+02  0.47787267634E+02  0.19999984450E+02 0.  0.
         12    1    1    2    0    0 -0.12467091871E+02  0.83086050779E+01  0.40732815663E+02  0.43400732366E+02  0.00000000000E+00 0. -1.
         11    1    3    3    0    0  0.46840625878E+01  0.46303710341E+01 -0.37963956380E+01  0.76021969418E+01  0.51100000000E-03 0. -1.
        -11    1    3    3    0    0  0.81768947182E+01 -0.10516014979E+02 -0.32296073264E+02  0.34935433686E+02  0.51100000000E-03 0.  1.
         12    1    3    3    0    0 -0.39386543485E+00 -0.24229611334E+01 -0.46403467610E+01  0.52496370062E+01  0.00000000000E+00 0. -1.
</event>
<event>
 7    1  0.8300060E-011  0.4778727E+02  0.7816164E-02  0.1312668E+00
        -11   -1    0    0    0    0  0.00000000000E+00  0.00000000000E+00  0.45593999997E+02  0.45594000000E+02  0.51100000000E-03 0. -1.
         11   -1    0    0    0    0 -0.00000000000E+00 -0.00000000000E+00 -0.45593999997E+02  0.45594000000E+02  0.51100000000E-03 0.  1.
    9900012    2    1    2    0    0  0.13869525892E+02 -0.27224968927E+02  0.30823056441E+02  0.47787268555E+02  0.19999988651E+02 0.  0.
        -12    1    1    2    0    0 -0.13869525892E+02  0.27224968927E+02 -0.30823056441E+02  0.43400731445E+02  0.00000000000E+00 0.  1.
         11    1    3    3    0    0  0.81331631344E+01 -0.89585856218E+01  0.10881324345E+02  0.16272916723E+02  0.51100000000E-03 0. -1.
        -11    1    3    3    0    0  0.25680993100E+01 -0.19486712332E+02  0.12389810335E+02  0.23234338639E+02  0.51100000000E-03 0.  1.
        -12    1    3    3    0    0  0.31682634472E+01  0.12203290263E+01  0.75519217608E+01  0.82800131934E+01  0.00000000000E+00 0.  1.
</event>
<event>
 7    1  0.8300060E-011  0.4778727E+02  0.7816164E-02  0.1312668E+00
        -11   -1    0    0    0    0  0.00000000000E+00  0.00000000000E+00  0.45593999997E+02  0.45594000000E+02  0.51100000000E-03 0. -1.
         11   -1    0    0    0    0 -0.00000000000E+00 -0.00000000000E+00 -0.45593999997E+02  0.45594000000E+02  0.51100000000E-03 0.  1.
    9900012    2    1    2    0    0  0.78791753434E+01  0.11028559247E+02 -0.41229998388E+02  0.47787270856E+02  0.19999999139E+02 0.  0.
         12    1    1    2    0    0 -0.78791753434E+01 -0.11028559247E+02  0.41229998388E+02  0.43400729144E+02  0.00000000000E+00 0. -1.
         11    1    3    3    0    0  0.11160514308E+02  0.20947681981E+01 -0.29558501961E+02  0.31664651772E+02  0.51100000000E-03 0.  1.
        -11    1    3    3    0    0 -0.31674111876E+00  0.94078020434E+00 -0.55233065734E+01  0.56118007889E+01  0.51100000000E-03 0. -1.
         12    1    3    3    0    0 -0.29645978453E+01  0.79930108445E+01 -0.61481898542E+01  0.10510818295E+02  0.00000000000E+00 0. -1.
</event>
<event>
 7    1  0.8300060E-011  0.4778727E+02  0.7816164E-02  0.1312668E+00
        -11   -1    0    0    0    0  0.00000000000E+00  0.00000000000E+00  0.45593999997E+02  0.45594000000E+02  0.51100000000E-03 0. -1.
         11   -1    0    0    0    0 -0.00000000000E+00 -0.00000000000E+00 -0.45593999997E+02  0.45594000000E+02  0.51100000000E-03 0.  1.
    9900012    2    1    2    0    0  0.18371992000E+02  0.50808348340E+01  0.38990747559E+02  0.47787269961E+02  0.19999995062E+02 0.  0.
        -12    1    1    2    0    0 -0.18371992000E+02 -0.50808348340E+01 -0.38990747559E+02  0.43400730039E+02  0.00000000000E+00 0.  1.
         11    1    3    3    0    0  0.14144919351E+02  0.10958931783E+02  0.18815388542E+02  0.25965280193E+02  0.51100000000E-03 0.  1.
        -11    1    3    3    0    0  0.38250169490E+01 -0.27452182233E+01  0.15341265727E+02  0.16047473699E+02  0.51100000000E-03 0. -1.
        -12    1    3    3    0    0  0.40205569938E+00 -0.31328787253E+01  0.48340932907E+01  0.57745160694E+01  0.00000000000E+00 0.  1.
</event>
<event>
 7    1  0.8300060E-011  0.4778727E+02  0.7816164E-02  0.1312668E+00
        -11   -1    0    0    0    0  0.00000000000E+00  0.00000000000E+00  0.45593999997E+02  0.45594000000E+02  0.51100000000E-03 0. -1.
         11   -1    0    0    0    0 -0.00000000000E+00 -0.00000000000E+00 -0.45593999997E+02  0.45594000000E+02  0.51100000000E-03 0.  1.
    9900012    2    1    2    0    0 -0.18940723566E+02  0.34219289632E+02 -0.18812565121E+02  0.47787269608E+02  0.19999993452E+02 0.  0.
         12    1    1    2    0    0  0.18940723566E+02 -0.34219289632E+02  0.18812565121E+02  0.43400730392E+02  0.00000000000E+00 0. -1.
         11    1    3    3    0    0 -0.11707127909E+02  0.13099506196E+02 -0.78755657103E+01  0.19253011245E+02  0.51100000000E-03 0. -1.
        -11    1    3    3    0    0 -0.21135302173E+00  0.18945248558E+02 -0.70244568703E+01  0.20206684726E+02  0.51100000000E-03 0.  1.
        -12    1    3    3    0    0 -0.70222426350E+01  0.21745348767E+01 -0.39125425403E+01  0.83275736373E+01  0.00000000000E+00 0.  1.
</event>
<event>
 7    1  0.8300060E-011  0.4778727E+02  0.7816164E-02  0.1312668E+00
        -11   -1    0    0    0    0  0.00000000000E+00  0.00000000000E+00  0.45593999997E+02  0.45594000000E+02  0.51100000000E-03 0. -1.
         11   -1    0    0    0    0 -0.00000000000E+00 -0.00000000000E+00 -0.45593999997E+02  0.45594000000E+02  0.51100000000E-03 0.  1.
    9900012    2    1    2    0    0 -0.87901853039E+01 -0.40319398707E+02  0.13442542831E+02  0.47787271578E+02  0.20000002433E+02 0.  0.
        -12    1    1    2    0    0  0.87901853039E+01  0.40319398707E+02 -0.13442542831E+02  0.43400728422E+02  0.00000000000E+00 0.  1.
         11    1    3    3    0    0 -0.11417559053E+02 -0.24343795439E+02  0.12157467249E+02  0.29509067103E+02  0.51100000000E-03 0. -1.
        -11    1    3    3    0    0 -0.11611680366E+01 -0.75242048690E+01 -0.28580207479E+01  0.81320509699E+01  0.51100000000E-03 0.  1.
         12    1    3    3    0    0  0.37885417854E+01 -0.84513983990E+01  0.41430963293E+01  0.10146153505E+02  0.00000000000E+00 0. -1.
</event>
<event>
 7    1  0.8300060E-011  0.4778727E+02  0.7816164E-02  0.1312668E+00
        -11   -1    0    0    0    0  0.00000000000E+00  0.00000000000E+00  0.45593999997E+02  0.45594000000E+02  0.51100000000E-03 0. -1.
         11   -1    0    0    0    0 -0.00000000000E+00 -0.00000000000E+00 -0.45593999997E+02  0.45594000000E+02  0.51100000000E-03 0.  1.
    9900012    2    1    2    0    0 -0.37817837572E+02 -0.55137258572E+01 -0.20567782176E+02  0.47787266422E+02  0.19999978925E+02 0.  0.
         12    1    1    2    0    0  0.37817837572E+02  0.55137258572E+01  0.20567782176E+02  0.43400733578E+02  0.00000000000E+00 0. -1.
         11    1    3    3    0    0 -0.10711781416E+02  0.69826987564E+01 -0.86724554439E+01  0.15450301833E+02  0.51100000000E-03 0. -1.
        -11    1    3    3    0    0 -0.10066575110E+02 -0.65459391629E+01 -0.52238466167E+01  0.13094801553E+02  0.51100000000E-03 0.  1.
         12    1    3    3    0    0 -0.17039481046E+02 -0.59504854507E+01 -0.66714801155E+01  0.19242163037E+02  0.00000000000E+00 0. -1.
</event>
<event>
 7    1  0.8300060E-011  0.4778730E+02  0.7816164E-02  0.1312668E+00
        -11   -1    0    0    0    0  0.00000000000E+00  0.00000000000E+00  0.45593999997E+02  0.45594000000E+02  0.51100000000E-03 0. -1.
         11   -1    0    0    0    0 -0.00000000000E+00 -0.00000000000E+00 -0.45593999997E+02  0.45594000000E+02  0.51100000000E-03 0.  1.
    9900012    2    1    2    0    0 -0.35637942800E+02 -0.99985656039E+00  0.24749914691E+02  0.47787297732E+02  0.20000121677E+02 0.  0.
        -12    1    1    2    0    0  0.35637942800E+02  0.99985656039E+00 -0.24749914691E+02  0.43400702268E+02  0.00000000000E+00 0.  1.
         11    1    3    3    0    0 -0.48196562632E+01  0.45648285315E+01  0.20972935606E+01  0.69617085947E+01  0.51100000000E-03 0. -1.
        -11    1    3    3    0    0 -0.30478815870E+02 -0.25051706944E+01  0.22016233845E+02  0.37682206014E+02  0.51100000000E-03 0.  1.
        -12    1    3    3    0    0 -0.33947066689E+00 -0.30595143975E+01  0.63638728488E+00  0.31433831231E+01  0.00000000000E+00 0.  1.
</event>
<event>
 7    1  0.8300060E-011  0.4778727E+02  0.7816164E-02  0.1312668E+00
        -11   -1    0    0    0    0  0.00000000000E+00  0.00000000000E+00  0.45593999997E+02  0.45594000000E+02  0.51100000000E-03 0. -1.
         11   -1    0    0    0    0 -0.00000000000E+00 -0.00000000000E+00 -0.45593999997E+02  0.45594000000E+02  0.51100000000E-03 0.  1.
    9900012    2    1    2    0    0 -0.15169121475E+02 -0.40657776613E+02 -0.68309486828E+00  0.47787266549E+02  0.19999979505E+02 0.  0.
         12    1    1    2    0    0  0.15169121475E+02  0.40657776613E+02  0.68309486828E+00  0.43400733451E+02  0.00000000000E+00 0. -1.
         11    1    3    3    0    0 -0.32151065230E+01 -0.19513556972E+02 -0.88899408329E+01  0.21682870288E+02  0.51100000000E-03 0. -1.
        -11    1    3    3    0    0 -0.93286403184E+01 -0.12390130611E+02  0.64536423810E+01  0.16798463233E+02  0.51100000000E-03 0.  1.
         12    1    3    3    0    0 -0.26253746335E+01 -0.87540890305E+01  0.17532035836E+01  0.93059330282E+01  0.00000000000E+00 0. -1.
</event>
<event>
 7    1  0.8300060E-011  0.4778728E+02  0.7816164E-02  0.1312668E+00
        -11   -1    0    0    0    0  0.00000000000E+00  0.00000000000E+00  0.45593999997E+02  0.45594000000E+02  0.51100000000E-03 0. -1.
         11   -1    0    0    0    0 -0.00000000000E+00 -0.00000000000E+00 -0.45593999997E+02  0.45594000000E+02  0.51100000000E-03 0.  1.
    9900012    2    1    2    0    0  0.11658562228E+02  0.44499983277E+01 -0.41567995817E+02  0.47787276105E+02  0.20000023075E+02 0.  0.
         12    1    1    2    0    0 -0.11658562228E+02 -0.44499983277E+01  0.41567995817E+02  0.43400723895E+02  0.00000000000E+00 0. -1.
         11    1    3    3    0    0  0.71122465452E+01  0.18774670152E+01 -0.60492161011E+01  0.95237570849E+01  0.51100000000E-03 0. -1.
        -11    1    3    3    0    0  0.29987722882E+01  0.69703798310E+01 -0.30430563891E+02  0.31362366767E+02  0.51100000000E-03 0.  1.
         12    1    3    3    0    0  0.15475433947E+01 -0.43978485185E+01 -0.50882158243E+01  0.69011522534E+01  0.00000000000E+00 0. -1.
</event>
<event>
 7    1  0.8300060E-011  0.4778727E+02  0.7816164E-02  0.1312668E+00
        -11   -1    0    0    0    0  0.00000000000E+00  0.00000000000E+00  0.45593999997E+02  0.45594000000E+02  0.51100000000E-03 0. -1.
         11   -1    0    0    0    0 -0.00000000000E+00 -0.00000000000E+00 -0.45593999997E+02  0.45594000000E+02  0.51100000000E-03 0.  1.
    9900012    2    1    2    0    0 -0.22324157699E+02 -0.16959731547E+02  0.33130391615E+02  0.47787270056E+02  0.19999995494E+02 0.  0.
        -12    1    1    2    0    0  0.22324157699E+02  0.16959731547E+02 -0.33130391615E+02  0.43400729944E+02  0.00000000000E+00 0.  1.
         11    1    3    3    0    0  0.19481832939E+01 -0.60925474882E+01  0.26315515675E+01  0.69166188962E+01  0.51100000000E-03 0. -1.
        -11    1    3    3    0    0 -0.11320436622E+02 -0.49069759375E+01  0.99002839165E+01  0.15819175707E+02  0.51100000000E-03 0.  1.
         12    1    3    3    0    0 -0.12951904371E+02 -0.59602081212E+01  0.20598556131E+02  0.25051475453E+02  0.00000000000E+00 0. -1.
</event>
<event>
 7    1  0.8300060E-011  0.4778727E+02  0.7816164E-02  0.1312668E+00
        -11   -1    0    0    0    0  0.00000000000E+00  0.00000000000E+00  0.45593999997E+02  0.45594000000E+02  0.51100000000E-03 0. -1.
         11   -1    0    0    0    0 -0.00000000000E+00 -0.00000000000E+00 -0.45593999997E+02  0.45594000000E+02  0.51100000000E-03 0.  1.
    9900012    2    1    2    0    0  0.24588266095E+02  0.72277853771E+01  0.35025699274E+02  0.47787270505E+02  0.19999997542E+02 0.  0.
        -12    1    1    2    0    0 -0.24588266095E+02 -0.72277853771E+01 -0.35025699274E+02  0.43400729495E+02  0.00000000000E+00 0.  1.
         11    1    3    3    0    0  0.57384402124E+01  0.42602066544E+01  0.13773448762E+02  0.15517311232E+02  0.51100000000E-03 0. -1.
        -11    1    3    3    0    0  0.26621193852E+01  0.43407772525E+01 -0.50448320549E+00  0.51170040398E+01  0.51100000000E-03 0.  1.
        -12    1    3    3    0    0  0.16187706497E+02 -0.13731985297E+01  0.21756733718E+02  0.27152955233E+02  0.00000000000E+00 0.  1.
</event>
<event>
 7    1  0.8300060E-011  0.4778727E+02  0.7816164E-02  0.1312668E+00
        -11   -1    0    0    0    0  0.00000000000E+00  0.00000000000E+00  0.45593999997E+02  0.45594000000E+02  0.51100000000E-03 0. -1.
         11   -1    0    0    0    0 -0.00000000000E+00 -0.00000000000E+00 -0.45593999997E+02  0.45594000000E+02  0.51100000000E-03 0.  1.
    9900012    2    1    2    0    0  0.23414850251E+02 -0.16495928619E+02 -0.32607548141E+02  0.47787273404E+02  0.20000010757E+02 0.  0.
         12    1    1    2    0    0 -0.23414850251E+02  0.16495928619E+02  0.32607548141E+02  0.43400726596E+02  0.00000000000E+00 0. -1.
         11    1    3    3    0    0  0.63340377345E+01 -0.13648820069E+01 -0.17482113955E+02  0.18644228209E+02  0.51100000000E-03 0. -1.
        -11    1    3    3    0    0  0.13728278369E+02 -0.56427335583E+01 -0.87351992455E+01  0.17222362646E+02  0.51100000000E-03 0.  1.
         12    1    3    3    0    0  0.33525341476E+01 -0.94883130542E+01 -0.63902349406E+01  0.11920682548E+02  0.00000000000E+00 0. -1.
</event>
<event>
 7    1  0.8300060E-011  0.4778727E+02  0.7816164E-02  0.1312668E+00
        -11   -1    0    0    0    0  0.00000000000E+00  0.00000000000E+00  0.45593999997E+02  0.45594000000E+02  0.51100000000E-03 0. -1.
         11   -1    0    0    0    0 -0.00000000000E+00 -0.00000000000E+00 -0.45593999997E+02  0.45594000000E+02  0.51100000000E-03 0.  1.
    9900012    2    1    2    0    0  0.11630900715E+02  0.14734301288E+02  0.39131132223E+02  0.47787274258E+02  0.20000014652E+02 0.  0.
        -12    1    1    2    0    0 -0.11630900715E+02 -0.14734301288E+02 -0.39131132223E+02  0.43400725742E+02  0.00000000000E+00 0.  1.
         11    1    3    3    0    0  0.53535100543E+01  0.44956418430E+01  0.16579048199E+01  0.71846721661E+01  0.51100000000E-03 0. -1.
        -11    1    3    3    0    0  0.51648615475E+01  0.37503297144E+00  0.82600073042E+01  0.97490597218E+01  0.51100000000E-03 0.  1.
         12    1    3    3    0    0  0.11125291134E+01  0.98636264731E+01  0.29213220099E+02  0.30853542370E+02  0.00000000000E+00 0. -1.
</event>
<event>
 7    1  0.8300060E-011  0.4778728E+02  0.7816164E-02  0.1312668E+00
        -11   -1    0    0    0    0  0.00000000000E+00  0.00000000000E+00  0.45593999997E+02  0.45594000000E+02  0.51100000000E-03 0. -1.
         11   -1    0    0    0    0 -0.00000000000E+00 -0.00000000000E+00 -0.45593999997E+02  0.45594000000E+02  0.51100000000E-03 0.  1.
    9900012    2    1    2    0    0  0.16383151389E+02  0.97636931516E+01 -0.38985709852E+02  0.47787275051E+02  0.20000018269E+02 0.  0.
         12    1    1    2    0    0 -0.16383151389E+02 -0.97636931516E+01  0.38985709852E+02  0.43400724949E+02  0.00000000000E+00 0. -1.
         11    1    3    3    0    0  0.74057270175E+01  0.28934772511E+01 -0.11055243894E+02  0.13617467499E+02  0.51100000000E-03 0. -1.
        -11    1    3    3    0    0  0.10313395347E+02  0.76604275491E+01 -0.29367458610E+02  0.32054576885E+02  0.51100000000E-03 0.  1.
        -12    1    3    3    0    0 -0.13359709756E+01 -0.79021164856E+00  0.14369926515E+01  0.21152306677E+01  0.00000000000E+00 0.  1.
</event>
<event>
 7    1  0.8300060E-011  0.4778726E+02  0.7816164E-02  0.1312668E+00
        -11   -1    0    0    0    0  0.00000000000E+00  0.00000000000E+00  0.45593999997E+02  0.45594000000E+02  0.51100000000E-03 0. -1.
         11   -1    0    0    0    0 -0.00000000000E+00 -0.00000000000E+00 -0.45593999997E+02  0.45594000000E+02  0.51100000000E-03 0.  1.
    9900012    2    1    2    0    0  0.11078924561E+02 -0.10613407721E+02 -0.40598490143E+02  0.47787258131E+02  0.19999941121E+02 0.  0.
         12    1    1    2    0    0 -0.11078924561E+02  0.10613407721E+02  0.40598490143E+02  0.43400741869E+02  0.00000000000E+00 0. -1.
         11    1    3    3    0    0  0.58343094359E+01 -0.10843615246E+02 -0.96117965148E+01  0.15620812741E+02  0.51100000000E-03 0. -1.
        -11    1    3    3    0    0  0.41325743739E+01 -0.74053243735E+00 -0.72049698380E+01  0.83389537637E+01  0.51100000000E-03 0.  1.
        -12    1    3    3    0    0  0.11120407517E+01  0.97073996234E+00 -0.23781723791E+02  0.23827491625E+02  0.00000000000E+00 0.  1.
</event>
<event>
 7    1  0.8300060E-011  0.4778727E+02  0.7816164E-02  0.1312668E+00
        -11   -1    0    0    0    0  0.00000000000E+00  0.00000000000E+00  0.45593999997E+02  0.45594000000E+02  0.51100000000E-03 0. -1.
         11   -1    0    0    0    0 -0.00000000000E+00 -0.00000000000E+00 -0.45593999997E+02  0.45594000000E+02  0.51100000000E-03 0.  1.
    9900012    2    1    2    0    0 -0.10568913856E+02  0.35449951854E+02  0.22698508235E+02  0.47787270713E+02  0.19999998489E+02 0.  0.
        -12    1    1    2    0    0  0.10568913856E+02 -0.35449951854E+02 -0.22698508235E+02  0.43400729287E+02  0.00000000000E+00 0.  1.
         11    1    3    3    0    0 -0.98915640081E+01  0.28337885288E+02  0.99407456083E+01  0.31617988624E+02  0.51100000000E-03 0. -1.
        -11    1    3    3    0    0  0.14032708537E+01  0.94185526525E+00 -0.16560427806E+00  0.16981417690E+01  0.51100000000E-03 0.  1.
         12    1    3    3    0    0 -0.20806207014E+01  0.61702113009E+01  0.12923366905E+02  0.14471140320E+02  0.00000000000E+00 0. -1.
</event>
<event>
 7    1  0.8300060E-011  0.4778725E+02  0.7816164E-02  0.1312668E+00
        -11   -1    0    0    0    0  0.00000000000E+00  0.00000000000E+00  0.45593999997E+02  0.45594000000E+02  0.51100000000E-03 0. -1.
         11   -1    0    0    0    0 -0.00000000000E+00 -0.00000000000E+00 -0.45593999997E+02  0.45594000000E+02  0.51100000000E-03 0.  1.
    9900012    2    1    2    0    0 -0.17111937751E+00  0.98884033500E+01  0.42258905230E+02  0.47787252612E+02  0.19999915958E+02 0.  0.
        -12    1    1    2    0    0  0.17111937751E+00 -0.98884033500E+01 -0.42258905230E+02  0.43400747388E+02  0.00000000000E+00 0.  1.
         11    1    3    3    0    0 -0.74699817220E+01  0.59253720249E+01  0.26965065072E+02  0.28601143249E+02  0.51100000000E-03 0. -1.
        -11    1    3    3    0    0  0.40238837044E+01  0.10278708043E+01  0.10569883622E+01  0.42854851670E+01  0.51100000000E-03 0.  1.
         12    1    3    3    0    0  0.32749786400E+01  0.29351605207E+01  0.14236851796E+02  0.14900624196E+02  0.00000000000E+00 0. -1.
</event>
<event>
 7    1  0.8300060E-011  0.4778728E+02  0.7816164E-02  0.1312668E+00
        -11   -1    0    0    0    0  0.00000000000E+00  0.00000000000E+00  0.45593999997E+02  0.45594000000E+02  0.51100000000E-03 0. -1.
         11   -1    0    0    0    0 -0.00000000000E+00 -0.00000000000E+00 -0.45593999997E+02  0.45594000000E+02  0.51100000000E-03 0.  1.
    9900012    2    1    2    0    0  0.10194357135E+02  0.12404445248E+02  0.40321546964E+02  0.47787281931E+02  0.20000049637E+02 0.  0.
        -12    1    1    2    0    0 -0.10194357135E+02 -0.12404445248E+02 -0.40321546964E+02  0.43400718069E+02  0.00000000000E+00 0.  1.
         11    1    3    3    0    0  0.86243275826E+01  0.16404705413E+02  0.37866383311E+02  0.42158704573E+02  0.51100000000E-03 0. -1.
        -11    1    3    3    0    0  0.72603723142E+00 -0.17961991111E+01 -0.34350309086E+00  0.19676015711E+01  0.51100000000E-03 0.  1.
         12    1    3    3    0    0  0.84399232131E+00 -0.22040610544E+01  0.27986667435E+01  0.36609757867E+01  0.00000000000E+00 0. -1.
</event>
<event>
 7    1  0.8300060E-011  0.4778728E+02  0.7816164E-02  0.1312668E+00
        -11   -1    0    0    0    0  0.00000000000E+00  0.00000000000E+00  0.45593999997E+02  0.45594000000E+02  0.51100000000E-03 0. -1.
         11   -1    0    0    0    0 -0.00000000000E+00 -0.00000000000E+00 -0.45593999997E+02  0.45594000000E+02  0.51100000000E-03 0.  1.
    9900012    2    1    2    0    0  0.12428531785E+02 -0.13764738766E+02  0.39238839032E+02  0.47787275073E+02  0.20000018369E+02 0.  0.
        -12    1    1    2    0    0 -0.12428531785E+02  0.13764738766E+02 -0.39238839032E+02  0.43400724927E+02  0.00000000000E+00 0.  1.
         11    1    3    3    0    0  0.50371748415E+01 -0.14120256803E+02  0.28184511678E+02  0.31923682140E+02  0.51100000000E-03 0. -1.
        -11    1    3    3    0    0  0.36218352875E+01 -0.25692841845E+01  0.74352766895E+00  0.45024155434E+01  0.51100000000E-03 0.  1.
         12    1    3    3    0    0  0.37695216558E+01  0.29248022215E+01  0.10310799685E+02  0.11361177390E+02  0.00000000000E+00 0. -1.
</event>
<event>
 7    1  0.8300060E-011  0.4778727E+02  0.7816164E-02  0.1312668E+00
        -11   -1    0    0    0    0  0.00000000000E+00  0.00000000000E+00  0.45593999997E+02  0.45594000000E+02  0.51100000000E-03 0.  1.
         11   -1    0    0    0    0 -0.00000000000E+00 -0.00000000000E+00 -0.45593999997E+02  0.45594000000E+02  0.51100000000E-03 0. -1.
    9900012    2    1    2    0    0  0.31506864921E+02 -0.29467434212E+02  0.47551246996E+01  0.47787269279E+02  0.19999991952E+02 0.  0.
        -12    1    1    2    0    0 -0.31506864921E+02  0.29467434212E+02 -0.47551246996E+01  0.43400730721E+02  0.00000000000E+00 0.  1.
         11    1    3    3    0    0  0.47162297216E+01 -0.39953083855E+01 -0.55592120233E+01  0.83132514976E+01  0.51100000000E-03 0. -1.
        -11    1    3    3    0    0 -0.58309834617E-01 -0.58080736123E+00 -0.99624810253E+00  0.11546634880E+01  0.51100000000E-03 0.  1.
         12    1    3    3    0    0  0.26848945034E+02 -0.24891318466E+02  0.11310584825E+02  0.38319354294E+02  0.00000000000E+00 0. -1.
</event>
<event>
 7    1  0.8300060E-011  0.4778725E+02  0.7816164E-02  0.1312668E+00
        -11   -1    0    0    0    0  0.00000000000E+00  0.00000000000E+00  0.45593999997E+02  0.45594000000E+02  0.51100000000E-03 0. -1.
         11   -1    0    0    0    0 -0.00000000000E+00 -0.00000000000E+00 -0.45593999997E+02  0.45594000000E+02  0.51100000000E-03 0.  1.
    9900012    2    1    2    0    0 -0.11394096935E+02  0.12995230475E+02  0.39811097765E+02  0.47787251558E+02  0.19999911153E+02 0.  0.
        -12    1    1    2    0    0  0.11394096935E+02 -0.12995230475E+02 -0.39811097765E+02  0.43400748442E+02  0.00000000000E+00 0.  1.
         11    1    3    3    0    0 -0.30717185833E+01 -0.16379369595E+01  0.12757408806E+02  0.13223833493E+02  0.51100000000E-03 0. -1.
        -11    1    3    3    0    0 -0.71816443185E+01  0.87142256482E+01  0.62550434420E+01  0.12908885021E+02  0.51100000000E-03 0.  1.
        -12    1    3    3    0    0 -0.11407340336E+01  0.59189417861E+01  0.20798645517E+02  0.21654533044E+02  0.00000000000E+00 0.  1.
</event>
<event>
 7    1  0.8300060E-011  0.4778727E+02  0.7816164E-02  0.1312668E+00
        -11   -1    0    0    0    0  0.00000000000E+00  0.00000000000E+00  0.45593999997E+02  0.45594000000E+02  0.51100000000E-03 0. -1.
         11   -1    0    0    0    0 -0.00000000000E+00 -0.00000000000E+00 -0.45593999997E+02  0.45594000000E+02  0.51100000000E-03 0.  1.
    9900012    2    1    2    0    0 -0.87484130221E+01  0.40080569428E+02 -0.14164633333E+02  0.47787267132E+02  0.19999982160E+02 0.  0.
         12    1    1    2    0    0  0.87484130221E+01 -0.40080569428E+02  0.14164633333E+02  0.43400732868E+02  0.00000000000E+00 0. -1.
         11    1    3    3    0    0 -0.25385034690E+01  0.71373420932E+01  0.15246666328E+01  0.77272414625E+01  0.51100000000E-03 0. -1.
        -11    1    3    3    0    0 -0.57413506820E+01  0.20939808050E+02 -0.19352479205E+01  0.21798712200E+02  0.51100000000E-03 0.  1.
        -12    1    3    3    0    0 -0.46855887119E+00  0.12003419284E+02 -0.13754052045E+02  0.18261313469E+02  0.00000000000E+00 0.  1.
</event>
<event>
 7    1  0.8300060E-011  0.4778726E+02  0.7816164E-02  0.1312668E+00
        -11   -1    0    0    0    0  0.00000000000E+00  0.00000000000E+00  0.45593999997E+02  0.45594000000E+02  0.51100000000E-03 0. -1.
         11   -1    0    0    0    0 -0.00000000000E+00 -0.00000000000E+00 -0.45593999997E+02  0.45594000000E+02  0.51100000000E-03 0.  1.
    9900012    2    1    2    0    0  0.12045590460E+02 -0.16660185800E+02  0.38222586738E+02  0.47787260635E+02  0.19999952540E+02 0.  0.
        -12    1    1    2    0    0 -0.12045590460E+02  0.16660185800E+02 -0.38222586738E+02  0.43400739365E+02  0.00000000000E+00 0.  1.
         11    1    3    3    0    0  0.17448321205E+01 -0.11800809775E+02  0.10634639022E+02  0.15981210776E+02  0.51100000000E-03 0. -1.
        -11    1    3    3    0    0  0.12606386132E+02 -0.46483068913E+01  0.22325052095E+02  0.26056394216E+02  0.51100000000E-03 0.  1.
         12    1    3    3    0    0 -0.23056277917E+01 -0.21106913396E+00  0.52628956216E+01  0.57496556433E+01  0.00000000000E+00 0. -1.
</event>
<event>
 7    1  0.8300060E-011  0.4778727E+02  0.7816164E-02  0.1312668E+00
        -11   -1    0    0    0    0  0.00000000000E+00  0.00000000000E+00  0.45593999997E+02  0.45594000000E+02  0.51100000000E-03 0. -1.
         11   -1    0    0    0    0 -0.00000000000E+00 -0.00000000000E+00 -0.45593999997E+02  0.45594000000E+02  0.51100000000E-03 0.  1.
    9900012    2    1    2    0    0  0.16124472670E+02  0.24755158594E+02  0.31793188083E+02  0.47787270693E+02  0.19999998398E+02 0.  0.
        -12    1    1    2    0    0 -0.16124472670E+02 -0.24755158594E+02 -0.31793188083E+02  0.43400729307E+02  0.00000000000E+00 0.  1.
         11    1    3    3    0    0  0.47526268176E+01  0.14412969380E+02  0.10000183802E+02  0.18174840422E+02  0.51100000000E-03 0. -1.
        -11    1    3    3    0    0  0.62914424104E+01 -0.69131289951E+00  0.13483735622E+02  0.14895344498E+02  0.51100000000E-03 0.  1.
        -12    1    3    3    0    0  0.50804034415E+01  0.11033502114E+02  0.83092686586E+01  0.14717085773E+02  0.00000000000E+00 0.  1.
</event>
<event>
 7    1  0.8300060E-011  0.4778727E+02  0.7816164E-02  0.1312668E+00
        -11   -1    0    0    0    0  0.00000000000E+00  0.00000000000E+00  0.45593999997E+02  0.45594000000E+02  0.51100000000E-03 0. -1.
         11   -1    0    0    0    0 -0.00000000000E+00 -0.00000000000E+00 -0.45593999997E+02  0.45594000000E+02  0.51100000000E-03 0.  1.
    9900012    2    1    2    0    0  0.42720973443E+02  0.26311896255E+01  0.71846103550E+01  0.47787270090E+02  0.19999995647E+02 0.  0.
        -12    1    1    2    0    0 -0.42720973443E+02 -0.26311896255E+01 -0.71846103550E+01  0.43400729910E+02  0.00000000000E+00 0.  1.
         11    1    3    3    0    0  0.66799942556E+01  0.51330675128E+00  0.29781146560E+01  0.73317783819E+01  0.51100000000E-03 0. -1.
        -11    1    3    3    0    0  0.32991832688E+02 -0.40618630093E+01  0.23774941010E+01  0.33325849332E+02  0.51100000000E-03 0.  1.
        -12    1    3    3    0    0  0.30491464997E+01  0.61797458836E+01  0.18290015980E+01  0.71296423759E+01  0.00000000000E+00 0.  1.
</event>
<event>
 7    1  0.8300060E-011  0.4778727E+02  0.7816164E-02  0.1312668E+00
        -11   -1    0    0    0    0  0.00000000000E+00  0.00000000000E+00  0.45593999997E+02  0.45594000000E+02  0.51100000000E-03 0. -1.
         11   -1    0    0    0    0 -0.00000000000E+00 -0.00000000000E+00 -0.45593999997E+02  0.45594000000E+02  0.51100000000E-03 0.  1.
    9900012    2    1    2    0    0  0.19154086880E+02 -0.33471539445E+02  0.19909802895E+02  0.47787271339E+02  0.20000001342E+02 0.  0.
        -12    1    1    2    0    0 -0.19154086880E+02  0.33471539445E+02 -0.19909802895E+02  0.43400728661E+02  0.00000000000E+00 0.  1.
         11    1    3    3    0    0  0.10399196994E+01 -0.10295474585E+02  0.16956384917E+01  0.10485867635E+02  0.51100000000E-03 0. -1.
        -11    1    3    3    0    0 -0.18802776114E+01 -0.35045149763E+01  0.47292076550E+01  0.61791969074E+01  0.51100000000E-03 0.  1.
         12    1    3    3    0    0  0.19994444792E+02 -0.19671549884E+02  0.13484956748E+02  0.31122206796E+02  0.00000000000E+00 0. -1.
</event>
<event>
 7    1  0.8300060E-011  0.4778727E+02  0.7816164E-02  0.1312668E+00
        -11   -1    0    0    0    0  0.00000000000E+00  0.00000000000E+00  0.45593999997E+02  0.45594000000E+02  0.51100000000E-03 0. -1.
         11   -1    0    0    0    0 -0.00000000000E+00 -0.00000000000E+00 -0.45593999997E+02  0.45594000000E+02  0.51100000000E-03 0.  1.
    9900012    2    1    2    0    0  0.26652918218E+02  0.11784731687E+02  0.32161554054E+02  0.47787268328E+02  0.19999987616E+02 0.  0.
        -12    1    1    2    0    0 -0.26652918218E+02 -0.11784731687E+02 -0.32161554054E+02  0.43400731672E+02  0.00000000000E+00 0.  1.
         11    1    3    3    0    0  0.17431421311E+02  0.68699447402E+01  0.29892565141E+02  0.35279116211E+02  0.51100000000E-03 0. -1.
        -11    1    3    3    0    0  0.52594935023E+01  0.45279217095E+01 -0.14165872792E+01  0.70831537248E+01  0.51100000000E-03 0.  1.
        -12    1    3    3    0    0  0.39620034043E+01  0.38686523741E+00  0.36855761931E+01  0.54249983929E+01  0.00000000000E+00 0.  1.
</event>
<event>
 7    1  0.8300060E-011  0.4778729E+02  0.7816164E-02  0.1312668E+00
        -11   -1    0    0    0    0  0.00000000000E+00  0.00000000000E+00  0.45593999997E+02  0.45594000000E+02  0.51100000000E-03 0. -1.
         11   -1    0    0    0    0 -0.00000000000E+00 -0.00000000000E+00 -0.45593999997E+02  0.45594000000E+02  0.51100000000E-03 0.  1.
    9900012    2    1    2    0    0  0.19354133196E+02  0.50513871368E+01  0.38516526268E+02  0.47787288260E+02  0.20000078492E+02 0.  0.
        -12    1    1    2    0    0 -0.19354133196E+02 -0.50513871368E+01 -0.38516526268E+02  0.43400711740E+02  0.00000000000E+00 0.  1.
         11    1    3    3    0    0  0.15460494212E+02  0.26431492203E+01  0.20585743299E+02  0.25880223077E+02  0.51100000000E-03 0. -1.
        -11    1    3    3    0    0 -0.29749331313E+01 -0.88567484096E+00  0.87105287502E+00  0.32238766155E+01  0.51100000000E-03 0.  1.
        -12    1    3    3    0    0  0.68685721156E+01  0.32939127575E+01  0.17059730095E+02  0.18683188568E+02  0.00000000000E+00 0.  1.
</event>
<event>
 7    1  0.8300060E-011  0.4778727E+02  0.7816164E-02  0.1312668E+00
        -11   -1    0    0    0    0  0.00000000000E+00  0.00000000000E+00  0.45593999997E+02  0.45594000000E+02  0.51100000000E-03 0. -1.
         11   -1    0    0    0    0 -0.00000000000E+00 -0.00000000000E+00 -0.45593999997E+02  0.45594000000E+02  0.51100000000E-03 0.  1.
    9900012    2    1    2    0    0  0.29121936751E+02 -0.22444019695E+02  0.23060835710E+02  0.47787270007E+02  0.19999995271E+02 0.  0.
        -12    1    1    2    0    0 -0.29121936751E+02  0.22444019695E+02 -0.23060835710E+02  0.43400729993E+02  0.00000000000E+00 0.  1.
         11    1    3    3    0    0  0.18874406223E+02 -0.21070160165E+02  0.13602186278E+02  0.31388124051E+02  0.51100000000E-03 0. -1.
        -11    1    3    3    0    0  0.61865528914E+01 -0.16216031333E+01  0.10412975688E+02  0.12220192156E+02  0.51100000000E-03 0.  1.
         12    1    3    3    0    0  0.40609776371E+01  0.24774360253E+00 -0.95432625546E+00  0.41789538001E+01  0.00000000000E+00 0. -1.
</event>
<event>
 7    1  0.8300060E-011  0.4778727E+02  0.7816164E-02  0.1312668E+00
        -11   -1    0    0    0    0  0.00000000000E+00  0.00000000000E+00  0.45593999997E+02  0.45594000000E+02  0.51100000000E-03 0. -1.
         11   -1    0    0    0    0 -0.00000000000E+00 -0.00000000000E+00 -0.45593999997E+02  0.45594000000E+02  0.51100000000E-03 0.  1.
    9900012    2    1    2    0    0  0.30378025426E+02 -0.10317986475E+02 -0.29229058149E+02  0.47787272887E+02  0.20000008400E+02 0.  0.
         12    1    1    2    0    0 -0.30378025426E+02  0.10317986475E+02  0.29229058149E+02  0.43400727113E+02  0.00000000000E+00 0. -1.
         11    1    3    3    0    0  0.23572759278E+02 -0.10390271390E+01 -0.18731314873E+02  0.30126677787E+02  0.51100000000E-03 0. -1.
        -11    1    3    3    0    0  0.52859650852E+01 -0.27186460494E+01 -0.89614867785E+01  0.10753637002E+02  0.51100000000E-03 0.  1.
         12    1    3    3    0    0  0.15193010626E+01 -0.65603132865E+01 -0.15362564980E+01  0.69069580977E+01  0.00000000000E+00 0. -1.
</event>
<event>
 7    1  0.8300060E-011  0.4778727E+02  0.7816164E-02  0.1312668E+00
        -11   -1    0    0    0    0  0.00000000000E+00  0.00000000000E+00  0.45593999997E+02  0.45594000000E+02  0.51100000000E-03 0. -1.
         11   -1    0    0    0    0 -0.00000000000E+00 -0.00000000000E+00 -0.45593999997E+02  0.45594000000E+02  0.51100000000E-03 0.  1.
    9900012    2    1    2    0    0  0.33118813669E+02  0.84714692514E+01  0.26739513942E+02  0.47787271712E+02  0.20000003044E+02 0.  0.
        -12    1    1    2    0    0 -0.33118813669E+02 -0.84714692514E+01 -0.26739513942E+02  0.43400728288E+02  0.00000000000E+00 0.  1.
         11    1    3    3    0    0  0.20760156213E+02  0.44941425008E+01  0.18211767669E+02  0.27979454689E+02  0.51100000000E-03 0. -1.
        -11    1    3    3    0    0 -0.94844113967E+00 -0.14346651196E+00  0.54598377849E+01  0.55434603033E+01  0.51100000000E-03 0.  1.
        -12    1    3    3    0    0  0.13307098595E+02  0.41207932625E+01  0.30679084878E+01  0.14264356720E+02  0.00000000000E+00 0.  1.
</event>
<event>
 7    1  0.8300060E-011  0.4778727E+02  0.7816164E-02  0.1312668E+00
        -11   -1    0    0    0    0  0.00000000000E+00  0.00000000000E+00  0.45593999997E+02  0.45594000000E+02  0.51100000000E-03 0. -1.
         11   -1    0    0    0    0 -0.00000000000E+00 -0.00000000000E+00 -0.45593999997E+02  0.45594000000E+02  0.51100000000E-03 0.  1.
    9900012    2    1    2    0    0 -0.18103284547E+02  0.30415691237E+01  0.39327383431E+02  0.47787272568E+02  0.20000006946E+02 0.  0.
        -12    1    1    2    0    0  0.18103284547E+02 -0.30415691237E+01 -0.39327383431E+02  0.43400727432E+02  0.00000000000E+00 0.  1.
         11    1    3    3    0    0 -0.13712955772E+02  0.59323749661E+01  0.18199630172E+02  0.23547075559E+02  0.51100000000E-03 0. -1.
        -11    1    3    3    0    0 -0.20309926618E+01 -0.44556625881E+01  0.26911739583E+01  0.55875108793E+01  0.51100000000E-03 0.  1.
        -12    1    3    3    0    0 -0.23593361132E+01  0.15648567458E+01  0.18436579301E+02  0.18652686129E+02  0.00000000000E+00 0.  1.
</event>
<event>
 7    1  0.8300060E-011  0.4778728E+02  0.7816164E-02  0.1312668E+00
        -11   -1    0    0    0    0  0.00000000000E+00  0.00000000000E+00  0.45593999997E+02  0.45594000000E+02  0.51100000000E-03 0. -1.
         11   -1    0    0    0    0 -0.00000000000E+00 -0.00000000000E+00 -0.45593999997E+02  0.45594000000E+02  0.51100000000E-03 0.  1.
    9900012    2    1    2    0    0 -0.28797633480E+02 -0.18340008628E+02  0.26794836970E+02  0.47787275366E+02  0.20000019702E+02 0.  0.
        -12    1    1    2    0    0  0.28797633480E+02  0.18340008628E+02 -0.26794836970E+02  0.43400724634E+02  0.00000000000E+00 0.  1.
         11    1    3    3    0    0 -0.11059630074E+02 -0.16231614075E+02  0.85923865506E+01  0.21438512536E+02  0.51100000000E-03 0. -1.
        -11    1    3    3    0    0 -0.52600338949E+01  0.21199162384E+01  0.37849165049E+01  0.68181811829E+01  0.51100000000E-03 0.  1.
         12    1    3    3    0    0 -0.12477969511E+02 -0.42283107909E+01  0.14417533915E+02  0.19530581647E+02  0.00000000000E+00 0. -1.
</event>
<event>
 7    1  0.8300060E-011  0.4778728E+02  0.7816164E-02  0.1312668E+00
        -11   -1    0    0    0    0  0.00000000000E+00  0.00000000000E+00  0.45593999997E+02  0.45594000000E+02  0.51100000000E-03 0.  1.
         11   -1    0    0    0    0 -0.00000000000E+00 -0.00000000000E+00 -0.45593999997E+02  0.45594000000E+02  0.51100000000E-03 0. -1.
    9900012    2    1    2    0    0  0.68048531531E+01 -0.41014508064E+02 -0.12454981275E+02  0.47787280459E+02  0.20000042924E+02 0.  0.
         12    1    1    2    0    0 -0.68048531531E+01  0.41014508064E+02  0.12454981275E+02  0.43400719541E+02  0.00000000000E+00 0. -1.
         11    1    3    3    0    0  0.91958732347E+01 -0.28193460773E+02 -0.16406512262E+02  0.33891133940E+02  0.51100000000E-03 0. -1.
        -11    1    3    3    0    0 -0.18455335980E+01 -0.11692673131E+02  0.27344917581E+01  0.12149158186E+02  0.51100000000E-03 0.  1.
         12    1    3    3    0    0 -0.54548648363E+00 -0.11283741604E+01  0.12170392287E+01  0.17469883325E+01  0.00000000000E+00 0. -1.
</event>
<event>
 7    1  0.8300060E-011  0.4778727E+02  0.7816164E-02  0.1312668E+00
        -11   -1    0    0    0    0  0.00000000000E+00  0.00000000000E+00  0.45593999997E+02  0.45594000000E+02  0.51100000000E-03 0. -1.
         11   -1    0    0    0    0 -0.00000000000E+00 -0.00000000000E+00 -0.45593999997E+02  0.45594000000E+02  0.51100000000E-03 0.  1.
    9900012    2    1    2    0    0 -0.17894393097E+02  0.24811393702E+02 -0.30786507180E+02  0.47787267448E+02  0.19999983601E+02 0.  0.
         12    1    1    2    0    0  0.17894393097E+02 -0.24811393702E+02  0.30786507180E+02  0.43400732552E+02  0.00000000000E+00 0. -1.
         11    1    3    3    0    0 -0.10454861259E+02  0.66010055872E+01 -0.18864121712E+02  0.22555098912E+02  0.51100000000E-03 0. -1.
        -11    1    3    3    0    0 -0.77760649944E+01  0.18787598313E+02 -0.12876391131E+02  0.24067456990E+02  0.51100000000E-03 0.  1.
        -12    1    3    3    0    0  0.33653315594E+00 -0.57721019779E+00  0.95400566380E+00  0.11647115454E+01  0.00000000000E+00 0.  1.
</event>
<event>
 7    1  0.8300060E-011  0.4778727E+02  0.7816164E-02  0.1312668E+00
        -11   -1    0    0    0    0  0.00000000000E+00  0.00000000000E+00  0.45593999997E+02  0.45594000000E+02  0.51100000000E-03 0. -1.
         11   -1    0    0    0    0 -0.00000000000E+00 -0.00000000000E+00 -0.45593999997E+02  0.45594000000E+02  0.51100000000E-03 0.  1.
    9900012    2    1    2    0    0 -0.19965085412E+01  0.78284323292E+01 -0.42642149259E+02  0.47787270829E+02  0.19999999020E+02 0.  0.
         12    1    1    2    0    0  0.19965085412E+01 -0.78284323292E+01  0.42642149259E+02  0.43400729171E+02  0.00000000000E+00 0. -1.
         11    1    3    3    0    0 -0.84772854749E+00  0.76819130916E+01 -0.15894606422E+02  0.17673962374E+02  0.51100000000E-03 0. -1.
        -11    1    3    3    0    0  0.13707495676E+00 -0.35490482574E+01 -0.25857750303E+02  0.26100532257E+02  0.51100000000E-03 0.  1.
        -12    1    3    3    0    0 -0.12858549505E+01  0.36955674950E+01 -0.88979253365E+00  0.40127761981E+01  0.00000000000E+00 0.  1.
</event>
<event>
 7    1  0.8300060E-011  0.4778727E+02  0.7816164E-02  0.1312668E+00
        -11   -1    0    0    0    0  0.00000000000E+00  0.00000000000E+00  0.45593999997E+02  0.45594000000E+02  0.51100000000E-03 0. -1.
         11   -1    0    0    0    0 -0.00000000000E+00 -0.00000000000E+00 -0.45593999997E+02  0.45594000000E+02  0.51100000000E-03 0.  1.
    9900012    2    1    2    0    0 -0.12784644696E+02 -0.26449513790E+02  0.31946817909E+02  0.47787273114E+02  0.20000009434E+02 0.  0.
        -12    1    1    2    0    0  0.12784644696E+02  0.26449513790E+02 -0.31946817909E+02  0.43400726886E+02  0.00000000000E+00 0.  1.
         11    1    3    3    0    0 -0.37265756654E+01 -0.85647858182E+01  0.67112456907E+00  0.93644717283E+01  0.51100000000E-03 0. -1.
        -11    1    3    3    0    0  0.79002845222E+00  0.17031209638E+00 -0.19178825907E+00  0.83062275609E+00  0.51100000000E-03 0.  1.
         12    1    3    3    0    0 -0.98480974827E+01 -0.18055040069E+02  0.31467481599E+02  0.37592178629E+02  0.00000000000E+00 0. -1.
</event>
<event>
 7    1  0.8300060E-011  0.4778727E+02  0.7816164E-02  0.1312668E+00
        -11   -1    0    0    0    0  0.00000000000E+00  0.00000000000E+00  0.45593999997E+02  0.45594000000E+02  0.51100000000E-03 0. -1.
         11   -1    0    0    0    0 -0.00000000000E+00 -0.00000000000E+00 -0.45593999997E+02  0.45594000000E+02  0.51100000000E-03 0.  1.
    9900012    2    1    2    0    0  0.15173420359E+02  0.22187067128E+01 -0.40601327786E+02  0.47787272323E+02  0.20000005832E+02 0.  0.
         12    1    1    2    0    0 -0.15173420359E+02 -0.22187067128E+01  0.40601327786E+02  0.43400727677E+02  0.00000000000E+00 0. -1.
         11    1    3    3    0    0  0.15324165822E+01  0.72893131924E+01 -0.15908400131E+02  0.17565864123E+02  0.51100000000E-03 0. -1.
        -11    1    3    3    0    0  0.72894506736E+01  0.64644735902E+00 -0.17789022468E+02  0.19235469995E+02  0.51100000000E-03 0.  1.
         12    1    3    3    0    0  0.63515531033E+01 -0.57170538387E+01 -0.69039051867E+01  0.10985938205E+02  0.00000000000E+00 0. -1.
</event>
<event>
 7    1  0.8300060E-011  0.4778727E+02  0.7816164E-02  0.1312668E+00
        -11   -1    0    0    0    0  0.00000000000E+00  0.00000000000E+00  0.45593999997E+02  0.45594000000E+02  0.51100000000E-03 0. -1.
         11   -1    0    0    0    0 -0.00000000000E+00 -0.00000000000E+00 -0.45593999997E+02  0.45594000000E+02  0.51100000000E-03 0.  1.
    9900012    2    1    2    0    0 -0.27769819259E+02 -0.18437153006E+02 -0.27794453690E+02  0.47787272718E+02  0.20000007632E+02 0.  0.
         12    1    1    2    0    0  0.27769819259E+02  0.18437153006E+02  0.27794453690E+02  0.43400727282E+02  0.00000000000E+00 0. -1.
         11    1    3    3    0    0 -0.57770423001E+01  0.20142760623E+01 -0.14796239893E+01  0.62945065893E+01  0.51100000000E-03 0. -1.
        -11    1    3    3    0    0 -0.23525295266E+00 -0.55405202124E+01 -0.62236504752E+01  0.83358583046E+01  0.51100000000E-03 0.  1.
        -12    1    3    3    0    0 -0.21757524006E+02 -0.14910908856E+02 -0.20091179226E+02  0.33156907824E+02  0.00000000000E+00 0.  1.
</event>
<event>
 7    1  0.8300060E-011  0.4778727E+02  0.7816164E-02  0.1312668E+00
        -11   -1    0    0    0    0  0.00000000000E+00  0.00000000000E+00  0.45593999997E+02  0.45594000000E+02  0.51100000000E-03 0. -1.
         11   -1    0    0    0    0 -0.00000000000E+00 -0.00000000000E+00 -0.45593999997E+02  0.45594000000E+02  0.51100000000E-03 0.  1.
    9900012    2    1    2    0    0 -0.43098928589E+01  0.38929379696E+02  0.18696309192E+02  0.47787265475E+02  0.19999974605E+02 0.  0.
        -12    1    1    2    0    0  0.43098928589E+01 -0.38929379696E+02 -0.18696309192E+02  0.43400734525E+02  0.00000000000E+00 0.  1.
         11    1    3    3    0    0 -0.17774967647E+01  0.10081408075E+02 -0.10919570957E+01  0.10294981986E+02  0.51100000000E-03 0.  1.
        -11    1    3    3    0    0 -0.70087101279E+01  0.12344581654E+02  0.12461104777E+02  0.18888881555E+02  0.51100000000E-03 0. -1.
        -12    1    3    3    0    0  0.44763140338E+01  0.16503389966E+02  0.73271615108E+01  0.18603401934E+02  0.00000000000E+00 0.  1.
</event>
<event>
 7    1  0.8300060E-011  0.4778730E+02  0.7816164E-02  0.1312668E+00
        -11   -1    0    0    0    0  0.00000000000E+00  0.00000000000E+00  0.45593999997E+02  0.45594000000E+02  0.51100000000E-03 0. -1.
         11   -1    0    0    0    0 -0.00000000000E+00 -0.00000000000E+00 -0.45593999997E+02  0.45594000000E+02  0.51100000000E-03 0.  1.
    9900012    2    1    2    0    0  0.15964177896E+02  0.15309749227E+02 -0.37341359197E+02  0.47787302955E+02  0.20000145494E+02 0.  0.
         12    1    1    2    0    0 -0.15964177896E+02 -0.15309749227E+02  0.37341359197E+02  0.43400697045E+02  0.00000000000E+00 0. -1.
         11    1    3    3    0    0 -0.29527071472E+01  0.47817804536E+00 -0.43000159957E+01  0.52380599046E+01  0.51100000000E-03 0. -1.
        -11    1    3    3    0    0  0.16795703627E+02  0.81344975644E+01 -0.28878109551E+02  0.34383294235E+02  0.51100000000E-03 0.  1.
        -12    1    3    3    0    0  0.21211814164E+01  0.66970736169E+01 -0.41632336505E+01  0.81659488157E+01  0.00000000000E+00 0.  1.
</event>
<event>
 7    1  0.8300060E-011  0.4778726E+02  0.7816164E-02  0.1312668E+00
        -11   -1    0    0    0    0  0.00000000000E+00  0.00000000000E+00  0.45593999997E+02  0.45594000000E+02  0.51100000000E-03 0. -1.
         11   -1    0    0    0    0 -0.00000000000E+00 -0.00000000000E+00 -0.45593999997E+02  0.45594000000E+02  0.51100000000E-03 0.  1.
    9900012    2    1    2    0    0 -0.24975961061E+01  0.23360763367E+02  0.36491924666E+02  0.47787264784E+02  0.19999971458E+02 0.  0.
        -12    1    1    2    0    0  0.24975961061E+01 -0.23360763367E+02 -0.36491924666E+02  0.43400735216E+02  0.00000000000E+00 0.  1.
         11    1    3    3    0    0 -0.36472573171E+01  0.37342384092E+01  0.15528271848E+01  0.54459429818E+01  0.51100000000E-03 0. -1.
        -11    1    3    3    0    0  0.14538162284E+01  0.19614842364E+02  0.36116670239E+02  0.41125047015E+02  0.51100000000E-03 0.  1.
        -12    1    3    3    0    0 -0.30415501735E+00  0.11682594384E-01 -0.11775727580E+01  0.12162747872E+01  0.00000000000E+00 0.  1.
</event>
<event>
 7    1  0.8300060E-011  0.4778727E+02  0.7816164E-02  0.1312668E+00
        -11   -1    0    0    0    0  0.00000000000E+00  0.00000000000E+00  0.45593999997E+02  0.45594000000E+02  0.51100000000E-03 0. -1.
         11   -1    0    0    0    0 -0.00000000000E+00 -0.00000000000E+00 -0.45593999997E+02  0.45594000000E+02  0.51100000000E-03 0.  1.
    9900012    2    1    2    0    0 -0.22901536865E+02  0.14161126047E+02 -0.34038292189E+02  0.47787271701E+02  0.20000002995E+02 0.  0.
         12    1    1    2    0    0  0.22901536865E+02 -0.14161126047E+02  0.34038292189E+02  0.43400728299E+02  0.00000000000E+00 0. -1.
         11    1    3    3    0    0  0.17664682071E+01  0.35113801546E+01 -0.58625734172E+00  0.39741538028E+01  0.51100000000E-03 0. -1.
        -11    1    3    3    0    0 -0.16907028819E+02  0.29708715912E+01 -0.22991559860E+02  0.28692952559E+02  0.51100000000E-03 0.  1.
         12    1    3    3    0    0 -0.77609762529E+01  0.76788743009E+01 -0.10460474988E+02  0.15120165340E+02  0.00000000000E+00 0. -1.
</event>
<event>
 7    1  0.8300060E-011  0.4778728E+02  0.7816164E-02  0.1312668E+00
        -11   -1    0    0    0    0  0.00000000000E+00  0.00000000000E+00  0.45593999997E+02  0.45594000000E+02  0.51100000000E-03 0. -1.
         11   -1    0    0    0    0 -0.00000000000E+00 -0.00000000000E+00 -0.45593999997E+02  0.45594000000E+02  0.51100000000E-03 0.  1.
    9900012    2    1    2    0    0 -0.40061345918E+02 -0.11799139009E+02 -0.11810656281E+02  0.47787277427E+02  0.20000029100E+02 0.  0.
         12    1    1    2    0    0  0.40061345918E+02  0.11799139009E+02  0.11810656281E+02  0.43400722573E+02  0.00000000000E+00 0. -1.
         11    1    3    3    0    0 -0.25958688659E+02 -0.76186378679E+01 -0.42830176637E+01  0.27390534870E+02  0.51100000000E-03 0. -1.
        -11    1    3    3    0    0 -0.15121948655E+02 -0.69180091706E+00 -0.71537734126E+01  0.16743010301E+02  0.51100000000E-03 0.  1.
         12    1    3    3    0    0  0.10192913972E+01 -0.34887002243E+01 -0.37386520473E+00  0.36537322560E+01  0.00000000000E+00 0. -1.
</event>
<event>
 7    1  0.8300060E-011  0.4778727E+02  0.7816164E-02  0.1312668E+00
        -11   -1    0    0    0    0  0.00000000000E+00  0.00000000000E+00  0.45593999997E+02  0.45594000000E+02  0.51100000000E-03 0.  1.
         11   -1    0    0    0    0 -0.00000000000E+00 -0.00000000000E+00 -0.45593999997E+02  0.45594000000E+02  0.51100000000E-03 0. -1.
    9900012    2    1    2    0    0  0.26350757593E+02  0.30023019120E+02  0.16966999501E+02  0.47787272185E+02  0.20000005202E+02 0.  0.
        -12    1    1    2    0    0 -0.26350757593E+02 -0.30023019120E+02 -0.16966999501E+02  0.43400727815E+02  0.00000000000E+00 0.  1.
         11    1    3    3    0    0 -0.15592555375E+01  0.62581853073E+01  0.23004024458E+00  0.64536098384E+01  0.51100000000E-03 0. -1.
        -11    1    3    3    0    0  0.16006654959E+02  0.10683040248E+02  0.13091578704E+02  0.23275089369E+02  0.51100000000E-03 0.  1.
         12    1    3    3    0    0  0.11903358171E+02  0.13081793565E+02  0.36453805518E+01  0.18058572978E+02  0.00000000000E+00 0. -1.
</event>
<event>
 7    1  0.8300060E-011  0.4778727E+02  0.7816164E-02  0.1312668E+00
        -11   -1    0    0    0    0  0.00000000000E+00  0.00000000000E+00  0.45593999997E+02  0.45594000000E+02  0.51100000000E-03 0. -1.
         11   -1    0    0    0    0 -0.00000000000E+00 -0.00000000000E+00 -0.45593999997E+02  0.45594000000E+02  0.51100000000E-03 0.  1.
    9900012    2    1    2    0    0 -0.27930721892E+01  0.14403919326E+02 -0.40845430695E+02  0.47787270135E+02  0.19999995853E+02 0.  0.
         12    1    1    2    0    0  0.27930721892E+01 -0.14403919326E+02  0.40845430695E+02  0.43400729865E+02  0.00000000000E+00 0. -1.
         11    1    3    3    0    0  0.38806696044E+01  0.60482638085E+01 -0.48940563105E+01  0.86944165478E+01  0.51100000000E-03 0. -1.
        -11    1    3    3    0    0 -0.48713380064E+01  0.96142396694E+01 -0.17799237179E+02  0.20808084554E+02  0.51100000000E-03 0.  1.
        -12    1    3    3    0    0 -0.18024037872E+01 -0.12585841520E+01 -0.18152137205E+02  0.18284769033E+02  0.00000000000E+00 0.  1.
</event>
<event>
 7    1  0.8300060E-011  0.4778727E+02  0.7816164E-02  0.1312668E+00
        -11   -1    0    0    0    0  0.00000000000E+00  0.00000000000E+00  0.45593999997E+02  0.45594000000E+02  0.51100000000E-03 0. -1.
         11   -1    0    0    0    0 -0.00000000000E+00 -0.00000000000E+00 -0.45593999997E+02  0.45594000000E+02  0.51100000000E-03 0.  1.
    9900012    2    1    2    0    0  0.30242646624E+02  0.60438814647E+00  0.31122988745E+02  0.47787269726E+02  0.19999993990E+02 0.  0.
        -12    1    1    2    0    0 -0.30242646624E+02 -0.60438814647E+00 -0.31122988745E+02  0.43400730274E+02  0.00000000000E+00 0.  1.
         11    1    3    3    0    0  0.81311298309E+01 -0.12796013775E+01 -0.12891216998E+01  0.83315356946E+01  0.51100000000E-03 0.  1.
        -11    1    3    3    0    0  0.10651037261E+02  0.67905437963E+00  0.18824748105E+02  0.21639705429E+02  0.51100000000E-03 0. -1.
        -12    1    3    3    0    0  0.11460479532E+02  0.12049351444E+01  0.13587362340E+02  0.17816028602E+02  0.00000000000E+00 0.  1.
</event>
<event>
 7    1  0.8300060E-011  0.4778728E+02  0.7816164E-02  0.1312668E+00
        -11   -1    0    0    0    0  0.00000000000E+00  0.00000000000E+00  0.45593999997E+02  0.45594000000E+02  0.51100000000E-03 0.  1.
         11   -1    0    0    0    0 -0.00000000000E+00 -0.00000000000E+00 -0.45593999997E+02  0.45594000000E+02  0.51100000000E-03 0. -1.
    9900012    2    1    2    0    0 -0.15074698902E+02  0.84518396092E+00 -0.40689822806E+02  0.47787279236E+02  0.20000037346E+02 0.  0.
         12    1    1    2    0    0  0.15074698902E+02 -0.84518396092E+00  0.40689822806E+02  0.43400720764E+02  0.00000000000E+00 0. -1.
         11    1    3    3    0    0  0.31244823196E+01 -0.26982665677E+01 -0.12465237897E+02  0.13131077195E+02  0.51100000000E-03 0. -1.
        -11    1    3    3    0    0 -0.98783522163E+01  0.44941357517E+01 -0.10735741984E+02  0.15265492291E+02  0.51100000000E-03 0.  1.
        -12    1    3    3    0    0 -0.83208290051E+01 -0.95068522303E+00 -0.17488842925E+02  0.19390709749E+02  0.00000000000E+00 0.  1.
</event>
<event>
 7    1  0.8300060E-011  0.4778727E+02  0.7816164E-02  0.1312668E+00
        -11   -1    0    0    0    0  0.00000000000E+00  0.00000000000E+00  0.45593999997E+02  0.45594000000E+02  0.51100000000E-03 0. -1.
         11   -1    0    0    0    0 -0.00000000000E+00 -0.00000000000E+00 -0.45593999997E+02  0.45594000000E+02  0.51100000000E-03 0.  1.
    9900012    2    1    2    0    0  0.27308705393E+02  0.28968081944E+02  0.17283177082E+02  0.47787269916E+02  0.19999994856E+02 0.  0.
        -12    1    1    2    0    0 -0.27308705393E+02 -0.28968081944E+02 -0.17283177082E+02  0.43400730084E+02  0.00000000000E+00 0.  1.
         11    1    3    3    0    0  0.93312687282E+01  0.16705700663E+01  0.72640122947E+01  0.11942749068E+02  0.51100000000E-03 0. -1.
        -11    1    3    3    0    0 -0.30468545512E-02  0.55619253025E-01 -0.12967217493E+01  0.12979176942E+01  0.51100000000E-03 0.  1.
         12    1    3    3    0    0  0.17980483520E+02  0.27241892624E+02  0.11315886537E+02  0.34546603154E+02  0.00000000000E+00 0. -1.
</event>
<event>
 7    1  0.8300060E-011  0.4778728E+02  0.7816164E-02  0.1312668E+00
        -11   -1    0    0    0    0  0.00000000000E+00  0.00000000000E+00  0.45593999997E+02  0.45594000000E+02  0.51100000000E-03 0. -1.
         11   -1    0    0    0    0 -0.00000000000E+00 -0.00000000000E+00 -0.45593999997E+02  0.45594000000E+02  0.51100000000E-03 0.  1.
    9900012    2    1    2    0    0 -0.30915067501E+02 -0.27600198805E+02  0.12888371581E+02  0.47787280021E+02  0.20000040929E+02 0.  0.
        -12    1    1    2    0    0  0.30915067501E+02  0.27600198805E+02 -0.12888371581E+02  0.43400719979E+02  0.00000000000E+00 0.  1.
         11    1    3    3    0    0 -0.14605714260E+02 -0.11426802999E+02  0.72161707606E+01  0.19899041096E+02  0.51100000000E-03 0. -1.
        -11    1    3    3    0    0 -0.86377372194E+00  0.26892770816E+00  0.52476705474E+01  0.53250796792E+01  0.51100000000E-03 0.  1.
        -12    1    3    3    0    0 -0.15445579519E+02 -0.16442323514E+02  0.42453027307E+00  0.22563159246E+02  0.00000000000E+00 0.  1.
</event>
<event>
 7    1  0.8300060E-011  0.4778727E+02  0.7816164E-02  0.1312668E+00
        -11   -1    0    0    0    0  0.00000000000E+00  0.00000000000E+00  0.45593999997E+02  0.45594000000E+02  0.51100000000E-03 0. -1.
         11   -1    0    0    0    0 -0.00000000000E+00 -0.00000000000E+00 -0.45593999997E+02  0.45594000000E+02  0.51100000000E-03 0.  1.
    9900012    2    1    2    0    0  0.24850294297E+02 -0.39117654095E+01  0.35366427727E+02  0.47787271372E+02  0.20000001494E+02 0.  0.
        -12    1    1    2    0    0 -0.24850294297E+02  0.39117654095E+01 -0.35366427727E+02  0.43400728628E+02  0.00000000000E+00 0.  1.
         11    1    3    3    0    0  0.15455188646E+02 -0.39212767991E+01  0.16797630690E+02  0.23160303644E+02  0.51100000000E-03 0. -1.
        -11    1    3    3    0    0  0.24323546696E+01  0.13265006918E+00  0.17395192878E+02  0.17564927578E+02  0.51100000000E-03 0.  1.
        -12    1    3    3    0    0  0.69627509818E+01 -0.12313867951E+00  0.11736041588E+01  0.70620401507E+01  0.00000000000E+00 0.  1.
</event>
<event>
 7    1  0.8300060E-011  0.4778728E+02  0.7816164E-02  0.1312668E+00
        -11   -1    0    0    0    0  0.00000000000E+00  0.00000000000E+00  0.45593999997E+02  0.45594000000E+02  0.51100000000E-03 0. -1.
         11   -1    0    0    0    0 -0.00000000000E+00 -0.00000000000E+00 -0.45593999997E+02  0.45594000000E+02  0.51100000000E-03 0.  1.
    9900012    2    1    2    0    0  0.14238327737E+02 -0.14984163884E+02 -0.38162385492E+02  0.47787276383E+02  0.20000024341E+02 0.  0.
         12    1    1    2    0    0 -0.14238327737E+02  0.14984163884E+02  0.38162385492E+02  0.43400723617E+02  0.00000000000E+00 0. -1.
         11    1    3    3    0    0  0.83312720516E+01 -0.64924906702E+01 -0.45972606868E+01  0.11519432937E+02  0.51100000000E-03 0. -1.
        -11    1    3    3    0    0  0.80874733770E+01 -0.77038712323E+01 -0.30033747625E+02  0.32043452596E+02  0.51100000000E-03 0.  1.
        -12    1    3    3    0    0 -0.21804176917E+01 -0.78780198175E+00 -0.35313771798E+01  0.42243908507E+01  0.00000000000E+00 0.  1.
</event>
<event>
 7    1  0.8300060E-011  0.4778727E+02  0.7816164E-02  0.1312668E+00
        -11   -1    0    0    0    0  0.00000000000E+00  0.00000000000E+00  0.45593999997E+02  0.45594000000E+02  0.51100000000E-03 0. -1.
         11   -1    0    0    0    0 -0.00000000000E+00 -0.00000000000E+00 -0.45593999997E+02  0.45594000000E+02  0.51100000000E-03 0.  1.
    9900012    2    1    2    0    0  0.67630232437E+01 -0.22302364443E+02  0.36612691236E+02  0.47787273017E+02  0.20000008992E+02 0.  0.
        -12    1    1    2    0    0 -0.67630232437E+01  0.22302364443E+02 -0.36612691236E+02  0.43400726983E+02  0.00000000000E+00 0.  1.
         11    1    3    3    0    0  0.96809183104E+01 -0.11148271723E+02  0.19726564359E+02  0.24640241140E+02  0.51100000000E-03 0. -1.
        -11    1    3    3    0    0 -0.23196449568E+01 -0.13107023939E+02  0.16254413264E+02  0.21009064236E+02  0.51100000000E-03 0.  1.
        -12    1    3    3    0    0 -0.59825010989E+00  0.19529312197E+01  0.63171361251E+00  0.21379676403E+01  0.00000000000E+00 0.  1.
</event>
<event>
 7    1  0.8300060E-011  0.4778727E+02  0.7816164E-02  0.1312668E+00
        -11   -1    0    0    0    0  0.00000000000E+00  0.00000000000E+00  0.45593999997E+02  0.45594000000E+02  0.51100000000E-03 0. -1.
         11   -1    0    0    0    0 -0.00000000000E+00 -0.00000000000E+00 -0.45593999997E+02  0.45594000000E+02  0.51100000000E-03 0.  1.
    9900012    2    1    2    0    0 -0.97807617896E+00  0.39904657632E+02 -0.17037752167E+02  0.47787270367E+02  0.19999996912E+02 0.  0.
         12    1    1    2    0    0  0.97807617896E+00 -0.39904657632E+02  0.17037752167E+02  0.43400729633E+02  0.00000000000E+00 0. -1.
         11    1    3    3    0    0  0.46276606289E+01  0.21552274308E+02 -0.30872740821E+00  0.22045659065E+02  0.51100000000E-03 0. -1.
        -11    1    3    3    0    0 -0.36795932528E+01  0.69245650233E+01 -0.82493565830E+01  0.11381603207E+02  0.51100000000E-03 0.  1.
         12    1    3    3    0    0 -0.19261435551E+01  0.11427818301E+02 -0.84796681759E+01  0.14360008095E+02  0.00000000000E+00 0. -1.
</event>
<event>
 7    1  0.8300060E-011  0.4778726E+02  0.7816164E-02  0.1312668E+00
        -11   -1    0    0    0    0  0.00000000000E+00  0.00000000000E+00  0.45593999997E+02  0.45594000000E+02  0.51100000000E-03 0. -1.
         11   -1    0    0    0    0 -0.00000000000E+00 -0.00000000000E+00 -0.45593999997E+02  0.45594000000E+02  0.51100000000E-03 0.  1.
    9900012    2    1    2    0    0  0.34260082503E+02  0.81311709606E+01 -0.25372322334E+02  0.47787263429E+02  0.19999965277E+02 0.  0.
         12    1    1    2    0    0 -0.34260082503E+02 -0.81311709606E+01  0.25372322334E+02  0.43400736571E+02  0.00000000000E+00 0. -1.
         11    1    3    3    0    0  0.16633989771E+02 -0.35629319573E+00 -0.18616458703E+01  0.16741633318E+02  0.51100000000E-03 0. -1.
        -11    1    3    3    0    0  0.15725491902E+02  0.55500243345E+01 -0.20529460361E+02  0.26449056858E+02  0.51100000000E-03 0.  1.
         12    1    3    3    0    0  0.19006008303E+01  0.29374398218E+01 -0.29812161019E+01  0.45965732529E+01  0.00000000000E+00 0. -1.
</event>
<event>
 7    1  0.8300060E-011  0.4778727E+02  0.7816164E-02  0.1312668E+00
        -11   -1    0    0    0    0  0.00000000000E+00  0.00000000000E+00  0.45593999997E+02  0.45594000000E+02  0.51100000000E-03 0. -1.
         11   -1    0    0    0    0 -0.00000000000E+00 -0.00000000000E+00 -0.45593999997E+02  0.45594000000E+02  0.51100000000E-03 0.  1.
    9900012    2    1    2    0    0 -0.17304590862E+02  0.34554605288E+02 -0.19752312498E+02  0.47787268894E+02  0.19999990196E+02 0.  0.
         12    1    1    2    0    0  0.17304590862E+02 -0.34554605288E+02  0.19752312498E+02  0.43400731106E+02  0.00000000000E+00 0. -1.
         11    1    3    3    0    0  0.29243694725E+01  0.67689543327E+01 -0.62214341249E+01  0.96476381774E+01  0.51100000000E-03 0. -1.
        -11    1    3    3    0    0 -0.15385606392E+02  0.13165078280E+02 -0.80719325099E+01  0.21798905130E+02  0.51100000000E-03 0.  1.
         12    1    3    3    0    0 -0.48433539424E+01  0.14620572675E+02 -0.54589458629E+01  0.16340725587E+02  0.00000000000E+00 0. -1.
</event>
<event>
 7    1  0.8300060E-011  0.4778727E+02  0.7816164E-02  0.1312668E+00
        -11   -1    0    0    0    0  0.00000000000E+00  0.00000000000E+00  0.45593999997E+02  0.45594000000E+02  0.51100000000E-03 0. -1.
         11   -1    0    0    0    0 -0.00000000000E+00 -0.00000000000E+00 -0.45593999997E+02  0.45594000000E+02  0.51100000000E-03 0.  1.
    9900012    2    1    2    0    0  0.55590111594E+01 -0.16729545008E+02 -0.39659084461E+02  0.47787271186E+02  0.20000000647E+02 0.  0.
         12    1    1    2    0    0 -0.55590111594E+01  0.16729545008E+02  0.39659084461E+02  0.43400728814E+02  0.00000000000E+00 0. -1.
         11    1    3    3    0    0  0.49610846969E+01 -0.54694954782E+01 -0.79656863154E+01  0.10861855315E+02  0.51100000000E-03 0. -1.
        -11    1    3    3    0    0  0.63857804580E+01 -0.75806996302E+00 -0.71961381902E+01  0.96507651117E+01  0.51100000000E-03 0.  1.
        -12    1    3    3    0    0 -0.57878539955E+01 -0.10501979567E+02 -0.24497259956E+02  0.27274650759E+02  0.00000000000E+00 0.  1.
</event>
<event>
 7    1  0.8300060E-011  0.4778727E+02  0.7816164E-02  0.1312668E+00
        -11   -1    0    0    0    0  0.00000000000E+00  0.00000000000E+00  0.45593999997E+02  0.45594000000E+02  0.51100000000E-03 0. -1.
         11   -1    0    0    0    0 -0.00000000000E+00 -0.00000000000E+00 -0.45593999997E+02  0.45594000000E+02  0.51100000000E-03 0.  1.
    9900012    2    1    2    0    0 -0.12178226020E+01  0.17034682242E+01 -0.43350182450E+02  0.47787271731E+02  0.20000003129E+02 0.  0.
         12    1    1    2    0    0  0.12178226020E+01 -0.17034682242E+01  0.43350182450E+02  0.43400728269E+02  0.00000000000E+00 0. -1.
         11    1    3    3    0    0  0.17778643722E+01  0.52927009386E+00  0.15333367190E+01  0.24066678859E+01  0.51100000000E-03 0. -1.
        -11    1    3    3    0    0 -0.17851926440E+01  0.26579319993E+01 -0.40106245068E+02  0.40233846560E+02  0.51100000000E-03 0.  1.
        -12    1    3    3    0    0 -0.12104943302E+01 -0.14837338689E+01 -0.47772741004E+01  0.51467572847E+01  0.00000000000E+00 0.  1.
</event>
<event>
 7    1  0.8300060E-011  0.4778726E+02  0.7816164E-02  0.1312668E+00
        -11   -1    0    0    0    0  0.00000000000E+00  0.00000000000E+00  0.45593999997E+02  0.45594000000E+02  0.51100000000E-03 0. -1.
         11   -1    0    0    0    0 -0.00000000000E+00 -0.00000000000E+00 -0.45593999997E+02  0.45594000000E+02  0.51100000000E-03 0.  1.
    9900012    2    1    2    0    0 -0.26377892180E+02 -0.19060564995E+02 -0.28714562907E+02  0.47787257417E+02  0.19999937867E+02 0.  0.
         12    1    1    2    0    0  0.26377892180E+02  0.19060564995E+02  0.28714562907E+02  0.43400742583E+02  0.00000000000E+00 0. -1.
         11    1    3    3    0    0 -0.97416629791E+01 -0.39640591097E+01 -0.14401530473E+02  0.17833054771E+02  0.51100000000E-03 0. -1.
        -11    1    3    3    0    0 -0.99854267797E+01 -0.15824470992E+02 -0.68369463085E+01  0.19921507604E+02  0.51100000000E-03 0.  1.
        -12    1    3    3    0    0 -0.66508024214E+01  0.72796510697E+00 -0.74760861257E+01  0.10032695042E+02  0.00000000000E+00 0.  1.
</event>
<event>
 7    1  0.8300060E-011  0.4778727E+02  0.7816164E-02  0.1312668E+00
        -11   -1    0    0    0    0  0.00000000000E+00  0.00000000000E+00  0.45593999997E+02  0.45594000000E+02  0.51100000000E-03 0. -1.
         11   -1    0    0    0    0 -0.00000000000E+00 -0.00000000000E+00 -0.45593999997E+02  0.45594000000E+02  0.51100000000E-03 0.  1.
    9900012    2    1    2    0    0 -0.13628182743E+02  0.10575376702E+02  0.39825340023E+02  0.47787266536E+02  0.19999979443E+02 0.  0.
        -12    1    1    2    0    0  0.13628182743E+02 -0.10575376702E+02 -0.39825340023E+02  0.43400733464E+02  0.00000000000E+00 0.  1.
         11    1    3    3    0    0 -0.80768686452E+01  0.50843850166E+01  0.21237386137E+02  0.23283327690E+02  0.51100000000E-03 0. -1.
        -11    1    3    3    0    0  0.17929518673E+01 -0.34545288657E+01  0.22947637064E+01  0.45182282824E+01  0.51100000000E-03 0.  1.
        -12    1    3    3    0    0 -0.73442659648E+01  0.89455205510E+01  0.16293190180E+02  0.19985710564E+02  0.00000000000E+00 0.  1.
</event>
<event>
 7    1  0.8300060E-011  0.4778727E+02  0.7816164E-02  0.1312668E+00
        -11   -1    0    0    0    0  0.00000000000E+00  0.00000000000E+00  0.45593999997E+02  0.45594000000E+02  0.51100000000E-03 0. -1.
         11   -1    0    0    0    0 -0.00000000000E+00 -0.00000000000E+00 -0.45593999997E+02  0.45594000000E+02  0.51100000000E-03 0.  1.
    9900012    2    1    2    0    0  0.11563849433E+02 -0.18852539871E+02  0.37342769846E+02  0.47787270363E+02  0.19999996892E+02 0.  0.
        -12    1    1    2    0    0 -0.11563849433E+02  0.18852539871E+02 -0.37342769846E+02  0.43400729637E+02  0.00000000000E+00 0.  1.
         11    1    3    3    0    0  0.57607162424E+01 -0.15654361413E+02  0.30415441194E+02  0.34689248279E+02  0.51100000000E-03 0. -1.
        -11    1    3    3    0    0  0.45379129073E+01  0.24366106370E+01  0.20673414296E+01  0.55501014223E+01  0.51100000000E-03 0.  1.
        -12    1    3    3    0    0  0.12652202831E+01 -0.56347890953E+01  0.48599872221E+01  0.75479206615E+01  0.00000000000E+00 0.  1.
</event>
<event>
 7    1  0.9797043E-011  0.4778727E+02  0.7816164E-02  0.1312668E+00
        -11   -1    0    0    0    0  0.00000000000E+00  0.00000000000E+00  0.45593999997E+02  0.45594000000E+02  0.51100000000E-03 0. -1.
         11   -1    0    0    0    0 -0.00000000000E+00 -0.00000000000E+00 -0.45593999997E+02  0.45594000000E+02  0.51100000000E-03 0.  1.
    9900012    2    1    2    0    0  0.13687629779E+02  0.35844835565E+01  0.41029545899E+02  0.47787269960E+02  0.19999995057E+02 0.  0.
        -12    1    1    2    0    0 -0.13687629779E+02 -0.35844835565E+01 -0.41029545899E+02  0.43400730040E+02  0.00000000000E+00 0.  1.
         11    1    3    3    0    0  0.16808207406E+01 -0.36047100289E+00  0.29100551577E+02  0.29151281276E+02  0.51100000000E-03 0. -1.
        -11    1    3    3    0    0  0.34321026043E+01  0.13035167957E+01 -0.47226540265E-01  0.36716093107E+01  0.51100000000E-03 0.  1.
         12    1    3    3    0    0  0.85747064344E+01  0.26414377636E+01  0.11976220862E+02  0.14964379373E+02  0.00000000000E+00 0. -1.
</event>
<event>
 7    1  0.8300060E-011  0.4778727E+02  0.7816164E-02  0.1312668E+00
        -11   -1    0    0    0    0  0.00000000000E+00  0.00000000000E+00  0.45593999997E+02  0.45594000000E+02  0.51100000000E-03 0. -1.
         11   -1    0    0    0    0 -0.00000000000E+00 -0.00000000000E+00 -0.45593999997E+02  0.45594000000E+02  0.51100000000E-03 0.  1.
    9900012    2    1    2    0    0  0.99402116559E+01  0.16090841864E+02 -0.39062772603E+02  0.47787271860E+02  0.20000003717E+02 0.  0.
         12    1    1    2    0    0 -0.99402116559E+01 -0.16090841864E+02  0.39062772603E+02  0.43400728140E+02  0.00000000000E+00 0. -1.
         11    1    3    3    0    0  0.40719149928E+01  0.53423539323E+00 -0.20224342153E+02  0.20637100449E+02  0.51100000000E-03 0. -1.
        -11    1    3    3    0    0  0.16544188543E+01  0.23345824135E+01 -0.10670682977E+02  0.11047662751E+02  0.51100000000E-03 0.  1.
         12    1    3    3    0    0  0.42138778088E+01  0.13222024057E+02 -0.81677474727E+01  0.16102508660E+02  0.00000000000E+00 0. -1.
</event>
<event>
 7    1  0.8300060E-011  0.4778727E+02  0.7816164E-02  0.1312668E+00
        -11   -1    0    0    0    0  0.00000000000E+00  0.00000000000E+00  0.45593999997E+02  0.45594000000E+02  0.51100000000E-03 0. -1.
         11   -1    0    0    0    0 -0.00000000000E+00 -0.00000000000E+00 -0.45593999997E+02  0.45594000000E+02  0.51100000000E-03 0.  1.
    9900012    2    1    2    0    0 -0.36229204462E+00  0.40738643437E+02  0.14961784412E+02  0.47787270543E+02  0.19999997714E+02 0.  0.
        -12    1    1    2    0    0  0.36229204462E+00 -0.40738643437E+02 -0.14961784412E+02  0.43400729457E+02  0.00000000000E+00 0.  1.
         11    1    3    3    0    0 -0.51602318469E+01  0.37212669961E+02  0.98171024065E+01  0.38830224031E+02  0.51100000000E-03 0. -1.
        -11    1    3    3    0    0  0.20280221958E+01  0.35105446388E+00  0.41432433082E+01  0.46262921044E+01  0.51100000000E-03 0.  1.
         12    1    3    3    0    0  0.27699176065E+01  0.31749190118E+01  0.10014386975E+01  0.43307544081E+01  0.00000000000E+00 0. -1.
</event>
<event>
 7    1  0.8300060E-011  0.4778725E+02  0.7816164E-02  0.1312668E+00
        -11   -1    0    0    0    0  0.00000000000E+00  0.00000000000E+00  0.45593999997E+02  0.45594000000E+02  0.51100000000E-03 0. -1.
         11   -1    0    0    0    0 -0.00000000000E+00 -0.00000000000E+00 -0.45593999997E+02  0.45594000000E+02  0.51100000000E-03 0.  1.
    9900012    2    1    2    0    0 -0.14273984153E+02  0.22493683985E+02 -0.34262408293E+02  0.47787250411E+02  0.19999905925E+02 0.  0.
         12    1    1    2    0    0  0.14273984153E+02 -0.22493683985E+02  0.34262408293E+02  0.43400749589E+02  0.00000000000E+00 0. -1.
         11    1    3    3    0    0 -0.62286416063E+01  0.61704629671E+01 -0.10664502963E+01  0.88322084431E+01  0.51100000000E-03 0. -1.
        -11    1    3    3    0    0 -0.11912882782E+01 -0.10980008400E+01 -0.20129322795E+01  0.25839253529E+01  0.51100000000E-03 0.  1.
        -12    1    3    3    0    0 -0.68540542685E+01  0.17421221858E+02 -0.31183025717E+02  0.36371116615E+02  0.00000000000E+00 0.  1.
</event>
<event>
 7    1  0.8300060E-011  0.4778727E+02  0.7816164E-02  0.1312668E+00
        -11   -1    0    0    0    0  0.00000000000E+00  0.00000000000E+00  0.45593999997E+02  0.45594000000E+02  0.51100000000E-03 0. -1.
         11   -1    0    0    0    0 -0.00000000000E+00 -0.00000000000E+00 -0.45593999997E+02  0.45594000000E+02  0.51100000000E-03 0.  1.
    9900012    2    1    2    0    0  0.80968194116E+01  0.14354911374E+02  0.40149742327E+02  0.47787265282E+02  0.19999973727E+02 0.  0.
        -12    1    1    2    0    0 -0.80968194116E+01 -0.14354911374E+02 -0.40149742327E+02  0.43400734718E+02  0.00000000000E+00 0.  1.
         11    1    3    3    0    0  0.10369575952E+02  0.54141700578E+01  0.11088320774E+02  0.16118070626E+02  0.51100000000E-03 0. -1.
        -11    1    3    3    0    0 -0.43537824113E+01  0.15816825765E+01  0.77705170996E+01  0.90464400354E+01  0.51100000000E-03 0.  1.
         12    1    3    3    0    0  0.20810258711E+01  0.73590587400E+01  0.21290904453E+02  0.22622754621E+02  0.00000000000E+00 0. -1.
</event>
<event>
 7    1  0.8300060E-011  0.4778727E+02  0.7816164E-02  0.1312668E+00
        -11   -1    0    0    0    0  0.00000000000E+00  0.00000000000E+00  0.45593999997E+02  0.45594000000E+02  0.51100000000E-03 0. -1.
         11   -1    0    0    0    0 -0.00000000000E+00 -0.00000000000E+00 -0.45593999997E+02  0.45594000000E+02  0.51100000000E-03 0.  1.
    9900012    2    1    2    0    0 -0.53654371535E+01 -0.30049372202E+02 -0.30852403071E+02  0.47787268891E+02  0.19999990182E+02 0.  0.
         12    1    1    2    0    0  0.53654371535E+01  0.30049372202E+02  0.30852403071E+02  0.43400731109E+02  0.00000000000E+00 0. -1.
         11    1    3    3    0    0 -0.35373789794E+01  0.80437793031E+00 -0.74122585789E+00  0.37026328379E+01  0.51100000000E-03 0. -1.
        -11    1    3    3    0    0  0.36468907546E+01 -0.12626520721E+02 -0.13150587861E+02  0.18592116583E+02  0.51100000000E-03 0.  1.
         12    1    3    3    0    0 -0.54749489287E+01 -0.18227229411E+02 -0.16960589352E+02  0.25492519470E+02  0.00000000000E+00 0. -1.
</event>
<event>
 7    1  0.8300060E-011  0.4778726E+02  0.7816164E-02  0.1312668E+00
        -11   -1    0    0    0    0  0.00000000000E+00  0.00000000000E+00  0.45593999997E+02  0.45594000000E+02  0.51100000000E-03 0. -1.
         11   -1    0    0    0    0 -0.00000000000E+00 -0.00000000000E+00 -0.45593999997E+02  0.45594000000E+02  0.51100000000E-03 0.  1.
    9900012    2    1    2    0    0 -0.39365694581E+02 -0.13415999684E+02  0.12408772586E+02  0.47787255831E+02  0.19999930636E+02 0.  0.
        -12    1    1    2    0    0  0.39365694581E+02  0.13415999684E+02 -0.12408772586E+02  0.43400744169E+02  0.00000000000E+00 0.  1.
         11    1    3    3    0    0 -0.33146258554E+02 -0.67010516447E+01  0.10093721695E+02  0.35291100397E+02  0.51100000000E-03 0. -1.
        -11    1    3    3    0    0 -0.17842388896E+01 -0.74665086822E+01  0.22409101471E+01  0.79971206609E+01  0.51100000000E-03 0.  1.
         12    1    3    3    0    0 -0.44351971366E+01  0.75156064323E+00  0.74140743859E-01  0.44990347732E+01  0.00000000000E+00 0. -1.
</event>
<event>
 7    1  0.8300060E-011  0.4778725E+02  0.7816164E-02  0.1312668E+00
        -11   -1    0    0    0    0  0.00000000000E+00  0.00000000000E+00  0.45593999997E+02  0.45594000000E+02  0.51100000000E-03 0. -1.
         11   -1    0    0    0    0 -0.00000000000E+00 -0.00000000000E+00 -0.45593999997E+02  0.45594000000E+02  0.51100000000E-03 0.  1.
    9900012    2    1    2    0    0 -0.12297648790E+02 -0.36131898085E+02 -0.20661049817E+02  0.47787248803E+02  0.19999898590E+02 0.  0.
         12    1    1    2    0    0  0.12297648790E+02  0.36131898085E+02  0.20661049817E+02  0.43400751197E+02  0.00000000000E+00 0. -1.
         11    1    3    3    0    0 -0.11074552940E+02 -0.21110469986E+02 -0.94019143338E+01  0.25626034794E+02  0.51100000000E-03 0. -1.
        -11    1    3    3    0    0 -0.16158580318E+01 -0.44126415147E+01 -0.10517177501E+02  0.11519263221E+02  0.51100000000E-03 0.  1.
         12    1    3    3    0    0  0.39276218216E+00 -0.10608786584E+02 -0.74195798260E+00  0.10641950787E+02  0.00000000000E+00 0. -1.
</event>
<event>
 7    1  0.8300060E-011  0.4778727E+02  0.7816164E-02  0.1312668E+00
        -11   -1    0    0    0    0  0.00000000000E+00  0.00000000000E+00  0.45593999997E+02  0.45594000000E+02  0.51100000000E-03 0. -1.
         11   -1    0    0    0    0 -0.00000000000E+00 -0.00000000000E+00 -0.45593999997E+02  0.45594000000E+02  0.51100000000E-03 0.  1.
    9900012    2    1    2    0    0  0.26692764258E+02  0.12481004309E+02 -0.31864465601E+02  0.47787270740E+02  0.19999998610E+02 0.  0.
         12    1    1    2    0    0 -0.26692764258E+02 -0.12481004309E+02  0.31864465601E+02  0.43400729260E+02  0.00000000000E+00 0. -1.
         11    1    3    3    0    0  0.20553954365E+02  0.10498853209E+02 -0.11267147697E+02  0.25683449461E+02  0.51100000000E-03 0. -1.
        -11    1    3    3    0    0  0.29917849865E+01 -0.14774209974E+01 -0.90368652860E+01  0.96331970118E+01  0.51100000000E-03 0.  1.
         12    1    3    3    0    0  0.31470249061E+01  0.34595720971E+01 -0.11560452619E+02  0.12470624267E+02  0.00000000000E+00 0. -1.
</event>
<event>
 7    1  0.8300060E-011  0.4778727E+02  0.7816164E-02  0.1312668E+00
        -11   -1    0    0    0    0  0.00000000000E+00  0.00000000000E+00  0.45593999997E+02  0.45594000000E+02  0.51100000000E-03 0. -1.
         11   -1    0    0    0    0 -0.00000000000E+00 -0.00000000000E+00 -0.45593999997E+02  0.45594000000E+02  0.51100000000E-03 0.  1.
    9900012    2    1    2    0    0 -0.13989318932E+02 -0.10016856857E+02  0.39844506323E+02  0.47787272477E+02  0.20000006530E+02 0.  0.
        -12    1    1    2    0    0  0.13989318932E+02  0.10016856857E+02 -0.39844506323E+02  0.43400727523E+02  0.00000000000E+00 0.  1.
         11    1    3    3    0    0  0.19337545572E+00 -0.33874891035E+01  0.14165547974E+02  0.14566235826E+02  0.51100000000E-03 0. -1.
        -11    1    3    3    0    0 -0.15203898716E+02 -0.26748120413E+01  0.13969461537E+02  0.20819678468E+02  0.51100000000E-03 0.  1.
        -12    1    3    3    0    0  0.10212043289E+01 -0.39545557124E+01  0.11709496812E+02  0.12401358182E+02  0.00000000000E+00 0.  1.
</event>
<event>
 7    1  0.8300060E-011  0.4778727E+02  0.7816164E-02  0.1312668E+00
        -11   -1    0    0    0    0  0.00000000000E+00  0.00000000000E+00  0.45593999997E+02  0.45594000000E+02  0.51100000000E-03 0. -1.
         11   -1    0    0    0    0 -0.00000000000E+00 -0.00000000000E+00 -0.45593999997E+02  0.45594000000E+02  0.51100000000E-03 0.  1.
    9900012    2    1    2    0    0  0.93708521731E+01 -0.21151703933E+02  0.36720783517E+02  0.47787269685E+02  0.19999993804E+02 0.  0.
        -12    1    1    2    0    0 -0.93708521731E+01  0.21151703933E+02 -0.36720783517E+02  0.43400730315E+02  0.00000000000E+00 0.  1.
         11    1    3    3    0    0  0.25281332075E+01 -0.22003004891E+02  0.30552326745E+02  0.37735505185E+02  0.51100000000E-03 0. -1.
        -11    1    3    3    0    0  0.52354178038E+01  0.15045270511E+01  0.62798458586E+01  0.83132223293E+01  0.51100000000E-03 0.  1.
        -12    1    3    3    0    0  0.16073011618E+01 -0.65322609352E+00 -0.11138908649E+00  0.17385421716E+01  0.00000000000E+00 0.  1.
</event>
<event>
 7    1  0.8300060E-011  0.4778727E+02  0.7816164E-02  0.1312668E+00
        -11   -1    0    0    0    0  0.00000000000E+00  0.00000000000E+00  0.45593999997E+02  0.45594000000E+02  0.51100000000E-03 0. -1.
         11   -1    0    0    0    0 -0.00000000000E+00 -0.00000000000E+00 -0.45593999997E+02  0.45594000000E+02  0.51100000000E-03 0.  1.
    9900012    2    1    2    0    0 -0.21405239575E+02  0.99029101409E+01 -0.36433111893E+02  0.47787267832E+02  0.19999985354E+02 0.  0.
         12    1    1    2    0    0  0.21405239575E+02 -0.99029101409E+01  0.36433111893E+02  0.43400732168E+02  0.00000000000E+00 0. -1.
         11    1    3    3    0    0 -0.76065892231E+01  0.90713909099E+01 -0.14672896957E+02  0.18853228849E+02  0.51100000000E-03 0.  1.
        -11    1    3    3    0    0 -0.10427080467E+02 -0.39454090733E+01 -0.72722734534E+01  0.13310755849E+02  0.51100000000E-03 0. -1.
        -12    1    3    3    0    0 -0.33715698843E+01  0.47769283044E+01 -0.14487941482E+02  0.15623283135E+02  0.00000000000E+00 0.  1.
</event>
<event>
 7    1  0.8300060E-011  0.4778727E+02  0.7816164E-02  0.1312668E+00
        -11   -1    0    0    0    0  0.00000000000E+00  0.00000000000E+00  0.45593999997E+02  0.45594000000E+02  0.51100000000E-03 0. -1.
         11   -1    0    0    0    0 -0.00000000000E+00 -0.00000000000E+00 -0.45593999997E+02  0.45594000000E+02  0.51100000000E-03 0.  1.
    9900012    2    1    2    0    0  0.12496248923E+02 -0.18219783983E+02 -0.37356479053E+02  0.47787270827E+02  0.19999999009E+02 0.  0.
         12    1    1    2    0    0 -0.12496248923E+02  0.18219783983E+02  0.37356479053E+02  0.43400729173E+02  0.00000000000E+00 0. -1.
         11    1    3    3    0    0  0.92854978492E+01 -0.11807405186E+02 -0.14631690733E+02  0.20969541280E+02  0.51100000000E-03 0.  1.
        -11    1    3    3    0    0  0.44188816532E+01  0.14232517610E+01 -0.15177299502E+02  0.15871439162E+02  0.51100000000E-03 0. -1.
         12    1    3    3    0    0 -0.12081305794E+01 -0.78356305574E+01 -0.75474888176E+01  0.10946290385E+02  0.00000000000E+00 0. -1.
</event>
<event>
 7    1  0.8300060E-011  0.4778727E+02  0.7816164E-02  0.1312668E+00
        -11   -1    0    0    0    0  0.00000000000E+00  0.00000000000E+00  0.45593999997E+02  0.45594000000E+02  0.51100000000E-03 0. -1.
         11   -1    0    0    0    0 -0.00000000000E+00 -0.00000000000E+00 -0.45593999997E+02  0.45594000000E+02  0.51100000000E-03 0.  1.
    9900012    2    1    2    0    0 -0.21890606940E+01  0.77863006203E+01  0.42640416428E+02  0.47787267549E+02  0.19999984064E+02 0.  0.
        -12    1    1    2    0    0  0.21890606940E+01 -0.77863006203E+01 -0.42640416428E+02  0.43400732451E+02  0.00000000000E+00 0.  1.
         11    1    3    3    0    0  0.86626070683E+01  0.38260080541E+01  0.16141281518E+02  0.18714167578E+02  0.51100000000E-03 0. -1.
        -11    1    3    3    0    0 -0.38262334473E+01  0.56304081954E+00  0.11992551216E+02  0.12600728641E+02  0.51100000000E-03 0.  1.
         12    1    3    3    0    0 -0.70254343149E+01  0.33972517466E+01  0.14506583695E+02  0.16472371331E+02  0.00000000000E+00 0. -1.
</event>
<event>
 7    1  0.8300060E-011  0.4778727E+02  0.7816164E-02  0.1312668E+00
        -11   -1    0    0    0    0  0.00000000000E+00  0.00000000000E+00  0.45593999997E+02  0.45594000000E+02  0.51100000000E-03 0. -1.
         11   -1    0    0    0    0 -0.00000000000E+00 -0.00000000000E+00 -0.45593999997E+02  0.45594000000E+02  0.51100000000E-03 0.  1.
    9900012    2    1    2    0    0 -0.86405978477E+00 -0.42576293195E+01 -0.43182741664E+02  0.47787272076E+02  0.20000004702E+02 0.  0.
         12    1    1    2    0    0  0.86405978477E+00  0.42576293195E+01  0.43182741664E+02  0.43400727924E+02  0.00000000000E+00 0. -1.
         11    1    3    3    0    0  0.55934233491E+01 -0.36601375763E+01 -0.53475996149E+01  0.85603629445E+01  0.51100000000E-03 0. -1.
        -11    1    3    3    0    0 -0.65061102302E+01  0.13793185143E+01 -0.35710178708E+02  0.36324218554E+02  0.51100000000E-03 0.  1.
        -12    1    3    3    0    0  0.48627096344E-01 -0.19768102575E+01 -0.21249633408E+01  0.29026905775E+01  0.00000000000E+00 0.  1.
</event>
<event>
 7    1  0.8300060E-011  0.4778728E+02  0.7816164E-02  0.1312668E+00
        -11   -1    0    0    0    0  0.00000000000E+00  0.00000000000E+00  0.45593999997E+02  0.45594000000E+02  0.51100000000E-03 0.  1.
         11   -1    0    0    0    0 -0.00000000000E+00 -0.00000000000E+00 -0.45593999997E+02  0.45594000000E+02  0.51100000000E-03 0. -1.
    9900012    2    1    2    0    0  0.29664327951E+02 -0.22500105786E+01 -0.31600438452E+02  0.47787278684E+02  0.20000034834E+02 0.  0.
         12    1    1    2    0    0 -0.29664327951E+02  0.22500105786E+01  0.31600438452E+02  0.43400721316E+02  0.00000000000E+00 0. -1.
         11    1    3    3    0    0  0.89077172368E+01 -0.35643316361E+01 -0.21487681121E+01  0.98320440928E+01  0.51100000000E-03 0. -1.
        -11    1    3    3    0    0  0.14593929567E+02 -0.37640017384E+01 -0.23805159360E+02  0.28175097190E+02  0.51100000000E-03 0.  1.
         12    1    3    3    0    0  0.61626811473E+01  0.50783227960E+01 -0.56465109799E+01  0.97801374014E+01  0.00000000000E+00 0. -1.
</event>
<event>
 7    1  0.8300060E-011  0.4778727E+02  0.7816164E-02  0.1312668E+00
        -11   -1    0    0    0    0  0.00000000000E+00  0.00000000000E+00  0.45593999997E+02  0.45594000000E+02  0.51100000000E-03 0. -1.
         11   -1    0    0    0    0 -0.00000000000E+00 -0.00000000000E+00 -0.45593999997E+02  0.45594000000E+02  0.51100000000E-03 0.  1.
    9900012    2    1    2    0    0 -0.21094278891E+02  0.22485687442E+02 -0.30545843295E+02  0.47787270924E+02  0.19999999453E+02 0.  0.
         12    1    1    2    0    0  0.21094278891E+02 -0.22485687442E+02  0.30545843295E+02  0.43400729076E+02  0.00000000000E+00 0. -1.
         11    1    3    3    0    0  0.34306702059E+01  0.37724790378E+01 -0.13743474363E+01  0.52810914866E+01  0.51100000000E-03 0. -1.
        -11    1    3    3    0    0 -0.13414868830E+02  0.90634550860E+01 -0.14723650839E+02  0.21883574162E+02  0.51100000000E-03 0.  1.
         12    1    3    3    0    0 -0.11110080267E+02  0.96497533182E+01 -0.14447845021E+02  0.20622605276E+02  0.00000000000E+00 0. -1.
</event>
<event>
 7    1  0.8300060E-011  0.4778727E+02  0.7816164E-02  0.1312668E+00
        -11   -1    0    0    0    0  0.00000000000E+00  0.00000000000E+00  0.45593999997E+02  0.45594000000E+02  0.51100000000E-03 0. -1.
         11   -1    0    0    0    0 -0.00000000000E+00 -0.00000000000E+00 -0.45593999997E+02  0.45594000000E+02  0.51100000000E-03 0.  1.
    9900012    2    1    2    0    0 -0.31568454564E+02 -0.55434812474E+01 -0.29263051474E+02  0.47787266257E+02  0.19999978170E+02 0.  0.
         12    1    1    2    0    0  0.31568454564E+02  0.55434812474E+01  0.29263051474E+02  0.43400733743E+02  0.00000000000E+00 0. -1.
         11    1    3    3    0    0 -0.88579498804E+01  0.44915460691E+01 -0.46495916009E+01  0.10966128054E+02  0.51100000000E-03 0. -1.
        -11    1    3    3    0    0 -0.51246072995E+01 -0.43652755300E+01 -0.13945686398E+02  0.15485457688E+02  0.51100000000E-03 0.  1.
        -12    1    3    3    0    0 -0.17585897384E+02 -0.56697517865E+01 -0.10667773475E+02  0.21335680515E+02  0.00000000000E+00 0.  1.
</event>
<event>
 7    1  0.8300060E-011  0.4778727E+02  0.7816164E-02  0.1312668E+00
        -11   -1    0    0    0    0  0.00000000000E+00  0.00000000000E+00  0.45593999997E+02  0.45594000000E+02  0.51100000000E-03 0. -1.
         11   -1    0    0    0    0 -0.00000000000E+00 -0.00000000000E+00 -0.45593999997E+02  0.45594000000E+02  0.51100000000E-03 0.  1.
    9900012    2    1    2    0    0  0.29522827949E+02 -0.97538645737E+01 -0.30280160590E+02  0.47787269942E+02  0.19999994972E+02 0.  0.
         12    1    1    2    0    0 -0.29522827949E+02  0.97538645737E+01  0.30280160590E+02  0.43400730058E+02  0.00000000000E+00 0. -1.
         11    1    3    3    0    0  0.17768778187E+02 -0.44715628051E+01 -0.28728446991E+02  0.34074154706E+02  0.51100000000E-03 0.  1.
        -11    1    3    3    0    0  0.11848231501E+02 -0.42626732657E+01 -0.15684367481E+01  0.12689009700E+02  0.51100000000E-03 0. -1.
        -12    1    3    3    0    0 -0.94181738637E-01 -0.10196285029E+01  0.16723149185E-01  0.10241055353E+01  0.00000000000E+00 0.  1.
</event>
<event>
 7    1  0.8300060E-011  0.4778725E+02  0.7816164E-02  0.1312668E+00
        -11   -1    0    0    0    0  0.00000000000E+00  0.00000000000E+00  0.45593999997E+02  0.45594000000E+02  0.51100000000E-03 0.  1.
         11   -1    0    0    0    0 -0.00000000000E+00 -0.00000000000E+00 -0.45593999997E+02  0.45594000000E+02  0.51100000000E-03 0. -1.
    9900012    2    1    2    0    0 -0.13695021133E+02 -0.41183025705E+02 -0.17295727369E+00  0.47787249727E+02  0.19999902803E+02 0.  0.
        -12    1    1    2    0    0  0.13695021133E+02  0.41183025705E+02  0.17295727369E+00  0.43400750273E+02  0.00000000000E+00 0.  1.
         11    1    3    3    0    0 -0.82336088700E+01 -0.12002707100E+02 -0.63949513599E+01  0.15898197883E+02  0.51100000000E-03 0. -1.
        -11    1    3    3    0    0 -0.75574765210E+01 -0.27609139131E+02  0.60943662852E+01  0.29266385421E+02  0.51100000000E-03 0.  1.
         12    1    3    3    0    0  0.20960642577E+01 -0.15711794739E+01  0.12762780105E+00  0.26226664232E+01  0.00000000000E+00 0. -1.
</event>
<event>
 7    1  0.8748152E-011  0.4778727E+02  0.7816164E-02  0.1312668E+00
        -11   -1    0    0    0    0  0.00000000000E+00  0.00000000000E+00  0.45593999997E+02  0.45594000000E+02  0.51100000000E-03 0. -1.
         11   -1    0    0    0    0 -0.00000000000E+00 -0.00000000000E+00 -0.45593999997E+02  0.45594000000E+02  0.51100000000E-03 0.  1.
    9900012    2    1    2    0    0 -0.84674204558E+01 -0.31744121492E+02  0.28359070111E+02  0.47787270559E+02  0.19999997785E+02 0.  0.
        -12    1    1    2    0    0  0.84674204558E+01  0.31744121492E+02 -0.28359070111E+02  0.43400729441E+02  0.00000000000E+00 0.  1.
         11    1    3    3    0    0 -0.25578084652E+01 -0.63403754492E+01  0.14846959054E+02  0.16345486790E+02  0.51100000000E-03 0. -1.
        -11    1    3    3    0    0  0.13897920421E+01 -0.13047285770E+02  0.25115349349E+01  0.13359303720E+02  0.51100000000E-03 0.  1.
         12    1    3    3    0    0 -0.72994040327E+01 -0.12356460272E+02  0.11000576122E+02  0.18082480049E+02  0.00000000000E+00 0. -1.
</event>
<event>
 7    1  0.8300060E-011  0.4778727E+02  0.7816164E-02  0.1312668E+00
        -11   -1    0    0    0    0  0.00000000000E+00  0.00000000000E+00  0.45593999997E+02  0.45594000000E+02  0.51100000000E-03 0. -1.
         11   -1    0    0    0    0 -0.00000000000E+00 -0.00000000000E+00 -0.45593999997E+02  0.45594000000E+02  0.51100000000E-03 0.  1.
    9900012    2    1    2    0    0 -0.21313948597E+02 -0.33699301041E+02 -0.17137558727E+02  0.47787271727E+02  0.20000003112E+02 0.  0.
         12    1    1    2    0    0  0.21313948597E+02  0.33699301041E+02  0.17137558727E+02  0.43400728273E+02  0.00000000000E+00 0. -1.
         11    1    3    3    0    0 -0.16134822987E+02 -0.12320746679E+02 -0.83921177148E+01  0.21967270007E+02  0.51100000000E-03 0.  1.
        -11    1    3    3    0    0 -0.60341691977E+01 -0.21071358888E+02 -0.10144271408E+02  0.24152010392E+02  0.51100000000E-03 0. -1.
        -12    1    3    3    0    0  0.85504358714E+00 -0.30719547466E+00  0.13988303962E+01  0.16679913288E+01  0.00000000000E+00 0.  1.
</event>
<event>
 7    1  0.8300060E-011  0.4778727E+02  0.7816164E-02  0.1312668E+00
        -11   -1    0    0    0    0  0.00000000000E+00  0.00000000000E+00  0.45593999997E+02  0.45594000000E+02  0.51100000000E-03 0. -1.
         11   -1    0    0    0    0 -0.00000000000E+00 -0.00000000000E+00 -0.45593999997E+02  0.45594000000E+02  0.51100000000E-03 0.  1.
    9900012    2    1    2    0    0  0.27151941216E+02 -0.25351122546E+02  0.22443620868E+02  0.47787269087E+02  0.19999991074E+02 0.  0.
        -12    1    1    2    0    0 -0.27151941216E+02  0.25351122546E+02 -0.22443620868E+02  0.43400730913E+02  0.00000000000E+00 0.  1.
         11    1    3    3    0    0  0.20704488067E+02 -0.23147650501E+02  0.12777458168E+02  0.33582033699E+02  0.51100000000E-03 0. -1.
        -11    1    3    3    0    0  0.32843291672E+01 -0.27825641211E+01  0.31441583048E+00  0.43160559244E+01  0.51100000000E-03 0.  1.
         12    1    3    3    0    0  0.31631239820E+01  0.57909207618E+00  0.93517468692E+01  0.98891794636E+01  0.00000000000E+00 0. -1.
</event>
<event>
 7    1  0.8300060E-011  0.4778727E+02  0.7816164E-02  0.1312668E+00
        -11   -1    0    0    0    0  0.00000000000E+00  0.00000000000E+00  0.45593999997E+02  0.45594000000E+02  0.51100000000E-03 0. -1.
         11   -1    0    0    0    0 -0.00000000000E+00 -0.00000000000E+00 -0.45593999997E+02  0.45594000000E+02  0.51100000000E-03 0.  1.
    9900012    2    1    2    0    0 -0.19491709122E+02 -0.15166572342E+01  0.38747853774E+02  0.47787272520E+02  0.20000006729E+02 0.  0.
        -12    1    1    2    0    0  0.19491709122E+02  0.15166572342E+01 -0.38747853774E+02  0.43400727480E+02  0.00000000000E+00 0.  1.
         11    1    3    3    0    0 -0.13581813267E+02  0.49264389294E+01  0.16641395765E+02  0.22037956017E+02  0.51100000000E-03 0. -1.
        -11    1    3    3    0    0 -0.48631133535E+01 -0.53920639047E+01  0.22930308040E+02  0.24052510300E+02  0.51100000000E-03 0.  1.
        -12    1    3    3    0    0 -0.10467825018E+01 -0.10510322589E+01 -0.82385003166E+00  0.16968062028E+01  0.00000000000E+00 0.  1.
</event>
<event>
 7    1  0.8300060E-011  0.4778729E+02  0.7816164E-02  0.1312668E+00
        -11   -1    0    0    0    0  0.00000000000E+00  0.00000000000E+00  0.45593999997E+02  0.45594000000E+02  0.51100000000E-03 0. -1.
         11   -1    0    0    0    0 -0.00000000000E+00 -0.00000000000E+00 -0.45593999997E+02  0.45594000000E+02  0.51100000000E-03 0.  1.
    9900012    2    1    2    0    0  0.10313028668E+02  0.13921852110E+02 -0.39792524657E+02  0.47787290961E+02  0.20000090809E+02 0.  0.
         12    1    1    2    0    0 -0.10313028668E+02 -0.13921852110E+02  0.39792524657E+02  0.43400709039E+02  0.00000000000E+00 0. -1.
         11    1    3    3    0    0  0.83401167405E+01  0.29886504202E+01 -0.20796925936E+02  0.22605346872E+02  0.51100000000E-03 0. -1.
        -11    1    3    3    0    0 -0.82137794176E+00  0.41496467093E+01  0.58650285527E+00  0.42706223663E+01  0.51100000000E-03 0.  1.
        -12    1    3    3    0    0  0.27942898695E+01  0.67835549808E+01 -0.19582101576E+02  0.20911321723E+02  0.00000000000E+00 0.  1.
</event>
<event>
 7    1  0.1287071E-010  0.4778727E+02  0.7816164E-02  0.1312668E+00
        -11   -1    0    0    0    0  0.00000000000E+00  0.00000000000E+00  0.45593999997E+02  0.45594000000E+02  0.51100000000E-03 0. -1.
         11   -1    0    0    0    0 -0.00000000000E+00 -0.00000000000E+00 -0.45593999997E+02  0.45594000000E+02  0.51100000000E-03 0.  1.
    9900012    2    1    2    0    0 -0.13577805441E+02  0.12914339304E+02 -0.39146983648E+02  0.47787270870E+02  0.19999999204E+02 0.  0.
         12    1    1    2    0    0  0.13577805441E+02 -0.12914339304E+02  0.39146983648E+02  0.43400729130E+02  0.00000000000E+00 0. -1.
         11    1    3    3    0    0 -0.31357330582E+01 -0.24674901553E+01 -0.15587425373E+01  0.42838076565E+01  0.51100000000E-03 0. -1.
        -11    1    3    3    0    0 -0.11844831806E+02  0.92296920746E+01 -0.30613223275E+02  0.34097752065E+02  0.51100000000E-03 0.  1.
         12    1    3    3    0    0  0.14027594237E+01  0.61521373847E+01 -0.69750178358E+01  0.94057111486E+01  0.00000000000E+00 0. -1.
</event>
<event>
 7    1  0.8300060E-011  0.4778727E+02  0.7816164E-02  0.1312668E+00
        -11   -1    0    0    0    0  0.00000000000E+00  0.00000000000E+00  0.45593999997E+02  0.45594000000E+02  0.51100000000E-03 0.  1.
         11   -1    0    0    0    0 -0.00000000000E+00 -0.00000000000E+00 -0.45593999997E+02  0.45594000000E+02  0.51100000000E-03 0. -1.
    9900012    2    1    2    0    0  0.18064891150E+02  0.39420312148E+02 -0.18225495266E+01  0.47787274328E+02  0.20000014971E+02 0.  0.
         12    1    1    2    0    0 -0.18064891150E+02 -0.39420312148E+02  0.18225495266E+01  0.43400725672E+02  0.00000000000E+00 0. -1.
         11    1    3    3    0    0  0.14207859489E+02  0.27521895183E+02  0.58445621947E+01  0.31519468480E+02  0.51100000000E-03 0. -1.
        -11    1    3    3    0    0  0.31286969592E+01  0.90023771979E+00 -0.24423197416E+01  0.40699015462E+01  0.51100000000E-03 0.  1.
         12    1    3    3    0    0  0.72833470191E+00  0.10998179245E+02 -0.52247919798E+01  0.12197904302E+02  0.00000000000E+00 0. -1.
</event>
<event>
 7    1  0.8300060E-011  0.4778727E+02  0.7816164E-02  0.1312668E+00
        -11   -1    0    0    0    0  0.00000000000E+00  0.00000000000E+00  0.45593999997E+02  0.45594000000E+02  0.51100000000E-03 0. -1.
         11   -1    0    0    0    0 -0.00000000000E+00 -0.00000000000E+00 -0.45593999997E+02  0.45594000000E+02  0.51100000000E-03 0.  1.
    9900012    2    1    2    0    0  0.26360223392E+02 -0.10221329865E+02 -0.32928501683E+02  0.47787272073E+02  0.20000004688E+02 0.  0.
         12    1    1    2    0    0 -0.26360223392E+02  0.10221329865E+02  0.32928501683E+02  0.43400727927E+02  0.00000000000E+00 0. -1.
         11    1    3    3    0    0  0.21279975365E+01  0.27487853327E+01 -0.10871823387E+02  0.11414058803E+02  0.51100000000E-03 0. -1.
        -11    1    3    3    0    0  0.21106263017E+02 -0.96603963392E+01 -0.21750937675E+02  0.31810389592E+02  0.51100000000E-03 0.  1.
         12    1    3    3    0    0  0.31259628390E+01 -0.33097188586E+01 -0.30574062104E+00  0.45628236785E+01  0.00000000000E+00 0. -1.
</event>
<event>
 7    1  0.8300060E-011  0.4778726E+02  0.7816164E-02  0.1312668E+00
        -11   -1    0    0    0    0  0.00000000000E+00  0.00000000000E+00  0.45593999997E+02  0.45594000000E+02  0.51100000000E-03 0. -1.
         11   -1    0    0    0    0 -0.00000000000E+00 -0.00000000000E+00 -0.45593999997E+02  0.45594000000E+02  0.51100000000E-03 0.  1.
    9900012    2    1    2    0    0 -0.36743256404E+02  0.29367630031E+01 -0.22911402646E+02  0.47787264530E+02  0.19999970300E+02 0.  0.
         12    1    1    2    0    0  0.36743256404E+02 -0.29367630031E+01  0.22911402646E+02  0.43400735470E+02  0.00000000000E+00 0. -1.
         11    1    3    3    0    0 -0.20766215337E+02  0.25737145609E+01 -0.95837418430E+01  0.23015382118E+02  0.51100000000E-03 0. -1.
        -11    1    3    3    0    0 -0.19943877355E+01 -0.12814698499E+00 -0.10254034826E+02  0.10446972507E+02  0.51100000000E-03 0.  1.
        -12    1    3    3    0    0 -0.13982653332E+02  0.49119542718E+00 -0.30736259764E+01  0.14324909905E+02  0.00000000000E+00 0.  1.
</event>
<event>
 7    1  0.8300060E-011  0.4778727E+02  0.7816164E-02  0.1312668E+00
        -11   -1    0    0    0    0  0.00000000000E+00  0.00000000000E+00  0.45593999997E+02  0.45594000000E+02  0.51100000000E-03 0. -1.
         11   -1    0    0    0    0 -0.00000000000E+00 -0.00000000000E+00 -0.45593999997E+02  0.45594000000E+02  0.51100000000E-03 0.  1.
    9900012    2    1    2    0    0 -0.18045398786E+02  0.22715710113E+02 -0.32279767681E+02  0.47787270688E+02  0.19999998374E+02 0.  0.
         12    1    1    2    0    0  0.18045398786E+02 -0.22715710113E+02  0.32279767681E+02  0.43400729312E+02  0.00000000000E+00 0. -1.
         11    1    3    3    0    0 -0.54499180156E+01  0.85264190956E+01 -0.23057910185E+02  0.25180719834E+02  0.51100000000E-03 0. -1.
        -11    1    3    3    0    0 -0.49984689420E+01  0.13324477049E+01 -0.47364901098E+01  0.70138753533E+01  0.51100000000E-03 0.  1.
         12    1    3    3    0    0 -0.75970118285E+01  0.12856843313E+02 -0.44853673860E+01  0.15592675501E+02  0.00000000000E+00 0. -1.
</event>
<event>
 7    1  0.8300060E-011  0.4778727E+02  0.7816164E-02  0.1312668E+00
        -11   -1    0    0    0    0  0.00000000000E+00  0.00000000000E+00  0.45593999997E+02  0.45594000000E+02  0.51100000000E-03 0.  1.
         11   -1    0    0    0    0 -0.00000000000E+00 -0.00000000000E+00 -0.45593999997E+02  0.45594000000E+02  0.51100000000E-03 0. -1.
    9900012    2    1    2    0    0  0.17393733552E+02 -0.21579582721E+02  0.33397647539E+02  0.47787271683E+02  0.20000002911E+02 0.  0.
        -12    1    1    2    0    0 -0.17393733552E+02  0.21579582721E+02 -0.33397647539E+02  0.43400728317E+02  0.00000000000E+00 0.  1.
         11    1    3    3    0    0  0.83922321107E+01 -0.21618034460E+01  0.43823422733E+01  0.97112243307E+01  0.51100000000E-03 0. -1.
        -11    1    3    3    0    0  0.27145943850E+01 -0.16887036672E+02  0.16093859601E+02  0.23485172926E+02  0.51100000000E-03 0.  1.
        -12    1    3    3    0    0  0.62869070561E+01 -0.25307426031E+01  0.12921445665E+02  0.14590874426E+02  0.00000000000E+00 0.  1.
</event>
<event>
 7    1  0.8300060E-011  0.4778729E+02  0.7816164E-02  0.1312668E+00
        -11   -1    0    0    0    0  0.00000000000E+00  0.00000000000E+00  0.45593999997E+02  0.45594000000E+02  0.51100000000E-03 0. -1.
         11   -1    0    0    0    0 -0.00000000000E+00 -0.00000000000E+00 -0.45593999997E+02  0.45594000000E+02  0.51100000000E-03 0.  1.
    9900012    2    1    2    0    0  0.40911530048E+01 -0.41817647405E+02  0.10870551469E+02  0.47787285068E+02  0.20000063937E+02 0.  0.
        -12    1    1    2    0    0 -0.40911530048E+01  0.41817647405E+02 -0.10870551469E+02  0.43400714932E+02  0.00000000000E+00 0.  1.
         11    1    3    3    0    0  0.41077529849E+00 -0.27188465868E+02  0.13331793672E+02  0.30283958384E+02  0.51100000000E-03 0. -1.
        -11    1    3    3    0    0 -0.36189310521E+00  0.20726077289E+00  0.15552362103E+01  0.16101812253E+01  0.51100000000E-03 0.  1.
         12    1    3    3    0    0  0.40422708115E+01 -0.14836442310E+02 -0.40164784132E+01  0.15893145459E+02  0.00000000000E+00 0. -1.
</event>
<event>
 7    1  0.8300060E-011  0.4778733E+02  0.7816164E-02  0.1312667E+00
        -11   -1    0    0    0    0  0.00000000000E+00  0.00000000000E+00  0.45593999997E+02  0.45594000000E+02  0.51100000000E-03 0. -1.
         11   -1    0    0    0    0 -0.00000000000E+00 -0.00000000000E+00 -0.45593999997E+02  0.45594000000E+02  0.51100000000E-03 0.  1.
    9900012    2    1    2    0    0  0.27715913537E+02 -0.24693844933E+02 -0.22486887884E+02  0.47787332177E+02  0.20000278727E+02 0.  0.
         12    1    1    2    0    0 -0.27715913537E+02  0.24693844933E+02  0.22486887884E+02  0.43400667823E+02  0.00000000000E+00 0. -1.
         11    1    3    3    0    0  0.34425255282E+01  0.56990436035E+00 -0.79128985481E+01  0.86481059595E+01  0.51100000000E-03 0. -1.
        -11    1    3    3    0    0  0.99157438831E+01 -0.82230753466E+01 -0.10200043261E+02  0.16431123750E+02  0.51100000000E-03 0.  1.
         12    1    3    3    0    0  0.14357644125E+02 -0.17040673947E+02 -0.43739460748E+01  0.22708102467E+02  0.00000000000E+00 0. -1.
</event>
<event>
 7    1  0.8300060E-011  0.4778727E+02  0.7816164E-02  0.1312668E+00
        -11   -1    0    0    0    0  0.00000000000E+00  0.00000000000E+00  0.45593999997E+02  0.45594000000E+02  0.51100000000E-03 0. -1.
         11   -1    0    0    0    0 -0.00000000000E+00 -0.00000000000E+00 -0.45593999997E+02  0.45594000000E+02  0.51100000000E-03 0.  1.
    9900012    2    1    2    0    0 -0.25356485829E+02  0.11344089706E+02  0.33346424581E+02  0.47787265246E+02  0.19999973564E+02 0.  0.
        -12    1    1    2    0    0  0.25356485829E+02 -0.11344089706E+02 -0.33346424581E+02  0.43400734754E+02  0.00000000000E+00 0.  1.
         11    1    3    3    0    0 -0.94399345655E+01  0.94872059529E+01  0.99247471767E+01  0.16661934107E+02  0.51100000000E-03 0. -1.
        -11    1    3    3    0    0 -0.11526022921E+02 -0.23957864415E+01  0.72226044372E+01  0.13811408768E+02  0.51100000000E-03 0.  1.
        -12    1    3    3    0    0 -0.43905283426E+01  0.42526701946E+01  0.16199072967E+02  0.17313922372E+02  0.00000000000E+00 0.  1.
</event>
<event>
 7    1  0.8300060E-011  0.4778728E+02  0.7816164E-02  0.1312668E+00
        -11   -1    0    0    0    0  0.00000000000E+00  0.00000000000E+00  0.45593999997E+02  0.45594000000E+02  0.51100000000E-03 0. -1.
         11   -1    0    0    0    0 -0.00000000000E+00 -0.00000000000E+00 -0.45593999997E+02  0.45594000000E+02  0.51100000000E-03 0.  1.
    9900012    2    1    2    0    0  0.46982951648E+01  0.20029772142E+02 -0.38214611327E+02  0.47787282629E+02  0.20000052816E+02 0.  0.
         12    1    1    2    0    0 -0.46982951648E+01 -0.20029772142E+02  0.38214611327E+02  0.43400717371E+02  0.00000000000E+00 0. -1.
         11    1    3    3    0    0  0.14798842714E+01  0.31947905520E+01 -0.81007341933E+00  0.36128885028E+01  0.51100000000E-03 0. -1.
        -11    1    3    3    0    0  0.24253461759E+01 -0.27009617350E+01 -0.35375416748E+01  0.50686980310E+01  0.51100000000E-03 0.  1.
        -12    1    3    3    0    0  0.79306471748E+00  0.19535943325E+02 -0.33866996232E+02  0.39105696095E+02  0.00000000000E+00 0.  1.
</event>
<event>
 7    1  0.8300060E-011  0.4778727E+02  0.7816164E-02  0.1312668E+00
        -11   -1    0    0    0    0  0.00000000000E+00  0.00000000000E+00  0.45593999997E+02  0.45594000000E+02  0.51100000000E-03 0. -1.
         11   -1    0    0    0    0 -0.00000000000E+00 -0.00000000000E+00 -0.45593999997E+02  0.45594000000E+02  0.51100000000E-03 0.  1.
    9900012    2    1    2    0    0  0.10660286599E+02  0.18189605181E+02  0.37935735258E+02  0.47787268940E+02  0.19999990405E+02 0.  0.
        -12    1    1    2    0    0 -0.10660286599E+02 -0.18189605181E+02 -0.37935735258E+02  0.43400731060E+02  0.00000000000E+00 0.  1.
         11    1    3    3    0    0  0.10441188339E+02  0.57477542932E+01  0.13196220573E+02  0.17781882100E+02  0.51100000000E-03 0. -1.
        -11    1    3    3    0    0 -0.13035771926E+01  0.14151254277E+02  0.23328511890E+02  0.27316236534E+02  0.51100000000E-03 0.  1.
        -12    1    3    3    0    0  0.15226754524E+01 -0.17094033895E+01  0.14110027948E+01  0.26891503060E+01  0.00000000000E+00 0.  1.
</event>
<event>
 7    1  0.8300060E-011  0.4778727E+02  0.7816164E-02  0.1312668E+00
        -11   -1    0    0    0    0  0.00000000000E+00  0.00000000000E+00  0.45593999997E+02  0.45594000000E+02  0.51100000000E-03 0. -1.
         11   -1    0    0    0    0 -0.00000000000E+00 -0.00000000000E+00 -0.45593999997E+02  0.45594000000E+02  0.51100000000E-03 0.  1.
    9900012    2    1    2    0    0  0.21942229171E+02 -0.34564075735E+02 -0.14404397227E+02  0.47787269455E+02  0.19999992751E+02 0.  0.
         12    1    1    2    0    0 -0.21942229171E+02  0.34564075735E+02  0.14404397227E+02  0.43400730545E+02  0.00000000000E+00 0. -1.
         11    1    3    3    0    0 -0.75538060580E+00 -0.90920939011E+01  0.15540409887E+01  0.92548265798E+01  0.51100000000E-03 0. -1.
        -11    1    3    3    0    0  0.59226975059E+01 -0.11707088666E+02 -0.82808420515E+01  0.15514722560E+02  0.51100000000E-03 0.  1.
         12    1    3    3    0    0  0.16774912271E+02 -0.13764893168E+02 -0.76775961643E+01  0.23017720315E+02  0.00000000000E+00 0. -1.
</event>
<event>
 7    1  0.8300060E-011  0.4778727E+02  0.7816164E-02  0.1312668E+00
        -11   -1    0    0    0    0  0.00000000000E+00  0.00000000000E+00  0.45593999997E+02  0.45594000000E+02  0.51100000000E-03 0. -1.
         11   -1    0    0    0    0 -0.00000000000E+00 -0.00000000000E+00 -0.45593999997E+02  0.45594000000E+02  0.51100000000E-03 0.  1.
    9900012    2    1    2    0    0  0.27793404966E+02 -0.58888101784E+01  0.32809628465E+02  0.47787272299E+02  0.20000005721E+02 0.  0.
        -12    1    1    2    0    0 -0.27793404966E+02  0.58888101784E+01 -0.32809628465E+02  0.43400727701E+02  0.00000000000E+00 0.  1.
         11    1    3    3    0    0  0.17165429743E+02 -0.11015565187E+01  0.12441279608E+02  0.21228538423E+02  0.51100000000E-03 0. -1.
        -11    1    3    3    0    0  0.95266346282E+01 -0.82428726466E+01  0.18745600136E+02  0.22585376719E+02  0.51100000000E-03 0.  1.
        -12    1    3    3    0    0  0.11013405950E+01  0.34556189869E+01  0.16227487205E+01  0.39733571572E+01  0.00000000000E+00 0.  1.
</event>
<event>
 7    1  0.8300060E-011  0.4778727E+02  0.7816164E-02  0.1312668E+00
        -11   -1    0    0    0    0  0.00000000000E+00  0.00000000000E+00  0.45593999997E+02  0.45594000000E+02  0.51100000000E-03 0. -1.
         11   -1    0    0    0    0 -0.00000000000E+00 -0.00000000000E+00 -0.45593999997E+02  0.45594000000E+02  0.51100000000E-03 0.  1.
    9900012    2    1    2    0    0  0.21572976226E+02  0.82508987421E+01  0.36744421623E+02  0.47787272428E+02  0.20000006310E+02 0.  0.
        -12    1    1    2    0    0 -0.21572976226E+02 -0.82508987421E+01 -0.36744421623E+02  0.43400727572E+02  0.00000000000E+00 0.  1.
         11    1    3    3    0    0  0.60821628215E+01 -0.32071560947E+01  0.57471275847E+01  0.89614747971E+01  0.51100000000E-03 0. -1.
        -11    1    3    3    0    0  0.11038404213E+02  0.99321818881E+01  0.30708640020E+02  0.34110338268E+02  0.51100000000E-03 0.  1.
        -12    1    3    3    0    0  0.44524091916E+01  0.15258729487E+01  0.28865401913E+00  0.47154593634E+01  0.00000000000E+00 0.  1.
</event>
<event>
 7    1  0.8300060E-011  0.4778727E+02  0.7816164E-02  0.1312668E+00
        -11   -1    0    0    0    0  0.00000000000E+00  0.00000000000E+00  0.45593999997E+02  0.45594000000E+02  0.51100000000E-03 0. -1.
         11   -1    0    0    0    0 -0.00000000000E+00 -0.00000000000E+00 -0.45593999997E+02  0.45594000000E+02  0.51100000000E-03 0.  1.
    9900012    2    1    2    0    0  0.19192805596E+02 -0.38923751586E+02  0.44878166353E+00  0.47787266951E+02  0.19999981338E+02 0.  0.
         12    1    1    2    0    0 -0.19192805596E+02  0.38923751586E+02 -0.44878166353E+00  0.43400733049E+02  0.00000000000E+00 0. -1.
         11    1    3    3    0    0  0.43024413807E+01 -0.18245809368E+02  0.96096050223E+00  0.18770828609E+02  0.51100000000E-03 0. -1.
        -11    1    3    3    0    0  0.62215958793E+01  0.20944295600E+00  0.11892434972E+01  0.63376984776E+01  0.51100000000E-03 0.  1.
        -12    1    3    3    0    0  0.86687683364E+01 -0.20887385174E+02 -0.17014223359E+01  0.22678739865E+02  0.00000000000E+00 0.  1.
</event>
<event>
 7    1  0.8300060E-011  0.4778728E+02  0.7816164E-02  0.1312668E+00
        -11   -1    0    0    0    0  0.00000000000E+00  0.00000000000E+00  0.45593999997E+02  0.45594000000E+02  0.51100000000E-03 0. -1.
         11   -1    0    0    0    0 -0.00000000000E+00 -0.00000000000E+00 -0.45593999997E+02  0.45594000000E+02  0.51100000000E-03 0.  1.
    9900012    2    1    2    0    0 -0.28464370797E+01 -0.14591893582E+02 -0.40774954997E+02  0.47787279760E+02  0.20000039739E+02 0.  0.
         12    1    1    2    0    0  0.28464370797E+01  0.14591893582E+02  0.40774954997E+02  0.43400720240E+02  0.00000000000E+00 0. -1.
         11    1    3    3    0    0 -0.25676524036E+01 -0.38457516133E+01 -0.34199537586E+01  0.57514109842E+01  0.51100000000E-03 0. -1.
        -11    1    3    3    0    0 -0.43590943569E+01 -0.11669701631E+02 -0.35180583205E+02  0.37321000451E+02  0.51100000000E-03 0.  1.
        -12    1    3    3    0    0  0.40803096808E+01  0.92355966262E+00 -0.21744180332E+01  0.47148683253E+01  0.00000000000E+00 0.  1.
</event>
<event>
 7    1  0.8300060E-011  0.4778727E+02  0.7816164E-02  0.1312668E+00
        -11   -1    0    0    0    0  0.00000000000E+00  0.00000000000E+00  0.45593999997E+02  0.45594000000E+02  0.51100000000E-03 0. -1.
         11   -1    0    0    0    0 -0.00000000000E+00 -0.00000000000E+00 -0.45593999997E+02  0.45594000000E+02  0.51100000000E-03 0.  1.
    9900012    2    1    2    0    0  0.29890595997E+02  0.30635673100E+02 -0.71854787824E+01  0.47787270736E+02  0.19999998593E+02 0.  0.
         12    1    1    2    0    0 -0.29890595997E+02 -0.30635673100E+02  0.71854787824E+01  0.43400729264E+02  0.00000000000E+00 0. -1.
         11    1    3    3    0    0  0.25666855643E+02  0.23894478318E+02 -0.31884471225E+01  0.35212210496E+02  0.51100000000E-03 0. -1.
        -11    1    3    3    0    0 -0.20327638769E+01  0.46427650369E+01 -0.46320845469E+00  0.50893966735E+01  0.51100000000E-03 0.  1.
        -12    1    3    3    0    0  0.62565042309E+01  0.20984297449E+01 -0.35338232052E+01  0.74856635665E+01  0.00000000000E+00 0.  1.
</event>
<event>
 7    1  0.8300060E-011  0.4778727E+02  0.7816164E-02  0.1312668E+00
        -11   -1    0    0    0    0  0.00000000000E+00  0.00000000000E+00  0.45593999997E+02  0.45594000000E+02  0.51100000000E-03 0. -1.
         11   -1    0    0    0    0 -0.00000000000E+00 -0.00000000000E+00 -0.45593999997E+02  0.45594000000E+02  0.51100000000E-03 0.  1.
    9900012    2    1    2    0    0 -0.12567811168E+02 -0.11753455850E+01  0.41524594530E+02  0.47787271139E+02  0.20000000430E+02 0.  0.
        -12    1    1    2    0    0  0.12567811168E+02  0.11753455850E+01 -0.41524594530E+02  0.43400728861E+02  0.00000000000E+00 0.  1.
         11    1    3    3    0    0 -0.53097244876E+01  0.51146737462E+01  0.13094255947E+02  0.15027062279E+02  0.51100000000E-03 0.  1.
        -11    1    3    3    0    0  0.35252458059E+01 -0.37128878880E+01  0.76113024616E+01  0.91730485600E+01  0.51100000000E-03 0. -1.
        -12    1    3    3    0    0 -0.10783332487E+02 -0.25771314432E+01  0.20819036121E+02  0.23587160300E+02  0.00000000000E+00 0.  1.
</event>
<event>
 7    1  0.8300060E-011  0.4778727E+02  0.7816164E-02  0.1312668E+00
        -11   -1    0    0    0    0  0.00000000000E+00  0.00000000000E+00  0.45593999997E+02  0.45594000000E+02  0.51100000000E-03 0. -1.
         11   -1    0    0    0    0 -0.00000000000E+00 -0.00000000000E+00 -0.45593999997E+02  0.45594000000E+02  0.51100000000E-03 0.  1.
    9900012    2    1    2    0    0 -0.91555307339E+01  0.11563310728E+02  0.40817754622E+02  0.47787274310E+02  0.20000014890E+02 0.  0.
        -12    1    1    2    0    0  0.91555307339E+01 -0.11563310728E+02 -0.40817754622E+02  0.43400725690E+02  0.00000000000E+00 0.  1.
         11    1    3    3    0    0 -0.34584532275E+01  0.14204168115E+02  0.20757431502E+02  0.25388782039E+02  0.51100000000E-03 0. -1.
        -11    1    3    3    0    0 -0.70774495834E+01 -0.18750179148E+01  0.19308448884E+02  0.20649992333E+02  0.51100000000E-03 0.  1.
         12    1    3    3    0    0  0.13803720771E+01 -0.76583947226E+00  0.75187423596E+00  0.17484999386E+01  0.00000000000E+00 0. -1.
</event>
<event>
 7    1  0.8300060E-011  0.4778727E+02  0.7816164E-02  0.1312668E+00
        -11   -1    0    0    0    0  0.00000000000E+00  0.00000000000E+00  0.45593999997E+02  0.45594000000E+02  0.51100000000E-03 0. -1.
         11   -1    0    0    0    0 -0.00000000000E+00 -0.00000000000E+00 -0.45593999997E+02  0.45594000000E+02  0.51100000000E-03 0.  1.
    9900012    2    1    2    0    0  0.35028131858E+02  0.69683647968E+01 -0.24659588900E+02  0.47787268968E+02  0.19999990532E+02 0.  0.
         12    1    1    2    0    0 -0.35028131858E+02 -0.69683647968E+01  0.24659588900E+02  0.43400731032E+02  0.00000000000E+00 0. -1.
         11    1    3    3    0    0  0.26855248025E+02 -0.20413564478E+01 -0.16813606862E+02  0.31750100136E+02  0.51100000000E-03 0. -1.
        -11    1    3    3    0    0  0.10102383831E+01  0.27432288444E+01 -0.55103907675E+01  0.62378115358E+01  0.51100000000E-03 0.  1.
         12    1    3    3    0    0  0.71626454494E+01  0.62664924002E+01 -0.23355912706E+01  0.97993572963E+01  0.00000000000E+00 0. -1.
</event>
<event>
 7    1  0.8300060E-011  0.4778727E+02  0.7816164E-02  0.1312668E+00
        -11   -1    0    0    0    0  0.00000000000E+00  0.00000000000E+00  0.45593999997E+02  0.45594000000E+02  0.51100000000E-03 0. -1.
         11   -1    0    0    0    0 -0.00000000000E+00 -0.00000000000E+00 -0.45593999997E+02  0.45594000000E+02  0.51100000000E-03 0.  1.
    9900012    2    1    2    0    0  0.28338689331E+02  0.89543611758E+00 -0.32859402785E+02  0.47787268783E+02  0.19999989687E+02 0.  0.
         12    1    1    2    0    0 -0.28338689331E+02 -0.89543611758E+00  0.32859402785E+02  0.43400731217E+02  0.00000000000E+00 0. -1.
         11    1    3    3    0    0  0.33278507018E+01 -0.59982723160E+01 -0.77943674905E+01  0.10382968068E+02  0.51100000000E-03 0. -1.
        -11    1    3    3    0    0  0.14610419193E+02  0.73596943845E+01 -0.10278426350E+02  0.19320338996E+02  0.51100000000E-03 0.  1.
        -12    1    3    3    0    0  0.10400419436E+02 -0.46598595092E+00 -0.14786608945E+02  0.18083961719E+02  0.00000000000E+00 0.  1.
</event>
<event>
 7    1  0.8300060E-011  0.4778727E+02  0.7816164E-02  0.1312668E+00
        -11   -1    0    0    0    0  0.00000000000E+00  0.00000000000E+00  0.45593999997E+02  0.45594000000E+02  0.51100000000E-03 0. -1.
         11   -1    0    0    0    0 -0.00000000000E+00 -0.00000000000E+00 -0.45593999997E+02  0.45594000000E+02  0.51100000000E-03 0.  1.
    9900012    2    1    2    0    0 -0.42664722956E+02 -0.17129962170E+01  0.77724251782E+01  0.47787268046E+02  0.19999986330E+02 0.  0.
        -12    1    1    2    0    0  0.42664722956E+02  0.17129962170E+01 -0.77724251782E+01  0.43400731954E+02  0.00000000000E+00 0.  1.
         11    1    3    3    0    0 -0.29193132573E+02  0.99599440033E+00  0.11453006121E+02  0.31375186752E+02  0.51100000000E-03 0. -1.
        -11    1    3    3    0    0 -0.73224769562E+01  0.21301928663E+01 -0.39382974122E+01  0.85829235806E+01  0.51100000000E-03 0.  1.
         12    1    3    3    0    0 -0.61491134269E+01 -0.48391834836E+01  0.25771646985E+00  0.78291577135E+01  0.00000000000E+00 0. -1.
</event>
<event>
 7    1  0.8300060E-011  0.4778728E+02  0.7816164E-02  0.1312668E+00
        -11   -1    0    0    0    0  0.00000000000E+00  0.00000000000E+00  0.45593999997E+02  0.45594000000E+02  0.51100000000E-03 0. -1.
         11   -1    0    0    0    0 -0.00000000000E+00 -0.00000000000E+00 -0.45593999997E+02  0.45594000000E+02  0.51100000000E-03 0.  1.
    9900012    2    1    2    0    0  0.16337570562E+02  0.13235641007E+02 -0.37967403975E+02  0.47787283770E+02  0.20000058020E+02 0.  0.
         12    1    1    2    0    0 -0.16337570562E+02 -0.13235641007E+02  0.37967403975E+02  0.43400716230E+02  0.00000000000E+00 0. -1.
         11    1    3    3    0    0  0.16940825402E+02  0.98441940487E+01 -0.20303887397E+02  0.28216086997E+02  0.51100000000E-03 0. -1.
        -11    1    3    3    0    0  0.21311835853E+01  0.68431535316E+00 -0.14258483302E+02  0.14433106987E+02  0.51100000000E-03 0.  1.
         12    1    3    3    0    0 -0.27344384254E+01  0.27071316053E+01 -0.34050332761E+01  0.51380897853E+01  0.00000000000E+00 0. -1.
</event>
<event>
 7    1  0.8300060E-011  0.4778727E+02  0.7816164E-02  0.1312668E+00
        -11   -1    0    0    0    0  0.00000000000E+00  0.00000000000E+00  0.45593999997E+02  0.45594000000E+02  0.51100000000E-03 0. -1.
         11   -1    0    0    0    0 -0.00000000000E+00 -0.00000000000E+00 -0.45593999997E+02  0.45594000000E+02  0.51100000000E-03 0.  1.
    9900012    2    1    2    0    0 -0.39051624376E+02 -0.41539693358E+00 -0.18932012577E+02  0.47787273955E+02  0.20000013269E+02 0.  0.
         12    1    1    2    0    0  0.39051624376E+02  0.41539693358E+00  0.18932012577E+02  0.43400726045E+02  0.00000000000E+00 0. -1.
         11    1    3    3    0    0 -0.97716542883E+00  0.19954548229E+01 -0.82830682032E+00  0.23712411677E+01  0.51100000000E-03 0. -1.
        -11    1    3    3    0    0 -0.33418372069E+02 -0.80080016141E+01 -0.15246999911E+02  0.37595035419E+02  0.51100000000E-03 0.  1.
        -12    1    3    3    0    0 -0.46560868789E+01  0.55971498576E+01 -0.28567058451E+01  0.78209973685E+01  0.00000000000E+00 0.  1.
</event>
<event>
 7    1  0.8300060E-011  0.4778727E+02  0.7816164E-02  0.1312668E+00
        -11   -1    0    0    0    0  0.00000000000E+00  0.00000000000E+00  0.45593999997E+02  0.45594000000E+02  0.51100000000E-03 0. -1.
         11   -1    0    0    0    0 -0.00000000000E+00 -0.00000000000E+00 -0.45593999997E+02  0.45594000000E+02  0.51100000000E-03 0.  1.
    9900012    2    1    2    0    0  0.30395262862E+02  0.30372200123E+02  0.61057771044E+01  0.47787273523E+02  0.20000011299E+02 0.  0.
        -12    1    1    2    0    0 -0.30395262862E+02 -0.30372200123E+02 -0.61057771044E+01  0.43400726477E+02  0.00000000000E+00 0.  1.
         11    1    3    3    0    0  0.15260498353E+02  0.14267338577E+02 -0.35844259940E+01  0.21196411725E+02  0.51100000000E-03 0. -1.
        -11    1    3    3    0    0  0.11629534918E+02  0.51048584212E+01  0.77655351964E+01  0.14886544228E+02  0.51100000000E-03 0.  1.
        -12    1    3    3    0    0  0.35052295902E+01  0.11000003125E+02  0.19246679020E+01  0.11704317569E+02  0.00000000000E+00 0.  1.
</event>
<event>
 7    1  0.8300060E-011  0.4778728E+02  0.7816164E-02  0.1312668E+00
        -11   -1    0    0    0    0  0.00000000000E+00  0.00000000000E+00  0.45593999997E+02  0.45594000000E+02  0.51100000000E-03 0. -1.
         11   -1    0    0    0    0 -0.00000000000E+00 -0.00000000000E+00 -0.45593999997E+02  0.45594000000E+02  0.51100000000E-03 0.  1.
    9900012    2    1    2    0    0  0.18146770428E+02  0.10943024930E+02  0.37875686065E+02  0.47787278042E+02  0.20000031905E+02 0.  0.
        -12    1    1    2    0    0 -0.18146770428E+02 -0.10943024930E+02 -0.37875686065E+02  0.43400721958E+02  0.00000000000E+00 0.  1.
         11    1    3    3    0    0  0.58652613522E+01  0.94592213037E+01  0.13409309119E+02  0.17426638509E+02  0.51100000000E-03 0. -1.
        -11    1    3    3    0    0 -0.12194862804E+00 -0.38243451062E+01  0.24633983708E+01  0.45506943156E+01  0.51100000000E-03 0.  1.
        -12    1    3    3    0    0  0.12403457704E+02  0.53081487323E+01  0.22002978575E+02  0.25809945218E+02  0.00000000000E+00 0.  1.
</event>
<event>
 7    1  0.8300060E-011  0.4778728E+02  0.7816164E-02  0.1312668E+00
        -11   -1    0    0    0    0  0.00000000000E+00  0.00000000000E+00  0.45593999997E+02  0.45594000000E+02  0.51100000000E-03 0. -1.
         11   -1    0    0    0    0 -0.00000000000E+00 -0.00000000000E+00 -0.45593999997E+02  0.45594000000E+02  0.51100000000E-03 0.  1.
    9900012    2    1    2    0    0  0.12116552635E+02 -0.23749460832E+02  0.34245801935E+02  0.47787277797E+02  0.20000030786E+02 0.  0.
        -12    1    1    2    0    0 -0.12116552635E+02  0.23749460832E+02 -0.34245801935E+02  0.43400722203E+02  0.00000000000E+00 0.  1.
         11    1    3    3    0    0  0.16819501091E+01 -0.19240386522E+01  0.17078379663E+02  0.17268524346E+02  0.51100000000E-03 0. -1.
        -11    1    3    3    0    0  0.17994356417E+01 -0.75493258705E+01  0.21055641987E+01  0.80413736752E+01  0.51100000000E-03 0.  1.
         12    1    3    3    0    0  0.86351668845E+01 -0.14276096309E+02  0.15061858073E+02  0.22477379775E+02  0.00000000000E+00 0. -1.
</event>
<event>
 7    1  0.8300060E-011  0.4778725E+02  0.7816164E-02  0.1312668E+00
        -11   -1    0    0    0    0  0.00000000000E+00  0.00000000000E+00  0.45593999997E+02  0.45594000000E+02  0.51100000000E-03 0. -1.
         11   -1    0    0    0    0 -0.00000000000E+00 -0.00000000000E+00 -0.45593999997E+02  0.45594000000E+02  0.51100000000E-03 0.  1.
    9900012    2    1    2    0    0 -0.34506723802E+01 -0.80942254891E+01 -0.42499429624E+02  0.47787249494E+02  0.19999901743E+02 0.  0.
         12    1    1    2    0    0  0.34506723802E+01  0.80942254891E+01  0.42499429624E+02  0.43400750506E+02  0.00000000000E+00 0. -1.
         11    1    3    3    0    0  0.70490533314E+00 -0.76527824911E+00 -0.45363237792E+01  0.46541138811E+01  0.51100000000E-03 0.  1.
        -11    1    3    3    0    0  0.39951731753E+01 -0.91475179237E+01 -0.10760210781E+02  0.14677214626E+02  0.51100000000E-03 0. -1.
        -12    1    3    3    0    0 -0.81507508887E+01  0.18185706837E+01 -0.27202895064E+02  0.28455920987E+02  0.00000000000E+00 0.  1.
</event>
<event>
 7    1  0.8300060E-011  0.4778727E+02  0.7816164E-02  0.1312668E+00
        -11   -1    0    0    0    0  0.00000000000E+00  0.00000000000E+00  0.45593999997E+02  0.45594000000E+02  0.51100000000E-03 0. -1.
         11   -1    0    0    0    0 -0.00000000000E+00 -0.00000000000E+00 -0.45593999997E+02  0.45594000000E+02  0.51100000000E-03 0.  1.
    9900012    2    1    2    0    0 -0.76481148553E+01  0.36555622798E+02 -0.22109180360E+02  0.47787273334E+02  0.20000010438E+02 0.  0.
         12    1    1    2    0    0  0.76481148553E+01 -0.36555622798E+02  0.22109180360E+02  0.43400726666E+02  0.00000000000E+00 0. -1.
         11    1    3    3    0    0 -0.31026994648E+01  0.24470196284E+02 -0.60700901697E+01  0.25402032302E+02  0.51100000000E-03 0.  1.
        -11    1    3    3    0    0 -0.29421021747E+01  0.10078268604E+02 -0.61492350314E+01  0.12167191746E+02  0.51100000000E-03 0. -1.
         12    1    3    3    0    0 -0.16033132158E+01  0.20071579098E+01 -0.98898551585E+01  0.10218049285E+02  0.00000000000E+00 0. -1.
</event>
<event>
 7    1  0.8300060E-011  0.4778727E+02  0.7816164E-02  0.1312668E+00
        -11   -1    0    0    0    0  0.00000000000E+00  0.00000000000E+00  0.45593999997E+02  0.45594000000E+02  0.51100000000E-03 0. -1.
         11   -1    0    0    0    0 -0.00000000000E+00 -0.00000000000E+00 -0.45593999997E+02  0.45594000000E+02  0.51100000000E-03 0.  1.
    9900012    2    1    2    0    0 -0.83136396258E+01  0.30225835876E+02 -0.30015091964E+02  0.47787268395E+02  0.19999987920E+02 0.  0.
         12    1    1    2    0    0  0.83136396258E+01 -0.30225835876E+02  0.30015091964E+02  0.43400731605E+02  0.00000000000E+00 0. -1.
         11    1    3    3    0    0 -0.22555791683E+01 -0.21625411936E+01 -0.29309430051E+01  0.42842325986E+01  0.51100000000E-03 0. -1.
        -11    1    3    3    0    0 -0.58874940893E+01  0.32907258208E+02 -0.26242256399E+02  0.42499485298E+02  0.51100000000E-03 0.  1.
        -12    1    3    3    0    0 -0.17056636818E+00 -0.51888113785E+00 -0.84189255984E+00  0.10035504987E+01  0.00000000000E+00 0.  1.
</event>
<event>
 7    1  0.8300060E-011  0.4778727E+02  0.7816164E-02  0.1312668E+00
        -11   -1    0    0    0    0  0.00000000000E+00  0.00000000000E+00  0.45593999997E+02  0.45594000000E+02  0.51100000000E-03 0. -1.
         11   -1    0    0    0    0 -0.00000000000E+00 -0.00000000000E+00 -0.45593999997E+02  0.45594000000E+02  0.51100000000E-03 0.  1.
    9900012    2    1    2    0    0 -0.39251288307E+01 -0.28506946579E+02  0.32489541761E+02  0.47787274621E+02  0.20000016307E+02 0.  0.
        -12    1    1    2    0    0  0.39251288307E+01  0.28506946579E+02 -0.32489541761E+02  0.43400725379E+02  0.00000000000E+00 0.  1.
         11    1    3    3    0    0 -0.72253808520E+01 -0.73004664739E+01  0.12606854445E+02  0.16261479590E+02  0.51100000000E-03 0. -1.
        -11    1    3    3    0    0  0.59200590167E+01 -0.84821598313E+01  0.13623437355E+02  0.17105326065E+02  0.51100000000E-03 0.  1.
        -12    1    3    3    0    0 -0.26198069954E+01 -0.12724320274E+02  0.62592499606E+01  0.14420468966E+02  0.00000000000E+00 0.  1.
</event>
<event>
 7    1  0.8300060E-011  0.4778727E+02  0.7816164E-02  0.1312668E+00
        -11   -1    0    0    0    0  0.00000000000E+00  0.00000000000E+00  0.45593999997E+02  0.45594000000E+02  0.51100000000E-03 0.  1.
         11   -1    0    0    0    0 -0.00000000000E+00 -0.00000000000E+00 -0.45593999997E+02  0.45594000000E+02  0.51100000000E-03 0. -1.
    9900012    2    1    2    0    0 -0.33843894292E+02 -0.24798831852E+02 -0.11100983863E+02  0.47787273223E+02  0.20000009933E+02 0.  0.
         12    1    1    2    0    0  0.33843894292E+02  0.24798831852E+02  0.11100983863E+02  0.43400726777E+02  0.00000000000E+00 0. -1.
         11    1    3    3    0    0 -0.11930915799E+01  0.12760591057E+01 -0.41420167491E+01  0.44953417412E+01  0.51100000000E-03 0. -1.
        -11    1    3    3    0    0 -0.42787702309E+01 -0.84509797450E+00  0.10569753298E+01  0.44876789529E+01  0.51100000000E-03 0.  1.
         12    1    3    3    0    0 -0.28372032481E+02 -0.25229792983E+02 -0.80159424437E+01  0.38804252529E+02  0.00000000000E+00 0. -1.
</event>
<event>
 7    1  0.8300060E-011  0.4778721E+02  0.7816164E-02  0.1312668E+00
        -11   -1    0    0    0    0  0.00000000000E+00  0.00000000000E+00  0.45593999997E+02  0.45594000000E+02  0.51100000000E-03 0. -1.
         11   -1    0    0    0    0 -0.00000000000E+00 -0.00000000000E+00 -0.45593999997E+02  0.45594000000E+02  0.51100000000E-03 0.  1.
    9900012    2    1    2    0    0  0.29734087124E+02  0.12374773862E+02 -0.29092570904E+02  0.47787209143E+02  0.19999717764E+02 0.  0.
         12    1    1    2    0    0 -0.29734087124E+02 -0.12374773862E+02  0.29092570904E+02  0.43400790857E+02  0.00000000000E+00 0. -1.
         11    1    3    3    0    0  0.13872436163E+02  0.36659099439E+01 -0.34381936547E+01  0.14754814695E+02  0.51100000000E-03 0. -1.
        -11    1    3    3    0    0  0.16987521550E+02  0.63900675511E+01 -0.23355596319E+02  0.29578585689E+02  0.51100000000E-03 0.  1.
         12    1    3    3    0    0 -0.11258705889E+01  0.23187963667E+01 -0.22987809301E+01  0.34538087582E+01  0.00000000000E+00 0. -1.
</event>
<event>
 7    1  0.8300060E-011  0.4778727E+02  0.7816164E-02  0.1312668E+00
        -11   -1    0    0    0    0  0.00000000000E+00  0.00000000000E+00  0.45593999997E+02  0.45594000000E+02  0.51100000000E-03 0.  1.
         11   -1    0    0    0    0 -0.00000000000E+00 -0.00000000000E+00 -0.45593999997E+02  0.45594000000E+02  0.51100000000E-03 0. -1.
    9900012    2    1    2    0    0  0.22474579869E+02 -0.16634913072E+02  0.33193312959E+02  0.47787273066E+02  0.20000009216E+02 0.  0.
        -12    1    1    2    0    0 -0.22474579869E+02  0.16634913072E+02 -0.33193312959E+02  0.43400726934E+02  0.00000000000E+00 0.  1.
         11    1    3    3    0    0 -0.89071152177E-01  0.38994419168E+00  0.95274039230E-01  0.41117824170E+00  0.51100000000E-03 0. -1.
        -11    1    3    3    0    0  0.48864903598E+01 -0.95143153044E+01  0.23682644980E+02  0.25985912669E+02  0.51100000000E-03 0.  1.
         12    1    3    3    0    0  0.17677160662E+02 -0.75105419594E+01  0.94153939402E+01  0.21390182155E+02  0.00000000000E+00 0. -1.
</event>
<event>
 7    1  0.8300060E-011  0.4778726E+02  0.7816164E-02  0.1312668E+00
        -11   -1    0    0    0    0  0.00000000000E+00  0.00000000000E+00  0.45593999997E+02  0.45594000000E+02  0.51100000000E-03 0. -1.
         11   -1    0    0    0    0 -0.00000000000E+00 -0.00000000000E+00 -0.45593999997E+02  0.45594000000E+02  0.51100000000E-03 0.  1.
    9900012    2    1    2    0    0  0.21630026995E+01  0.46718994542E+01  0.43094298687E+02  0.47787264931E+02  0.19999972126E+02 0.  0.
        -12    1    1    2    0    0 -0.21630026995E+01 -0.46718994542E+01 -0.43094298687E+02  0.43400735069E+02  0.00000000000E+00 0.  1.
         11    1    3    3    0    0  0.81799890231E+00 -0.19692905240E+01  0.12935863420E+01  0.24941117171E+01  0.51100000000E-03 0. -1.
        -11    1    3    3    0    0 -0.11469466776E+01 -0.19881818114E+01  0.31673961462E+02  0.31757017942E+02  0.51100000000E-03 0.  1.
        -12    1    3    3    0    0  0.24919504748E+01  0.86293717897E+01  0.10126750883E+02  0.13536135272E+02  0.00000000000E+00 0.  1.
</event>
<event>
 7    1  0.8300060E-011  0.4778727E+02  0.7816164E-02  0.1312668E+00
        -11   -1    0    0    0    0  0.00000000000E+00  0.00000000000E+00  0.45593999997E+02  0.45594000000E+02  0.51100000000E-03 0. -1.
         11   -1    0    0    0    0 -0.00000000000E+00 -0.00000000000E+00 -0.45593999997E+02  0.45594000000E+02  0.51100000000E-03 0.  1.
    9900012    2    1    2    0    0  0.67366114590E+01  0.38214049098E+02  0.19440361930E+02  0.47787272421E+02  0.20000006275E+02 0.  0.
        -12    1    1    2    0    0 -0.67366114590E+01 -0.38214049098E+02 -0.19440361930E+02  0.43400727579E+02  0.00000000000E+00 0.  1.
         11    1    3    3    0    0  0.68955590286E+01  0.23452865513E+02  0.14409071962E+02  0.28376169406E+02  0.51100000000E-03 0. -1.
        -11    1    3    3    0    0 -0.53923540136E+01  0.10743471561E+02  0.21496731369E+01  0.12211501048E+02  0.51100000000E-03 0.  1.
        -12    1    3    3    0    0  0.52334064439E+01  0.40177120247E+01  0.28816168315E+01  0.71996019671E+01  0.00000000000E+00 0.  1.
</event>
<event>
 7    1  0.8300060E-011  0.4778727E+02  0.7816164E-02  0.1312668E+00
        -11   -1    0    0    0    0  0.00000000000E+00  0.00000000000E+00  0.45593999997E+02  0.45594000000E+02  0.51100000000E-03 0. -1.
         11   -1    0    0    0    0 -0.00000000000E+00 -0.00000000000E+00 -0.45593999997E+02  0.45594000000E+02  0.51100000000E-03 0.  1.
    9900012    2    1    2    0    0 -0.13702911572E+02 -0.26835273405E+02 -0.31236546244E+02  0.47787268376E+02  0.19999987833E+02 0.  0.
         12    1    1    2    0    0  0.13702911572E+02  0.26835273405E+02  0.31236546244E+02  0.43400731624E+02  0.00000000000E+00 0. -1.
         11    1    3    3    0    0 -0.61305888679E+01 -0.13220641268E+02 -0.20155505922E+02  0.24871949956E+02  0.51100000000E-03 0.  1.
        -11    1    3    3    0    0 -0.21917240635E+01 -0.10573523082E+02 -0.68396003685E+00  0.10819928204E+02  0.51100000000E-03 0. -1.
         12    1    3    3    0    0 -0.53805986401E+01 -0.30411090548E+01 -0.10397080285E+02  0.12095390216E+02  0.00000000000E+00 0. -1.
</event>
<event>
 7    1  0.8300060E-011  0.4778729E+02  0.7816164E-02  0.1312668E+00
        -11   -1    0    0    0    0  0.00000000000E+00  0.00000000000E+00  0.45593999997E+02  0.45594000000E+02  0.51100000000E-03 0. -1.
         11   -1    0    0    0    0 -0.00000000000E+00 -0.00000000000E+00 -0.45593999997E+02  0.45594000000E+02  0.51100000000E-03 0.  1.
    9900012    2    1    2    0    0  0.13433857265E+02 -0.22999785655E+02  0.34266061911E+02  0.47787289636E+02  0.20000084767E+02 0.  0.
        -12    1    1    2    0    0 -0.13433857265E+02  0.22999785655E+02 -0.34266061911E+02  0.43400710364E+02  0.00000000000E+00 0.  1.
         11    1    3    3    0    0  0.17037333090E+02 -0.13689137083E+02  0.21590086845E+02  0.30721247422E+02  0.51100000000E-03 0. -1.
        -11    1    3    3    0    0 -0.33382749735E+01 -0.36492365083E+01  0.28108322200E+01  0.56887419454E+01  0.51100000000E-03 0.  1.
         12    1    3    3    0    0 -0.26520085098E+00 -0.56614120635E+01  0.98651428458E+01  0.11377300269E+02  0.00000000000E+00 0. -1.
</event>
<event>
 7    1  0.8300060E-011  0.4778727E+02  0.7816164E-02  0.1312668E+00
        -11   -1    0    0    0    0  0.00000000000E+00  0.00000000000E+00  0.45593999997E+02  0.45594000000E+02  0.51100000000E-03 0. -1.
         11   -1    0    0    0    0 -0.00000000000E+00 -0.00000000000E+00 -0.45593999997E+02  0.45594000000E+02  0.51100000000E-03 0.  1.
    9900012    2    1    2    0    0  0.25512296247E+02 -0.14937353513E+02  0.31774539892E+02  0.47787272182E+02  0.20000005188E+02 0.  0.
        -12    1    1    2    0    0 -0.25512296247E+02  0.14937353513E+02 -0.31774539892E+02  0.43400727818E+02  0.00000000000E+00 0.  1.
         11    1    3    3    0    0  0.13359709974E+02 -0.25808058309E+01  0.22575798191E+02  0.26359231277E+02  0.51100000000E-03 0. -1.
        -11    1    3    3    0    0  0.29547036370E+01 -0.44791833165E+01 -0.11624405447E+01  0.54904121017E+01  0.51100000000E-03 0.  1.
         12    1    3    3    0    0  0.91978826358E+01 -0.78773643656E+01  0.10361182246E+02  0.15937628803E+02  0.00000000000E+00 0. -1.
</event>
<event>
 7    1  0.8300060E-011  0.4778725E+02  0.7816164E-02  0.1312668E+00
        -11   -1    0    0    0    0  0.00000000000E+00  0.00000000000E+00  0.45593999997E+02  0.45594000000E+02  0.51100000000E-03 0. -1.
         11   -1    0    0    0    0 -0.00000000000E+00 -0.00000000000E+00 -0.45593999997E+02  0.45594000000E+02  0.51100000000E-03 0.  1.
    9900012    2    1    2    0    0 -0.24247290835E+02  0.48074312733E+00 -0.35992544258E+02  0.47787245756E+02  0.19999884699E+02 0.  0.
         12    1    1    2    0    0  0.24247290835E+02 -0.48074312733E+00  0.35992544258E+02  0.43400754244E+02  0.00000000000E+00 0. -1.
         11    1    3    3    0    0 -0.16057283336E+02 -0.84342060637E+01 -0.17285408673E+02  0.25055089968E+02  0.51100000000E-03 0. -1.
        -11    1    3    3    0    0 -0.65187787063E+01  0.53831300442E+01 -0.15586461272E+02  0.17731619783E+02  0.51100000000E-03 0.  1.
         12    1    3    3    0    0 -0.16712287929E+01  0.35318191468E+01 -0.31206743132E+01  0.50005360046E+01  0.00000000000E+00 0. -1.
</event>
<event>
 7    1  0.8300060E-011  0.4778727E+02  0.7816164E-02  0.1312668E+00
        -11   -1    0    0    0    0  0.00000000000E+00  0.00000000000E+00  0.45593999997E+02  0.45594000000E+02  0.51100000000E-03 0. -1.
         11   -1    0    0    0    0 -0.00000000000E+00 -0.00000000000E+00 -0.45593999997E+02  0.45594000000E+02  0.51100000000E-03 0.  1.
    9900012    2    1    2    0    0  0.13258693094E+01  0.59774078787E+00  0.43376351765E+02  0.47787272864E+02  0.20000008296E+02 0.  0.
        -12    1    1    2    0    0 -0.13258693094E+01 -0.59774078787E+00 -0.43376351765E+02  0.43400727136E+02  0.00000000000E+00 0.  1.
         11    1    3    3    0    0 -0.23339905248E+01 -0.15551259347E+01  0.20403850018E+02  0.20595704024E+02  0.51100000000E-03 0. -1.
        -11    1    3    3    0    0 -0.19539890402E+01 -0.74049829557E+00 -0.10599933672E+01  0.23430742828E+01  0.51100000000E-03 0.  1.
        -12    1    3    3    0    0  0.56138488745E+01  0.28933650182E+01  0.24032495114E+02  0.24848494557E+02  0.00000000000E+00 0.  1.
</event>
<event>
 7    1  0.9965977E-011  0.4778727E+02  0.7816164E-02  0.1312668E+00
        -11   -1    0    0    0    0  0.00000000000E+00  0.00000000000E+00  0.45593999997E+02  0.45594000000E+02  0.51100000000E-03 0.  1.
         11   -1    0    0    0    0 -0.00000000000E+00 -0.00000000000E+00 -0.45593999997E+02  0.45594000000E+02  0.51100000000E-03 0. -1.
    9900012    2    1    2    0    0  0.12235736311E+00  0.29370746644E+02 -0.31952584482E+02  0.47787269766E+02  0.19999994171E+02 0.  0.
         12    1    1    2    0    0 -0.12235736311E+00 -0.29370746644E+02  0.31952584482E+02  0.43400730234E+02  0.00000000000E+00 0. -1.
         11    1    3    3    0    0 -0.79652629948E+00  0.91711103335E+00 -0.11564400543E+02  0.11628022488E+02  0.51100000000E-03 0. -1.
        -11    1    3    3    0    0 -0.13712472231E+00  0.18036507944E+02 -0.17869563424E+02  0.25390071273E+02  0.51100000000E-03 0.  1.
         12    1    3    3    0    0  0.10560083849E+01  0.10417127667E+02 -0.25186205146E+01  0.10769176005E+02  0.00000000000E+00 0. -1.
</event>
<event>
 7    1  0.8300060E-011  0.4778727E+02  0.7816164E-02  0.1312668E+00
        -11   -1    0    0    0    0  0.00000000000E+00  0.00000000000E+00  0.45593999997E+02  0.45594000000E+02  0.51100000000E-03 0. -1.
         11   -1    0    0    0    0 -0.00000000000E+00 -0.00000000000E+00 -0.45593999997E+02  0.45594000000E+02  0.51100000000E-03 0.  1.
    9900012    2    1    2    0    0 -0.95686102507E+01  0.30038342125E+02  0.29828891611E+02  0.47787273342E+02  0.20000010473E+02 0.  0.
        -12    1    1    2    0    0  0.95686102507E+01 -0.30038342125E+02 -0.29828891611E+02  0.43400726658E+02  0.00000000000E+00 0.  1.
         11    1    3    3    0    0 -0.11341890709E+02  0.10979960804E+02  0.14704340468E+02  0.21573494222E+02  0.51100000000E-03 0. -1.
        -11    1    3    3    0    0  0.36998041601E+01  0.14189888953E+02  0.14999017989E+02  0.20976463959E+02  0.51100000000E-03 0.  1.
         12    1    3    3    0    0 -0.19265237018E+01  0.48684923682E+01  0.12553315359E+00  0.52373151600E+01  0.00000000000E+00 0. -1.
</event>
<event>
 7    1  0.8300060E-011  0.4778727E+02  0.7816164E-02  0.1312668E+00
        -11   -1    0    0    0    0  0.00000000000E+00  0.00000000000E+00  0.45593999997E+02  0.45594000000E+02  0.51100000000E-03 0. -1.
         11   -1    0    0    0    0 -0.00000000000E+00 -0.00000000000E+00 -0.45593999997E+02  0.45594000000E+02  0.51100000000E-03 0.  1.
    9900012    2    1    2    0    0  0.34050620422E+01  0.10668924924E+02 -0.41930930913E+02  0.47787269893E+02  0.19999994751E+02 0.  0.
         12    1    1    2    0    0 -0.34050620422E+01 -0.10668924924E+02  0.41930930913E+02  0.43400730107E+02  0.00000000000E+00 0. -1.
         11    1    3    3    0    0 -0.28040898578E+01  0.29681090228E+01 -0.11052300068E+02  0.11782441520E+02  0.51100000000E-03 0. -1.
        -11    1    3    3    0    0 -0.51706636233E+01  0.20268715037E+01 -0.68455612309E+01  0.88150824854E+01  0.51100000000E-03 0.  1.
        -12    1    3    3    0    0  0.11379815523E+02  0.56739443975E+01 -0.24033069614E+02  0.27189745888E+02  0.00000000000E+00 0.  1.
</event>
<event>
 7    1  0.8300060E-011  0.4778727E+02  0.7816164E-02  0.1312668E+00
        -11   -1    0    0    0    0  0.00000000000E+00  0.00000000000E+00  0.45593999997E+02  0.45594000000E+02  0.51100000000E-03 0. -1.
         11   -1    0    0    0    0 -0.00000000000E+00 -0.00000000000E+00 -0.45593999997E+02  0.45594000000E+02  0.51100000000E-03 0.  1.
    9900012    2    1    2    0    0 -0.18706350879E+02 -0.39099313471E+02 -0.22224598636E+01  0.47787271839E+02  0.20000003622E+02 0.  0.
        -12    1    1    2    0    0  0.18706350879E+02  0.39099313471E+02  0.22224598636E+01  0.43400728161E+02  0.00000000000E+00 0.  1.
         11    1    3    3    0    0 -0.67019783975E+01 -0.15540395984E+02  0.66154318905E+01  0.18170975789E+02  0.51100000000E-03 0. -1.
        -11    1    3    3    0    0 -0.74267496604E+00 -0.62371241013E+01 -0.61336450897E+01  0.87792303482E+01  0.51100000000E-03 0.  1.
         12    1    3    3    0    0 -0.11261697515E+02 -0.17321793386E+02 -0.27042466644E+01  0.20837065702E+02  0.00000000000E+00 0. -1.
</event>
<event>
 7    1  0.8300060E-011  0.4778728E+02  0.7816164E-02  0.1312668E+00
        -11   -1    0    0    0    0  0.00000000000E+00  0.00000000000E+00  0.45593999997E+02  0.45594000000E+02  0.51100000000E-03 0. -1.
         11   -1    0    0    0    0 -0.00000000000E+00 -0.00000000000E+00 -0.45593999997E+02  0.45594000000E+02  0.51100000000E-03 0.  1.
    9900012    2    1    2    0    0 -0.13010900275E+02 -0.10384499714E+02  0.40081182351E+02  0.47787279512E+02  0.20000038605E+02 0.  0.
        -12    1    1    2    0    0  0.13010900275E+02  0.10384499714E+02 -0.40081182351E+02  0.43400720488E+02  0.00000000000E+00 0.  1.
         11    1    3    3    0    0 -0.13268108576E+01 -0.56653720529E+01  0.27575879952E+02  0.28183080438E+02  0.51100000000E-03 0. -1.
        -11    1    3    3    0    0 -0.89228418965E+01 -0.59110677525E+01  0.56160710054E+01  0.12087104007E+02  0.51100000000E-03 0.  1.
        -12    1    3    3    0    0 -0.27612475206E+01  0.11919400912E+01  0.68892313930E+01  0.75170950664E+01  0.00000000000E+00 0.  1.
</event>
<event>
 7    1  0.8300060E-011  0.4778727E+02  0.7816164E-02  0.1312668E+00
        -11   -1    0    0    0    0  0.00000000000E+00  0.00000000000E+00  0.45593999997E+02  0.45594000000E+02  0.51100000000E-03 0. -1.
         11   -1    0    0    0    0 -0.00000000000E+00 -0.00000000000E+00 -0.45593999997E+02  0.45594000000E+02  0.51100000000E-03 0.  1.
    9900012    2    1    2    0    0 -0.12934195042E+02  0.12341839728E+02  0.39547549106E+02  0.47787273629E+02  0.20000011782E+02 0.  0.
        -12    1    1    2    0    0  0.12934195042E+02 -0.12341839728E+02 -0.39547549106E+02  0.43400726371E+02  0.00000000000E+00 0.  1.
         11    1    3    3    0    0 -0.88362664565E+01  0.39765514739E+01  0.21051517796E+02  0.23174532753E+02  0.51100000000E-03 0. -1.
        -11    1    3    3    0    0 -0.25081829643E+01  0.84957532423E+01  0.34880897268E+01  0.95202717997E+01  0.51100000000E-03 0.  1.
        -12    1    3    3    0    0 -0.15897456207E+01 -0.13046498817E+00  0.15007941583E+02  0.15092469076E+02  0.00000000000E+00 0.  1.
</event>
<event>
 7    1  0.8300060E-011  0.4778727E+02  0.7816164E-02  0.1312668E+00
        -11   -1    0    0    0    0  0.00000000000E+00  0.00000000000E+00  0.45593999997E+02  0.45594000000E+02  0.51100000000E-03 0. -1.
         11   -1    0    0    0    0 -0.00000000000E+00 -0.00000000000E+00 -0.45593999997E+02  0.45594000000E+02  0.51100000000E-03 0.  1.
    9900012    2    1    2    0    0 -0.19979592547E+02  0.91925915567E+00  0.38517450030E+02  0.47787272903E+02  0.20000008474E+02 0.  0.
        -12    1    1    2    0    0  0.19979592547E+02 -0.91925915567E+00 -0.38517450030E+02  0.43400727097E+02  0.00000000000E+00 0.  1.
         11    1    3    3    0    0 -0.77724024728E+01 -0.77494027819E+01  0.18715309488E+02  0.21696227625E+02  0.51100000000E-03 0. -1.
        -11    1    3    3    0    0 -0.38006688174E+01  0.63102817792E+01  0.49911393679E+01  0.88981015977E+01  0.51100000000E-03 0.  1.
        -12    1    3    3    0    0 -0.84065212572E+01  0.23583801584E+01  0.14811001173E+02  0.17192943680E+02  0.00000000000E+00 0.  1.
</event>
<event>
 7    1  0.8300060E-011  0.4778728E+02  0.7816164E-02  0.1312668E+00
        -11   -1    0    0    0    0  0.00000000000E+00  0.00000000000E+00  0.45593999997E+02  0.45594000000E+02  0.51100000000E-03 0. -1.
         11   -1    0    0    0    0 -0.00000000000E+00 -0.00000000000E+00 -0.45593999997E+02  0.45594000000E+02  0.51100000000E-03 0.  1.
    9900012    2    1    2    0    0  0.16126318231E+02  0.22129210393E+02 -0.33672873780E+02  0.47787279719E+02  0.20000039552E+02 0.  0.
         12    1    1    2    0    0 -0.16126318231E+02 -0.22129210393E+02  0.33672873780E+02  0.43400720281E+02  0.00000000000E+00 0. -1.
         11    1    3    3    0    0  0.95887146988E+01 -0.79953741504E+00 -0.91753005001E+01  0.13295444678E+02  0.51100000000E-03 0. -1.
        -11    1    3    3    0    0  0.72189034063E+01  0.19980412054E+02 -0.21104732953E+02  0.29945603776E+02  0.51100000000E-03 0.  1.
         12    1    3    3    0    0 -0.68129987400E+00  0.29483357540E+01 -0.33928403267E+01  0.45462312655E+01  0.00000000000E+00 0. -1.
</event>
<event>
 7    1  0.8300060E-011  0.4778727E+02  0.7816164E-02  0.1312668E+00
        -11   -1    0    0    0    0  0.00000000000E+00  0.00000000000E+00  0.45593999997E+02  0.45594000000E+02  0.51100000000E-03 0. -1.
         11   -1    0    0    0    0 -0.00000000000E+00 -0.00000000000E+00 -0.45593999997E+02  0.45594000000E+02  0.51100000000E-03 0.  1.
    9900012    2    1    2    0    0  0.35130229894E+02 -0.57974100454E+01  0.24816932196E+02  0.47787272595E+02  0.20000007071E+02 0.  0.
        -12    1    1    2    0    0 -0.35130229894E+02  0.57974100454E+01 -0.24816932196E+02  0.43400727405E+02  0.00000000000E+00 0.  1.
         11    1    3    3    0    0  0.11944388747E+02 -0.19624701404E+01  0.90648542583E+01  0.15122542596E+02  0.51100000000E-03 0. -1.
        -11    1    3    3    0    0  0.83613117383E+01  0.20719829560E+01  0.14230076160E+02  0.16634293346E+02  0.51100000000E-03 0.  1.
        -12    1    3    3    0    0  0.14824529408E+02 -0.59069228611E+01  0.15220017781E+01  0.16030436653E+02  0.00000000000E+00 0.  1.
</event>
<event>
 7    1  0.8300060E-011  0.4778727E+02  0.7816164E-02  0.1312668E+00
        -11   -1    0    0    0    0  0.00000000000E+00  0.00000000000E+00  0.45593999997E+02  0.45594000000E+02  0.51100000000E-03 0. -1.
         11   -1    0    0    0    0 -0.00000000000E+00 -0.00000000000E+00 -0.45593999997E+02  0.45594000000E+02  0.51100000000E-03 0.  1.
    9900012    2    1    2    0    0 -0.12151189817E+02  0.26187814704E+01  0.41582612740E+02  0.47787272902E+02  0.20000008468E+02 0.  0.
        -12    1    1    2    0    0  0.12151189817E+02 -0.26187814704E+01 -0.41582612740E+02  0.43400727098E+02  0.00000000000E+00 0.  1.
         11    1    3    3    0    0  0.27025708567E+01  0.47905145374E+01  0.17584561404E+02  0.18424704036E+02  0.51100000000E-03 0. -1.
        -11    1    3    3    0    0 -0.12779166083E+02  0.16815503047E+00  0.14329006068E+02  0.19200410856E+02  0.51100000000E-03 0.  1.
         12    1    3    3    0    0 -0.20745945908E+01 -0.23398880974E+01  0.96690452681E+01  0.10162158010E+02  0.00000000000E+00 0. -1.
</event>
<event>
 7    1  0.8300060E-011  0.4778727E+02  0.7816164E-02  0.1312668E+00
        -11   -1    0    0    0    0  0.00000000000E+00  0.00000000000E+00  0.45593999997E+02  0.45594000000E+02  0.51100000000E-03 0. -1.
         11   -1    0    0    0    0 -0.00000000000E+00 -0.00000000000E+00 -0.45593999997E+02  0.45594000000E+02  0.51100000000E-03 0.  1.
    9900012    2    1    2    0    0 -0.19939262046E+02 -0.29662868863E+02 -0.24620383494E+02  0.47787271394E+02  0.20000001594E+02 0.  0.
         12    1    1    2    0    0  0.19939262046E+02  0.29662868863E+02  0.24620383494E+02  0.43400728606E+02  0.00000000000E+00 0. -1.
         11    1    3    3    0    0 -0.10887908844E+02 -0.29391015958E+02 -0.21086609628E+02  0.37775964367E+02  0.51100000000E-03 0.  1.
        -11    1    3    3    0    0 -0.69647010030E+01  0.75825405731E+00 -0.22772534202E+01  0.73666744653E+01  0.51100000000E-03 0. -1.
        -12    1    3    3    0    0 -0.20866521991E+01 -0.10301069627E+01 -0.12565204457E+01  0.26446325615E+01  0.00000000000E+00 0.  1.
</event>
<event>
 7    1  0.8300060E-011  0.4778727E+02  0.7816164E-02  0.1312668E+00
        -11   -1    0    0    0    0  0.00000000000E+00  0.00000000000E+00  0.45593999997E+02  0.45594000000E+02  0.51100000000E-03 0. -1.
         11   -1    0    0    0    0 -0.00000000000E+00 -0.00000000000E+00 -0.45593999997E+02  0.45594000000E+02  0.51100000000E-03 0.  1.
    9900012    2    1    2    0    0  0.87796117596E+01  0.67707417435E+01  0.41960685488E+02  0.47787266676E+02  0.19999980083E+02 0.  0.
        -12    1    1    2    0    0 -0.87796117596E+01 -0.67707417435E+01 -0.41960685488E+02  0.43400733324E+02  0.00000000000E+00 0.  1.
         11    1    3    3    0    0  0.11158774667E+01  0.28803105156E+01  0.41995570382E+01  0.52132188487E+01  0.51100000000E-03 0. -1.
        -11    1    3    3    0    0  0.10485771395E+02 -0.26648743064E+01  0.13586677605E+02  0.17368096194E+02  0.51100000000E-03 0.  1.
        -12    1    3    3    0    0 -0.28220371020E+01  0.65553055344E+01  0.24174450845E+02  0.25205951633E+02  0.00000000000E+00 0.  1.
</event>
<event>
 7    1  0.8300060E-011  0.4778727E+02  0.7816164E-02  0.1312668E+00
        -11   -1    0    0    0    0  0.00000000000E+00  0.00000000000E+00  0.45593999997E+02  0.45594000000E+02  0.51100000000E-03 0. -1.
         11   -1    0    0    0    0 -0.00000000000E+00 -0.00000000000E+00 -0.45593999997E+02  0.45594000000E+02  0.51100000000E-03 0.  1.
    9900012    2    1    2    0    0 -0.75808587820E+01  0.73093378202E+01  0.42103767639E+02  0.47787273179E+02  0.20000009731E+02 0.  0.
        -12    1    1    2    0    0  0.75808587820E+01 -0.73093378202E+01 -0.42103767639E+02  0.43400726821E+02  0.00000000000E+00 0.  1.
         11    1    3    3    0    0 -0.62672059472E+01  0.95900925895E+01  0.11311506223E+02  0.16099624826E+02  0.51100000000E-03 0. -1.
        -11    1    3    3    0    0 -0.26052931344E+01 -0.43106953746E+01  0.19317638538E+02  0.19963486817E+02  0.51100000000E-03 0.  1.
         12    1    3    3    0    0  0.12916402996E+01  0.20299406052E+01  0.11474622878E+02  0.11724161536E+02  0.00000000000E+00 0. -1.
</event>
<event>
 7    1  0.8300060E-011  0.4778727E+02  0.7816164E-02  0.1312668E+00
        -11   -1    0    0    0    0  0.00000000000E+00  0.00000000000E+00  0.45593999997E+02  0.45594000000E+02  0.51100000000E-03 0. -1.
         11   -1    0    0    0    0 -0.00000000000E+00 -0.00000000000E+00 -0.45593999997E+02  0.45594000000E+02  0.51100000000E-03 0.  1.
    9900012    2    1    2    0    0 -0.40529415615E+02 -0.76964456795E+01  0.13481638980E+02  0.47787269640E+02  0.19999993595E+02 0.  0.
         12    1    1    2    0    0  0.40529415615E+02  0.76964456795E+01 -0.13481638980E+02  0.43400730360E+02  0.00000000000E+00 0. -1.
         11    1    3    3    0    0 -0.48909201275E+01  0.50608830557E+01  0.50505391692E+01  0.86626545099E+01  0.51100000000E-03 0. -1.
        -11    1    3    3    0    0 -0.17453740831E+02 -0.77697944913E+01  0.20353820574E+01  0.19213161006E+02  0.51100000000E-03 0.  1.
         12    1    3    3    0    0 -0.18184754657E+02 -0.49875342438E+01  0.63957177535E+01  0.19911454124E+02  0.00000000000E+00 0. -1.
</event>
<event>
 7    1  0.8300060E-011  0.4778727E+02  0.7816164E-02  0.1312668E+00
        -11   -1    0    0    0    0  0.00000000000E+00  0.00000000000E+00  0.45593999997E+02  0.45594000000E+02  0.51100000000E-03 0. -1.
         11   -1    0    0    0    0 -0.00000000000E+00 -0.00000000000E+00 -0.45593999997E+02  0.45594000000E+02  0.51100000000E-03 0.  1.
    9900012    2    1    2    0    0  0.11342751338E+02  0.37988668759E+02  0.17658606914E+02  0.47787270051E+02  0.19999995470E+02 0.  0.
        -12    1    1    2    0    0 -0.11342751338E+02 -0.37988668759E+02 -0.17658606914E+02  0.43400729949E+02  0.00000000000E+00 0.  1.
         11    1    3    3    0    0  0.13620513599E+02  0.22234144724E+02  0.90648843587E+01  0.27605211664E+02  0.51100000000E-03 0. -1.
        -11    1    3    3    0    0 -0.48377829933E+01  0.73746380421E+01  0.15838964783E+01  0.89609239957E+01  0.51100000000E-03 0.  1.
         12    1    3    3    0    0  0.25600207323E+01  0.83798859925E+01  0.70098260769E+01  0.11221134391E+02  0.00000000000E+00 0. -1.
</event>
<event>
 7    1  0.8300060E-011  0.4778727E+02  0.7816164E-02  0.1312668E+00
        -11   -1    0    0    0    0  0.00000000000E+00  0.00000000000E+00  0.45593999997E+02  0.45594000000E+02  0.51100000000E-03 0.  1.
         11   -1    0    0    0    0 -0.00000000000E+00 -0.00000000000E+00 -0.45593999997E+02  0.45594000000E+02  0.51100000000E-03 0. -1.
    9900012    2    1    2    0    0  0.37678905250E+02 -0.12107712326E+02 -0.17813659829E+02  0.47787273334E+02  0.20000010441E+02 0.  0.
         12    1    1    2    0    0 -0.37678905250E+02  0.12107712326E+02  0.17813659829E+02  0.43400726666E+02  0.00000000000E+00 0. -1.
         11    1    3    3    0    0  0.19168322810E+02 -0.50802580247E+01 -0.16932621823E+02  0.26075799182E+02  0.51100000000E-03 0. -1.
        -11    1    3    3    0    0  0.25051115852E+01 -0.33942151706E+01  0.25702205396E+01  0.49398698932E+01  0.51100000000E-03 0.  1.
         12    1    3    3    0    0  0.16005470855E+02 -0.36332391307E+01 -0.34512585452E+01  0.16771604259E+02  0.00000000000E+00 0. -1.
</event>
<event>
 7    1  0.8300060E-011  0.4778727E+02  0.7816164E-02  0.1312668E+00
        -11   -1    0    0    0    0  0.00000000000E+00  0.00000000000E+00  0.45593999997E+02  0.45594000000E+02  0.51100000000E-03 0. -1.
         11   -1    0    0    0    0 -0.00000000000E+00 -0.00000000000E+00 -0.45593999997E+02  0.45594000000E+02  0.51100000000E-03 0.  1.
    9900012    2    1    2    0    0  0.83599800813E+01  0.20647018565E+01  0.42537879289E+02  0.47787269187E+02  0.19999991532E+02 0.  0.
        -12    1    1    2    0    0 -0.83599800813E+01 -0.20647018565E+01 -0.42537879289E+02  0.43400730813E+02  0.00000000000E+00 0.  1.
         11    1    3    3    0    0  0.10278743455E+02  0.11594722668E+01  0.37418433812E+02  0.38821851220E+02  0.51100000000E-03 0. -1.
        -11    1    3    3    0    0 -0.24602028987E+00 -0.19074233791E+01 -0.89273143964E+00  0.21203206396E+01  0.51100000000E-03 0.  1.
        -12    1    3    3    0    0 -0.16727430843E+01  0.28126529688E+01  0.60121769167E+01  0.68450973278E+01  0.00000000000E+00 0.  1.
</event>
<event>
 7    1  0.8300060E-011  0.4778727E+02  0.7816164E-02  0.1312668E+00
        -11   -1    0    0    0    0  0.00000000000E+00  0.00000000000E+00  0.45593999997E+02  0.45594000000E+02  0.51100000000E-03 0. -1.
         11   -1    0    0    0    0 -0.00000000000E+00 -0.00000000000E+00 -0.45593999997E+02  0.45594000000E+02  0.51100000000E-03 0.  1.
    9900012    2    1    2    0    0 -0.42702737094E+01 -0.24317748887E+02  0.35693631832E+02  0.47787268418E+02  0.19999988024E+02 0.  0.
        -12    1    1    2    0    0  0.42702737094E+01  0.24317748887E+02 -0.35693631832E+02  0.43400731582E+02  0.00000000000E+00 0.  1.
         11    1    3    3    0    0 -0.15978061878E+01 -0.31341579521E+01  0.36772625780E+01  0.50890265289E+01  0.51100000000E-03 0. -1.
        -11    1    3    3    0    0 -0.80285518528E+01 -0.19222517553E+01  0.96359002355E+01  0.12688706407E+02  0.51100000000E-03 0.  1.
        -12    1    3    3    0    0  0.53560843312E+01 -0.19261339180E+02  0.22380469019E+02  0.30009535482E+02  0.00000000000E+00 0.  1.
</event>
<event>
 7    1  0.8300060E-011  0.4778728E+02  0.7816164E-02  0.1312668E+00
        -11   -1    0    0    0    0  0.00000000000E+00  0.00000000000E+00  0.45593999997E+02  0.45594000000E+02  0.51100000000E-03 0. -1.
         11   -1    0    0    0    0 -0.00000000000E+00 -0.00000000000E+00 -0.45593999997E+02  0.45594000000E+02  0.51100000000E-03 0.  1.
    9900012    2    1    2    0    0 -0.30166870872E+02  0.15188022905E+02  0.27256308484E+02  0.47787280074E+02  0.20000041168E+02 0.  0.
        -12    1    1    2    0    0  0.30166870872E+02 -0.15188022905E+02 -0.27256308484E+02  0.43400719926E+02  0.00000000000E+00 0.  1.
         11    1    3    3    0    0  0.14895451070E+01 -0.24925558954E+00  0.65188877963E+01  0.66915447646E+01  0.51100000000E-03 0. -1.
        -11    1    3    3    0    0 -0.55012377522E+01  0.14909171925E+01  0.20581497665E+01  0.60599035969E+01  0.51100000000E-03 0.  1.
         12    1    3    3    0    0 -0.26155178226E+02  0.13946361302E+02  0.18679270921E+02  0.35035831712E+02  0.00000000000E+00 0. -1.
</event>
<event>
 7    1  0.8300060E-011  0.4778728E+02  0.7816164E-02  0.1312668E+00
        -11   -1    0    0    0    0  0.00000000000E+00  0.00000000000E+00  0.45593999997E+02  0.45594000000E+02  0.51100000000E-03 0. -1.
         11   -1    0    0    0    0 -0.00000000000E+00 -0.00000000000E+00 -0.45593999997E+02  0.45594000000E+02  0.51100000000E-03 0.  1.
    9900012    2    1    2    0    0  0.23986613547E+02 -0.52685112547E+01  0.35784186100E+02  0.47787276330E+02  0.20000024097E+02 0.  0.
        -12    1    1    2    0    0 -0.23986613547E+02  0.52685112547E+01 -0.35784186100E+02  0.43400723670E+02  0.00000000000E+00 0.  1.
         11    1    3    3    0    0 -0.10334163029E+01  0.32114044714E+01  0.52773278560E+01  0.62634860497E+01  0.51100000000E-03 0. -1.
        -11    1    3    3    0    0  0.15658928905E+02 -0.44828157754E+01  0.11420391002E+02  0.19892788206E+02  0.51100000000E-03 0.  1.
         12    1    3    3    0    0  0.93611009448E+01 -0.39970999508E+01  0.19086467242E+02  0.21631002073E+02  0.00000000000E+00 0. -1.
</event>
<event>
 7    1  0.8300060E-011  0.4778727E+02  0.7816164E-02  0.1312668E+00
        -11   -1    0    0    0    0  0.00000000000E+00  0.00000000000E+00  0.45593999997E+02  0.45594000000E+02  0.51100000000E-03 0. -1.
         11   -1    0    0    0    0 -0.00000000000E+00 -0.00000000000E+00 -0.45593999997E+02  0.45594000000E+02  0.51100000000E-03 0.  1.
    9900012    2    1    2    0    0  0.26474125294E+02  0.80711493386E+01 -0.33430530352E+02  0.47787272802E+02  0.20000008013E+02 0.  0.
         12    1    1    2    0    0 -0.26474125294E+02 -0.80711493386E+01  0.33430530352E+02  0.43400727198E+02  0.00000000000E+00 0. -1.
         11    1    3    3    0    0  0.13827190067E+01  0.40056552177E+00  0.21032471071E+01  0.25487277696E+01  0.51100000000E-03 0. -1.
        -11    1    3    3    0    0  0.22486745504E+02  0.68941459135E+01 -0.35420614765E+02  0.42518265744E+02  0.51100000000E-03 0.  1.
        -12    1    3    3    0    0  0.26046607831E+01  0.77643790338E+00 -0.11316269347E+00  0.27202792886E+01  0.00000000000E+00 0.  1.
</event>
<event>
 7    1  0.8300060E-011  0.4778727E+02  0.7816164E-02  0.1312668E+00
        -11   -1    0    0    0    0  0.00000000000E+00  0.00000000000E+00  0.45593999997E+02  0.45594000000E+02  0.51100000000E-03 0. -1.
         11   -1    0    0    0    0 -0.00000000000E+00 -0.00000000000E+00 -0.45593999997E+02  0.45594000000E+02  0.51100000000E-03 0.  1.
    9900012    2    1    2    0    0 -0.24005362583E+02  0.12006720845E+01 -0.36137572257E+02  0.47787272186E+02  0.20000005205E+02 0.  0.
         12    1    1    2    0    0  0.24005362583E+02 -0.12006720845E+01  0.36137572257E+02  0.43400727814E+02  0.00000000000E+00 0. -1.
         11    1    3    3    0    0 -0.15909520263E+02  0.84562545707E+01 -0.21830763099E+02  0.28305534691E+02  0.51100000000E-03 0. -1.
        -11    1    3    3    0    0  0.48074026844E+00 -0.36874830856E+01 -0.26011746584E+01  0.45381441776E+01  0.51100000000E-03 0.  1.
         12    1    3    3    0    0 -0.85765825885E+01 -0.35680994006E+01 -0.11705634499E+02  0.14943593318E+02  0.00000000000E+00 0. -1.
</event>
<event>
 7    1  0.8300060E-011  0.4778727E+02  0.7816164E-02  0.1312668E+00
        -11   -1    0    0    0    0  0.00000000000E+00  0.00000000000E+00  0.45593999997E+02  0.45594000000E+02  0.51100000000E-03 0. -1.
         11   -1    0    0    0    0 -0.00000000000E+00 -0.00000000000E+00 -0.45593999997E+02  0.45594000000E+02  0.51100000000E-03 0.  1.
    9900012    2    1    2    0    0  0.37618353476E+02 -0.74622854550E+01 -0.20317401621E+02  0.47787273841E+02  0.20000012753E+02 0.  0.
         12    1    1    2    0    0 -0.37618353476E+02  0.74622854550E+01  0.20317401621E+02  0.43400726159E+02  0.00000000000E+00 0. -1.
         11    1    3    3    0    0  0.51941080125E+01 -0.71252233436E+01 -0.34868189780E+01  0.94818496396E+01  0.51100000000E-03 0. -1.
        -11    1    3    3    0    0  0.18810029679E+02  0.34903692521E+01 -0.14425715125E+02  0.23960407993E+02  0.51100000000E-03 0.  1.
        -12    1    3    3    0    0  0.13614215784E+02 -0.38274313635E+01 -0.24048675182E+01  0.14345016209E+02  0.00000000000E+00 0.  1.
</event>
<event>
 7    1  0.9583568E-011  0.4778727E+02  0.7816164E-02  0.1312668E+00
        -11   -1    0    0    0    0  0.00000000000E+00  0.00000000000E+00  0.45593999997E+02  0.45594000000E+02  0.51100000000E-03 0. -1.
         11   -1    0    0    0    0 -0.00000000000E+00 -0.00000000000E+00 -0.45593999997E+02  0.45594000000E+02  0.51100000000E-03 0.  1.
    9900012    2    1    2    0    0  0.16527009532E+02  0.26679491336E+02 -0.29978092716E+02  0.47787270226E+02  0.19999996270E+02 0.  0.
         12    1    1    2    0    0 -0.16527009532E+02 -0.26679491336E+02  0.29978092716E+02  0.43400729774E+02  0.00000000000E+00 0. -1.
         11    1    3    3    0    0 -0.25559215246E+01  0.16886645258E+01 -0.13355971902E+01  0.33418771426E+01  0.51100000000E-03 0. -1.
        -11    1    3    3    0    0  0.17801270433E+02  0.25434485948E+02 -0.22985590775E+02  0.38628172206E+02  0.51100000000E-03 0.  1.
        -12    1    3    3    0    0  0.12816606232E+01 -0.44365913733E+00 -0.56569047500E+01  0.58172208772E+01  0.00000000000E+00 0.  1.
</event>
<event>
 7    1  0.8300060E-011  0.4778724E+02  0.7816164E-02  0.1312668E+00
        -11   -1    0    0    0    0  0.00000000000E+00  0.00000000000E+00  0.45593999997E+02  0.45594000000E+02  0.51100000000E-03 0. -1.
         11   -1    0    0    0    0 -0.00000000000E+00 -0.00000000000E+00 -0.45593999997E+02  0.45594000000E+02  0.51100000000E-03 0.  1.
    9900012    2    1    2    0    0 -0.24493058405E+02 -0.15957063630E+02  0.32079398494E+02  0.47787244276E+02  0.19999877950E+02 0.  0.
        -12    1    1    2    0    0  0.24493058405E+02  0.15957063630E+02 -0.32079398494E+02  0.43400755724E+02  0.00000000000E+00 0.  1.
         11    1    3    3    0    0 -0.21646128656E+02 -0.49354906793E+01  0.23888234398E+02  0.32612293647E+02  0.51100000000E-03 0. -1.
        -11    1    3    3    0    0 -0.18666273739E+01 -0.95970716553E+01  0.89792633387E+01  0.13274609315E+02  0.51100000000E-03 0.  1.
         12    1    3    3    0    0 -0.98030237536E+00 -0.14245012955E+01 -0.78809924305E+00  0.19003413127E+01  0.00000000000E+00 0. -1.
</event>
<event>
 7    1  0.8300060E-011  0.4778728E+02  0.7816164E-02  0.1312668E+00
        -11   -1    0    0    0    0  0.00000000000E+00  0.00000000000E+00  0.45593999997E+02  0.45594000000E+02  0.51100000000E-03 0. -1.
         11   -1    0    0    0    0 -0.00000000000E+00 -0.00000000000E+00 -0.45593999997E+02  0.45594000000E+02  0.51100000000E-03 0.  1.
    9900012    2    1    2    0    0 -0.12275634483E+02  0.27386467902E+02 -0.31351443312E+02  0.47787276229E+02  0.20000023638E+02 0.  0.
         12    1    1    2    0    0  0.12275634483E+02 -0.27386467902E+02  0.31351443312E+02  0.43400723771E+02  0.00000000000E+00 0. -1.
         11    1    3    3    0    0 -0.23413138785E+01 -0.28751901854E+01 -0.22312305631E+01  0.43274541438E+01  0.51100000000E-03 0. -1.
        -11    1    3    3    0    0 -0.79914481454E+01  0.19255076351E+02 -0.21399076959E+02  0.29875436460E+02  0.51100000000E-03 0.  1.
         12    1    3    3    0    0 -0.19428724595E+01  0.11006581736E+02 -0.77211357902E+01  0.13584385625E+02  0.00000000000E+00 0. -1.
</event>
<event>
 7    1  0.8300060E-011  0.4778727E+02  0.7816164E-02  0.1312668E+00
        -11   -1    0    0    0    0  0.00000000000E+00  0.00000000000E+00  0.45593999997E+02  0.45594000000E+02  0.51100000000E-03 0.  1.
         11   -1    0    0    0    0 -0.00000000000E+00 -0.00000000000E+00 -0.45593999997E+02  0.45594000000E+02  0.51100000000E-03 0. -1.
    9900012    2    1    2    0    0 -0.30228998076E+02  0.20481519153E+02 -0.23459288585E+02  0.47787272213E+02  0.20000005329E+02 0.  0.
         12    1    1    2    0    0  0.30228998076E+02 -0.20481519153E+02  0.23459288585E+02  0.43400727787E+02  0.00000000000E+00 0. -1.
         11    1    3    3    0    0 -0.16565906640E+02  0.21896378262E+01 -0.13071604001E+02  0.21215338980E+02  0.51100000000E-03 0. -1.
        -11    1    3    3    0    0 -0.47039675414E+01  0.12362627708E+02 -0.30873903662E+01  0.13582851468E+02  0.51100000000E-03 0.  1.
        -12    1    3    3    0    0 -0.89591238945E+01  0.59292536195E+01 -0.73002942180E+01  0.12989081765E+02  0.00000000000E+00 0.  1.
</event>
<event>
 7    1  0.8300060E-011  0.4778727E+02  0.7816164E-02  0.1312668E+00
        -11   -1    0    0    0    0  0.00000000000E+00  0.00000000000E+00  0.45593999997E+02  0.45594000000E+02  0.51100000000E-03 0. -1.
         11   -1    0    0    0    0 -0.00000000000E+00 -0.00000000000E+00 -0.45593999997E+02  0.45594000000E+02  0.51100000000E-03 0.  1.
    9900012    2    1    2    0    0 -0.85281918494E+00 -0.19857375969E+02 -0.38582129119E+02  0.47787269957E+02  0.19999995041E+02 0.  0.
         12    1    1    2    0    0  0.85281918494E+00  0.19857375969E+02  0.38582129119E+02  0.43400730043E+02  0.00000000000E+00 0. -1.
         11    1    3    3    0    0 -0.28534038257E+01 -0.98355260348E+01 -0.35174981649E+01  0.10828309165E+02  0.51100000000E-03 0. -1.
        -11    1    3    3    0    0  0.23127193226E+01 -0.82403124285E+00 -0.64904707164E+01  0.69393017326E+01  0.51100000000E-03 0.  1.
         12    1    3    3    0    0 -0.31213468184E+00 -0.91978186918E+01 -0.28574160237E+02  0.30019659059E+02  0.00000000000E+00 0. -1.
</event>
<event>
 7    1  0.8300060E-011  0.4778731E+02  0.7816164E-02  0.1312668E+00
        -11   -1    0    0    0    0  0.00000000000E+00  0.00000000000E+00  0.45593999997E+02  0.45594000000E+02  0.51100000000E-03 0. -1.
         11   -1    0    0    0    0 -0.00000000000E+00 -0.00000000000E+00 -0.45593999997E+02  0.45594000000E+02  0.51100000000E-03 0.  1.
    9900012    2    1    2    0    0 -0.17068872519E+02 -0.26998985195E+02 -0.29382455627E+02  0.47787305198E+02  0.20000155719E+02 0.  0.
         12    1    1    2    0    0  0.17068872519E+02  0.26998985195E+02  0.29382455627E+02  0.43400694802E+02  0.00000000000E+00 0. -1.
         11    1    3    3    0    0 -0.10347000174E+02 -0.19332797626E+02 -0.29758623797E+02  0.36964755744E+02  0.51100000000E-03 0. -1.
        -11    1    3    3    0    0 -0.63176188549E+01 -0.51570493839E+01 -0.40047322419E+00  0.81650379919E+01  0.51100000000E-03 0.  1.
         12    1    3    3    0    0 -0.40425349022E+00 -0.25091381854E+01  0.77664139446E+00  0.26575114625E+01  0.00000000000E+00 0. -1.
</event>
<event>
 7    1  0.8300060E-011  0.4778727E+02  0.7816164E-02  0.1312668E+00
        -11   -1    0    0    0    0  0.00000000000E+00  0.00000000000E+00  0.45593999997E+02  0.45594000000E+02  0.51100000000E-03 0. -1.
         11   -1    0    0    0    0 -0.00000000000E+00 -0.00000000000E+00 -0.45593999997E+02  0.45594000000E+02  0.51100000000E-03 0.  1.
    9900012    2    1    2    0    0 -0.19957948820E+02  0.33434878835E+02 -0.19168001430E+02  0.47787272786E+02  0.20000007941E+02 0.  0.
         12    1    1    2    0    0  0.19957948820E+02 -0.33434878835E+02  0.19168001430E+02  0.43400727214E+02  0.00000000000E+00 0. -1.
         11    1    3    3    0    0 -0.14413265065E+02  0.87435970257E+01 -0.82446482461E+01  0.18766111045E+02  0.51100000000E-03 0. -1.
        -11    1    3    3    0    0 -0.76682576509E+01  0.22695242869E+02 -0.94135877705E+01  0.25738917212E+02  0.51100000000E-03 0.  1.
        -12    1    3    3    0    0  0.21235738957E+01  0.19960389406E+01 -0.15097654138E+01  0.32822445290E+01  0.00000000000E+00 0.  1.
</event>
<event>
 7    1  0.8300060E-011  0.4778727E+02  0.7816164E-02  0.1312668E+00
        -11   -1    0    0    0    0  0.00000000000E+00  0.00000000000E+00  0.45593999997E+02  0.45594000000E+02  0.51100000000E-03 0. -1.
         11   -1    0    0    0    0 -0.00000000000E+00 -0.00000000000E+00 -0.45593999997E+02  0.45594000000E+02  0.51100000000E-03 0.  1.
    9900012    2    1    2    0    0  0.23868406326E+02  0.31137324731E+02  0.18557734168E+02  0.47787270635E+02  0.19999998133E+02 0.  0.
        -12    1    1    2    0    0 -0.23868406326E+02 -0.31137324731E+02 -0.18557734168E+02  0.43400729365E+02  0.00000000000E+00 0.  1.
         11    1    3    3    0    0  0.15955649650E+02  0.22671853077E+02  0.46841693102E+01  0.28116491959E+02  0.51100000000E-03 0. -1.
        -11    1    3    3    0    0  0.74339976053E+01  0.57635005989E+01  0.14064397183E+02  0.16920092432E+02  0.51100000000E-03 0.  1.
        -12    1    3    3    0    0  0.47875907087E+00  0.27019710552E+01 -0.19083232530E+00  0.27506862430E+01  0.00000000000E+00 0.  1.
</event>
<event>
 7    1  0.8300060E-011  0.4778728E+02  0.7816164E-02  0.1312668E+00
        -11   -1    0    0    0    0  0.00000000000E+00  0.00000000000E+00  0.45593999997E+02  0.45594000000E+02  0.51100000000E-03 0. -1.
         11   -1    0    0    0    0 -0.00000000000E+00 -0.00000000000E+00 -0.45593999997E+02  0.45594000000E+02  0.51100000000E-03 0.  1.
    9900012    2    1    2    0    0  0.90837308471E+01  0.16125319289E+02 -0.39256623797E+02  0.47787278805E+02  0.20000035383E+02 0.  0.
         12    1    1    2    0    0 -0.90837308471E+01 -0.16125319289E+02  0.39256623797E+02  0.43400721195E+02  0.00000000000E+00 0. -1.
         11    1    3    3    0    0 -0.64121040537E+00  0.56294967050E+01 -0.19134808498E+01  0.59802837022E+01  0.51100000000E-03 0. -1.
        -11    1    3    3    0    0  0.85708941864E+00  0.15932174611E+01 -0.21545586723E+02  0.21621407254E+02  0.51100000000E-03 0.  1.
        -12    1    3    3    0    0  0.88678518338E+01  0.89026051231E+01 -0.15797556225E+02  0.20185587849E+02  0.00000000000E+00 0.  1.
</event>
<event>
 7    1  0.8300060E-011  0.4778730E+02  0.7816164E-02  0.1312668E+00
        -11   -1    0    0    0    0  0.00000000000E+00  0.00000000000E+00  0.45593999997E+02  0.45594000000E+02  0.51100000000E-03 0. -1.
         11   -1    0    0    0    0 -0.00000000000E+00 -0.00000000000E+00 -0.45593999997E+02  0.45594000000E+02  0.51100000000E-03 0.  1.
    9900012    2    1    2    0    0 -0.60497444873E+01 -0.24303551896E+02 -0.35445149712E+02  0.47787300913E+02  0.20000136183E+02 0.  0.
         12    1    1    2    0    0  0.60497444873E+01  0.24303551896E+02  0.35445149712E+02  0.43400699087E+02  0.00000000000E+00 0. -1.
         11    1    3    3    0    0 -0.86761474532E+01 -0.52074941212E+01 -0.54722890015E+01  0.11503889639E+02  0.51100000000E-03 0. -1.
        -11    1    3    3    0    0  0.43553598875E+01 -0.13401069794E+02 -0.17537311607E+02  0.22497002690E+02  0.51100000000E-03 0.  1.
         12    1    3    3    0    0 -0.17289569216E+01 -0.56949879802E+01 -0.12435549103E+02  0.13786408584E+02  0.00000000000E+00 0. -1.
</event>
<event>
 7    1  0.8300060E-011  0.4778727E+02  0.7816164E-02  0.1312668E+00
        -11   -1    0    0    0    0  0.00000000000E+00  0.00000000000E+00  0.45593999997E+02  0.45594000000E+02  0.51100000000E-03 0. -1.
         11   -1    0    0    0    0 -0.00000000000E+00 -0.00000000000E+00 -0.45593999997E+02  0.45594000000E+02  0.51100000000E-03 0.  1.
    9900012    2    1    2    0    0 -0.10109950159E+02 -0.28661740278E+01  0.42109350722E+02  0.47787268854E+02  0.19999990013E+02 0.  0.
        -12    1    1    2    0    0  0.10109950159E+02  0.28661740278E+01 -0.42109350722E+02  0.43400731146E+02  0.00000000000E+00 0.  1.
         11    1    3    3    0    0 -0.65337950565E+01  0.14086953996E+01  0.91608724868E+01  0.11340039045E+02  0.51100000000E-03 0. -1.
        -11    1    3    3    0    0  0.44317520511E+01 -0.56398995249E+01  0.18955350554E+02  0.20267072008E+02  0.51100000000E-03 0.  1.
        -12    1    3    3    0    0 -0.80079071536E+01  0.13650300976E+01  0.13993127681E+02  0.16180157800E+02  0.00000000000E+00 0.  1.
</event>
<event>
 7    1  0.8300060E-011  0.4778727E+02  0.7816164E-02  0.1312668E+00
        -11   -1    0    0    0    0  0.00000000000E+00  0.00000000000E+00  0.45593999997E+02  0.45594000000E+02  0.51100000000E-03 0.  1.
         11   -1    0    0    0    0 -0.00000000000E+00 -0.00000000000E+00 -0.45593999997E+02  0.45594000000E+02  0.51100000000E-03 0. -1.
    9900012    2    1    2    0    0  0.39729955566E+02 -0.15920536172E+02 -0.71896039850E+01  0.47787271357E+02  0.20000001425E+02 0.  0.
         12    1    1    2    0    0 -0.39729955566E+02  0.15920536172E+02  0.71896039850E+01  0.43400728643E+02  0.00000000000E+00 0. -1.
         11    1    3    3    0    0  0.10832720742E+01 -0.27439092392E+00 -0.26667066613E+01  0.28913826181E+01  0.51100000000E-03 0. -1.
        -11    1    3    3    0    0  0.21384292426E+02 -0.50224915403E+01 -0.96431981464E+01  0.23989678084E+02  0.51100000000E-03 0.  1.
        -12    1    3    3    0    0  0.17262391066E+02 -0.10623653708E+02  0.51203008227E+01  0.20906210655E+02  0.00000000000E+00 0.  1.
</event>
<event>
 7    1  0.8300060E-011  0.4778727E+02  0.7816164E-02  0.1312668E+00
        -11   -1    0    0    0    0  0.00000000000E+00  0.00000000000E+00  0.45593999997E+02  0.45594000000E+02  0.51100000000E-03 0. -1.
         11   -1    0    0    0    0 -0.00000000000E+00 -0.00000000000E+00 -0.45593999997E+02  0.45594000000E+02  0.51100000000E-03 0.  1.
    9900012    2    1    2    0    0 -0.21952823683E+02 -0.34850360253E+02 -0.13680258191E+02  0.47787267960E+02  0.19999985936E+02 0.  0.
         12    1    1    2    0    0  0.21952823683E+02  0.34850360253E+02  0.13680258191E+02  0.43400732040E+02  0.00000000000E+00 0. -1.
         11    1    3    3    0    0 -0.38481849895E+01 -0.45217384550E+01  0.17251300456E+01  0.61830995709E+01  0.51100000000E-03 0. -1.
        -11    1    3    3    0    0 -0.13365186979E+02 -0.26428645635E+02 -0.57589656832E+01  0.30170635046E+02  0.51100000000E-03 0.  1.
        -12    1    3    3    0    0 -0.47394517141E+01 -0.38999761638E+01 -0.96464225534E+01  0.11433533343E+02  0.00000000000E+00 0.  1.
</event>
<event>
 7    1  0.8300060E-011  0.4778727E+02  0.7816164E-02  0.1312668E+00
        -11   -1    0    0    0    0  0.00000000000E+00  0.00000000000E+00  0.45593999997E+02  0.45594000000E+02  0.51100000000E-03 0. -1.
         11   -1    0    0    0    0 -0.00000000000E+00 -0.00000000000E+00 -0.45593999997E+02  0.45594000000E+02  0.51100000000E-03 0.  1.
    9900012    2    1    2    0    0  0.45767500706E+01 -0.28952515751E+02 -0.32006692465E+02  0.47787272217E+02  0.20000005347E+02 0.  0.
         12    1    1    2    0    0 -0.45767500706E+01  0.28952515751E+02  0.32006692465E+02  0.43400727783E+02  0.00000000000E+00 0. -1.
         11    1    3    3    0    0 -0.50981910601E+01 -0.59029754504E+01 -0.36301314474E+01  0.86031695229E+01  0.51100000000E-03 0.  1.
        -11    1    3    3    0    0  0.60938774392E+00 -0.20362794668E+00  0.80545919697E+00  0.10303312779E+01  0.51100000000E-03 0. -1.
         12    1    3    3    0    0  0.90655533867E+01 -0.22845912354E+02 -0.29182020215E+02  0.38153771416E+02  0.00000000000E+00 0. -1.
</event>
<event>
 7    1  0.8300060E-011  0.4778727E+02  0.7816164E-02  0.1312668E+00
        -11   -1    0    0    0    0  0.00000000000E+00  0.00000000000E+00  0.45593999997E+02  0.45594000000E+02  0.51100000000E-03 0. -1.
         11   -1    0    0    0    0 -0.00000000000E+00 -0.00000000000E+00 -0.45593999997E+02  0.45594000000E+02  0.51100000000E-03 0.  1.
    9900012    2    1    2    0    0  0.11658838619E+02 -0.22969885862E+02 -0.34929632042E+02  0.47787269948E+02  0.19999995000E+02 0.  0.
         12    1    1    2    0    0 -0.11658838619E+02  0.22969885862E+02  0.34929632042E+02  0.43400730052E+02  0.00000000000E+00 0. -1.
         11    1    3    3    0    0 -0.10445293473E+01 -0.24051318490E+01 -0.13664188507E+02  0.13913509571E+02  0.51100000000E-03 0. -1.
        -11    1    3    3    0    0  0.14198369821E+02 -0.15499781815E+02 -0.17924320652E+02  0.27624594350E+02  0.51100000000E-03 0.  1.
         12    1    3    3    0    0 -0.14950018544E+01 -0.50649721983E+01 -0.33411228827E+01  0.62491660269E+01  0.00000000000E+00 0. -1.
</event>
<event>
 7    1  0.8300060E-011  0.4778727E+02  0.7816164E-02  0.1312668E+00
        -11   -1    0    0    0    0  0.00000000000E+00  0.00000000000E+00  0.45593999997E+02  0.45594000000E+02  0.51100000000E-03 0. -1.
         11   -1    0    0    0    0 -0.00000000000E+00 -0.00000000000E+00 -0.45593999997E+02  0.45594000000E+02  0.51100000000E-03 0.  1.
    9900012    2    1    2    0    0 -0.63548583986E+01 -0.35686795079E+02  0.23868223435E+02  0.47787266616E+02  0.19999979810E+02 0.  0.
        -12    1    1    2    0    0  0.63548583986E+01  0.35686795079E+02 -0.23868223435E+02  0.43400733384E+02  0.00000000000E+00 0.  1.
         11    1    3    3    0    0 -0.93390908480E+01 -0.29316461340E+02  0.11250368304E+02  0.32760407668E+02  0.51100000000E-03 0. -1.
        -11    1    3    3    0    0  0.50296030779E-01 -0.34103736240E+01  0.85406376024E+01  0.91965030779E+01  0.51100000000E-03 0.  1.
         12    1    3    3    0    0  0.29339364185E+01 -0.29599601158E+01  0.40772175290E+01  0.58303558703E+01  0.00000000000E+00 0. -1.
</event>
<event>
 7    1  0.8300060E-011  0.4778727E+02  0.7816164E-02  0.1312668E+00
        -11   -1    0    0    0    0  0.00000000000E+00  0.00000000000E+00  0.45593999997E+02  0.45594000000E+02  0.51100000000E-03 0.  1.
         11   -1    0    0    0    0 -0.00000000000E+00 -0.00000000000E+00 -0.45593999997E+02  0.45594000000E+02  0.51100000000E-03 0. -1.
    9900012    2    1    2    0    0 -0.90986452125E+01 -0.42207017958E+02  0.44052069727E+01  0.47787267770E+02  0.19999985069E+02 0.  0.
        -12    1    1    2    0    0  0.90986452125E+01  0.42207017958E+02 -0.44052069727E+01  0.43400732230E+02  0.00000000000E+00 0.  1.
         11    1    3    3    0    0 -0.12697627110E+02 -0.38101229270E+02  0.63577493429E+01  0.40661460661E+02  0.51100000000E-03 0. -1.
        -11    1    3    3    0    0  0.39854138057E+01 -0.31465502489E+01 -0.18891308371E+00  0.50813374308E+01  0.51100000000E-03 0.  1.
         12    1    3    3    0    0 -0.38643190800E+00 -0.95923843925E+00 -0.17636292865E+01  0.20444696777E+01  0.00000000000E+00 0. -1.
</event>
<event>
 7    1  0.8300060E-011  0.4778728E+02  0.7816164E-02  0.1312668E+00
        -11   -1    0    0    0    0  0.00000000000E+00  0.00000000000E+00  0.45593999997E+02  0.45594000000E+02  0.51100000000E-03 0. -1.
         11   -1    0    0    0    0 -0.00000000000E+00 -0.00000000000E+00 -0.45593999997E+02  0.45594000000E+02  0.51100000000E-03 0.  1.
    9900012    2    1    2    0    0  0.33230484811E+02  0.19983683542E+01  0.27845362690E+02  0.47787276271E+02  0.20000023832E+02 0.  0.
        -12    1    1    2    0    0 -0.33230484811E+02 -0.19983683542E+01 -0.27845362690E+02  0.43400723729E+02  0.00000000000E+00 0.  1.
         11    1    3    3    0    0  0.31271735479E+02  0.13816206900E+01  0.21947695841E+02  0.38229983895E+02  0.51100000000E-03 0. -1.
        -11    1    3    3    0    0  0.26290072879E+00 -0.10158966562E+01  0.69140439223E+01  0.69932228929E+01  0.51100000000E-03 0.  1.
         12    1    3    3    0    0  0.16958486033E+01  0.16326443204E+01 -0.10163770736E+01  0.25640694839E+01  0.00000000000E+00 0. -1.
</event>
<event>
 7    1  0.8300060E-011  0.4778727E+02  0.7816164E-02  0.1312668E+00
        -11   -1    0    0    0    0  0.00000000000E+00  0.00000000000E+00  0.45593999997E+02  0.45594000000E+02  0.51100000000E-03 0. -1.
         11   -1    0    0    0    0 -0.00000000000E+00 -0.00000000000E+00 -0.45593999997E+02  0.45594000000E+02  0.51100000000E-03 0.  1.
    9900012    2    1    2    0    0  0.13733185958E+01 -0.18816405839E+02  0.39085549648E+02  0.47787270467E+02  0.19999997367E+02 0.  0.
        -12    1    1    2    0    0 -0.13733185958E+01  0.18816405839E+02 -0.39085549648E+02  0.43400729533E+02  0.00000000000E+00 0.  1.
         11    1    3    3    0    0 -0.13798345372E+00  0.26532428999E+01  0.14320859422E+02  0.14565224068E+02  0.51100000000E-03 0. -1.
        -11    1    3    3    0    0 -0.77477921587E+00 -0.16116873871E+02  0.20018416930E+02  0.25711688448E+02  0.51100000000E-03 0.  1.
         12    1    3    3    0    0  0.22860812654E+01 -0.53527748677E+01  0.47462732971E+01  0.75103579506E+01  0.00000000000E+00 0. -1.
</event>
<event>
 7    1  0.8300060E-011  0.4778727E+02  0.7816164E-02  0.1312668E+00
        -11   -1    0    0    0    0  0.00000000000E+00  0.00000000000E+00  0.45593999997E+02  0.45594000000E+02  0.51100000000E-03 0. -1.
         11   -1    0    0    0    0 -0.00000000000E+00 -0.00000000000E+00 -0.45593999997E+02  0.45594000000E+02  0.51100000000E-03 0.  1.
    9900012    2    1    2    0    0 -0.74942298012E+01  0.33615050479E+02  0.26410004330E+02  0.47787269271E+02  0.19999991916E+02 0.  0.
        -12    1    1    2    0    0  0.74942298012E+01 -0.33615050479E+02 -0.26410004330E+02  0.43400730729E+02  0.00000000000E+00 0.  1.
         11    1    3    3    0    0 -0.80061525864E+00  0.88064515509E+01  0.33783255166E+00  0.88492205761E+01  0.51100000000E-03 0. -1.
        -11    1    3    3    0    0 -0.97097120675E+01  0.22903964296E+02  0.24862944683E+02  0.35171524099E+02  0.51100000000E-03 0.  1.
        -12    1    3    3    0    0  0.30160975249E+01  0.19046346321E+01  0.12092270962E+01  0.37665245959E+01  0.00000000000E+00 0.  1.
</event>
<event>
 7    1  0.8300060E-011  0.4778727E+02  0.7816164E-02  0.1312668E+00
        -11   -1    0    0    0    0  0.00000000000E+00  0.00000000000E+00  0.45593999997E+02  0.45594000000E+02  0.51100000000E-03 0. -1.
         11   -1    0    0    0    0 -0.00000000000E+00 -0.00000000000E+00 -0.45593999997E+02  0.45594000000E+02  0.51100000000E-03 0.  1.
    9900012    2    1    2    0    0 -0.46367034622E-01 -0.17966349901E+02  0.39507359223E+02  0.47787270612E+02  0.19999998028E+02 0.  0.
        -12    1    1    2    0    0  0.46367034622E-01  0.17966349901E+02 -0.39507359223E+02  0.43400729388E+02  0.00000000000E+00 0.  1.
         11    1    3    3    0    0  0.21644735330E+01 -0.19876815931E+01  0.21252420433E+02  0.21454631163E+02  0.51100000000E-03 0.  1.
        -11    1    3    3    0    0 -0.23971912866E+01 -0.15009153800E+02  0.19512553702E+02  0.24733802297E+02  0.51100000000E-03 0. -1.
        -12    1    3    3    0    0  0.18635071900E+00 -0.96951450738E+00 -0.12576149122E+01  0.15988371518E+01  0.00000000000E+00 0.  1.
</event>
<event>
 7    1  0.8300060E-011  0.4778727E+02  0.7816164E-02  0.1312668E+00
        -11   -1    0    0    0    0  0.00000000000E+00  0.00000000000E+00  0.45593999997E+02  0.45594000000E+02  0.51100000000E-03 0. -1.
         11   -1    0    0    0    0 -0.00000000000E+00 -0.00000000000E+00 -0.45593999997E+02  0.45594000000E+02  0.51100000000E-03 0.  1.
    9900012    2    1    2    0    0 -0.28386124519E+02  0.80673496747E+01  0.31824027824E+02  0.47787274857E+02  0.20000017385E+02 0.  0.
        -12    1    1    2    0    0  0.28386124519E+02 -0.80673496747E+01 -0.31824027824E+02  0.43400725143E+02  0.00000000000E+00 0.  1.
         11    1    3    3    0    0 -0.66495694072E+01  0.40423091212E+01  0.76049820379E+01  0.10880845022E+02  0.51100000000E-03 0. -1.
        -11    1    3    3    0    0 -0.33961524782E+01 -0.58322618185E+01  0.38082560881E+01  0.77493189551E+01  0.51100000000E-03 0.  1.
        -12    1    3    3    0    0 -0.18340402634E+02  0.98573023720E+01  0.20410789698E+02  0.29157110880E+02  0.00000000000E+00 0.  1.
</event>
<event>
 7    1  0.8300060E-011  0.4778727E+02  0.7816164E-02  0.1312668E+00
        -11   -1    0    0    0    0  0.00000000000E+00  0.00000000000E+00  0.45593999997E+02  0.45594000000E+02  0.51100000000E-03 0. -1.
         11   -1    0    0    0    0 -0.00000000000E+00 -0.00000000000E+00 -0.45593999997E+02  0.45594000000E+02  0.51100000000E-03 0.  1.
    9900012    2    1    2    0    0  0.19621508089E+02 -0.29907362870E+02 -0.24579859836E+02  0.47787269095E+02  0.19999991114E+02 0.  0.
         12    1    1    2    0    0 -0.19621508089E+02  0.29907362870E+02  0.24579859836E+02  0.43400730905E+02  0.00000000000E+00 0. -1.
         11    1    3    3    0    0  0.19156530471E+02 -0.22520387585E+02 -0.15164301488E+02  0.33227948425E+02  0.51100000000E-03 0. -1.
        -11    1    3    3    0    0  0.23071571889E+01 -0.27058730887E+01 -0.87999517346E+01  0.94912525127E+01  0.51100000000E-03 0.  1.
         12    1    3    3    0    0 -0.18421795714E+01 -0.46811021965E+01 -0.61560661293E+00  0.50680681575E+01  0.00000000000E+00 0. -1.
</event>
<event>
 7    1  0.8300060E-011  0.4778727E+02  0.7816164E-02  0.1312668E+00
        -11   -1    0    0    0    0  0.00000000000E+00  0.00000000000E+00  0.45593999997E+02  0.45594000000E+02  0.51100000000E-03 0. -1.
         11   -1    0    0    0    0 -0.00000000000E+00 -0.00000000000E+00 -0.45593999997E+02  0.45594000000E+02  0.51100000000E-03 0.  1.
    9900012    2    1    2    0    0  0.94774233224E+01  0.42331954081E+02 -0.13443488722E+01  0.47787272322E+02  0.20000005824E+02 0.  0.
         12    1    1    2    0    0 -0.94774233224E+01 -0.42331954081E+02  0.13443488722E+01  0.43400727678E+02  0.00000000000E+00 0. -1.
         11    1    3    3    0    0  0.17500727529E+01  0.80053987121E+01  0.56210637800E+01  0.99370781149E+01  0.51100000000E-03 0. -1.
        -11    1    3    3    0    0 -0.11245708603E+01  0.16866413771E+02 -0.69434445132E+01  0.18274353479E+02  0.51100000000E-03 0.  1.
         12    1    3    3    0    0  0.88519214298E+01  0.17460141598E+02 -0.21968138969E-01  0.19575840728E+02  0.00000000000E+00 0. -1.
</event>
<event>
 7    1  0.8300060E-011  0.4778727E+02  0.7816164E-02  0.1312668E+00
        -11   -1    0    0    0    0  0.00000000000E+00  0.00000000000E+00  0.45593999997E+02  0.45594000000E+02  0.51100000000E-03 0. -1.
         11   -1    0    0    0    0 -0.00000000000E+00 -0.00000000000E+00 -0.45593999997E+02  0.45594000000E+02  0.51100000000E-03 0.  1.
    9900012    2    1    2    0    0 -0.76140089243E+01 -0.38159655800E+02  0.19222151425E+02  0.47787267655E+02  0.19999984546E+02 0.  0.
        -12    1    1    2    0    0  0.76140089243E+01  0.38159655800E+02 -0.19222151425E+02  0.43400732345E+02  0.00000000000E+00 0.  1.
         11    1    3    3    0    0 -0.10694027056E+02 -0.26289866953E+02  0.15865722077E+02  0.32515234220E+02  0.51100000000E-03 0. -1.
        -11    1    3    3    0    0  0.83414173650E-01 -0.49599385008E+01 -0.26632424379E+01  0.56303470941E+01  0.51100000000E-03 0.  1.
        -12    1    3    3    0    0  0.29966039578E+01 -0.69098503464E+01  0.60196717856E+01  0.96416863409E+01  0.00000000000E+00 0.  1.
</event>
<event>
 7    1  0.8300060E-011  0.4778727E+02  0.7816164E-02  0.1312668E+00
        -11   -1    0    0    0    0  0.00000000000E+00  0.00000000000E+00  0.45593999997E+02  0.45594000000E+02  0.51100000000E-03 0. -1.
         11   -1    0    0    0    0 -0.00000000000E+00 -0.00000000000E+00 -0.45593999997E+02  0.45594000000E+02  0.51100000000E-03 0.  1.
    9900012    2    1    2    0    0  0.15992858089E+01 -0.15673100100E+02 -0.40440325160E+02  0.47787266355E+02  0.19999978620E+02 0.  0.
         12    1    1    2    0    0 -0.15992858089E+01  0.15673100100E+02  0.40440325160E+02  0.43400733645E+02  0.00000000000E+00 0. -1.
         11    1    3    3    0    0 -0.28080119700E-01 -0.13135174126E+02 -0.33178647871E+02  0.35684117793E+02  0.51100000000E-03 0. -1.
        -11    1    3    3    0    0  0.11505358716E+01 -0.16842550445E+01 -0.94704508538E+01  0.96876151597E+01  0.51100000000E-03 0.  1.
         12    1    3    3    0    0  0.47683005706E+00 -0.85367092914E+00  0.22087735649E+01  0.24155334027E+01  0.00000000000E+00 0. -1.
</event>
<event>
 7    1  0.8300060E-011  0.4778728E+02  0.7816164E-02  0.1312668E+00
        -11   -1    0    0    0    0  0.00000000000E+00  0.00000000000E+00  0.45593999997E+02  0.45594000000E+02  0.51100000000E-03 0. -1.
         11   -1    0    0    0    0 -0.00000000000E+00 -0.00000000000E+00 -0.45593999997E+02  0.45594000000E+02  0.51100000000E-03 0.  1.
    9900012    2    1    2    0    0 -0.21818521585E+02 -0.42858356536E+01 -0.37272059087E+02  0.47787278117E+02  0.20000032247E+02 0.  0.
         12    1    1    2    0    0  0.21818521585E+02  0.42858356536E+01  0.37272059087E+02  0.43400721883E+02  0.00000000000E+00 0. -1.
         11    1    3    3    0    0 -0.19904644738E+01 -0.76053464348E+00 -0.15723131131E+01  0.26481183040E+01  0.51100000000E-03 0. -1.
        -11    1    3    3    0    0 -0.26181335424E+01 -0.70315877836E+01 -0.20783352352E+02  0.22096279897E+02  0.51100000000E-03 0.  1.
        -12    1    3    3    0    0 -0.17209923569E+02  0.35062867734E+01 -0.14916393621E+02  0.23042879916E+02  0.00000000000E+00 0.  1.
</event>
<event>
 7    1  0.8300060E-011  0.4778727E+02  0.7816164E-02  0.1312668E+00
        -11   -1    0    0    0    0  0.00000000000E+00  0.00000000000E+00  0.45593999997E+02  0.45594000000E+02  0.51100000000E-03 0. -1.
         11   -1    0    0    0    0 -0.00000000000E+00 -0.00000000000E+00 -0.45593999997E+02  0.45594000000E+02  0.51100000000E-03 0.  1.
    9900012    2    1    2    0    0  0.22516479006E+02 -0.74558742681E+01  0.36346132517E+02  0.47787271471E+02  0.20000001944E+02 0.  0.
        -12    1    1    2    0    0 -0.22516479006E+02  0.74558742681E+01 -0.36346132517E+02  0.43400728529E+02  0.00000000000E+00 0.  1.
         11    1    3    3    0    0  0.29080727358E+01 -0.78935773649E+00  0.19881874855E+02  0.20108926393E+02  0.51100000000E-03 0. -1.
        -11    1    3    3    0    0  0.94077785210E+01 -0.36300339115E+01  0.30100317567E+01  0.10523484895E+02  0.51100000000E-03 0.  1.
        -12    1    3    3    0    0  0.10200627749E+02 -0.30364826201E+01  0.13454225905E+02  0.17154860183E+02  0.00000000000E+00 0.  1.
</event>
<event>
 7    1  0.8300060E-011  0.4778727E+02  0.7816164E-02  0.1312668E+00
        -11   -1    0    0    0    0  0.00000000000E+00  0.00000000000E+00  0.45593999997E+02  0.45594000000E+02  0.51100000000E-03 0. -1.
         11   -1    0    0    0    0 -0.00000000000E+00 -0.00000000000E+00 -0.45593999997E+02  0.45594000000E+02  0.51100000000E-03 0.  1.
    9900012    2    1    2    0    0 -0.87888959050E+01  0.30293961080E+02 -0.29810308708E+02  0.47787271038E+02  0.19999999971E+02 0.  0.
         12    1    1    2    0    0  0.87888959050E+01 -0.30293961080E+02  0.29810308708E+02  0.43400728962E+02  0.00000000000E+00 0. -1.
         11    1    3    3    0    0 -0.32422312666E+01  0.35595036640E+01 -0.52533873930E+01  0.71260233849E+01  0.51100000000E-03 0. -1.
        -11    1    3    3    0    0 -0.56841239724E+01  0.36054765516E-01 -0.37120293042E+01  0.67889415299E+01  0.51100000000E-03 0.  1.
        -12    1    3    3    0    0  0.13745933401E+00  0.26698402651E+02 -0.20844892011E+02  0.33872306123E+02  0.00000000000E+00 0.  1.
</event>
<event>
 7    1  0.8300060E-011  0.4778726E+02  0.7816164E-02  0.1312668E+00
        -11   -1    0    0    0    0  0.00000000000E+00  0.00000000000E+00  0.45593999997E+02  0.45594000000E+02  0.51100000000E-03 0. -1.
         11   -1    0    0    0    0 -0.00000000000E+00 -0.00000000000E+00 -0.45593999997E+02  0.45594000000E+02  0.51100000000E-03 0.  1.
    9900012    2    1    2    0    0 -0.26314027789E+02 -0.18267837371E+02  0.29282802923E+02  0.47787257060E+02  0.19999936240E+02 0.  0.
        -12    1    1    2    0    0  0.26314027789E+02  0.18267837371E+02 -0.29282802923E+02  0.43400742940E+02  0.00000000000E+00 0.  1.
         11    1    3    3    0    0 -0.78418501130E+01  0.18693333361E+01  0.79786366192E+01  0.11342295309E+02  0.51100000000E-03 0. -1.
        -11    1    3    3    0    0 -0.37956956042E+01 -0.90831521133E+00 -0.42860982978E+00  0.39263275832E+01  0.51100000000E-03 0.  1.
         12    1    3    3    0    0 -0.14676482072E+02 -0.19228855496E+02  0.21732776133E+02  0.32518634168E+02  0.00000000000E+00 0. -1.
</event>
<event>
 7    1  0.8300060E-011  0.4778727E+02  0.7816164E-02  0.1312668E+00
        -11   -1    0    0    0    0  0.00000000000E+00  0.00000000000E+00  0.45593999997E+02  0.45594000000E+02  0.51100000000E-03 0. -1.
         11   -1    0    0    0    0 -0.00000000000E+00 -0.00000000000E+00 -0.45593999997E+02  0.45594000000E+02  0.51100000000E-03 0.  1.
    9900012    2    1    2    0    0 -0.15637130491E+02 -0.86573678006E+01  0.39549378669E+02  0.47787271662E+02  0.20000002815E+02 0.  0.
        -12    1    1    2    0    0  0.15637130491E+02  0.86573678006E+01 -0.39549378669E+02  0.43400728338E+02  0.00000000000E+00 0.  1.
         11    1    3    3    0    0 -0.11842280071E+02 -0.33036665779E+01  0.35429346947E+02  0.37501899091E+02  0.51100000000E-03 0. -1.
        -11    1    3    3    0    0 -0.21477800562E+01  0.13503161772E+00 -0.12017755913E+01  0.24648443238E+01  0.51100000000E-03 0.  1.
         12    1    3    3    0    0 -0.16470703636E+01 -0.54887328404E+01  0.53218073133E+01  0.78205282466E+01  0.00000000000E+00 0. -1.
</event>
<event>
 7    1  0.8300060E-011  0.4778727E+02  0.7816164E-02  0.1312668E+00
        -11   -1    0    0    0    0  0.00000000000E+00  0.00000000000E+00  0.45593999997E+02  0.45594000000E+02  0.51100000000E-03 0. -1.
         11   -1    0    0    0    0 -0.00000000000E+00 -0.00000000000E+00 -0.45593999997E+02  0.45594000000E+02  0.51100000000E-03 0.  1.
    9900012    2    1    2    0    0  0.11118699926E+02 -0.22468639807E+02  0.35428211715E+02  0.47787269037E+02  0.19999990847E+02 0.  0.
        -12    1    1    2    0    0 -0.11118699926E+02  0.22468639807E+02 -0.35428211715E+02  0.43400730963E+02  0.00000000000E+00 0.  1.
         11    1    3    3    0    0  0.66685848447E+01 -0.49559335209E+01  0.14304143896E+02  0.16542062561E+02  0.51100000000E-03 0. -1.
        -11    1    3    3    0    0  0.23380515730E+00 -0.94948520147E+01  0.14791478273E+01  0.96122192125E+01  0.51100000000E-03 0.  1.
        -12    1    3    3    0    0  0.42163099238E+01 -0.80178542717E+01  0.19644919991E+02  0.21632987264E+02  0.00000000000E+00 0.  1.
</event>
<event>
 7    1  0.8300060E-011  0.4778727E+02  0.7816164E-02  0.1312668E+00
        -11   -1    0    0    0    0  0.00000000000E+00  0.00000000000E+00  0.45593999997E+02  0.45594000000E+02  0.51100000000E-03 0. -1.
         11   -1    0    0    0    0 -0.00000000000E+00 -0.00000000000E+00 -0.45593999997E+02  0.45594000000E+02  0.51100000000E-03 0.  1.
    9900012    2    1    2    0    0 -0.85420908689E+01 -0.39683622687E+02  0.15357928528E+02  0.47787271957E+02  0.20000004162E+02 0.  0.
        -12    1    1    2    0    0  0.85420908689E+01  0.39683622687E+02 -0.15357928528E+02  0.43400728043E+02  0.00000000000E+00 0.  1.
         11    1    3    3    0    0 -0.12383912054E+01 -0.32119666948E+02  0.76678017772E+01  0.33045450549E+02  0.51100000000E-03 0.  1.
        -11    1    3    3    0    0 -0.85219299334E+01 -0.53925100015E+01  0.62835924514E+01  0.11882171025E+02  0.51100000000E-03 0. -1.
         12    1    3    3    0    0  0.12182302699E+01 -0.21714457373E+01  0.14065342993E+01  0.28596503835E+01  0.00000000000E+00 0. -1.
</event>
<event>
 7    1  0.8300060E-011  0.4778728E+02  0.7816164E-02  0.1312668E+00
        -11   -1    0    0    0    0  0.00000000000E+00  0.00000000000E+00  0.45593999997E+02  0.45594000000E+02  0.51100000000E-03 0. -1.
         11   -1    0    0    0    0 -0.00000000000E+00 -0.00000000000E+00 -0.45593999997E+02  0.45594000000E+02  0.51100000000E-03 0.  1.
    9900012    2    1    2    0    0 -0.51103226895E+01  0.11941075951E+02  0.41411569747E+02  0.47787276483E+02  0.20000024797E+02 0.  0.
        -12    1    1    2    0    0  0.51103226895E+01 -0.11941075951E+02 -0.41411569747E+02  0.43400723517E+02  0.00000000000E+00 0.  1.
         11    1    3    3    0    0  0.21590538372E+01 -0.16465903288E+00  0.12277699906E+02  0.12467178563E+02  0.51100000000E-03 0. -1.
        -11    1    3    3    0    0 -0.11413591442E+02  0.70278501319E+01  0.20087238758E+02  0.24148662660E+02  0.51100000000E-03 0.  1.
        -12    1    3    3    0    0  0.41442149148E+01  0.50778848517E+01  0.90466310829E+01  0.11171435260E+02  0.00000000000E+00 0.  1.
</event>
<event>
 7    1  0.8300060E-011  0.4778727E+02  0.7816164E-02  0.1312668E+00
        -11   -1    0    0    0    0  0.00000000000E+00  0.00000000000E+00  0.45593999997E+02  0.45594000000E+02  0.51100000000E-03 0. -1.
         11   -1    0    0    0    0 -0.00000000000E+00 -0.00000000000E+00 -0.45593999997E+02  0.45594000000E+02  0.51100000000E-03 0.  1.
    9900012    2    1    2    0    0 -0.27665654882E+02  0.61478665416E-01 -0.33439963471E+02  0.47787269631E+02  0.19999993553E+02 0.  0.
         12    1    1    2    0    0  0.27665654882E+02 -0.61478665416E-01  0.33439963471E+02  0.43400730369E+02  0.00000000000E+00 0. -1.
         11    1    3    3    0    0 -0.48557752568E+01  0.60748728282E+01 -0.55287450620E+01  0.95419943117E+01  0.51100000000E-03 0. -1.
        -11    1    3    3    0    0 -0.22578305195E+02 -0.48746902798E+01 -0.28700149113E+02  0.36840752302E+02  0.51100000000E-03 0.  1.
        -12    1    3    3    0    0 -0.23157442940E+00 -0.11387038830E+01  0.78893070364E+00  0.14045230168E+01  0.00000000000E+00 0.  1.
</event>
<event>
 7    1  0.8300060E-011  0.4778727E+02  0.7816164E-02  0.1312668E+00
        -11   -1    0    0    0    0  0.00000000000E+00  0.00000000000E+00  0.45593999997E+02  0.45594000000E+02  0.51100000000E-03 0. -1.
         11   -1    0    0    0    0 -0.00000000000E+00 -0.00000000000E+00 -0.45593999997E+02  0.45594000000E+02  0.51100000000E-03 0.  1.
    9900012    2    1    2    0    0  0.17701174862E+02  0.23204920850E+02 -0.32122009785E+02  0.47787268949E+02  0.19999990446E+02 0.  0.
         12    1    1    2    0    0 -0.17701174862E+02 -0.23204920850E+02  0.32122009785E+02  0.43400731051E+02  0.00000000000E+00 0. -1.
         11    1    3    3    0    0  0.15281256635E+02  0.18004828648E+02 -0.32848332919E+02  0.40456194023E+02  0.51100000000E-03 0.  1.
        -11    1    3    3    0    0  0.39869372670E+00  0.46689423930E+01  0.17524415998E+01  0.50029023155E+01  0.51100000000E-03 0. -1.
        -12    1    3    3    0    0  0.20212245000E+01  0.53114980884E+00 -0.10261184659E+01  0.23281726106E+01  0.00000000000E+00 0.  1.
</event>
<event>
 7    1  0.8300060E-011  0.4778727E+02  0.7816164E-02  0.1312668E+00
        -11   -1    0    0    0    0  0.00000000000E+00  0.00000000000E+00  0.45593999997E+02  0.45594000000E+02  0.51100000000E-03 0. -1.
         11   -1    0    0    0    0 -0.00000000000E+00 -0.00000000000E+00 -0.45593999997E+02  0.45594000000E+02  0.51100000000E-03 0.  1.
    9900012    2    1    2    0    0 -0.26127892883E+02  0.16166955861E+02 -0.30652665791E+02  0.47787272259E+02  0.20000005538E+02 0.  0.
         12    1    1    2    0    0  0.26127892883E+02 -0.16166955861E+02  0.30652665791E+02  0.43400727741E+02  0.00000000000E+00 0. -1.
         11    1    3    3    0    0 -0.23319784963E+01  0.44835862801E+01  0.14031199223E+01  0.52449418887E+01  0.51100000000E-03 0. -1.
        -11    1    3    3    0    0 -0.24371634811E+02  0.12141343478E+02 -0.31337072091E+02  0.41513863857E+02  0.51100000000E-03 0.  1.
        -12    1    3    3    0    0  0.57572042495E+00 -0.45797389685E+00 -0.71871362324E+00  0.10284665139E+01  0.00000000000E+00 0.  1.
</event>
<event>
 7    1  0.8300060E-011  0.4778727E+02  0.7816164E-02  0.1312668E+00
        -11   -1    0    0    0    0  0.00000000000E+00  0.00000000000E+00  0.45593999997E+02  0.45594000000E+02  0.51100000000E-03 0. -1.
         11   -1    0    0    0    0 -0.00000000000E+00 -0.00000000000E+00 -0.45593999997E+02  0.45594000000E+02  0.51100000000E-03 0.  1.
    9900012    2    1    2    0    0 -0.19759838833E+02 -0.13971372797E+02  0.36027388623E+02  0.47787271671E+02  0.20000002856E+02 0.  0.
        -12    1    1    2    0    0  0.19759838833E+02  0.13971372797E+02 -0.36027388623E+02  0.43400728329E+02  0.00000000000E+00 0.  1.
         11    1    3    3    0    0 -0.14843998497E+02  0.84039106659E+00  0.21651973558E+02  0.26265157676E+02  0.51100000000E-03 0. -1.
        -11    1    3    3    0    0 -0.21388089314E+01 -0.99251256702E+01  0.73975193358E+01  0.12562082463E+02  0.51100000000E-03 0.  1.
         12    1    3    3    0    0 -0.27770314048E+01 -0.48866381932E+01  0.69778957284E+01  0.89600315318E+01  0.00000000000E+00 0. -1.
</event>
<event>
 7    1  0.8300060E-011  0.4778727E+02  0.7816164E-02  0.1312668E+00
        -11   -1    0    0    0    0  0.00000000000E+00  0.00000000000E+00  0.45593999997E+02  0.45594000000E+02  0.51100000000E-03 0. -1.
         11   -1    0    0    0    0 -0.00000000000E+00 -0.00000000000E+00 -0.45593999997E+02  0.45594000000E+02  0.51100000000E-03 0.  1.
    9900012    2    1    2    0    0 -0.43821604035E+01 -0.65125397693E+01 -0.42684970183E+02  0.47787272085E+02  0.20000004744E+02 0.  0.
         12    1    1    2    0    0  0.43821604035E+01  0.65125397693E+01  0.42684970183E+02  0.43400727915E+02  0.00000000000E+00 0. -1.
         11    1    3    3    0    0 -0.35903981907E+01  0.34595035753E+01 -0.19078600570E+02  0.19719333765E+02  0.51100000000E-03 0. -1.
        -11    1    3    3    0    0 -0.36445644845E+01 -0.11375417566E+02 -0.19604198943E+02  0.22956645912E+02  0.51100000000E-03 0.  1.
         12    1    3    3    0    0  0.28528022718E+01  0.14033742216E+01 -0.40021706700E+01  0.51112924079E+01  0.00000000000E+00 0. -1.
</event>
<event>
 7    1  0.8300060E-011  0.4778727E+02  0.7816164E-02  0.1312668E+00
        -11   -1    0    0    0    0  0.00000000000E+00  0.00000000000E+00  0.45593999997E+02  0.45594000000E+02  0.51100000000E-03 0. -1.
         11   -1    0    0    0    0 -0.00000000000E+00 -0.00000000000E+00 -0.45593999997E+02  0.45594000000E+02  0.51100000000E-03 0.  1.
    9900012    2    1    2    0    0  0.12192942403E+02 -0.78895268848E+01  0.40898785814E+02  0.47787272356E+02  0.20000005981E+02 0.  0.
        -12    1    1    2    0    0 -0.12192942403E+02  0.78895268848E+01 -0.40898785814E+02  0.43400727644E+02  0.00000000000E+00 0.  1.
         11    1    3    3    0    0  0.12299841312E+02  0.98807735331E+00  0.12334390993E+02  0.17447051172E+02  0.51100000000E-03 0. -1.
        -11    1    3    3    0    0  0.11154381032E+01 -0.72565404449E+01  0.15888216354E+02  0.17502485554E+02  0.51100000000E-03 0.  1.
         12    1    3    3    0    0 -0.12223370116E+01 -0.16210637932E+01  0.12676178467E+02  0.12837735630E+02  0.00000000000E+00 0. -1.
</event>
<event>
 7    1  0.8300060E-011  0.4778727E+02  0.7816164E-02  0.1312668E+00
        -11   -1    0    0    0    0  0.00000000000E+00  0.00000000000E+00  0.45593999997E+02  0.45594000000E+02  0.51100000000E-03 0. -1.
         11   -1    0    0    0    0 -0.00000000000E+00 -0.00000000000E+00 -0.45593999997E+02  0.45594000000E+02  0.51100000000E-03 0.  1.
    9900012    2    1    2    0    0 -0.23055608135E+02 -0.28400492318E+02  0.23355394187E+02  0.47787268808E+02  0.19999989801E+02 0.  0.
        -12    1    1    2    0    0  0.23055608135E+02  0.28400492318E+02 -0.23355394187E+02  0.43400731192E+02  0.00000000000E+00 0.  1.
         11    1    3    3    0    0 -0.14819263386E+02 -0.19162795139E+02  0.23253804477E+02  0.33579200523E+02  0.51100000000E-03 0. -1.
        -11    1    3    3    0    0 -0.41070077121E+01 -0.70792135855E+01  0.30044515250E+01  0.87183431089E+01  0.51100000000E-03 0.  1.
         12    1    3    3    0    0 -0.41293370377E+01 -0.21584835937E+01 -0.29028618147E+01  0.54897251762E+01  0.00000000000E+00 0. -1.
</event>
<event>
 7    1  0.8300060E-011  0.4778727E+02  0.7816164E-02  0.1312668E+00
        -11   -1    0    0    0    0  0.00000000000E+00  0.00000000000E+00  0.45593999997E+02  0.45594000000E+02  0.51100000000E-03 0. -1.
         11   -1    0    0    0    0 -0.00000000000E+00 -0.00000000000E+00 -0.45593999997E+02  0.45594000000E+02  0.51100000000E-03 0.  1.
    9900012    2    1    2    0    0 -0.24882458802E+02  0.83856687653E+01  0.34556721050E+02  0.47787272282E+02  0.20000005644E+02 0.  0.
        -12    1    1    2    0    0  0.24882458802E+02 -0.83856687653E+01 -0.34556721050E+02  0.43400727718E+02  0.00000000000E+00 0.  1.
         11    1    3    3    0    0 -0.12024028460E+02  0.10112244427E+02  0.21918193138E+02  0.26967423653E+02  0.51100000000E-03 0. -1.
        -11    1    3    3    0    0 -0.72874742694E+01 -0.54430881415E+01  0.10264221185E+02  0.13714544343E+02  0.51100000000E-03 0.  1.
         12    1    3    3    0    0 -0.55709560722E+01  0.37165124802E+01  0.23743067277E+01  0.71053042870E+01  0.00000000000E+00 0. -1.
</event>
<event>
 7    1  0.8300060E-011  0.4778725E+02  0.7816164E-02  0.1312668E+00
        -11   -1    0    0    0    0  0.00000000000E+00  0.00000000000E+00  0.45593999997E+02  0.45594000000E+02  0.51100000000E-03 0. -1.
         11   -1    0    0    0    0 -0.00000000000E+00 -0.00000000000E+00 -0.45593999997E+02  0.45594000000E+02  0.51100000000E-03 0.  1.
    9900012    2    1    2    0    0  0.14429154886E+02 -0.34511234129E+02 -0.22009078439E+02  0.47787247408E+02  0.19999892230E+02 0.  0.
         12    1    1    2    0    0 -0.14429154886E+02  0.34511234129E+02  0.22009078439E+02  0.43400752592E+02  0.00000000000E+00 0. -1.
         11    1    3    3    0    0  0.28444963535E+01 -0.49628643373E+01 -0.16693471335E+01  0.59588507322E+01  0.51100000000E-03 0. -1.
        -11    1    3    3    0    0 -0.98930245492E+00 -0.20757172332E+02 -0.14817256185E+02  0.25522343224E+02  0.51100000000E-03 0.  1.
        -12    1    3    3    0    0  0.12573960987E+02 -0.87911974601E+01 -0.55224751212E+01  0.16306053451E+02  0.00000000000E+00 0.  1.
</event>
<event>
 7    1  0.8300060E-011  0.4778727E+02  0.7816164E-02  0.1312668E+00
        -11   -1    0    0    0    0  0.00000000000E+00  0.00000000000E+00  0.45593999997E+02  0.45594000000E+02  0.51100000000E-03 0.  1.
         11   -1    0    0    0    0 -0.00000000000E+00 -0.00000000000E+00 -0.45593999997E+02  0.45594000000E+02  0.51100000000E-03 0. -1.
    9900012    2    1    2    0    0 -0.36545737507E+02  0.23395113177E+02  0.83724744100E+00  0.47787271507E+02  0.20000002108E+02 0.  0.
         12    1    1    2    0    0  0.36545737507E+02 -0.23395113177E+02 -0.83724744100E+00  0.43400728493E+02  0.00000000000E+00 0. -1.
         11    1    3    3    0    0 -0.14650039187E+02  0.42277979703E+00  0.33428740714E-03  0.14656138349E+02  0.51100000000E-03 0. -1.
        -11    1    3    3    0    0 -0.86127201063E+01  0.38307004731E+01  0.25628091878E+01  0.97683778049E+01  0.51100000000E-03 0.  1.
         12    1    3    3    0    0 -0.13282978214E+02  0.19141632906E+02 -0.17258960342E+01  0.23362755353E+02  0.00000000000E+00 0. -1.
</event>
<event>
 7    1  0.8300060E-011  0.4778733E+02  0.7816164E-02  0.1312668E+00
        -11   -1    0    0    0    0  0.00000000000E+00  0.00000000000E+00  0.45593999997E+02  0.45594000000E+02  0.51100000000E-03 0. -1.
         11   -1    0    0    0    0 -0.00000000000E+00 -0.00000000000E+00 -0.45593999997E+02  0.45594000000E+02  0.51100000000E-03 0.  1.
    9900012    2    1    2    0    0 -0.36833804973E+02 -0.22592934904E+02 -0.40556754844E+01  0.47787327194E+02  0.20000256005E+02 0.  0.
         12    1    1    2    0    0  0.36833804973E+02  0.22592934904E+02  0.40556754844E+01  0.43400672806E+02  0.00000000000E+00 0. -1.
         11    1    3    3    0    0 -0.23980125378E+01 -0.20414112894E+01  0.41521348999E+01  0.52113384722E+01  0.51100000000E-03 0. -1.
        -11    1    3    3    0    0 -0.29314532429E+02 -0.12187618348E+02 -0.81168037033E+01  0.32768313279E+02  0.51100000000E-03 0.  1.
        -12    1    3    3    0    0 -0.51212600061E+01 -0.83639052670E+01 -0.91006681027E-01  0.98076754423E+01  0.00000000000E+00 0.  1.
</event>
<event>
 7    1  0.8300060E-011  0.4778728E+02  0.7816164E-02  0.1312668E+00
        -11   -1    0    0    0    0  0.00000000000E+00  0.00000000000E+00  0.45593999997E+02  0.45594000000E+02  0.51100000000E-03 0. -1.
         11   -1    0    0    0    0 -0.00000000000E+00 -0.00000000000E+00 -0.45593999997E+02  0.45594000000E+02  0.51100000000E-03 0.  1.
    9900012    2    1    2    0    0 -0.13446660834E+02 -0.49400514302E+01 -0.40968353834E+02  0.47787276370E+02  0.20000024281E+02 0.  0.
         12    1    1    2    0    0  0.13446660834E+02  0.49400514302E+01  0.40968353834E+02  0.43400723630E+02  0.00000000000E+00 0. -1.
         11    1    3    3    0    0 -0.43465927892E+01  0.64319811217E+00  0.86675328317E+00  0.44785973475E+01  0.51100000000E-03 0. -1.
        -11    1    3    3    0    0 -0.86049390335E+01 -0.39888378800E+01 -0.34028916302E+02  0.35325952901E+02  0.51100000000E-03 0.  1.
         12    1    3    3    0    0 -0.49512901168E+00 -0.15944116624E+01 -0.78061908152E+01  0.79827261215E+01  0.00000000000E+00 0. -1.
</event>
<event>
 7    1  0.8300060E-011  0.4778727E+02  0.7816164E-02  0.1312668E+00
        -11   -1    0    0    0    0  0.00000000000E+00  0.00000000000E+00  0.45593999997E+02  0.45594000000E+02  0.51100000000E-03 0. -1.
         11   -1    0    0    0    0 -0.00000000000E+00 -0.00000000000E+00 -0.45593999997E+02  0.45594000000E+02  0.51100000000E-03 0.  1.
    9900012    2    1    2    0    0  0.24539379886E+02  0.31431388500E+01 -0.35658979531E+02  0.47787270649E+02  0.19999998198E+02 0.  0.
         12    1    1    2    0    0 -0.24539379886E+02 -0.31431388500E+01  0.35658979531E+02  0.43400729351E+02  0.00000000000E+00 0. -1.
         11    1    3    3    0    0  0.10094037480E+02  0.14344233107E+01 -0.33037678748E+01  0.10717371194E+02  0.51100000000E-03 0. -1.
        -11    1    3    3    0    0  0.10865177509E+02 -0.25881486326E+01 -0.27432577300E+02  0.29619198051E+02  0.51100000000E-03 0.  1.
         12    1    3    3    0    0  0.35801648968E+01  0.42968641719E+01 -0.49226343563E+01  0.74507014036E+01  0.00000000000E+00 0. -1.
</event>
<event>
 7    1  0.8300060E-011  0.4778732E+02  0.7816164E-02  0.1312668E+00
        -11   -1    0    0    0    0  0.00000000000E+00  0.00000000000E+00  0.45593999997E+02  0.45594000000E+02  0.51100000000E-03 0. -1.
         11   -1    0    0    0    0 -0.00000000000E+00 -0.00000000000E+00 -0.45593999997E+02  0.45594000000E+02  0.51100000000E-03 0.  1.
    9900012    2    1    2    0    0 -0.72846505417E+00 -0.14693677851E+02  0.40831168298E+02  0.47787318730E+02  0.20000217417E+02 0.  0.
        -12    1    1    2    0    0  0.72846505417E+00  0.14693677851E+02 -0.40831168298E+02  0.43400681270E+02  0.00000000000E+00 0.  1.
         11    1    3    3    0    0 -0.50669512532E+01 -0.26174588164E+01  0.12911652122E+02  0.14115092860E+02  0.51100000000E-03 0. -1.
        -11    1    3    3    0    0  0.67708322833E+01 -0.14079309369E+02  0.22269685666E+02  0.27203125226E+02  0.51100000000E-03 0.  1.
        -12    1    3    3    0    0 -0.24323460843E+01  0.20030903346E+01  0.56498305095E+01  0.64691006445E+01  0.00000000000E+00 0.  1.
</event>
<event>
 7    1  0.8300060E-011  0.4778727E+02  0.7816164E-02  0.1312668E+00
        -11   -1    0    0    0    0  0.00000000000E+00  0.00000000000E+00  0.45593999997E+02  0.45594000000E+02  0.51100000000E-03 0.  1.
         11   -1    0    0    0    0 -0.00000000000E+00 -0.00000000000E+00 -0.45593999997E+02  0.45594000000E+02  0.51100000000E-03 0. -1.
    9900012    2    1    2    0    0  0.25917180869E+02  0.34124621638E+02 -0.68871663905E+01  0.47787272736E+02  0.20000007712E+02 0.  0.
         12    1    1    2    0    0 -0.25917180869E+02 -0.34124621638E+02  0.68871663905E+01  0.43400727264E+02  0.00000000000E+00 0. -1.
         11    1    3    3    0    0  0.24130922232E+01  0.26886578596E+01  0.21093926840E+01  0.41834713959E+01  0.51100000000E-03 0. -1.
        -11    1    3    3    0    0 -0.13680577117E+01  0.60108715695E+01  0.18202348425E+01  0.64277067505E+01  0.51100000000E-03 0.  1.
        -12    1    3    3    0    0  0.24872146358E+02  0.25425092209E+02 -0.10816793917E+02  0.37176094589E+02  0.00000000000E+00 0.  1.
</event>
<event>
 7    1  0.8300060E-011  0.4778727E+02  0.7816164E-02  0.1312668E+00
        -11   -1    0    0    0    0  0.00000000000E+00  0.00000000000E+00  0.45593999997E+02  0.45594000000E+02  0.51100000000E-03 0. -1.
         11   -1    0    0    0    0 -0.00000000000E+00 -0.00000000000E+00 -0.45593999997E+02  0.45594000000E+02  0.51100000000E-03 0.  1.
    9900012    2    1    2    0    0  0.29725345739E+02  0.46739555375E+01  0.31275886720E+02  0.47787272704E+02  0.20000007567E+02 0.  0.
        -12    1    1    2    0    0 -0.29725345739E+02 -0.46739555375E+01 -0.31275886720E+02  0.43400727296E+02  0.00000000000E+00 0.  1.
         11    1    3    3    0    0  0.14163127824E+02  0.62674615112E+00  0.21780975231E+02  0.25988418243E+02  0.51100000000E-03 0.  1.
        -11    1    3    3    0    0  0.12062139280E+02 -0.17429992240E+00  0.15750427894E+01  0.12165785816E+02  0.51100000000E-03 0. -1.
        -12    1    3    3    0    0  0.35000786349E+01  0.42215093088E+01  0.79198686995E+01  0.96330686446E+01  0.00000000000E+00 0.  1.
</event>
<event>
 7    1  0.8300060E-011  0.4778728E+02  0.7816164E-02  0.1312668E+00
        -11   -1    0    0    0    0  0.00000000000E+00  0.00000000000E+00  0.45593999997E+02  0.45594000000E+02  0.51100000000E-03 0. -1.
         11   -1    0    0    0    0 -0.00000000000E+00 -0.00000000000E+00 -0.45593999997E+02  0.45594000000E+02  0.51100000000E-03 0.  1.
    9900012    2    1    2    0    0  0.14139839807E+02 -0.35898778185E+02 -0.19873737076E+02  0.47787276846E+02  0.20000026451E+02 0.  0.
         12    1    1    2    0    0 -0.14139839807E+02  0.35898778185E+02  0.19873737076E+02  0.43400723154E+02  0.00000000000E+00 0. -1.
         11    1    3    3    0    0 -0.25620316795E+01 -0.14894948310E+02 -0.39630259931E+01  0.15624630132E+02  0.51100000000E-03 0. -1.
        -11    1    3    3    0    0  0.12221954320E+02 -0.19408734625E+02 -0.11420509025E+02  0.25622317885E+02  0.51100000000E-03 0.  1.
        -12    1    3    3    0    0  0.44799171659E+01 -0.15950952501E+01 -0.44902020578E+01  0.65403288289E+01  0.00000000000E+00 0.  1.
</event>
<event>
 7    1  0.8300060E-011  0.4778727E+02  0.7816164E-02  0.1312668E+00
        -11   -1    0    0    0    0  0.00000000000E+00  0.00000000000E+00  0.45593999997E+02  0.45594000000E+02  0.51100000000E-03 0.  1.
         11   -1    0    0    0    0 -0.00000000000E+00 -0.00000000000E+00 -0.45593999997E+02  0.45594000000E+02  0.51100000000E-03 0. -1.
    9900012    2    1    2    0    0 -0.21287181662E+02 -0.37723828515E+02 -0.27187718652E+01  0.47787273492E+02  0.20000011160E+02 0.  0.
         12    1    1    2    0    0  0.21287181662E+02  0.37723828515E+02  0.27187718652E+01  0.43400726508E+02  0.00000000000E+00 0. -1.
         11    1    3    3    0    0 -0.29470079626E+01 -0.23287367392E+02 -0.45559163758E+01  0.23911141969E+02  0.51100000000E-03 0. -1.
        -11    1    3    3    0    0 -0.77949181110E+01 -0.40344001023E+01  0.22396786129E+01  0.90583272790E+01  0.51100000000E-03 0.  1.
         12    1    3    3    0    0 -0.10545255589E+02 -0.10402061021E+02 -0.40253410235E+00  0.14817804244E+02  0.00000000000E+00 0. -1.
</event>
<event>
 7    1  0.8300060E-011  0.4778728E+02  0.7816164E-02  0.1312668E+00
        -11   -1    0    0    0    0  0.00000000000E+00  0.00000000000E+00  0.45593999997E+02  0.45594000000E+02  0.51100000000E-03 0. -1.
         11   -1    0    0    0    0 -0.00000000000E+00 -0.00000000000E+00 -0.45593999997E+02  0.45594000000E+02  0.51100000000E-03 0.  1.
    9900012    2    1    2    0    0  0.25275991421E+02 -0.57713120277E+01  0.34805733504E+02  0.47787275702E+02  0.20000021238E+02 0.  0.
        -12    1    1    2    0    0 -0.25275991421E+02  0.57713120277E+01 -0.34805733504E+02  0.43400724298E+02  0.00000000000E+00 0.  1.
         11    1    3    3    0    0  0.13280853500E+02 -0.23273726301E+01  0.11467353350E+02  0.17700223901E+02  0.51100000000E-03 0. -1.
        -11    1    3    3    0    0  0.38350476657E+01  0.55543581369E+01  0.69562244386E+01  0.96926541057E+01  0.51100000000E-03 0.  1.
        -12    1    3    3    0    0  0.81600902554E+01 -0.89982975345E+01  0.16382155715E+02  0.20394397695E+02  0.00000000000E+00 0.  1.
</event>
<event>
 7    1  0.8300060E-011  0.4778727E+02  0.7816164E-02  0.1312668E+00
        -11   -1    0    0    0    0  0.00000000000E+00  0.00000000000E+00  0.45593999997E+02  0.45594000000E+02  0.51100000000E-03 0. -1.
         11   -1    0    0    0    0 -0.00000000000E+00 -0.00000000000E+00 -0.45593999997E+02  0.45594000000E+02  0.51100000000E-03 0.  1.
    9900012    2    1    2    0    0 -0.17010025325E+01 -0.29114915647E+02 -0.32141119148E+02  0.47787271172E+02  0.20000000580E+02 0.  0.
         12    1    1    2    0    0  0.17010025325E+01  0.29114915647E+02  0.32141119148E+02  0.43400728828E+02  0.00000000000E+00 0. -1.
         11    1    3    3    0    0 -0.31566842169E+01 -0.11715196634E+02 -0.26077949934E+02  0.28762301028E+02  0.51100000000E-03 0.  1.
        -11    1    3    3    0    0  0.21080606052E+01 -0.12561351070E+02 -0.61455827366E+01  0.14142123167E+02  0.51100000000E-03 0. -1.
         12    1    3    3    0    0 -0.65237892085E+00 -0.48383679431E+01  0.82413523024E-01  0.48828469767E+01  0.00000000000E+00 0. -1.
</event>
<event>
 7    1  0.8300060E-011  0.4778727E+02  0.7816164E-02  0.1312668E+00
        -11   -1    0    0    0    0  0.00000000000E+00  0.00000000000E+00  0.45593999997E+02  0.45594000000E+02  0.51100000000E-03 0. -1.
         11   -1    0    0    0    0 -0.00000000000E+00 -0.00000000000E+00 -0.45593999997E+02  0.45594000000E+02  0.51100000000E-03 0.  1.
    9900012    2    1    2    0    0  0.18841379703E+02 -0.23568052902E+02 -0.31195717057E+02  0.47787268792E+02  0.19999989729E+02 0.  0.
         12    1    1    2    0    0 -0.18841379703E+02  0.23568052902E+02  0.31195717057E+02  0.43400731208E+02  0.00000000000E+00 0. -1.
         11    1    3    3    0    0 -0.23796069185E+01 -0.38593214564E+01 -0.72165738321E+01  0.85226656233E+01  0.51100000000E-03 0. -1.
        -11    1    3    3    0    0  0.18681460045E+02 -0.14647520488E+02 -0.13386391797E+02  0.27253298727E+02  0.51100000000E-03 0.  1.
        -12    1    3    3    0    0  0.25395265762E+01 -0.50612109572E+01 -0.10592751428E+02  0.12011304442E+02  0.00000000000E+00 0.  1.
</event>
<event>
 7    1  0.8300060E-011  0.4778734E+02  0.7816164E-02  0.1312667E+00
        -11   -1    0    0    0    0  0.00000000000E+00  0.00000000000E+00  0.45593999997E+02  0.45594000000E+02  0.51100000000E-03 0. -1.
         11   -1    0    0    0    0 -0.00000000000E+00 -0.00000000000E+00 -0.45593999997E+02  0.45594000000E+02  0.51100000000E-03 0.  1.
    9900012    2    1    2    0    0  0.37953573496E+02  0.12917567112E+02 -0.16621682245E+02  0.47787336390E+02  0.20000297933E+02 0.  0.
         12    1    1    2    0    0 -0.37953573496E+02 -0.12917567112E+02  0.16621682245E+02  0.43400663610E+02  0.00000000000E+00 0. -1.
         11    1    3    3    0    0  0.12228852555E+01 -0.19272510201E+01 -0.31546495397E+01  0.38937846399E+01  0.51100000000E-03 0. -1.
        -11    1    3    3    0    0  0.19062412090E+02  0.81564307862E+01 -0.71061652955E-01  0.20734222143E+02  0.51100000000E-03 0.  1.
        -12    1    3    3    0    0  0.17668276150E+02  0.66883873455E+01 -0.13395971052E+02  0.23159329607E+02  0.00000000000E+00 0.  1.
</event>
<event>
 7    1  0.8300060E-011  0.4778727E+02  0.7816164E-02  0.1312668E+00
        -11   -1    0    0    0    0  0.00000000000E+00  0.00000000000E+00  0.45593999997E+02  0.45594000000E+02  0.51100000000E-03 0. -1.
         11   -1    0    0    0    0 -0.00000000000E+00 -0.00000000000E+00 -0.45593999997E+02  0.45594000000E+02  0.51100000000E-03 0.  1.
    9900012    2    1    2    0    0  0.75036453388E-01  0.42374447174E+02  0.93821011078E+01  0.47787271608E+02  0.20000002571E+02 0.  0.
        -12    1    1    2    0    0 -0.75036453388E-01 -0.42374447174E+02 -0.93821011078E+01  0.43400728392E+02  0.00000000000E+00 0.  1.
         11    1    3    3    0    0  0.55214776529E+00  0.39656842493E+02  0.11902253268E+02  0.41408135152E+02  0.51100000000E-03 0. -1.
        -11    1    3    3    0    0 -0.27788369705E+01  0.13949128834E+01 -0.19301097344E+01  0.36596503533E+01  0.51100000000E-03 0.  1.
         12    1    3    3    0    0  0.23017256585E+01  0.13226917975E+01 -0.59004242622E+00  0.27194861028E+01  0.00000000000E+00 0. -1.
</event>
<event>
 7    1  0.8300060E-011  0.4778727E+02  0.7816164E-02  0.1312668E+00
        -11   -1    0    0    0    0  0.00000000000E+00  0.00000000000E+00  0.45593999997E+02  0.45594000000E+02  0.51100000000E-03 0.  1.
         11   -1    0    0    0    0 -0.00000000000E+00 -0.00000000000E+00 -0.45593999997E+02  0.45594000000E+02  0.51100000000E-03 0. -1.
    9900012    2    1    2    0    0 -0.33868159095E+02  0.21277811205E+02 -0.16847129100E+02  0.47787271791E+02  0.20000003403E+02 0.  0.
         12    1    1    2    0    0  0.33868159095E+02 -0.21277811205E+02  0.16847129100E+02  0.43400728209E+02  0.00000000000E+00 0. -1.
         11    1    3    3    0    0 -0.21241629408E+01 -0.24638449166E+01 -0.35163247588E+01  0.47903173217E+01  0.51100000000E-03 0. -1.
        -11    1    3    3    0    0 -0.29090611317E+02  0.19335339127E+02 -0.85200779695E+01  0.35954286738E+02  0.51100000000E-03 0.  1.
        -12    1    3    3    0    0 -0.26533848376E+01  0.44063169942E+01 -0.48107263720E+01  0.70426677315E+01  0.00000000000E+00 0.  1.
</event>
<event>
 7    1  0.8300060E-011  0.4778728E+02  0.7816164E-02  0.1312668E+00
        -11   -1    0    0    0    0  0.00000000000E+00  0.00000000000E+00  0.45593999997E+02  0.45594000000E+02  0.51100000000E-03 0. -1.
         11   -1    0    0    0    0 -0.00000000000E+00 -0.00000000000E+00 -0.45593999997E+02  0.45594000000E+02  0.51100000000E-03 0.  1.
    9900012    2    1    2    0    0  0.65286852730E+01  0.15377541943E+02  0.40056589079E+02  0.47787275856E+02  0.20000021938E+02 0.  0.
        -12    1    1    2    0    0 -0.65286852730E+01 -0.15377541943E+02 -0.40056589079E+02  0.43400724144E+02  0.00000000000E+00 0.  1.
         11    1    3    3    0    0  0.40700743790E+01  0.14400073297E+02  0.20108436273E+02  0.25065450844E+02  0.51100000000E-03 0. -1.
        -11    1    3    3    0    0  0.46765836248E+01  0.36253154780E+01  0.62988704442E+01  0.86422864943E+01  0.51100000000E-03 0.  1.
         12    1    3    3    0    0 -0.22179727308E+01 -0.26478468322E+01  0.13649282362E+02  0.14079538518E+02  0.00000000000E+00 0. -1.
</event>
<event>
 7    1  0.8300060E-011  0.4778727E+02  0.7816164E-02  0.1312668E+00
        -11   -1    0    0    0    0  0.00000000000E+00  0.00000000000E+00  0.45593999997E+02  0.45594000000E+02  0.51100000000E-03 0. -1.
         11   -1    0    0    0    0 -0.00000000000E+00 -0.00000000000E+00 -0.45593999997E+02  0.45594000000E+02  0.51100000000E-03 0.  1.
    9900012    2    1    2    0    0  0.53778697896E+01  0.26063454357E+02 -0.34284078623E+02  0.47787272085E+02  0.20000004746E+02 0.  0.
         12    1    1    2    0    0 -0.53778697896E+01 -0.26063454357E+02  0.34284078623E+02  0.43400727915E+02  0.00000000000E+00 0. -1.
         11    1    3    3    0    0  0.62851772692E+00  0.59802980906E+01 -0.12981978064E+02  0.14307017667E+02  0.51100000000E-03 0. -1.
        -11    1    3    3    0    0  0.81579715994E+01  0.35527889089E+01 -0.83868897718E+01  0.12227621598E+02  0.51100000000E-03 0.  1.
        -12    1    3    3    0    0 -0.34086195367E+01  0.16530367358E+02 -0.12915210787E+02  0.21252632820E+02  0.00000000000E+00 0.  1.
</event>
<event>
 7    1  0.8300060E-011  0.4778727E+02  0.7816164E-02  0.1312668E+00
        -11   -1    0    0    0    0  0.00000000000E+00  0.00000000000E+00  0.45593999997E+02  0.45594000000E+02  0.51100000000E-03 0. -1.
         11   -1    0    0    0    0 -0.00000000000E+00 -0.00000000000E+00 -0.45593999997E+02  0.45594000000E+02  0.51100000000E-03 0.  1.
    9900012    2    1    2    0    0 -0.10044850355E+02  0.32236996839E+02 -0.27267204792E+02  0.47787269119E+02  0.19999991219E+02 0.  0.
         12    1    1    2    0    0  0.10044850355E+02 -0.32236996839E+02  0.27267204792E+02  0.43400730881E+02  0.00000000000E+00 0. -1.
         11    1    3    3    0    0  0.15534000359E+01 -0.66462126782E+00 -0.73572290683E+01  0.75487477720E+01  0.51100000000E-03 0. -1.
        -11    1    3    3    0    0 -0.44769914047E+01  0.15793161286E+02 -0.10044646356E+02  0.19244799717E+02  0.51100000000E-03 0.  1.
         12    1    3    3    0    0 -0.71212589867E+01  0.17108456821E+02 -0.98653293676E+01  0.20993721630E+02  0.00000000000E+00 0. -1.
</event>
<event>
 7    1  0.8300060E-011  0.4778727E+02  0.7816164E-02  0.1312668E+00
        -11   -1    0    0    0    0  0.00000000000E+00  0.00000000000E+00  0.45593999997E+02  0.45594000000E+02  0.51100000000E-03 0. -1.
         11   -1    0    0    0    0 -0.00000000000E+00 -0.00000000000E+00 -0.45593999997E+02  0.45594000000E+02  0.51100000000E-03 0.  1.
    9900012    2    1    2    0    0 -0.12609392642E+02  0.12341405379E+02  0.39652440586E+02  0.47787272887E+02  0.20000008401E+02 0.  0.
        -12    1    1    2    0    0  0.12609392642E+02 -0.12341405379E+02 -0.39652440586E+02  0.43400727113E+02  0.00000000000E+00 0.  1.
         11    1    3    3    0    0 -0.52127969224E+01 -0.18347066628E+01  0.98451224449E+01  0.11290076905E+02  0.51100000000E-03 0.  1.
        -11    1    3    3    0    0  0.36820701951E+01  0.52465782947E+01  0.12856277058E+02  0.14365517212E+02  0.51100000000E-03 0. -1.
        -12    1    3    3    0    0 -0.11078665915E+02  0.89295337469E+01  0.16951041083E+02  0.22131678770E+02  0.00000000000E+00 0.  1.
</event>
<event>
 7    1  0.8300060E-011  0.4778727E+02  0.7816164E-02  0.1312668E+00
        -11   -1    0    0    0    0  0.00000000000E+00  0.00000000000E+00  0.45593999997E+02  0.45594000000E+02  0.51100000000E-03 0. -1.
         11   -1    0    0    0    0 -0.00000000000E+00 -0.00000000000E+00 -0.45593999997E+02  0.45594000000E+02  0.51100000000E-03 0.  1.
    9900012    2    1    2    0    0 -0.46488190926E+01  0.57741852693E+01 -0.42762957011E+02  0.47787271587E+02  0.20000002471E+02 0.  0.
         12    1    1    2    0    0  0.46488190926E+01 -0.57741852693E+01  0.42762957011E+02  0.43400728413E+02  0.00000000000E+00 0. -1.
         11    1    3    3    0    0 -0.80526541571E+00 -0.30822001839E+01 -0.17102178573E+02  0.17396347966E+02  0.51100000000E-03 0. -1.
        -11    1    3    3    0    0 -0.80871653163E+01  0.41822284747E+01 -0.10098162985E+02  0.13596550070E+02  0.51100000000E-03 0.  1.
        -12    1    3    3    0    0  0.42436116394E+01  0.46741569785E+01 -0.15562615453E+02  0.16794373550E+02  0.00000000000E+00 0.  1.
</event>
<event>
 7    1  0.8300060E-011  0.4778727E+02  0.7816164E-02  0.1312668E+00
        -11   -1    0    0    0    0  0.00000000000E+00  0.00000000000E+00  0.45593999997E+02  0.45594000000E+02  0.51100000000E-03 0. -1.
         11   -1    0    0    0    0 -0.00000000000E+00 -0.00000000000E+00 -0.45593999997E+02  0.45594000000E+02  0.51100000000E-03 0.  1.
    9900012    2    1    2    0    0  0.24335160703E+02 -0.14546541395E+02  0.32860634491E+02  0.47787271756E+02  0.20000003243E+02 0.  0.
        -12    1    1    2    0    0 -0.24335160703E+02  0.14546541395E+02 -0.32860634491E+02  0.43400728244E+02  0.00000000000E+00 0.  1.
         11    1    3    3    0    0  0.23469425164E+01 -0.71440399581E+01  0.19281389446E+02  0.20695831110E+02  0.51100000000E-03 0. -1.
        -11    1    3    3    0    0  0.16474351050E+02 -0.59704975532E+01  0.11791009279E+02  0.21120581991E+02  0.51100000000E-03 0.  1.
         12    1    3    3    0    0  0.55138671367E+01 -0.14320038836E+01  0.17882357658E+01  0.59708586550E+01  0.00000000000E+00 0. -1.
</event>
<event>
 7    1  0.8300060E-011  0.4778727E+02  0.7816164E-02  0.1312668E+00
        -11   -1    0    0    0    0  0.00000000000E+00  0.00000000000E+00  0.45593999997E+02  0.45594000000E+02  0.51100000000E-03 0. -1.
         11   -1    0    0    0    0 -0.00000000000E+00 -0.00000000000E+00 -0.45593999997E+02  0.45594000000E+02  0.51100000000E-03 0.  1.
    9900012    2    1    2    0    0  0.75993946887E+01  0.31729948565E+02  0.28619623624E+02  0.47787270836E+02  0.19999999050E+02 0.  0.
        -12    1    1    2    0    0 -0.75993946887E+01 -0.31729948565E+02 -0.28619623624E+02  0.43400729164E+02  0.00000000000E+00 0.  1.
         11    1    3    3    0    0 -0.91279337717E+00  0.18217132671E+02  0.21852602151E+02  0.28464597934E+02  0.51100000000E-03 0. -1.
        -11    1    3    3    0    0 -0.39170518908E+00  0.90027854771E+00  0.33760304617E+01  0.35158948161E+01  0.51100000000E-03 0.  1.
         12    1    3    3    0    0  0.89038932550E+01  0.12612537347E+02  0.33909910107E+01  0.15806778086E+02  0.00000000000E+00 0. -1.
</event>
<event>
 7    1  0.8300060E-011  0.4778726E+02  0.7816164E-02  0.1312668E+00
        -11   -1    0    0    0    0  0.00000000000E+00  0.00000000000E+00  0.45593999997E+02  0.45594000000E+02  0.51100000000E-03 0. -1.
         11   -1    0    0    0    0 -0.00000000000E+00 -0.00000000000E+00 -0.45593999997E+02  0.45594000000E+02  0.51100000000E-03 0.  1.
    9900012    2    1    2    0    0 -0.18482083900E+02 -0.58669131575E+01 -0.38828029133E+02  0.47787263352E+02  0.19999964925E+02 0.  0.
         12    1    1    2    0    0  0.18482083900E+02  0.58669131575E+01  0.38828029133E+02  0.43400736648E+02  0.00000000000E+00 0. -1.
         11    1    3    3    0    0 -0.67736787221E+01 -0.84602668200E+01 -0.86708649608E+01  0.13879579876E+02  0.51100000000E-03 0. -1.
        -11    1    3    3    0    0 -0.10693998272E+02  0.40888642457E+01 -0.16219032173E+02  0.19852894367E+02  0.51100000000E-03 0.  1.
         12    1    3    3    0    0 -0.10144069061E+01 -0.14955105832E+01 -0.13938131999E+02  0.14054789109E+02  0.00000000000E+00 0. -1.
</event>
<event>
 7    1  0.8300060E-011  0.4778728E+02  0.7816164E-02  0.1312668E+00
        -11   -1    0    0    0    0  0.00000000000E+00  0.00000000000E+00  0.45593999997E+02  0.45594000000E+02  0.51100000000E-03 0. -1.
         11   -1    0    0    0    0 -0.00000000000E+00 -0.00000000000E+00 -0.45593999997E+02  0.45594000000E+02  0.51100000000E-03 0.  1.
    9900012    2    1    2    0    0 -0.26039902304E+02  0.34355088244E+02  0.50273400524E+01  0.47787277099E+02  0.20000027606E+02 0.  0.
        -12    1    1    2    0    0  0.26039902304E+02 -0.34355088244E+02 -0.50273400524E+01  0.43400722901E+02  0.00000000000E+00 0.  1.
         11    1    3    3    0    0 -0.16822140563E+02  0.33137524246E+02  0.52674716286E+01  0.37534333402E+02  0.51100000000E-03 0. -1.
        -11    1    3    3    0    0 -0.46068939288E+01  0.29001300745E+00 -0.22536984620E+01  0.51368021409E+01  0.51100000000E-03 0.  1.
         12    1    3    3    0    0 -0.46108678124E+01  0.92755099078E+00  0.20135668858E+01  0.51161415567E+01  0.00000000000E+00 0. -1.
</event>
<event>
 7    1  0.8300060E-011  0.4778727E+02  0.7816164E-02  0.1312668E+00
        -11   -1    0    0    0    0  0.00000000000E+00  0.00000000000E+00  0.45593999997E+02  0.45594000000E+02  0.51100000000E-03 0. -1.
         11   -1    0    0    0    0 -0.00000000000E+00 -0.00000000000E+00 -0.45593999997E+02  0.45594000000E+02  0.51100000000E-03 0.  1.
    9900012    2    1    2    0    0  0.18929394516E+02 -0.23424751917E+02 -0.31250313693E+02  0.47787273220E+02  0.20000009921E+02 0.  0.
         12    1    1    2    0    0 -0.18929394516E+02  0.23424751917E+02  0.31250313693E+02  0.43400726780E+02  0.00000000000E+00 0. -1.
         11    1    3    3    0    0  0.17151357276E+02 -0.21492456051E+02 -0.27618788560E+02  0.38972967623E+02  0.51100000000E-03 0. -1.
        -11    1    3    3    0    0  0.37546726417E+01 -0.14527816188E+01 -0.49574898503E+01  0.63863015083E+01  0.51100000000E-03 0.  1.
         12    1    3    3    0    0 -0.19766354015E+01 -0.47951424717E+00  0.13259647182E+01  0.24280040893E+01  0.00000000000E+00 0. -1.
</event>
<event>
 7    1  0.8300060E-011  0.4778727E+02  0.7816164E-02  0.1312668E+00
        -11   -1    0    0    0    0  0.00000000000E+00  0.00000000000E+00  0.45593999997E+02  0.45594000000E+02  0.51100000000E-03 0. -1.
         11   -1    0    0    0    0 -0.00000000000E+00 -0.00000000000E+00 -0.45593999997E+02  0.45594000000E+02  0.51100000000E-03 0.  1.
    9900012    2    1    2    0    0  0.16761011739E+02 -0.25579365157E+02  0.30795904243E+02  0.47787272420E+02  0.20000006270E+02 0.  0.
        -12    1    1    2    0    0 -0.16761011739E+02  0.25579365157E+02 -0.30795904243E+02  0.43400727580E+02  0.00000000000E+00 0.  1.
         11    1    3    3    0    0  0.43700103268E+01 -0.15606306498E+02  0.16461571302E+02  0.23100587066E+02  0.51100000000E-03 0. -1.
        -11    1    3    3    0    0  0.61208410409E+01 -0.58831957677E+01 -0.28663586718E-01  0.84898474280E+01  0.51100000000E-03 0.  1.
        -12    1    3    3    0    0  0.62701603713E+01 -0.40898628912E+01  0.14362996528E+02  0.16196837926E+02  0.00000000000E+00 0.  1.
</event>
<event>
 7    1  0.8300060E-011  0.4778726E+02  0.7816164E-02  0.1312668E+00
        -11   -1    0    0    0    0  0.00000000000E+00  0.00000000000E+00  0.45593999997E+02  0.45594000000E+02  0.51100000000E-03 0.  1.
         11   -1    0    0    0    0 -0.00000000000E+00 -0.00000000000E+00 -0.45593999997E+02  0.45594000000E+02  0.51100000000E-03 0. -1.
    9900012    2    1    2    0    0  0.35275691397E+02  0.24322868998E+02 -0.69027302550E+01  0.47787262163E+02  0.19999959507E+02 0.  0.
        -12    1    1    2    0    0 -0.35275691397E+02 -0.24322868998E+02  0.69027302550E+01  0.43400737837E+02  0.00000000000E+00 0.  1.
         11    1    3    3    0    0  0.23629106867E+02  0.25095329468E+02 -0.85444032820E+01  0.35512210297E+02  0.51100000000E-03 0. -1.
        -11    1    3    3    0    0  0.56819840831E+01 -0.19339393339E+01  0.15445682700E+01  0.61976411536E+01  0.51100000000E-03 0.  1.
        -12    1    3    3    0    0  0.59646004463E+01  0.11614788632E+01  0.97104757011E-01  0.60774107125E+01  0.00000000000E+00 0.  1.
</event>
<event>
 7    1  0.8300060E-011  0.4778728E+02  0.7816164E-02  0.1312668E+00
        -11   -1    0    0    0    0  0.00000000000E+00  0.00000000000E+00  0.45593999997E+02  0.45594000000E+02  0.51100000000E-03 0.  1.
         11   -1    0    0    0    0 -0.00000000000E+00 -0.00000000000E+00 -0.45593999997E+02  0.45594000000E+02  0.51100000000E-03 0. -1.
    9900012    2    1    2    0    0  0.36481357464E+02 -0.33889154120E+01  0.23264748155E+02  0.47787277693E+02  0.20000030314E+02 0.  0.
        -12    1    1    2    0    0 -0.36481357464E+02  0.33889154120E+01 -0.23264748155E+02  0.43400722307E+02  0.00000000000E+00 0.  1.
         11    1    3    3    0    0 -0.10855312171E+01  0.13359077404E+01 -0.72854661600E+00  0.18691730650E+01  0.51100000000E-03 0. -1.
        -11    1    3    3    0    0  0.58259386588E+01 -0.10689772755E+01  0.86259036290E+01  0.10463770226E+02  0.51100000000E-03 0.  1.
         12    1    3    3    0    0  0.31740950022E+02 -0.36558458768E+01  0.15367391142E+02  0.35454334402E+02  0.00000000000E+00 0. -1.
</event>
<event>
 7    1  0.8300060E-011  0.4778727E+02  0.7816164E-02  0.1312668E+00
        -11   -1    0    0    0    0  0.00000000000E+00  0.00000000000E+00  0.45593999997E+02  0.45594000000E+02  0.51100000000E-03 0. -1.
         11   -1    0    0    0    0 -0.00000000000E+00 -0.00000000000E+00 -0.45593999997E+02  0.45594000000E+02  0.51100000000E-03 0.  1.
    9900012    2    1    2    0    0  0.25215024908E+02 -0.24176397799E+02 -0.25755147746E+02  0.47787270432E+02  0.19999997206E+02 0.  0.
         12    1    1    2    0    0 -0.25215024908E+02  0.24176397799E+02  0.25755147746E+02  0.43400729568E+02  0.00000000000E+00 0. -1.
         11    1    3    3    0    0  0.65315920858E+01  0.18061421291E+00 -0.77814790739E+00  0.65802607164E+01  0.51100000000E-03 0. -1.
        -11    1    3    3    0    0  0.15532731219E+02 -0.21388881834E+02 -0.25642197932E+02  0.36827602695E+02  0.51100000000E-03 0.  1.
        -12    1    3    3    0    0  0.31507016028E+01 -0.29681301777E+01  0.66519809317E+00  0.43794070198E+01  0.00000000000E+00 0.  1.
</event>
<event>
 7    1  0.8300060E-011  0.4778729E+02  0.7816164E-02  0.1312668E+00
        -11   -1    0    0    0    0  0.00000000000E+00  0.00000000000E+00  0.45593999997E+02  0.45594000000E+02  0.51100000000E-03 0. -1.
         11   -1    0    0    0    0 -0.00000000000E+00 -0.00000000000E+00 -0.45593999997E+02  0.45594000000E+02  0.51100000000E-03 0.  1.
    9900012    2    1    2    0    0  0.22189328748E+02 -0.37053854504E+02 -0.42740189865E+01  0.47787289381E+02  0.20000083605E+02 0.  0.
        -12    1    1    2    0    0 -0.22189328748E+02  0.37053854504E+02  0.42740189865E+01  0.43400710619E+02  0.00000000000E+00 0.  1.
         11    1    3    3    0    0  0.49109205567E+01 -0.90023228283E+01  0.58914326897E+01  0.11826577545E+02  0.51100000000E-03 0. -1.
        -11    1    3    3    0    0  0.12622811468E+02 -0.11348943403E+02 -0.68646708906E+01  0.18310040755E+02  0.51100000000E-03 0.  1.
        -12    1    3    3    0    0  0.46555967233E+01 -0.16702588273E+02 -0.33007807856E+01  0.17650671082E+02  0.00000000000E+00 0.  1.
</event>
<event>
 7    1  0.8300060E-011  0.4778728E+02  0.7816164E-02  0.1312668E+00
        -11   -1    0    0    0    0  0.00000000000E+00  0.00000000000E+00  0.45593999997E+02  0.45594000000E+02  0.51100000000E-03 0. -1.
         11   -1    0    0    0    0 -0.00000000000E+00 -0.00000000000E+00 -0.45593999997E+02  0.45594000000E+02  0.51100000000E-03 0.  1.
    9900012    2    1    2    0    0 -0.24144799975E+02  0.34369784437E+02  0.10925631556E+02  0.47787275664E+02  0.20000021060E+02 0.  0.
        -12    1    1    2    0    0  0.24144799975E+02 -0.34369784437E+02 -0.10925631556E+02  0.43400724336E+02  0.00000000000E+00 0.  1.
         11    1    3    3    0    0 -0.39447984522E+01  0.83348366121E+01  0.81669863851E+01  0.12317897672E+02  0.51100000000E-03 0. -1.
        -11    1    3    3    0    0 -0.17135187665E+02  0.25504515655E+02 -0.80831990494E+00  0.30736759042E+02  0.51100000000E-03 0.  1.
         12    1    3    3    0    0 -0.30648138580E+01  0.53043216946E+00  0.35669650755E+01  0.47326189494E+01  0.00000000000E+00 0. -1.
</event>
<event>
 7    1  0.8300060E-011  0.4778726E+02  0.7816164E-02  0.1312668E+00
        -11   -1    0    0    0    0  0.00000000000E+00  0.00000000000E+00  0.45593999997E+02  0.45594000000E+02  0.51100000000E-03 0. -1.
         11   -1    0    0    0    0 -0.00000000000E+00 -0.00000000000E+00 -0.45593999997E+02  0.45594000000E+02  0.51100000000E-03 0.  1.
    9900012    2    1    2    0    0 -0.16089616482E+01  0.92095516309E+01  0.42381827924E+02  0.47787263405E+02  0.19999965167E+02 0.  0.
        -12    1    1    2    0    0  0.16089616482E+01 -0.92095516309E+01 -0.42381827924E+02  0.43400736595E+02  0.00000000000E+00 0.  1.
         11    1    3    3    0    0 -0.50902447039E+01  0.45116044817E+01  0.19807102231E+02  0.20942456045E+02  0.51100000000E-03 0. -1.
        -11    1    3    3    0    0  0.27109199988E+01 -0.40091915768E+01  0.38641434596E+01  0.61930856023E+01  0.51100000000E-03 0.  1.
        -12    1    3    3    0    0  0.77036305688E+00  0.87071387260E+01  0.18710582233E+02  0.20651721757E+02  0.00000000000E+00 0.  1.
</event>
<event>
 7    1  0.8300060E-011  0.4778727E+02  0.7816164E-02  0.1312668E+00
        -11   -1    0    0    0    0  0.00000000000E+00  0.00000000000E+00  0.45593999997E+02  0.45594000000E+02  0.51100000000E-03 0. -1.
         11   -1    0    0    0    0 -0.00000000000E+00 -0.00000000000E+00 -0.45593999997E+02  0.45594000000E+02  0.51100000000E-03 0.  1.
    9900012    2    1    2    0    0  0.15085596630E+02 -0.85248592114E+01 -0.39791642042E+02  0.47787271588E+02  0.20000002480E+02 0.  0.
         12    1    1    2    0    0 -0.15085596630E+02  0.85248592114E+01  0.39791642042E+02  0.43400728412E+02  0.00000000000E+00 0. -1.
         11    1    3    3    0    0  0.82231030197E+01 -0.46828004124E+01 -0.86815115848E+01  0.12841989201E+02  0.51100000000E-03 0. -1.
        -11    1    3    3    0    0  0.89807663344E+01 -0.62242708193E+01 -0.15205879370E+02  0.18724702370E+02  0.51100000000E-03 0.  1.
         12    1    3    3    0    0 -0.21182727239E+01  0.23822120203E+01 -0.15904251088E+02  0.16220580017E+02  0.00000000000E+00 0. -1.
</event>
<event>
 7    1  0.8300060E-011  0.4778727E+02  0.7816164E-02  0.1312668E+00
        -11   -1    0    0    0    0  0.00000000000E+00  0.00000000000E+00  0.45593999997E+02  0.45594000000E+02  0.51100000000E-03 0. -1.
         11   -1    0    0    0    0 -0.00000000000E+00 -0.00000000000E+00 -0.45593999997E+02  0.45594000000E+02  0.51100000000E-03 0.  1.
    9900012    2    1    2    0    0  0.21263211791E+02  0.86513393196E+01  0.36832778542E+02  0.47787269329E+02  0.19999992178E+02 0.  0.
        -12    1    1    2    0    0 -0.21263211791E+02 -0.86513393196E+01 -0.36832778542E+02  0.43400730671E+02  0.00000000000E+00 0.  1.
         11    1    3    3    0    0  0.11341465842E+02  0.10651898302E+02  0.25522342212E+02  0.29891164868E+02  0.51100000000E-03 0. -1.
        -11    1    3    3    0    0  0.18460464021E+01  0.18482134735E+01  0.79024317657E+01  0.83229927571E+01  0.51100000000E-03 0.  1.
         12    1    3    3    0    0  0.80756995471E+01 -0.38487724560E+01  0.34080045638E+01  0.95731117041E+01  0.00000000000E+00 0. -1.
</event>
<event>
 7    1  0.8300060E-011  0.4778727E+02  0.7816164E-02  0.1312668E+00
        -11   -1    0    0    0    0  0.00000000000E+00  0.00000000000E+00  0.45593999997E+02  0.45594000000E+02  0.51100000000E-03 0. -1.
         11   -1    0    0    0    0 -0.00000000000E+00 -0.00000000000E+00 -0.45593999997E+02  0.45594000000E+02  0.51100000000E-03 0.  1.
    9900012    2    1    2    0    0  0.42090951014E+02  0.12929466412E+01 -0.10502567172E+02  0.47787265151E+02  0.19999973128E+02 0.  0.
         12    1    1    2    0    0 -0.42090951014E+02 -0.12929466412E+01  0.10502567172E+02  0.43400734849E+02  0.00000000000E+00 0. -1.
         11    1    3    3    0    0 -0.13789189121E+01  0.16004595647E+01 -0.20691745037E+01  0.29570883605E+01  0.51100000000E-03 0. -1.
        -11    1    3    3    0    0  0.33906363333E+02  0.22105613868E+01 -0.81231734963E+01  0.34935855565E+02  0.51100000000E-03 0.  1.
        -12    1    3    3    0    0  0.95635065926E+01 -0.25180743103E+01 -0.31021917209E+00  0.98943212256E+01  0.00000000000E+00 0.  1.
</event>
<event>
 7    1  0.9999941E-011  0.4778727E+02  0.7816164E-02  0.1312668E+00
        -11   -1    0    0    0    0  0.00000000000E+00  0.00000000000E+00  0.45593999997E+02  0.45594000000E+02  0.51100000000E-03 0. -1.
         11   -1    0    0    0    0 -0.00000000000E+00 -0.00000000000E+00 -0.45593999997E+02  0.45594000000E+02  0.51100000000E-03 0.  1.
    9900012    2    1    2    0    0 -0.20474272210E+02  0.28270124472E+02 -0.25792003440E+02  0.47787271876E+02  0.20000003794E+02 0.  0.
         12    1    1    2    0    0  0.20474272210E+02 -0.28270124472E+02  0.25792003440E+02  0.43400728124E+02  0.00000000000E+00 0. -1.
         11    1    3    3    0    0  0.12050627378E+01  0.70792891769E+01  0.35546969411E+00  0.71899144930E+01  0.51100000000E-03 0. -1.
        -11    1    3    3    0    0 -0.10227382436E+02  0.85692322331E+01 -0.15714205175E+02  0.20614735922E+02  0.51100000000E-03 0.  1.
         12    1    3    3    0    0 -0.11451952512E+02  0.12621603062E+02 -0.10433267959E+02  0.19982621462E+02  0.00000000000E+00 0. -1.
</event>
<event>
 7    1  0.8300060E-011  0.4778727E+02  0.7816164E-02  0.1312668E+00
        -11   -1    0    0    0    0  0.00000000000E+00  0.00000000000E+00  0.45593999997E+02  0.45594000000E+02  0.51100000000E-03 0. -1.
         11   -1    0    0    0    0 -0.00000000000E+00 -0.00000000000E+00 -0.45593999997E+02  0.45594000000E+02  0.51100000000E-03 0.  1.
    9900012    2    1    2    0    0 -0.38968592172E+02 -0.12118451102E+02 -0.14772098878E+02  0.47787274911E+02  0.20000017629E+02 0.  0.
         12    1    1    2    0    0  0.38968592172E+02  0.12118451102E+02  0.14772098878E+02  0.43400725089E+02  0.00000000000E+00 0. -1.
         11    1    3    3    0    0 -0.64467275952E+01 -0.36297793198E+01  0.54479376839E+00  0.74183822434E+01  0.51100000000E-03 0. -1.
        -11    1    3    3    0    0 -0.22848111095E+01 -0.54658610431E+01 -0.63530355860E+01  0.86866023373E+01  0.51100000000E-03 0.  1.
        -12    1    3    3    0    0 -0.30237053468E+02 -0.30228107387E+01 -0.89638570609E+01  0.31682290330E+02  0.00000000000E+00 0.  1.
</event>
<event>
 7    1  0.8300060E-011  0.4778727E+02  0.7816164E-02  0.1312668E+00
        -11   -1    0    0    0    0  0.00000000000E+00  0.00000000000E+00  0.45593999997E+02  0.45594000000E+02  0.51100000000E-03 0. -1.
         11   -1    0    0    0    0 -0.00000000000E+00 -0.00000000000E+00 -0.45593999997E+02  0.45594000000E+02  0.51100000000E-03 0.  1.
    9900012    2    1    2    0    0  0.19825455317E+02  0.55089518573E+01  0.38212902930E+02  0.47787272132E+02  0.20000004961E+02 0.  0.
        -12    1    1    2    0    0 -0.19825455317E+02 -0.55089518573E+01 -0.38212902930E+02  0.43400727868E+02  0.00000000000E+00 0.  1.
         11    1    3    3    0    0  0.57484731312E+01  0.32132905854E-02  0.16697050184E+02  0.17658891210E+02  0.51100000000E-03 0. -1.
        -11    1    3    3    0    0  0.87666991471E+01  0.84038104869E+01  0.61458724146E+01  0.13610686707E+02  0.51100000000E-03 0.  1.
        -12    1    3    3    0    0  0.53102830390E+01 -0.28980719202E+01  0.15369980331E+02  0.16517694215E+02  0.00000000000E+00 0.  1.
</event>
<event>
 7    1  0.8300060E-011  0.4778727E+02  0.7816164E-02  0.1312668E+00
        -11   -1    0    0    0    0  0.00000000000E+00  0.00000000000E+00  0.45593999997E+02  0.45594000000E+02  0.51100000000E-03 0. -1.
         11   -1    0    0    0    0 -0.00000000000E+00 -0.00000000000E+00 -0.45593999997E+02  0.45594000000E+02  0.51100000000E-03 0.  1.
    9900012    2    1    2    0    0 -0.24423280103E+02 -0.60345985203E+01  0.35365382444E+02  0.47787271139E+02  0.20000000429E+02 0.  0.
        -12    1    1    2    0    0  0.24423280103E+02  0.60345985203E+01 -0.35365382444E+02  0.43400728861E+02  0.00000000000E+00 0.  1.
         11    1    3    3    0    0 -0.72442026835E+01 -0.69342293092E+01  0.29675633195E+01  0.10457936744E+02  0.51100000000E-03 0. -1.
        -11    1    3    3    0    0 -0.24583268946E+01  0.23345164739E+01  0.93323792389E+01  0.99290805621E+01  0.51100000000E-03 0.  1.
         12    1    3    3    0    0 -0.14720750525E+02 -0.14348856850E+01  0.23065439886E+02  0.27400253832E+02  0.00000000000E+00 0. -1.
</event>
<event>
 7    1  0.8300060E-011  0.4778727E+02  0.7816164E-02  0.1312668E+00
        -11   -1    0    0    0    0  0.00000000000E+00  0.00000000000E+00  0.45593999997E+02  0.45594000000E+02  0.51100000000E-03 0. -1.
         11   -1    0    0    0    0 -0.00000000000E+00 -0.00000000000E+00 -0.45593999997E+02  0.45594000000E+02  0.51100000000E-03 0.  1.
    9900012    2    1    2    0    0 -0.35311120804E+02  0.36264432059E+01 -0.24971927473E+02  0.47787268387E+02  0.19999987885E+02 0.  0.
         12    1    1    2    0    0  0.35311120804E+02 -0.36264432059E+01  0.24971927473E+02  0.43400731613E+02  0.00000000000E+00 0. -1.
         11    1    3    3    0    0 -0.42488525935E+01  0.26733967511E+01  0.30615985293E+01  0.58798966288E+01  0.51100000000E-03 0. -1.
        -11    1    3    3    0    0 -0.22881179253E+02  0.11111614961E+01 -0.21772439688E+02  0.31604148052E+02  0.51100000000E-03 0.  1.
         12    1    3    3    0    0 -0.81810889580E+01 -0.15811504133E+00 -0.62610863153E+01  0.10303223707E+02  0.00000000000E+00 0. -1.
</event>
<event>
 7    1  0.8300060E-011  0.4778727E+02  0.7816164E-02  0.1312668E+00
        -11   -1    0    0    0    0  0.00000000000E+00  0.00000000000E+00  0.45593999997E+02  0.45594000000E+02  0.51100000000E-03 0.  1.
         11   -1    0    0    0    0 -0.00000000000E+00 -0.00000000000E+00 -0.45593999997E+02  0.45594000000E+02  0.51100000000E-03 0. -1.
    9900012    2    1    2    0    0  0.26894400967E+02  0.31839975146E+02  0.12104966741E+02  0.47787273733E+02  0.20000012261E+02 0.  0.
        -12    1    1    2    0    0 -0.26894400967E+02 -0.31839975146E+02 -0.12104966741E+02  0.43400726267E+02  0.00000000000E+00 0.  1.
         11    1    3    3    0    0  0.25132503071E+02  0.23057356779E+02  0.36615574872E+01  0.34302935964E+02  0.51100000000E-03 0. -1.
        -11    1    3    3    0    0  0.16208936012E+01  0.35374802177E+01  0.70546642290E+01  0.80566339127E+01  0.51100000000E-03 0.  1.
        -12    1    3    3    0    0  0.14100429448E+00  0.52451381488E+01  0.13887450252E+01  0.54277038567E+01  0.00000000000E+00 0.  1.
</event>
<event>
 7    1  0.8300060E-011  0.4778727E+02  0.7816164E-02  0.1312668E+00
        -11   -1    0    0    0    0  0.00000000000E+00  0.00000000000E+00  0.45593999997E+02  0.45594000000E+02  0.51100000000E-03 0. -1.
         11   -1    0    0    0    0 -0.00000000000E+00 -0.00000000000E+00 -0.45593999997E+02  0.45594000000E+02  0.51100000000E-03 0.  1.
    9900012    2    1    2    0    0  0.34249934318E+02  0.22139775605E+02 -0.14845726644E+02  0.47787271156E+02  0.20000000509E+02 0.  0.
         12    1    1    2    0    0 -0.34249934318E+02 -0.22139775605E+02  0.14845726644E+02  0.43400728844E+02  0.00000000000E+00 0. -1.
         11    1    3    3    0    0  0.33182377436E+01  0.51034521242E+01 -0.56259987377E+00  0.61133005968E+01  0.51100000000E-03 0. -1.
        -11    1    3    3    0    0  0.44323748063E+01  0.10500544245E+02 -0.13693202787E+01  0.11479652179E+02  0.51100000000E-03 0.  1.
        -12    1    3    3    0    0  0.26499321768E+02  0.65357792364E+01 -0.12913806491E+02  0.30194318381E+02  0.00000000000E+00 0.  1.
</event>
<event>
 7    1  0.8300060E-011  0.4778727E+02  0.7816164E-02  0.1312668E+00
        -11   -1    0    0    0    0  0.00000000000E+00  0.00000000000E+00  0.45593999997E+02  0.45594000000E+02  0.51100000000E-03 0. -1.
         11   -1    0    0    0    0 -0.00000000000E+00 -0.00000000000E+00 -0.45593999997E+02  0.45594000000E+02  0.51100000000E-03 0.  1.
    9900012    2    1    2    0    0 -0.18600391361E+01 -0.37187434817E+02 -0.22299290242E+02  0.47787269601E+02  0.19999993420E+02 0.  0.
         12    1    1    2    0    0  0.18600391361E+01  0.37187434817E+02  0.22299290242E+02  0.43400730399E+02  0.00000000000E+00 0. -1.
         11    1    3    3    0    0 -0.41732284891E+01 -0.15915169079E+02 -0.13245702462E+02  0.21122430656E+02  0.51100000000E-03 0. -1.
        -11    1    3    3    0    0 -0.29286404034E+01 -0.55668569927E+01 -0.78567594957E+01  0.10064566629E+02  0.51100000000E-03 0.  1.
         12    1    3    3    0    0  0.52418297565E+01 -0.15705408745E+02 -0.11968282846E+01  0.16600272317E+02  0.00000000000E+00 0. -1.
</event>
<event>
 7    1  0.8300060E-011  0.4778728E+02  0.7816164E-02  0.1312668E+00
        -11   -1    0    0    0    0  0.00000000000E+00  0.00000000000E+00  0.45593999997E+02  0.45594000000E+02  0.51100000000E-03 0. -1.
         11   -1    0    0    0    0 -0.00000000000E+00 -0.00000000000E+00 -0.45593999997E+02  0.45594000000E+02  0.51100000000E-03 0.  1.
    9900012    2    1    2    0    0  0.13911222659E+01 -0.33041244971E+02  0.28106290178E+02  0.47787278371E+02  0.20000033403E+02 0.  0.
        -12    1    1    2    0    0 -0.13911222659E+01  0.33041244971E+02 -0.28106290178E+02  0.43400721629E+02  0.00000000000E+00 0.  1.
         11    1    3    3    0    0 -0.43523269969E+01 -0.13788703207E+02  0.15425280728E+02  0.21142619804E+02  0.51100000000E-03 0. -1.
        -11    1    3    3    0    0  0.47989760487E+01 -0.81910693674E+00  0.37190206939E+01  0.61263547459E+01  0.51100000000E-03 0.  1.
         12    1    3    3    0    0  0.94447321406E+00 -0.18433434827E+02  0.89619887567E+01  0.20518303820E+02  0.00000000000E+00 0. -1.
</event>
<event>
 7    1  0.8300060E-011  0.4778727E+02  0.7816164E-02  0.1312668E+00
        -11   -1    0    0    0    0  0.00000000000E+00  0.00000000000E+00  0.45593999997E+02  0.45594000000E+02  0.51100000000E-03 0. -1.
         11   -1    0    0    0    0 -0.00000000000E+00 -0.00000000000E+00 -0.45593999997E+02  0.45594000000E+02  0.51100000000E-03 0.  1.
    9900012    2    1    2    0    0  0.52956550196E+01  0.71180002700E+01  0.42484273562E+02  0.47787269706E+02  0.19999993898E+02 0.  0.
        -12    1    1    2    0    0 -0.52956550196E+01 -0.71180002700E+01 -0.42484273562E+02  0.43400730294E+02  0.00000000000E+00 0.  1.
         11    1    3    3    0    0  0.10696605245E+02  0.75711399358E+01  0.33922482546E+02  0.36365840373E+02  0.51100000000E-03 0. -1.
        -11    1    3    3    0    0 -0.21592320187E+01 -0.24608157693E+01  0.20122961658E+01  0.38428158011E+01  0.51100000000E-03 0.  1.
         12    1    3    3    0    0 -0.32417182071E+01  0.20076761035E+01  0.65494948503E+01  0.75786135318E+01  0.00000000000E+00 0. -1.
</event>
<event>
 7    1  0.8300060E-011  0.4778727E+02  0.7816164E-02  0.1312668E+00
        -11   -1    0    0    0    0  0.00000000000E+00  0.00000000000E+00  0.45593999997E+02  0.45594000000E+02  0.51100000000E-03 0. -1.
         11   -1    0    0    0    0 -0.00000000000E+00 -0.00000000000E+00 -0.45593999997E+02  0.45594000000E+02  0.51100000000E-03 0.  1.
    9900012    2    1    2    0    0 -0.23628725372E+02 -0.19455013347E+02 -0.30770265347E+02  0.47787269170E+02  0.19999991456E+02 0.  0.
         12    1    1    2    0    0  0.23628725372E+02  0.19455013347E+02  0.30770265347E+02  0.43400730830E+02  0.00000000000E+00 0. -1.
         11    1    3    3    0    0 -0.86473605345E+01 -0.96249404554E+01 -0.22915996297E+02  0.26316519708E+02  0.51100000000E-03 0. -1.
        -11    1    3    3    0    0  0.11791575447E+01 -0.64424833745E+00 -0.16251364129E+00  0.13534693865E+01  0.51100000000E-03 0.  1.
         12    1    3    3    0    0 -0.16160522382E+02 -0.91858245542E+01 -0.76917554083E+01  0.20117280076E+02  0.00000000000E+00 0. -1.
</event>
<event>
 7    1  0.8300060E-011  0.4778727E+02  0.7816164E-02  0.1312668E+00
        -11   -1    0    0    0    0  0.00000000000E+00  0.00000000000E+00  0.45593999997E+02  0.45594000000E+02  0.51100000000E-03 0. -1.
         11   -1    0    0    0    0 -0.00000000000E+00 -0.00000000000E+00 -0.45593999997E+02  0.45594000000E+02  0.51100000000E-03 0.  1.
    9900012    2    1    2    0    0  0.29911655591E+02  0.20354384975E+02  0.23971138745E+02  0.47787267049E+02  0.19999981784E+02 0.  0.
        -12    1    1    2    0    0 -0.29911655591E+02 -0.20354384975E+02 -0.23971138745E+02  0.43400732951E+02  0.00000000000E+00 0.  1.
         11    1    3    3    0    0  0.53826905079E+01 -0.37423003547E+01  0.22885654607E+01  0.69437526726E+01  0.51100000000E-03 0. -1.
        -11    1    3    3    0    0  0.17961245032E+02  0.17804145521E+02  0.13816100202E+02  0.28818024670E+02  0.51100000000E-03 0.  1.
         12    1    3    3    0    0  0.65677200509E+01  0.62925398090E+01  0.78664730827E+01  0.12025489706E+02  0.00000000000E+00 0. -1.
</event>
<event>
 7    1  0.8300060E-011  0.4778728E+02  0.7816164E-02  0.1312668E+00
        -11   -1    0    0    0    0  0.00000000000E+00  0.00000000000E+00  0.45593999997E+02  0.45594000000E+02  0.51100000000E-03 0.  1.
         11   -1    0    0    0    0 -0.00000000000E+00 -0.00000000000E+00 -0.45593999997E+02  0.45594000000E+02  0.51100000000E-03 0. -1.
    9900012    2    1    2    0    0  0.11490241302E+02  0.37597524953E+02 -0.18385401003E+02  0.47787279986E+02  0.20000040766E+02 0.  0.
         12    1    1    2    0    0 -0.11490241302E+02 -0.37597524953E+02  0.18385401003E+02  0.43400720014E+02  0.00000000000E+00 0. -1.
         11    1    3    3    0    0 -0.21297800774E+01  0.95138760847E+00 -0.28012587388E+01  0.36452918049E+01  0.51100000000E-03 0. -1.
        -11    1    3    3    0    0  0.12817990092E+02  0.37106406308E+02 -0.16726101488E+02  0.42672575858E+02  0.51100000000E-03 0.  1.
        -12    1    3    3    0    0  0.80203128677E+00 -0.46026896434E+00  0.11419592238E+01  0.14694123224E+01  0.00000000000E+00 0.  1.
</event>
<event>
 7    1  0.8300060E-011  0.4778727E+02  0.7816164E-02  0.1312668E+00
        -11   -1    0    0    0    0  0.00000000000E+00  0.00000000000E+00  0.45593999997E+02  0.45594000000E+02  0.51100000000E-03 0. -1.
         11   -1    0    0    0    0 -0.00000000000E+00 -0.00000000000E+00 -0.45593999997E+02  0.45594000000E+02  0.51100000000E-03 0.  1.
    9900012    2    1    2    0    0 -0.75495767364E+01  0.25077089263E+02 -0.34608766266E+02  0.47787271696E+02  0.20000002972E+02 0.  0.
         12    1    1    2    0    0  0.75495767364E+01 -0.25077089263E+02  0.34608766266E+02  0.43400728304E+02  0.00000000000E+00 0. -1.
         11    1    3    3    0    0 -0.97954014322E+01  0.22149859677E+02 -0.27431693746E+02  0.36593223348E+02  0.51100000000E-03 0.  1.
        -11    1    3    3    0    0  0.25902914311E+00  0.53624680382E+01 -0.37789443876E+01  0.65653317131E+01  0.51100000000E-03 0. -1.
         12    1    3    3    0    0  0.19867955527E+01 -0.24352384519E+01 -0.33981281327E+01  0.46287166355E+01  0.00000000000E+00 0. -1.
</event>
<event>
 7    1  0.8300060E-011  0.4778727E+02  0.7816164E-02  0.1312668E+00
        -11   -1    0    0    0    0  0.00000000000E+00  0.00000000000E+00  0.45593999997E+02  0.45594000000E+02  0.51100000000E-03 0.  1.
         11   -1    0    0    0    0 -0.00000000000E+00 -0.00000000000E+00 -0.45593999997E+02  0.45594000000E+02  0.51100000000E-03 0. -1.
    9900012    2    1    2    0    0 -0.15288071348E+02 -0.35826679411E+02  0.19140195880E+02  0.47787272109E+02  0.20000004852E+02 0.  0.
        -12    1    1    2    0    0  0.15288071348E+02  0.35826679411E+02 -0.19140195880E+02  0.43400727891E+02  0.00000000000E+00 0.  1.
         11    1    3    3    0    0  0.97789184062E+00 -0.20315991588E+02  0.10070785869E+02  0.22696178421E+02  0.51100000000E-03 0. -1.
        -11    1    3    3    0    0 -0.58840381893E+01 -0.41921480704E+01  0.60832122652E+01  0.94446536508E+01  0.51100000000E-03 0.  1.
         12    1    3    3    0    0 -0.10381924999E+02 -0.11318539753E+02  0.29861977450E+01  0.15646440036E+02  0.00000000000E+00 0. -1.
</event>
<event>
 7    1  0.8709774E-011  0.4778727E+02  0.7816164E-02  0.1312668E+00
        -11   -1    0    0    0    0  0.00000000000E+00  0.00000000000E+00  0.45593999997E+02  0.45594000000E+02  0.51100000000E-03 0. -1.
         11   -1    0    0    0    0 -0.00000000000E+00 -0.00000000000E+00 -0.45593999997E+02  0.45594000000E+02  0.51100000000E-03 0.  1.
    9900012    2    1    2    0    0  0.11006202784E+02 -0.16967316582E+02 -0.38400480959E+02  0.47787271093E+02  0.20000000223E+02 0.  0.
         12    1    1    2    0    0 -0.11006202784E+02  0.16967316582E+02  0.38400480959E+02  0.43400728907E+02  0.00000000000E+00 0. -1.
         11    1    3    3    0    0  0.68744506131E+01 -0.56702194000E+01 -0.31965285124E+01  0.94671671617E+01  0.51100000000E-03 0. -1.
        -11    1    3    3    0    0 -0.17620833276E+01 -0.61071180286E+01 -0.22537486101E+02  0.23416663047E+02  0.51100000000E-03 0.  1.
        -12    1    3    3    0    0  0.58938354988E+01 -0.51899791539E+01 -0.12666466346E+02  0.14903440885E+02  0.00000000000E+00 0.  1.
</event>
<event>
 7    1  0.8300060E-011  0.4778726E+02  0.7816164E-02  0.1312668E+00
        -11   -1    0    0    0    0  0.00000000000E+00  0.00000000000E+00  0.45593999997E+02  0.45594000000E+02  0.51100000000E-03 0. -1.
         11   -1    0    0    0    0 -0.00000000000E+00 -0.00000000000E+00 -0.45593999997E+02  0.45594000000E+02  0.51100000000E-03 0.  1.
    9900012    2    1    2    0    0 -0.25029281563E+02 -0.25737472274E+02  0.24387324214E+02  0.47787262714E+02  0.19999962020E+02 0.  0.
        -12    1    1    2    0    0  0.25029281563E+02  0.25737472274E+02 -0.24387324214E+02  0.43400737286E+02  0.00000000000E+00 0.  1.
         11    1    3    3    0    0 -0.20988932799E+01 -0.93878847248E+00 -0.21150882456E+01  0.31241439378E+01  0.51100000000E-03 0. -1.
        -11    1    3    3    0    0 -0.18148414060E+01 -0.47213619583E+01 -0.30882047143E+00  0.50675712540E+01  0.51100000000E-03 0.  1.
         12    1    3    3    0    0 -0.21115546877E+02 -0.20077321843E+02  0.26811232931E+02  0.39595547522E+02  0.00000000000E+00 0. -1.
</event>
<event>
 7    1  0.8300060E-011  0.4778728E+02  0.7816164E-02  0.1312668E+00
        -11   -1    0    0    0    0  0.00000000000E+00  0.00000000000E+00  0.45593999997E+02  0.45594000000E+02  0.51100000000E-03 0. -1.
         11   -1    0    0    0    0 -0.00000000000E+00 -0.00000000000E+00 -0.45593999997E+02  0.45594000000E+02  0.51100000000E-03 0.  1.
    9900012    2    1    2    0    0  0.11908558373E+02 -0.13995092511E+02  0.39318526107E+02  0.47787275673E+02  0.20000021101E+02 0.  0.
        -12    1    1    2    0    0 -0.11908558373E+02  0.13995092511E+02 -0.39318526107E+02  0.43400724327E+02  0.00000000000E+00 0.  1.
         11    1    3    3    0    0  0.67983538261E+01 -0.16884393679E+02  0.27203238965E+02  0.32730972719E+02  0.51100000000E-03 0. -1.
        -11    1    3    3    0    0 -0.42557043985E+00  0.22396888724E+01  0.74396533631E+01  0.77811155285E+01  0.51100000000E-03 0.  1.
         12    1    3    3    0    0  0.55357749867E+01  0.64961229583E+00  0.46756337789E+01  0.72751874253E+01  0.00000000000E+00 0. -1.
</event>
<event>
 7    1  0.8300060E-011  0.4778727E+02  0.7816164E-02  0.1312668E+00
        -11   -1    0    0    0    0  0.00000000000E+00  0.00000000000E+00  0.45593999997E+02  0.45594000000E+02  0.51100000000E-03 0. -1.
         11   -1    0    0    0    0 -0.00000000000E+00 -0.00000000000E+00 -0.45593999997E+02  0.45594000000E+02  0.51100000000E-03 0.  1.
    9900012    2    1    2    0    0 -0.27978061465E+02  0.13112866626E+02 -0.30477934310E+02  0.47787266432E+02  0.19999978968E+02 0.  0.
         12    1    1    2    0    0  0.27978061465E+02 -0.13112866626E+02  0.30477934310E+02  0.43400733568E+02  0.00000000000E+00 0. -1.
         11    1    3    3    0    0 -0.73917914213E+01 -0.21803927847E+01 -0.62058730335E+01  0.98947235172E+01  0.51100000000E-03 0. -1.
        -11    1    3    3    0    0 -0.17856300957E+02  0.17707033364E+02 -0.19160559348E+02  0.31615084204E+02  0.51100000000E-03 0.  1.
        -12    1    3    3    0    0 -0.27299690871E+01 -0.24137739528E+01 -0.51115019276E+01  0.62774587109E+01  0.00000000000E+00 0.  1.
</event>
<event>
 7    1  0.8300060E-011  0.4778727E+02  0.7816164E-02  0.1312668E+00
        -11   -1    0    0    0    0  0.00000000000E+00  0.00000000000E+00  0.45593999997E+02  0.45594000000E+02  0.51100000000E-03 0. -1.
         11   -1    0    0    0    0 -0.00000000000E+00 -0.00000000000E+00 -0.45593999997E+02  0.45594000000E+02  0.51100000000E-03 0.  1.
    9900012    2    1    2    0    0 -0.11600588746E+01  0.14423552236E+02 -0.40917463067E+02  0.47787269827E+02  0.19999994449E+02 0.  0.
         12    1    1    2    0    0  0.11600588746E+01 -0.14423552236E+02  0.40917463067E+02  0.43400730173E+02  0.00000000000E+00 0. -1.
         11    1    3    3    0    0 -0.14463706783E+01 -0.49901467692E+01 -0.93015828627E+01  0.10654247835E+02  0.51100000000E-03 0. -1.
        -11    1    3    3    0    0 -0.19892412535E+00  0.15852649890E+02 -0.26514159607E+02  0.30892502962E+02  0.51100000000E-03 0.  1.
         12    1    3    3    0    0  0.48523592905E+00  0.35610491147E+01 -0.51017205980E+01  0.62405190300E+01  0.00000000000E+00 0. -1.
</event>
<event>
 7    1  0.8300060E-011  0.4778727E+02  0.7816164E-02  0.1312668E+00
        -11   -1    0    0    0    0  0.00000000000E+00  0.00000000000E+00  0.45593999997E+02  0.45594000000E+02  0.51100000000E-03 0. -1.
         11   -1    0    0    0    0 -0.00000000000E+00 -0.00000000000E+00 -0.45593999997E+02  0.45594000000E+02  0.51100000000E-03 0.  1.
    9900012    2    1    2    0    0  0.27134041408E+01 -0.10235921857E+02  0.42089029641E+02  0.47787273342E+02  0.20000010478E+02 0.  0.
        -12    1    1    2    0    0 -0.27134041408E+01  0.10235921857E+02 -0.42089029641E+02  0.43400726658E+02  0.00000000000E+00 0.  1.
         11    1    3    3    0    0 -0.11628193981E+01 -0.48692809488E+01  0.22106263056E+02  0.22666029924E+02  0.51100000000E-03 0. -1.
        -11    1    3    3    0    0  0.26460566625E+01 -0.76165126590E+01  0.41239909362E+01  0.90564994589E+01  0.51100000000E-03 0.  1.
         12    1    3    3    0    0  0.12301668764E+01  0.22498717511E+01  0.15858775648E+02  0.16064743960E+02  0.00000000000E+00 0. -1.
</event>
<event>
 7    1  0.8300060E-011  0.4778727E+02  0.7816164E-02  0.1312668E+00
        -11   -1    0    0    0    0  0.00000000000E+00  0.00000000000E+00  0.45593999997E+02  0.45594000000E+02  0.51100000000E-03 0. -1.
         11   -1    0    0    0    0 -0.00000000000E+00 -0.00000000000E+00 -0.45593999997E+02  0.45594000000E+02  0.51100000000E-03 0.  1.
    9900012    2    1    2    0    0  0.75804910495E+01  0.12528115955E+02  0.40855915134E+02  0.47787270336E+02  0.19999996769E+02 0.  0.
        -12    1    1    2    0    0 -0.75804910495E+01 -0.12528115955E+02 -0.40855915134E+02  0.43400729664E+02  0.00000000000E+00 0.  1.
         11    1    3    3    0    0  0.68831219850E+01 -0.21445917817E+00  0.13583497487E+02  0.15229404625E+02  0.51100000000E-03 0. -1.
        -11    1    3    3    0    0  0.52081938266E+00  0.15247916205E+02  0.22943335891E+02  0.27552982842E+02  0.51100000000E-03 0.  1.
        -12    1    3    3    0    0  0.17654968185E+00 -0.25053410717E+01  0.43290817561E+01  0.50048828684E+01  0.00000000000E+00 0.  1.
</event>
<event>
 7    1  0.8300060E-011  0.4778727E+02  0.7816164E-02  0.1312668E+00
        -11   -1    0    0    0    0  0.00000000000E+00  0.00000000000E+00  0.45593999997E+02  0.45594000000E+02  0.51100000000E-03 0. -1.
         11   -1    0    0    0    0 -0.00000000000E+00 -0.00000000000E+00 -0.45593999997E+02  0.45594000000E+02  0.51100000000E-03 0.  1.
    9900012    2    1    2    0    0  0.27648120679E+02  0.19954408231E+02 -0.26851932819E+02  0.47787270962E+02  0.19999999623E+02 0.  0.
         12    1    1    2    0    0 -0.27648120679E+02 -0.19954408231E+02  0.26851932819E+02  0.43400729038E+02  0.00000000000E+00 0. -1.
         11    1    3    3    0    0  0.10565348890E+02  0.96484685541E+01 -0.15820500500E+02  0.21330911348E+02  0.51100000000E-03 0. -1.
        -11    1    3    3    0    0  0.21231885001E+01  0.14535216647E+01  0.31182536336E+01  0.40427911918E+01  0.51100000000E-03 0.  1.
        -12    1    3    3    0    0  0.14959583289E+02  0.88524180123E+01 -0.14149685953E+02  0.22413568422E+02  0.00000000000E+00 0.  1.
</event>
<event>
 7    1  0.8300060E-011  0.4778727E+02  0.7816164E-02  0.1312668E+00
        -11   -1    0    0    0    0  0.00000000000E+00  0.00000000000E+00  0.45593999997E+02  0.45594000000E+02  0.51100000000E-03 0. -1.
         11   -1    0    0    0    0 -0.00000000000E+00 -0.00000000000E+00 -0.45593999997E+02  0.45594000000E+02  0.51100000000E-03 0.  1.
    9900012    2    1    2    0    0 -0.81631651138E+01 -0.36031222985E+02 -0.22775802452E+02  0.47787268764E+02  0.19999989603E+02 0.  0.
         12    1    1    2    0    0  0.81631651138E+01  0.36031222985E+02  0.22775802452E+02  0.43400731236E+02  0.00000000000E+00 0. -1.
         11    1    3    3    0    0 -0.89277105222E+01 -0.15258138425E+02 -0.27810869971E+01  0.17895509171E+02  0.51100000000E-03 0. -1.
        -11    1    3    3    0    0 -0.13759203023E+01 -0.19516972800E+02 -0.16434449265E+02  0.25551839598E+02  0.51100000000E-03 0.  1.
         12    1    3    3    0    0  0.21404657106E+01 -0.12561117603E+01 -0.35602661901E+01  0.43399199943E+01  0.00000000000E+00 0. -1.
</event>
<event>
 7    1  0.8300060E-011  0.4778728E+02  0.7816164E-02  0.1312668E+00
        -11   -1    0    0    0    0  0.00000000000E+00  0.00000000000E+00  0.45593999997E+02  0.45594000000E+02  0.51100000000E-03 0. -1.
         11   -1    0    0    0    0 -0.00000000000E+00 -0.00000000000E+00 -0.45593999997E+02  0.45594000000E+02  0.51100000000E-03 0.  1.
    9900012    2    1    2    0    0  0.23984960167E+02 -0.27912429470E+01 -0.36063188318E+02  0.47787275316E+02  0.20000019477E+02 0.  0.
         12    1    1    2    0    0 -0.23984960167E+02  0.27912429470E+01  0.36063188318E+02  0.43400724684E+02  0.00000000000E+00 0. -1.
         11    1    3    3    0    0  0.77580313070E+01 -0.34619342096E+01 -0.12995781777E+02  0.15526183771E+02  0.51100000000E-03 0. -1.
        -11    1    3    3    0    0  0.28912587919E+01 -0.66735851673E+01 -0.64096241633E+01  0.96942972186E+01  0.51100000000E-03 0.  1.
        -12    1    3    3    0    0  0.13335670068E+02  0.73442764299E+01 -0.16657782378E+02  0.22566794327E+02  0.00000000000E+00 0.  1.
</event>
<event>
 7    1  0.8300060E-011  0.4778727E+02  0.7816164E-02  0.1312668E+00
        -11   -1    0    0    0    0  0.00000000000E+00  0.00000000000E+00  0.45593999997E+02  0.45594000000E+02  0.51100000000E-03 0. -1.
         11   -1    0    0    0    0 -0.00000000000E+00 -0.00000000000E+00 -0.45593999997E+02  0.45594000000E+02  0.51100000000E-03 0.  1.
    9900012    2    1    2    0    0  0.19027451909E+02  0.17078611046E+00 -0.39007053793E+02  0.47787270287E+02  0.19999996546E+02 0.  0.
         12    1    1    2    0    0 -0.19027451909E+02 -0.17078611046E+00  0.39007053793E+02  0.43400729713E+02  0.00000000000E+00 0. -1.
         11    1    3    3    0    0 -0.39069150095E+01  0.21243229446E+01 -0.49131376941E+01  0.66268887969E+01  0.51100000000E-03 0. -1.
        -11    1    3    3    0    0  0.13615017407E+02 -0.18109715917E+01 -0.19887863246E+02  0.24169721178E+02  0.51100000000E-03 0.  1.
         12    1    3    3    0    0  0.93193495111E+01 -0.14256524243E+00 -0.14206052853E+02  0.16990660312E+02  0.00000000000E+00 0. -1.
</event>
<event>
 7    1  0.8300060E-011  0.4778727E+02  0.7816164E-02  0.1312668E+00
        -11   -1    0    0    0    0  0.00000000000E+00  0.00000000000E+00  0.45593999997E+02  0.45594000000E+02  0.51100000000E-03 0. -1.
         11   -1    0    0    0    0 -0.00000000000E+00 -0.00000000000E+00 -0.45593999997E+02  0.45594000000E+02  0.51100000000E-03 0.  1.
    9900012    2    1    2    0    0  0.40603844042E+00  0.42371716576E+02  0.93859601757E+01  0.47787268655E+02  0.19999989108E+02 0.  0.
        -12    1    1    2    0    0 -0.40603844042E+00 -0.42371716576E+02 -0.93859601757E+01  0.43400731345E+02  0.00000000000E+00 0.  1.
         11    1    3    3    0    0 -0.28755874450E+01  0.37010839294E+02  0.11374425063E+02  0.38825877635E+02  0.51100000000E-03 0. -1.
        -11    1    3    3    0    0 -0.95546643616E+00  0.28254495433E+01 -0.26370618681E+01  0.39812280504E+01  0.51100000000E-03 0.  1.
         12    1    3    3    0    0  0.42370923216E+01  0.25354277390E+01  0.64859698109E+00  0.49801629697E+01  0.00000000000E+00 0. -1.
</event>
<event>
 7    1  0.8300060E-011  0.4778727E+02  0.7816164E-02  0.1312668E+00
        -11   -1    0    0    0    0  0.00000000000E+00  0.00000000000E+00  0.45593999997E+02  0.45594000000E+02  0.51100000000E-03 0. -1.
         11   -1    0    0    0    0 -0.00000000000E+00 -0.00000000000E+00 -0.45593999997E+02  0.45594000000E+02  0.51100000000E-03 0.  1.
    9900012    2    1    2    0    0 -0.16994207336E+02 -0.18625054934E+02 -0.35326015286E+02  0.47787272930E+02  0.20000008595E+02 0.  0.
         12    1    1    2    0    0  0.16994207336E+02  0.18625054934E+02  0.35326015286E+02  0.43400727070E+02  0.00000000000E+00 0. -1.
         11    1    3    3    0    0 -0.36375091507E+01 -0.13570719661E+02 -0.77359006729E+01  0.16038705198E+02  0.51100000000E-03 0.  1.
        -11    1    3    3    0    0 -0.74149946394E+01 -0.74260745717E-02 -0.17434124288E+02  0.18945471506E+02  0.51100000000E-03 0. -1.
        -12    1    3    3    0    0 -0.59417035455E+01 -0.50469091989E+01 -0.10155990325E+02  0.12803096226E+02  0.00000000000E+00 0.  1.
</event>
<event>
 7    1  0.8300060E-011  0.4778727E+02  0.7816164E-02  0.1312668E+00
        -11   -1    0    0    0    0  0.00000000000E+00  0.00000000000E+00  0.45593999997E+02  0.45594000000E+02  0.51100000000E-03 0.  1.
         11   -1    0    0    0    0 -0.00000000000E+00 -0.00000000000E+00 -0.45593999997E+02  0.45594000000E+02  0.51100000000E-03 0. -1.
    9900012    2    1    2    0    0 -0.39231929780E+02  0.18330450859E+02  0.29109531093E+01  0.47787269696E+02  0.19999993851E+02 0.  0.
        -12    1    1    2    0    0  0.39231929780E+02 -0.18330450859E+02 -0.29109531093E+01  0.43400730304E+02  0.00000000000E+00 0.  1.
         11    1    3    3    0    0 -0.22005814200E+02  0.26870603997E+00  0.84544487975E+00  0.22023688130E+02  0.51100000000E-03 0. -1.
        -11    1    3    3    0    0 -0.15628821278E+02  0.15571201763E+02  0.37206950638E+01  0.22373331243E+02  0.51100000000E-03 0.  1.
         12    1    3    3    0    0 -0.15972943023E+01  0.24905430553E+01 -0.16551868342E+01  0.33902503233E+01  0.00000000000E+00 0. -1.
</event>
<event>
 7    1  0.8300060E-011  0.4778726E+02  0.7816164E-02  0.1312668E+00
        -11   -1    0    0    0    0  0.00000000000E+00  0.00000000000E+00  0.45593999997E+02  0.45594000000E+02  0.51100000000E-03 0.  1.
         11   -1    0    0    0    0 -0.00000000000E+00 -0.00000000000E+00 -0.45593999997E+02  0.45594000000E+02  0.51100000000E-03 0. -1.
    9900012    2    1    2    0    0 -0.37796877507E+02 -0.19585848303E+02 -0.84507190812E+01  0.47787262033E+02  0.19999958915E+02 0.  0.
         12    1    1    2    0    0  0.37796877507E+02  0.19585848303E+02  0.84507190812E+01  0.43400737967E+02  0.00000000000E+00 0. -1.
         11    1    3    3    0    0 -0.24174440521E+02 -0.18673110383E+02  0.44731407836E+00  0.30549774403E+02  0.51100000000E-03 0. -1.
        -11    1    3    3    0    0 -0.11743015784E+02 -0.27816733508E+01 -0.77954161353E+01  0.14366789457E+02  0.51100000000E-03 0.  1.
         12    1    3    3    0    0 -0.18794212024E+01  0.18689354312E+01 -0.11026170243E+01  0.28706981737E+01  0.00000000000E+00 0. -1.
</event>
<event>
 7    1  0.8300060E-011  0.4778727E+02  0.7816164E-02  0.1312668E+00
        -11   -1    0    0    0    0  0.00000000000E+00  0.00000000000E+00  0.45593999997E+02  0.45594000000E+02  0.51100000000E-03 0. -1.
         11   -1    0    0    0    0 -0.00000000000E+00 -0.00000000000E+00 -0.45593999997E+02  0.45594000000E+02  0.51100000000E-03 0.  1.
    9900012    2    1    2    0    0  0.19455776197E+02  0.29046349918E+01  0.38686680099E+02  0.47787270180E+02  0.19999996057E+02 0.  0.
        -12    1    1    2    0    0 -0.19455776197E+02 -0.29046349918E+01 -0.38686680099E+02  0.43400729820E+02  0.00000000000E+00 0.  1.
         11    1    3    3    0    0  0.61379742854E+01 -0.85803338727E+00  0.28066722218E+02  0.28742857304E+02  0.51100000000E-03 0. -1.
        -11    1    3    3    0    0  0.89230235073E+01 -0.13854130287E+01  0.63986611693E+01  0.11067184953E+02  0.51100000000E-03 0.  1.
         12    1    3    3    0    0  0.43947784046E+01  0.51480814078E+01  0.42212967111E+01  0.79772279226E+01  0.00000000000E+00 0. -1.
</event>
<event>
 7    1  0.8300060E-011  0.4778727E+02  0.7816164E-02  0.1312668E+00
        -11   -1    0    0    0    0  0.00000000000E+00  0.00000000000E+00  0.45593999997E+02  0.45594000000E+02  0.51100000000E-03 0. -1.
         11   -1    0    0    0    0 -0.00000000000E+00 -0.00000000000E+00 -0.45593999997E+02  0.45594000000E+02  0.51100000000E-03 0.  1.
    9900012    2    1    2    0    0  0.11378626070E+02  0.31177854327E+02 -0.27965902735E+02  0.47787269045E+02  0.19999990883E+02 0.  0.
         12    1    1    2    0    0 -0.11378626070E+02 -0.31177854327E+02  0.27965902735E+02  0.43400730955E+02  0.00000000000E+00 0. -1.
         11    1    3    3    0    0 -0.12344033319E+01  0.10317021217E+02 -0.15940111755E+02  0.19027659904E+02  0.51100000000E-03 0. -1.
        -11    1    3    3    0    0  0.12135160703E+02  0.20116946720E+02 -0.82787430702E+01  0.24909661935E+02  0.51100000000E-03 0.  1.
        -12    1    3    3    0    0  0.47786869883E+00  0.74388638955E+00 -0.37470479098E+01  0.38499472064E+01  0.00000000000E+00 0.  1.
</event>
<event>
 7    1  0.8300060E-011  0.4778728E+02  0.7816164E-02  0.1312668E+00
        -11   -1    0    0    0    0  0.00000000000E+00  0.00000000000E+00  0.45593999997E+02  0.45594000000E+02  0.51100000000E-03 0.  1.
         11   -1    0    0    0    0 -0.00000000000E+00 -0.00000000000E+00 -0.45593999997E+02  0.45594000000E+02  0.51100000000E-03 0. -1.
    9900012    2    1    2    0    0  0.33665526182E+02  0.12370585851E+02  0.24438158539E+02  0.47787278345E+02  0.20000033286E+02 0.  0.
        -12    1    1    2    0    0 -0.33665526182E+02 -0.12370585851E+02 -0.24438158539E+02  0.43400721655E+02  0.00000000000E+00 0.  1.
         11    1    3    3    0    0  0.67313678818E+01  0.79987730659E+01  0.13539239439E+01  0.10541574571E+02  0.51100000000E-03 0. -1.
        -11    1    3    3    0    0  0.43884163412E+01 -0.92523136816E+00  0.92211274856E+01  0.10253947700E+02  0.51100000000E-03 0.  1.
        -12    1    3    3    0    0  0.22545741959E+02  0.52970441534E+01  0.13863107109E+02  0.26991756074E+02  0.00000000000E+00 0.  1.
</event>
<event>
 7    1  0.8300060E-011  0.4778727E+02  0.7816164E-02  0.1312668E+00
        -11   -1    0    0    0    0  0.00000000000E+00  0.00000000000E+00  0.45593999997E+02  0.45594000000E+02  0.51100000000E-03 0. -1.
         11   -1    0    0    0    0 -0.00000000000E+00 -0.00000000000E+00 -0.45593999997E+02  0.45594000000E+02  0.51100000000E-03 0.  1.
    9900012    2    1    2    0    0  0.10224468363E+02  0.11607269842E+02 -0.40550649728E+02  0.47787266598E+02  0.19999979726E+02 0.  0.
         12    1    1    2    0    0 -0.10224468363E+02 -0.11607269842E+02  0.40550649728E+02  0.43400733402E+02  0.00000000000E+00 0. -1.
         11    1    3    3    0    0  0.81766636306E+01  0.72804650668E+01 -0.95422314615E+01  0.14522988027E+02  0.51100000000E-03 0. -1.
        -11    1    3    3    0    0 -0.23751082007E+01  0.92250778662E-01 -0.23294799603E+02  0.23415749785E+02  0.51100000000E-03 0.  1.
        -12    1    3    3    0    0  0.44229129329E+01  0.42345539965E+01 -0.77136186635E+01  0.98485287859E+01  0.00000000000E+00 0.  1.
</event>
<event>
 7    1  0.8300060E-011  0.4778727E+02  0.7816164E-02  0.1312668E+00
        -11   -1    0    0    0    0  0.00000000000E+00  0.00000000000E+00  0.45593999997E+02  0.45594000000E+02  0.51100000000E-03 0. -1.
         11   -1    0    0    0    0 -0.00000000000E+00 -0.00000000000E+00 -0.45593999997E+02  0.45594000000E+02  0.51100000000E-03 0.  1.
    9900012    2    1    2    0    0 -0.70644344323E+01 -0.31643740790E+02  0.28851190765E+02  0.47787265287E+02  0.19999973751E+02 0.  0.
        -12    1    1    2    0    0  0.70644344323E+01  0.31643740790E+02 -0.28851190765E+02  0.43400734713E+02  0.00000000000E+00 0.  1.
         11    1    3    3    0    0 -0.29211869700E+01  0.15954577835E+01  0.10170338320E+01  0.34803989612E+01  0.51100000000E-03 0.  1.
        -11    1    3    3    0    0 -0.44921664645E+01 -0.77793642008E+01  0.80413986541E+01  0.12056623055E+02  0.51100000000E-03 0. -1.
         12    1    3    3    0    0  0.34891900212E+00 -0.25459834372E+02  0.19792758279E+02  0.32250243271E+02  0.00000000000E+00 0. -1.
</event>
<event>
 7    1  0.8300060E-011  0.4778727E+02  0.7816164E-02  0.1312668E+00
        -11   -1    0    0    0    0  0.00000000000E+00  0.00000000000E+00  0.45593999997E+02  0.45594000000E+02  0.51100000000E-03 0. -1.
         11   -1    0    0    0    0 -0.00000000000E+00 -0.00000000000E+00 -0.45593999997E+02  0.45594000000E+02  0.51100000000E-03 0.  1.
    9900012    2    1    2    0    0  0.20663951710E+02 -0.22812614055E+02 -0.30597541180E+02  0.47787265138E+02  0.19999973069E+02 0.  0.
         12    1    1    2    0    0 -0.20663951710E+02  0.22812614055E+02  0.30597541180E+02  0.43400734862E+02  0.00000000000E+00 0. -1.
         11    1    3    3    0    0  0.12217901989E+02 -0.45000338366E+01 -0.18890735681E+02  0.22943132488E+02  0.51100000000E-03 0. -1.
        -11    1    3    3    0    0  0.88025254432E+01 -0.19090392751E+02 -0.10955573993E+02  0.23705529974E+02  0.51100000000E-03 0.  1.
        -12    1    3    3    0    0 -0.35647572247E+00  0.77781253247E+00 -0.75123150688E+00  0.11386026758E+01  0.00000000000E+00 0.  1.
</event>
<event>
 7    1  0.8300060E-011  0.4778726E+02  0.7816164E-02  0.1312668E+00
        -11   -1    0    0    0    0  0.00000000000E+00  0.00000000000E+00  0.45593999997E+02  0.45594000000E+02  0.51100000000E-03 0. -1.
         11   -1    0    0    0    0 -0.00000000000E+00 -0.00000000000E+00 -0.45593999997E+02  0.45594000000E+02  0.51100000000E-03 0.  1.
    9900012    2    1    2    0    0  0.11087219029E+02 -0.51321769803E+01 -0.41645630091E+02  0.47787260697E+02  0.19999952821E+02 0.  0.
         12    1    1    2    0    0 -0.11087219029E+02  0.51321769803E+01  0.41645630091E+02  0.43400739303E+02  0.00000000000E+00 0. -1.
         11    1    3    3    0    0  0.12724079769E+02 -0.24940116356E+01 -0.20706376987E+02  0.24431052949E+02  0.51100000000E-03 0. -1.
        -11    1    3    3    0    0 -0.30453073877E+01  0.31383072648E+01 -0.80292843767E+01  0.91428812437E+01  0.51100000000E-03 0.  1.
         12    1    3    3    0    0  0.14084466476E+01 -0.57764726096E+01 -0.12909968727E+02  0.14213326504E+02  0.00000000000E+00 0. -1.
</event>
<event>
 7    1  0.8300060E-011  0.4778728E+02  0.7816164E-02  0.1312668E+00
        -11   -1    0    0    0    0  0.00000000000E+00  0.00000000000E+00  0.45593999997E+02  0.45594000000E+02  0.51100000000E-03 0.  1.
         11   -1    0    0    0    0 -0.00000000000E+00 -0.00000000000E+00 -0.45593999997E+02  0.45594000000E+02  0.51100000000E-03 0. -1.
    9900012    2    1    2    0    0  0.33270455645E+02  0.19492419133E+02  0.19918459908E+02  0.47787278030E+02  0.20000031848E+02 0.  0.
         12    1    1    2    0    0 -0.33270455645E+02 -0.19492419133E+02 -0.19918459908E+02  0.43400721970E+02  0.00000000000E+00 0. -1.
         11    1    3    3    0    0 -0.18427840810E+01  0.12043080602E+01 -0.10276331908E+00  0.22038084386E+01  0.51100000000E-03 0. -1.
        -11    1    3    3    0    0  0.32177554225E+02  0.12814326512E+02  0.18113298696E+02  0.39085720536E+02  0.51100000000E-03 0.  1.
         12    1    3    3    0    0  0.29356855011E+01  0.54737845603E+01  0.19079245304E+01  0.64977490555E+01  0.00000000000E+00 0. -1.
</event>
<event>
 7    1  0.8300060E-011  0.4778727E+02  0.7816164E-02  0.1312668E+00
        -11   -1    0    0    0    0  0.00000000000E+00  0.00000000000E+00  0.45593999997E+02  0.45594000000E+02  0.51100000000E-03 0.  1.
         11   -1    0    0    0    0 -0.00000000000E+00 -0.00000000000E+00 -0.45593999997E+02  0.45594000000E+02  0.51100000000E-03 0. -1.
    9900012    2    1    2    0    0  0.77284669070E+01 -0.40745852174E+02 -0.12793345254E+02  0.47787270134E+02  0.19999995849E+02 0.  0.
        -12    1    1    2    0    0 -0.77284669070E+01  0.40745852174E+02  0.12793345254E+02  0.43400729866E+02  0.00000000000E+00 0.  1.
         11    1    3    3    0    0 -0.28403150817E+01 -0.23672732402E+02 -0.98127848467E+01  0.25782870202E+02  0.51100000000E-03 0. -1.
        -11    1    3    3    0    0  0.91339609584E+01 -0.87019551481E+01 -0.44649608136E+01  0.13382419121E+02  0.51100000000E-03 0.  1.
        -12    1    3    3    0    0  0.14348210303E+01 -0.83711646240E+01  0.14844004066E+01  0.86219808118E+01  0.00000000000E+00 0.  1.
</event>
<event>
 7    1  0.8300060E-011  0.4778727E+02  0.7816164E-02  0.1312668E+00
        -11   -1    0    0    0    0  0.00000000000E+00  0.00000000000E+00  0.45593999997E+02  0.45594000000E+02  0.51100000000E-03 0. -1.
         11   -1    0    0    0    0 -0.00000000000E+00 -0.00000000000E+00 -0.45593999997E+02  0.45594000000E+02  0.51100000000E-03 0.  1.
    9900012    2    1    2    0    0  0.42336584239E+02  0.10416719889E+01  0.94948585628E+01  0.47787265159E+02  0.19999973168E+02 0.  0.
        -12    1    1    2    0    0 -0.42336584239E+02 -0.10416719889E+01 -0.94948585628E+01  0.43400734841E+02  0.00000000000E+00 0.  1.
         11    1    3    3    0    0  0.17015276410E+02 -0.96032386635E+00  0.28623362324E+01  0.17281053851E+02  0.51100000000E-03 0. -1.
        -11    1    3    3    0    0  0.18171794027E+02  0.85161472782E+01  0.37699610881E+01  0.20419389547E+02  0.51100000000E-03 0.  1.
        -12    1    3    3    0    0  0.71495138024E+01 -0.65141514229E+01  0.28625612424E+01  0.10086821761E+02  0.00000000000E+00 0.  1.
</event>
<event>
 7    1  0.8300060E-011  0.4778727E+02  0.7816164E-02  0.1312668E+00
        -11   -1    0    0    0    0  0.00000000000E+00  0.00000000000E+00  0.45593999997E+02  0.45594000000E+02  0.51100000000E-03 0. -1.
         11   -1    0    0    0    0 -0.00000000000E+00 -0.00000000000E+00 -0.45593999997E+02  0.45594000000E+02  0.51100000000E-03 0.  1.
    9900012    2    1    2    0    0  0.19066134413E+02  0.35152210945E+02  0.16864984392E+02  0.47787272883E+02  0.20000008382E+02 0.  0.
        -12    1    1    2    0    0 -0.19066134413E+02 -0.35152210945E+02 -0.16864984392E+02  0.43400727117E+02  0.00000000000E+00 0.  1.
         11    1    3    3    0    0  0.91526691014E+01  0.26873268139E+02  0.14892602475E+02  0.32058282875E+02  0.51100000000E-03 0. -1.
        -11    1    3    3    0    0  0.57696133995E+01 -0.57550882150E+00  0.12101521925E+01  0.59231847661E+01  0.51100000000E-03 0.  1.
         12    1    3    3    0    0  0.41438519117E+01  0.88544516271E+01  0.76222972430E+00  0.98058052416E+01  0.00000000000E+00 0. -1.
</event>
<event>
 7    1  0.8300060E-011  0.4778727E+02  0.7816164E-02  0.1312668E+00
        -11   -1    0    0    0    0  0.00000000000E+00  0.00000000000E+00  0.45593999997E+02  0.45594000000E+02  0.51100000000E-03 0. -1.
         11   -1    0    0    0    0 -0.00000000000E+00 -0.00000000000E+00 -0.45593999997E+02  0.45594000000E+02  0.51100000000E-03 0.  1.
    9900012    2    1    2    0    0  0.40592637847E+02 -0.18582040464E+01 -0.15244938628E+02  0.47787270474E+02  0.19999997398E+02 0.  0.
         12    1    1    2    0    0 -0.40592637847E+02  0.18582040464E+01  0.15244938628E+02  0.43400729526E+02  0.00000000000E+00 0. -1.
         11    1    3    3    0    0  0.60894625712E+01  0.60467548170E+01 -0.13914133768E+01  0.86937235791E+01  0.51100000000E-03 0. -1.
        -11    1    3    3    0    0  0.25162195646E+02 -0.93183869200E+01 -0.80828977881E+01  0.28023234314E+02  0.51100000000E-03 0.  1.
         12    1    3    3    0    0  0.93409796299E+01  0.14134280567E+01 -0.57706274631E+01  0.11070312581E+02  0.00000000000E+00 0. -1.
</event>
<event>
 7    1  0.8300060E-011  0.4778727E+02  0.7816164E-02  0.1312668E+00
        -11   -1    0    0    0    0  0.00000000000E+00  0.00000000000E+00  0.45593999997E+02  0.45594000000E+02  0.51100000000E-03 0. -1.
         11   -1    0    0    0    0 -0.00000000000E+00 -0.00000000000E+00 -0.45593999997E+02  0.45594000000E+02  0.51100000000E-03 0.  1.
    9900012    2    1    2    0    0  0.25960129199E+01 -0.10672552273E+02  0.41987867047E+02  0.47787266892E+02  0.19999981070E+02 0.  0.
        -12    1    1    2    0    0 -0.25960129199E+01  0.10672552273E+02 -0.41987867047E+02  0.43400733108E+02  0.00000000000E+00 0.  1.
         11    1    3    3    0    0  0.47166543170E+01 -0.10930978609E+02  0.24688473965E+02  0.27409010713E+02  0.51100000000E-03 0. -1.
        -11    1    3    3    0    0 -0.25493569392E+01 -0.18790747593E+00 -0.46912550274E+00  0.25989630665E+01  0.51100000000E-03 0.  1.
         12    1    3    3    0    0  0.42871554198E+00  0.44633381193E+00  0.17768518585E+02  0.17779293113E+02  0.00000000000E+00 0. -1.
</event>
<event>
 7    1  0.8300060E-011  0.4778727E+02  0.7816164E-02  0.1312668E+00
        -11   -1    0    0    0    0  0.00000000000E+00  0.00000000000E+00  0.45593999997E+02  0.45594000000E+02  0.51100000000E-03 0. -1.
         11   -1    0    0    0    0 -0.00000000000E+00 -0.00000000000E+00 -0.45593999997E+02  0.45594000000E+02  0.51100000000E-03 0.  1.
    9900012    2    1    2    0    0 -0.28418312182E+02 -0.64194742302E+01 -0.32168518272E+02  0.47787266314E+02  0.19999978432E+02 0.  0.
         12    1    1    2    0    0  0.28418312182E+02  0.64194742302E+01  0.32168518272E+02  0.43400733686E+02  0.00000000000E+00 0. -1.
         11    1    3    3    0    0 -0.40575515954E+01 -0.81758918997E+01 -0.38408556849E+01  0.99025807726E+01  0.51100000000E-03 0. -1.
        -11    1    3    3    0    0 -0.14431020194E+02  0.27197765035E+01 -0.13093753772E+02  0.19674804095E+02  0.51100000000E-03 0.  1.
        -12    1    3    3    0    0 -0.99297403931E+01 -0.96335883395E+00 -0.15233908814E+02  0.18209881446E+02  0.00000000000E+00 0.  1.
</event>
<event>
 7    1  0.8300060E-011  0.4778724E+02  0.7816164E-02  0.1312668E+00
        -11   -1    0    0    0    0  0.00000000000E+00  0.00000000000E+00  0.45593999997E+02  0.45594000000E+02  0.51100000000E-03 0. -1.
         11   -1    0    0    0    0 -0.00000000000E+00 -0.00000000000E+00 -0.45593999997E+02  0.45594000000E+02  0.51100000000E-03 0.  1.
    9900012    2    1    2    0    0 -0.13399826398E+02 -0.11045061368E+02 -0.39775331155E+02  0.47787243133E+02  0.19999872740E+02 0.  0.
         12    1    1    2    0    0  0.13399826398E+02  0.11045061368E+02  0.39775331155E+02  0.43400756867E+02  0.00000000000E+00 0. -1.
         11    1    3    3    0    0  0.38655334372E+01 -0.27641383511E+01 -0.46178583054E+01  0.66262678159E+01  0.51100000000E-03 0. -1.
        -11    1    3    3    0    0 -0.16449128045E+02 -0.64548998773E+01 -0.23876100464E+02  0.29703665085E+02  0.51100000000E-03 0.  1.
        -12    1    3    3    0    0 -0.81623179067E+00 -0.18260231400E+01 -0.11281372386E+02  0.11457310232E+02  0.00000000000E+00 0.  1.
</event>
<event>
 7    1  0.8300060E-011  0.4778727E+02  0.7816164E-02  0.1312668E+00
        -11   -1    0    0    0    0  0.00000000000E+00  0.00000000000E+00  0.45593999997E+02  0.45594000000E+02  0.51100000000E-03 0. -1.
         11   -1    0    0    0    0 -0.00000000000E+00 -0.00000000000E+00 -0.45593999997E+02  0.45594000000E+02  0.51100000000E-03 0.  1.
    9900012    2    1    2    0    0  0.32873716427E+02  0.95614339610E+01  0.26674356259E+02  0.47787268060E+02  0.19999986394E+02 0.  0.
        -12    1    1    2    0    0 -0.32873716427E+02 -0.95614339610E+01 -0.26674356259E+02  0.43400731940E+02  0.00000000000E+00 0.  1.
         11    1    3    3    0    0  0.17690639397E+02 -0.42482046533E+01  0.16830541507E+02  0.24784533337E+02  0.51100000000E-03 0. -1.
        -11    1    3    3    0    0  0.10580649721E+02  0.75126122068E+01  0.65532738619E+01  0.14537361840E+02  0.51100000000E-03 0.  1.
         12    1    3    3    0    0  0.46024273084E+01  0.62970264075E+01  0.32905408897E+01  0.84653728833E+01  0.00000000000E+00 0. -1.
</event>
<event>
 7    1  0.8300060E-011  0.4778725E+02  0.7816164E-02  0.1312668E+00
        -11   -1    0    0    0    0  0.00000000000E+00  0.00000000000E+00  0.45593999997E+02  0.45594000000E+02  0.51100000000E-03 0. -1.
         11   -1    0    0    0    0 -0.00000000000E+00 -0.00000000000E+00 -0.45593999997E+02  0.45594000000E+02  0.51100000000E-03 0.  1.
    9900012    2    1    2    0    0  0.38968059243E+01 -0.30278683063E+02  0.30848684262E+02  0.47787250408E+02  0.19999905909E+02 0.  0.
        -12    1    1    2    0    0 -0.38968059243E+01  0.30278683063E+02 -0.30848684262E+02  0.43400749592E+02  0.00000000000E+00 0.  1.
         11    1    3    3    0    0 -0.37581816034E-01 -0.12180876747E+02  0.10938617690E+02  0.16371576831E+02  0.51100000000E-03 0. -1.
        -11    1    3    3    0    0  0.16372940521E+01 -0.10944728308E+02  0.10522843695E+01  0.11116434329E+02  0.51100000000E-03 0.  1.
        -12    1    3    3    0    0  0.22970936882E+01 -0.71530780086E+01  0.18857782203E+02  0.20299239247E+02  0.00000000000E+00 0.  1.
</event>
<event>
 7    1  0.8300060E-011  0.4778728E+02  0.7816164E-02  0.1312668E+00
        -11   -1    0    0    0    0  0.00000000000E+00  0.00000000000E+00  0.45593999997E+02  0.45594000000E+02  0.51100000000E-03 0. -1.
         11   -1    0    0    0    0 -0.00000000000E+00 -0.00000000000E+00 -0.45593999997E+02  0.45594000000E+02  0.51100000000E-03 0.  1.
    9900012    2    1    2    0    0  0.25198187205E+02  0.29633775551E+02 -0.19248725885E+02  0.47787277195E+02  0.20000028043E+02 0.  0.
         12    1    1    2    0    0 -0.25198187205E+02 -0.29633775551E+02  0.19248725885E+02  0.43400722805E+02  0.00000000000E+00 0. -1.
         11    1    3    3    0    0  0.15831698325E+02  0.44833936779E+01 -0.57362431729E+01  0.17425497890E+02  0.51100000000E-03 0.  1.
        -11    1    3    3    0    0  0.94553422937E+01  0.24388572218E+02 -0.12247965233E+02  0.28882842750E+02  0.51100000000E-03 0. -1.
        -12    1    3    3    0    0 -0.88853413382E-01  0.76180965499E+00 -0.12645174791E+01  0.14789365553E+01  0.00000000000E+00 0.  1.
</event>
<event>
 7    1  0.8300060E-011  0.4778729E+02  0.7816164E-02  0.1312668E+00
        -11   -1    0    0    0    0  0.00000000000E+00  0.00000000000E+00  0.45593999997E+02  0.45594000000E+02  0.51100000000E-03 0. -1.
         11   -1    0    0    0    0 -0.00000000000E+00 -0.00000000000E+00 -0.45593999997E+02  0.45594000000E+02  0.51100000000E-03 0.  1.
    9900012    2    1    2    0    0  0.14106526470E+02  0.18311238654E+02  0.36733170713E+02  0.47787292855E+02  0.20000099441E+02 0.  0.
        -12    1    1    2    0    0 -0.14106526470E+02 -0.18311238654E+02 -0.36733170713E+02  0.43400707145E+02  0.00000000000E+00 0.  1.
         11    1    3    3    0    0 -0.11239207382E+00  0.10850374276E+02  0.20668439710E+02  0.23343685532E+02  0.51100000000E-03 0. -1.
        -11    1    3    3    0    0  0.13486159597E+02  0.87578322226E+01  0.11854520063E+02  0.19977631794E+02  0.51100000000E-03 0.  1.
         12    1    3    3    0    0  0.73275894732E+00 -0.12969678446E+01  0.42102109398E+01  0.44659755287E+01  0.00000000000E+00 0. -1.
</event>
<event>
 7    1  0.8300060E-011  0.4778727E+02  0.7816164E-02  0.1312668E+00
        -11   -1    0    0    0    0  0.00000000000E+00  0.00000000000E+00  0.45593999997E+02  0.45594000000E+02  0.51100000000E-03 0. -1.
         11   -1    0    0    0    0 -0.00000000000E+00 -0.00000000000E+00 -0.45593999997E+02  0.45594000000E+02  0.51100000000E-03 0.  1.
    9900012    2    1    2    0    0 -0.69042299568E+01  0.18261274563E+02 -0.38761847209E+02  0.47787270293E+02  0.19999996576E+02 0.  0.
         12    1    1    2    0    0  0.69042299568E+01 -0.18261274563E+02  0.38761847209E+02  0.43400729707E+02  0.00000000000E+00 0. -1.
         11    1    3    3    0    0 -0.29497141563E+01 -0.42770079218E+00 -0.15738894655E+02  0.16018631240E+02  0.51100000000E-03 0.  1.
        -11    1    3    3    0    0 -0.82949734581E+00  0.74335988210E+00 -0.82240044687E+01  0.82990902829E+01  0.51100000000E-03 0. -1.
         12    1    3    3    0    0 -0.31250184548E+01  0.17945615473E+02 -0.14798948086E+02  0.23469548771E+02  0.00000000000E+00 0. -1.
</event>
<event>
 7    1  0.8300060E-011  0.4778727E+02  0.7816164E-02  0.1312668E+00
        -11   -1    0    0    0    0  0.00000000000E+00  0.00000000000E+00  0.45593999997E+02  0.45594000000E+02  0.51100000000E-03 0. -1.
         11   -1    0    0    0    0 -0.00000000000E+00 -0.00000000000E+00 -0.45593999997E+02  0.45594000000E+02  0.51100000000E-03 0.  1.
    9900012    2    1    2    0    0  0.32628217178E+02 -0.15564200405E+02 -0.24016215452E+02  0.47787268496E+02  0.19999988381E+02 0.  0.
         12    1    1    2    0    0 -0.32628217178E+02  0.15564200405E+02  0.24016215452E+02  0.43400731504E+02  0.00000000000E+00 0. -1.
         11    1    3    3    0    0  0.18502091056E+02 -0.15136445454E+02 -0.12081969798E+02  0.26784572965E+02  0.51100000000E-03 0. -1.
        -11    1    3    3    0    0  0.13599167581E+02  0.83900964731E+00 -0.13318875969E+02  0.19053444660E+02  0.51100000000E-03 0.  1.
        -12    1    3    3    0    0  0.52695854026E+00 -0.12667645979E+01  0.13846303147E+01  0.19492508710E+01  0.00000000000E+00 0.  1.
</event>
<event>
 7    1  0.8300060E-011  0.4778728E+02  0.7816164E-02  0.1312668E+00
        -11   -1    0    0    0    0  0.00000000000E+00  0.00000000000E+00  0.45593999997E+02  0.45594000000E+02  0.51100000000E-03 0.  1.
         11   -1    0    0    0    0 -0.00000000000E+00 -0.00000000000E+00 -0.45593999997E+02  0.45594000000E+02  0.51100000000E-03 0. -1.
    9900012    2    1    2    0    0  0.40855268369E+02 -0.14642186642E+02 -0.27525369770E+00  0.47787281714E+02  0.20000048648E+02 0.  0.
         12    1    1    2    0    0 -0.40855268369E+02  0.14642186642E+02  0.27525369770E+00  0.43400718286E+02  0.00000000000E+00 0. -1.
         11    1    3    3    0    0  0.46256627697E+01 -0.30435314538E+01  0.54397539908E+01  0.77621365301E+01  0.51100000000E-03 0. -1.
        -11    1    3    3    0    0  0.53069113999E+01 -0.45720621849E+01  0.21984543237E+01  0.73416798421E+01  0.51100000000E-03 0.  1.
         12    1    3    3    0    0  0.30922694199E+02 -0.70265930033E+01 -0.79134620122E+01  0.32683465342E+02  0.00000000000E+00 0. -1.
</event>
<event>
 7    1  0.8300060E-011  0.4778728E+02  0.7816164E-02  0.1312668E+00
        -11   -1    0    0    0    0  0.00000000000E+00  0.00000000000E+00  0.45593999997E+02  0.45594000000E+02  0.51100000000E-03 0. -1.
         11   -1    0    0    0    0 -0.00000000000E+00 -0.00000000000E+00 -0.45593999997E+02  0.45594000000E+02  0.51100000000E-03 0.  1.
    9900012    2    1    2    0    0  0.29793047371E+02  0.83606548473E+01  0.30431835776E+02  0.47787275930E+02  0.20000022275E+02 0.  0.
        -12    1    1    2    0    0 -0.29793047371E+02 -0.83606548473E+01 -0.30431835776E+02  0.43400724070E+02  0.00000000000E+00 0.  1.
         11    1    3    3    0    0  0.61168971475E+01  0.17179474235E+00  0.34161466149E+01  0.70082809662E+01  0.51100000000E-03 0. -1.
        -11    1    3    3    0    0  0.24009007321E+02  0.11647298285E+02  0.21538856937E+02  0.34293065600E+02  0.51100000000E-03 0.  1.
        -12    1    3    3    0    0 -0.33285709753E+00 -0.34584381800E+01  0.54768322243E+01  0.64859293633E+01  0.00000000000E+00 0.  1.
</event>
<event>
 7    1  0.8867199E-011  0.4778727E+02  0.7816164E-02  0.1312668E+00
        -11   -1    0    0    0    0  0.00000000000E+00  0.00000000000E+00  0.45593999997E+02  0.45594000000E+02  0.51100000000E-03 0. -1.
         11   -1    0    0    0    0 -0.00000000000E+00 -0.00000000000E+00 -0.45593999997E+02  0.45594000000E+02  0.51100000000E-03 0.  1.
    9900012    2    1    2    0    0  0.11185162401E+02 -0.24494821766E+02  0.34037027690E+02  0.47787269531E+02  0.19999993099E+02 0.  0.
        -12    1    1    2    0    0 -0.11185162401E+02  0.24494821766E+02 -0.34037027690E+02  0.43400730469E+02  0.00000000000E+00 0.  1.
         11    1    3    3    0    0  0.64017450658E+01 -0.11880775343E+02  0.28781393272E+02  0.31788421816E+02  0.51100000000E-03 0. -1.
        -11    1    3    3    0    0 -0.13607010895E+01 -0.32594463093E+01 -0.22069515211E+00  0.35389552568E+01  0.51100000000E-03 0.  1.
         12    1    3    3    0    0  0.61441184250E+01 -0.93546001133E+01  0.54763295704E+01  0.12459892458E+02  0.00000000000E+00 0. -1.
</event>
<event>
 7    1  0.8300060E-011  0.4778727E+02  0.7816164E-02  0.1312668E+00
        -11   -1    0    0    0    0  0.00000000000E+00  0.00000000000E+00  0.45593999997E+02  0.45594000000E+02  0.51100000000E-03 0. -1.
         11   -1    0    0    0    0 -0.00000000000E+00 -0.00000000000E+00 -0.45593999997E+02  0.45594000000E+02  0.51100000000E-03 0.  1.
    9900012    2    1    2    0    0 -0.23188063699E+02  0.65555333761E+01 -0.36096565254E+02  0.47787270294E+02  0.19999996576E+02 0.  0.
         12    1    1    2    0    0  0.23188063699E+02 -0.65555333761E+01  0.36096565254E+02  0.43400729706E+02  0.00000000000E+00 0. -1.
         11    1    3    3    0    0 -0.10863334060E+02 -0.37794387885E+01 -0.18641745772E+02  0.21904585596E+02  0.51100000000E-03 0. -1.
        -11    1    3    3    0    0 -0.76462196657E+00  0.69114131525E+01 -0.76921322833E+01  0.10369241913E+02  0.51100000000E-03 0.  1.
         12    1    3    3    0    0 -0.11560107672E+02  0.34235590121E+01 -0.97626871986E+01  0.15513442785E+02  0.00000000000E+00 0. -1.
</event>
<event>
 7    1  0.8300060E-011  0.4778728E+02  0.7816164E-02  0.1312668E+00
        -11   -1    0    0    0    0  0.00000000000E+00  0.00000000000E+00  0.45593999997E+02  0.45594000000E+02  0.51100000000E-03 0. -1.
         11   -1    0    0    0    0 -0.00000000000E+00 -0.00000000000E+00 -0.45593999997E+02  0.45594000000E+02  0.51100000000E-03 0.  1.
    9900012    2    1    2    0    0 -0.21294150220E+02 -0.40033405780E+01 -0.37605251346E+02  0.47787279981E+02  0.20000040746E+02 0.  0.
         12    1    1    2    0    0  0.21294150220E+02  0.40033405780E+01  0.37605251346E+02  0.43400720019E+02  0.00000000000E+00 0. -1.
         11    1    3    3    0    0 -0.98740698099E+01  0.77325107737E+01 -0.19395139479E+02  0.23096761963E+02  0.51100000000E-03 0. -1.
        -11    1    3    3    0    0 -0.58937692078E+01 -0.79831351339E+01 -0.97549659051E+01  0.13914967557E+02  0.51100000000E-03 0.  1.
         12    1    3    3    0    0 -0.55263112028E+01 -0.37527162177E+01 -0.84551459613E+01  0.10775550461E+02  0.00000000000E+00 0. -1.
</event>
<event>
 7    1  0.8300060E-011  0.4778727E+02  0.7816164E-02  0.1312668E+00
        -11   -1    0    0    0    0  0.00000000000E+00  0.00000000000E+00  0.45593999997E+02  0.45594000000E+02  0.51100000000E-03 0.  1.
         11   -1    0    0    0    0 -0.00000000000E+00 -0.00000000000E+00 -0.45593999997E+02  0.45594000000E+02  0.51100000000E-03 0. -1.
    9900012    2    1    2    0    0  0.30054795277E+02  0.55829917064E+01 -0.30808485962E+02  0.47787270480E+02  0.19999997427E+02 0.  0.
         12    1    1    2    0    0 -0.30054795277E+02 -0.55829917064E+01  0.30808485962E+02  0.43400729520E+02  0.00000000000E+00 0. -1.
         11    1    3    3    0    0  0.91734465554E-01  0.14799737354E+00 -0.74494644384E+00  0.76502542445E+00  0.51100000000E-03 0. -1.
        -11    1    3    3    0    0  0.28505628159E+02 -0.13938622646E+01 -0.20317830747E+02  0.35033240434E+02  0.51100000000E-03 0.  1.
        -12    1    3    3    0    0  0.14574326526E+01  0.68288565974E+01 -0.97457087717E+01  0.11989004622E+02  0.00000000000E+00 0.  1.
</event>
<event>
 7    1  0.8300060E-011  0.4778727E+02  0.7816164E-02  0.1312668E+00
        -11   -1    0    0    0    0  0.00000000000E+00  0.00000000000E+00  0.45593999997E+02  0.45594000000E+02  0.51100000000E-03 0. -1.
         11   -1    0    0    0    0 -0.00000000000E+00 -0.00000000000E+00 -0.45593999997E+02  0.45594000000E+02  0.51100000000E-03 0.  1.
    9900012    2    1    2    0    0 -0.24255091693E+02 -0.19663206464E+02 -0.30144195737E+02  0.47787266157E+02  0.19999977715E+02 0.  0.
         12    1    1    2    0    0  0.24255091693E+02  0.19663206464E+02  0.30144195737E+02  0.43400733843E+02  0.00000000000E+00 0. -1.
         11    1    3    3    0    0 -0.15090564929E+02 -0.15401406689E+02 -0.16896720121E+02  0.27393934164E+02  0.51100000000E-03 0. -1.
        -11    1    3    3    0    0 -0.75758100949E+01  0.28227499236E+01 -0.55154719713E+01  0.97867894149E+01  0.51100000000E-03 0.  1.
        -12    1    3    3    0    0 -0.15887166691E+01 -0.70845496982E+01 -0.77320036453E+01  0.10606542578E+02  0.00000000000E+00 0.  1.
</event>
<event>
 7    1  0.8300060E-011  0.4778727E+02  0.7816164E-02  0.1312668E+00
        -11   -1    0    0    0    0  0.00000000000E+00  0.00000000000E+00  0.45593999997E+02  0.45594000000E+02  0.51100000000E-03 0. -1.
         11   -1    0    0    0    0 -0.00000000000E+00 -0.00000000000E+00 -0.45593999997E+02  0.45594000000E+02  0.51100000000E-03 0.  1.
    9900012    2    1    2    0    0  0.92358707931E+00  0.87718697317E+01  0.42494991082E+02  0.47787274444E+02  0.20000015502E+02 0.  0.
        -12    1    1    2    0    0 -0.92358707931E+00 -0.87718697317E+01 -0.42494991082E+02  0.43400725556E+02  0.00000000000E+00 0.  1.
         11    1    3    3    0    0 -0.70905522389E+01  0.13868650228E+01  0.19701373401E+02  0.20984361792E+02  0.51100000000E-03 0. -1.
        -11    1    3    3    0    0  0.98955127383E+01  0.53904606440E+01  0.17032945270E+02  0.20423013077E+02  0.51100000000E-03 0.  1.
        -12    1    3    3    0    0 -0.18813734201E+01  0.19945440649E+01  0.57606724108E+01  0.63798995758E+01  0.00000000000E+00 0.  1.
</event>
<event>
 7    1  0.8300060E-011  0.4778727E+02  0.7816164E-02  0.1312668E+00
        -11   -1    0    0    0    0  0.00000000000E+00  0.00000000000E+00  0.45593999997E+02  0.45594000000E+02  0.51100000000E-03 0. -1.
         11   -1    0    0    0    0 -0.00000000000E+00 -0.00000000000E+00 -0.45593999997E+02  0.45594000000E+02  0.51100000000E-03 0.  1.
    9900012    2    1    2    0    0 -0.16698426374E+02  0.87478391750E+01  0.39092977020E+02  0.47787274363E+02  0.20000015128E+02 0.  0.
        -12    1    1    2    0    0  0.16698426374E+02 -0.87478391750E+01 -0.39092977020E+02  0.43400725637E+02  0.00000000000E+00 0.  1.
         11    1    3    3    0    0 -0.23075152972E+01 -0.71198930181E+00  0.55075601818E+00  0.24768706195E+01  0.51100000000E-03 0. -1.
        -11    1    3    3    0    0 -0.20517844594E+01  0.84780422763E+01  0.62604936568E+01  0.10736889745E+02  0.51100000000E-03 0.  1.
        -12    1    3    3    0    0 -0.12339126617E+02  0.98178620058E+00  0.32281727345E+02  0.34573513998E+02  0.00000000000E+00 0.  1.
</event>
<event>
 7    1  0.8300060E-011  0.4778727E+02  0.7816164E-02  0.1312668E+00
        -11   -1    0    0    0    0  0.00000000000E+00  0.00000000000E+00  0.45593999997E+02  0.45594000000E+02  0.51100000000E-03 0. -1.
         11   -1    0    0    0    0 -0.00000000000E+00 -0.00000000000E+00 -0.45593999997E+02  0.45594000000E+02  0.51100000000E-03 0.  1.
    9900012    2    1    2    0    0 -0.14706825503E+02 -0.38376997304E+01 -0.40652242501E+02  0.47787268716E+02  0.19999989386E+02 0.  0.
         12    1    1    2    0    0  0.14706825503E+02  0.38376997304E+01  0.40652242501E+02  0.43400731284E+02  0.00000000000E+00 0. -1.
         11    1    3    3    0    0  0.13601403859E+01  0.35728840128E+01 -0.73643504173E+01  0.82975381511E+01  0.51100000000E-03 0. -1.
        -11    1    3    3    0    0 -0.13219857778E+02 -0.26125881798E+01 -0.14085953114E+02  0.19493699804E+02  0.51100000000E-03 0.  1.
        -12    1    3    3    0    0 -0.28471081111E+01 -0.47979955634E+01 -0.19201938969E+02  0.19996030761E+02  0.00000000000E+00 0.  1.
</event>
<event>
 7    1  0.8300060E-011  0.4778727E+02  0.7816164E-02  0.1312668E+00
        -11   -1    0    0    0    0  0.00000000000E+00  0.00000000000E+00  0.45593999997E+02  0.45594000000E+02  0.51100000000E-03 0.  1.
         11   -1    0    0    0    0 -0.00000000000E+00 -0.00000000000E+00 -0.45593999997E+02  0.45594000000E+02  0.51100000000E-03 0. -1.
    9900012    2    1    2    0    0 -0.29147491778E+02 -0.26339483847E+02  0.18446643480E+02  0.47787270260E+02  0.19999996422E+02 0.  0.
        -12    1    1    2    0    0  0.29147491778E+02  0.26339483847E+02 -0.18446643480E+02  0.43400729740E+02  0.00000000000E+00 0.  1.
         11    1    3    3    0    0 -0.25143386963E+02 -0.14056392552E+02  0.78714591828E+01  0.29861881212E+02  0.51100000000E-03 0. -1.
        -11    1    3    3    0    0 -0.65765759485E+00 -0.55982746656E+01  0.84427946647E+01  0.10151550362E+02  0.51100000000E-03 0.  1.
         12    1    3    3    0    0 -0.33464472203E+01 -0.66848166296E+01  0.21323896327E+01  0.77738386859E+01  0.00000000000E+00 0. -1.
</event>
<event>
 7    1  0.8300060E-011  0.4778727E+02  0.7816164E-02  0.1312668E+00
        -11   -1    0    0    0    0  0.00000000000E+00  0.00000000000E+00  0.45593999997E+02  0.45594000000E+02  0.51100000000E-03 0. -1.
         11   -1    0    0    0    0 -0.00000000000E+00 -0.00000000000E+00 -0.45593999997E+02  0.45594000000E+02  0.51100000000E-03 0.  1.
    9900012    2    1    2    0    0 -0.36641365736E+01  0.82912061012E+01 -0.42443532008E+02  0.47787269537E+02  0.19999993125E+02 0.  0.
         12    1    1    2    0    0  0.36641365736E+01 -0.82912061012E+01  0.42443532008E+02  0.43400730463E+02  0.00000000000E+00 0. -1.
         11    1    3    3    0    0  0.35650407568E+01  0.78368341965E+00 -0.51570939584E+01  0.63181717020E+01  0.51100000000E-03 0. -1.
        -11    1    3    3    0    0 -0.41070018514E+01 -0.31671299822E+01 -0.45651995238E+01  0.69093576753E+01  0.51100000000E-03 0.  1.
        -12    1    3    3    0    0 -0.31221754789E+01  0.10674652664E+02 -0.32721238526E+02  0.34559740159E+02  0.00000000000E+00 0.  1.
</event>
<event>
 7    1  0.8300060E-011  0.4778727E+02  0.7816164E-02  0.1312668E+00
        -11   -1    0    0    0    0  0.00000000000E+00  0.00000000000E+00  0.45593999997E+02  0.45594000000E+02  0.51100000000E-03 0. -1.
         11   -1    0    0    0    0 -0.00000000000E+00 -0.00000000000E+00 -0.45593999997E+02  0.45594000000E+02  0.51100000000E-03 0.  1.
    9900012    2    1    2    0    0 -0.47348917830E+01 -0.18956220385E+02 -0.38753910385E+02  0.47787273490E+02  0.20000011149E+02 0.  0.
         12    1    1    2    0    0  0.47348917830E+01  0.18956220385E+02  0.38753910385E+02  0.43400726510E+02  0.00000000000E+00 0. -1.
         11    1    3    3    0    0 -0.38706514430E+01 -0.37898614402E+01 -0.17092019984E+01  0.56803489384E+01  0.51100000000E-03 0. -1.
        -11    1    3    3    0    0 -0.21917317565E+01 -0.74558782665E+01 -0.31682845784E+02  0.32622025167E+02  0.51100000000E-03 0.  1.
        -12    1    3    3    0    0  0.13274914166E+01 -0.77104806782E+01 -0.53618626031E+01  0.94848993840E+01  0.00000000000E+00 0.  1.
</event>
<event>
 7    1  0.9204537E-011  0.4778727E+02  0.7816164E-02  0.1312668E+00
        -11   -1    0    0    0    0  0.00000000000E+00  0.00000000000E+00  0.45593999997E+02  0.45594000000E+02  0.51100000000E-03 0. -1.
         11   -1    0    0    0    0 -0.00000000000E+00 -0.00000000000E+00 -0.45593999997E+02  0.45594000000E+02  0.51100000000E-03 0.  1.
    9900012    2    1    2    0    0  0.54111098303E+01  0.94906162026E+01 -0.42003228905E+02  0.47787272541E+02  0.20000006826E+02 0.  0.
         12    1    1    2    0    0 -0.54111098303E+01 -0.94906162026E+01  0.42003228905E+02  0.43400727459E+02  0.00000000000E+00 0. -1.
         11    1    3    3    0    0  0.50319197469E+01 -0.35931546787E+01 -0.12715756234E+02  0.14139357614E+02  0.51100000000E-03 0. -1.
        -11    1    3    3    0    0 -0.38886179593E+01  0.88899009676E+01 -0.23026960040E+02  0.24987848603E+02  0.51100000000E-03 0.  1.
         12    1    3    3    0    0  0.42678080427E+01  0.41938699137E+01 -0.62605126309E+01  0.86600663244E+01  0.00000000000E+00 0. -1.
</event>
<event>
 7    1  0.8300060E-011  0.4778724E+02  0.7816164E-02  0.1312668E+00
        -11   -1    0    0    0    0  0.00000000000E+00  0.00000000000E+00  0.45593999997E+02  0.45594000000E+02  0.51100000000E-03 0. -1.
         11   -1    0    0    0    0 -0.00000000000E+00 -0.00000000000E+00 -0.45593999997E+02  0.45594000000E+02  0.51100000000E-03 0.  1.
    9900012    2    1    2    0    0 -0.24434733909E+02  0.63679856127E+01 -0.35298985179E+02  0.47787241751E+02  0.19999866437E+02 0.  0.
         12    1    1    2    0    0  0.24434733909E+02 -0.63679856127E+01  0.35298985179E+02  0.43400758249E+02  0.00000000000E+00 0. -1.
         11    1    3    3    0    0 -0.41614609148E+01  0.68758087243E+01 -0.79199714399E+01  0.11283636401E+02  0.51100000000E-03 0. -1.
        -11    1    3    3    0    0 -0.39221579496E+01 -0.55696076326E+01 -0.10094818646E+02  0.12178227126E+02  0.51100000000E-03 0.  1.
        -12    1    3    3    0    0 -0.16351115045E+02  0.50617845210E+01 -0.17284195093E+02  0.24325378224E+02  0.00000000000E+00 0.  1.
</event>
<event>
 7    1  0.8300060E-011  0.4778727E+02  0.7816164E-02  0.1312668E+00
        -11   -1    0    0    0    0  0.00000000000E+00  0.00000000000E+00  0.45593999997E+02  0.45594000000E+02  0.51100000000E-03 0. -1.
         11   -1    0    0    0    0 -0.00000000000E+00 -0.00000000000E+00 -0.45593999997E+02  0.45594000000E+02  0.51100000000E-03 0.  1.
    9900012    2    1    2    0    0  0.14609307738E+02  0.10595923083E+02 -0.39470470982E+02  0.47787268001E+02  0.19999986122E+02 0.  0.
         12    1    1    2    0    0 -0.14609307738E+02 -0.10595923083E+02  0.39470470982E+02  0.43400731999E+02  0.00000000000E+00 0. -1.
         11    1    3    3    0    0 -0.33193253593E+01  0.65495910816E+01 -0.14660339577E+02  0.16396359991E+02  0.51100000000E-03 0. -1.
        -11    1    3    3    0    0  0.13633601162E+02  0.95606415456E+00 -0.20103666672E+02  0.24309392284E+02  0.51100000000E-03 0.  1.
        -12    1    3    3    0    0  0.42950319358E+01  0.30902678465E+01 -0.47064647324E+01  0.70815157255E+01  0.00000000000E+00 0.  1.
</event>
<event>
 7    1  0.8300060E-011  0.4778726E+02  0.7816164E-02  0.1312668E+00
        -11   -1    0    0    0    0  0.00000000000E+00  0.00000000000E+00  0.45593999997E+02  0.45594000000E+02  0.51100000000E-03 0. -1.
         11   -1    0    0    0    0 -0.00000000000E+00 -0.00000000000E+00 -0.45593999997E+02  0.45594000000E+02  0.51100000000E-03 0.  1.
    9900012    2    1    2    0    0  0.15332730713E+02  0.29590546149E+02 -0.27801641074E+02  0.47787259235E+02  0.19999946157E+02 0.  0.
         12    1    1    2    0    0 -0.15332730713E+02 -0.29590546149E+02  0.27801641074E+02  0.43400740765E+02  0.00000000000E+00 0. -1.
         11    1    3    3    0    0 -0.69952015110E+00  0.53516548103E+00  0.16375775462E+01  0.18594060920E+01  0.51100000000E-03 0. -1.
        -11    1    3    3    0    0  0.14026964590E+02  0.25597443793E+02 -0.30040287792E+02  0.41885603198E+02  0.51100000000E-03 0.  1.
         12    1    3    3    0    0  0.20052862737E+01  0.34579368751E+01  0.60106917201E+00  0.40422499454E+01  0.00000000000E+00 0. -1.
</event>
<event>
 7    1  0.8300060E-011  0.4778727E+02  0.7816164E-02  0.1312668E+00
        -11   -1    0    0    0    0  0.00000000000E+00  0.00000000000E+00  0.45593999997E+02  0.45594000000E+02  0.51100000000E-03 0. -1.
         11   -1    0    0    0    0 -0.00000000000E+00 -0.00000000000E+00 -0.45593999997E+02  0.45594000000E+02  0.51100000000E-03 0.  1.
    9900012    2    1    2    0    0 -0.16974599830E+02 -0.15321052330E+02 -0.36888368624E+02  0.47787269319E+02  0.19999992135E+02 0.  0.
         12    1    1    2    0    0  0.16974599830E+02  0.15321052330E+02  0.36888368624E+02  0.43400730681E+02  0.00000000000E+00 0. -1.
         11    1    3    3    0    0  0.26296538408E+00 -0.38609299930E+01 -0.13390106166E+02  0.13938108716E+02  0.51100000000E-03 0. -1.
        -11    1    3    3    0    0 -0.57943704887E+01 -0.71137645090E+01 -0.24436779996E+01  0.94948374013E+01  0.51100000000E-03 0.  1.
        -12    1    3    3    0    0 -0.11443194725E+02 -0.43463578282E+01 -0.21054584459E+02  0.24354323202E+02  0.00000000000E+00 0.  1.
</event>
<event>
 7    1  0.8300060E-011  0.4778728E+02  0.7816164E-02  0.1312668E+00
        -11   -1    0    0    0    0  0.00000000000E+00  0.00000000000E+00  0.45593999997E+02  0.45594000000E+02  0.51100000000E-03 0. -1.
         11   -1    0    0    0    0 -0.00000000000E+00 -0.00000000000E+00 -0.45593999997E+02  0.45594000000E+02  0.51100000000E-03 0.  1.
    9900012    2    1    2    0    0  0.17794353952E+02 -0.35340845897E+01  0.39427073594E+02  0.47787275137E+02  0.20000018658E+02 0.  0.
        -12    1    1    2    0    0 -0.17794353952E+02  0.35340845897E+01 -0.39427073594E+02  0.43400724863E+02  0.00000000000E+00 0.  1.
         11    1    3    3    0    0  0.11124898936E+02 -0.54510008707E+01  0.15051086043E+02  0.19493895920E+02  0.51100000000E-03 0. -1.
        -11    1    3    3    0    0  0.20843212828E+00  0.56859572458E+01  0.16398857557E+02  0.17357882451E+02  0.51100000000E-03 0.  1.
        -12    1    3    3    0    0  0.64610228879E+01 -0.37690409648E+01  0.79771299941E+01  0.10935496765E+02  0.00000000000E+00 0.  1.
</event>
<event>
 7    1  0.8300060E-011  0.4778726E+02  0.7816164E-02  0.1312668E+00
        -11   -1    0    0    0    0  0.00000000000E+00  0.00000000000E+00  0.45593999997E+02  0.45594000000E+02  0.51100000000E-03 0. -1.
         11   -1    0    0    0    0 -0.00000000000E+00 -0.00000000000E+00 -0.45593999997E+02  0.45594000000E+02  0.51100000000E-03 0.  1.
    9900012    2    1    2    0    0  0.17862539721E+02 -0.94335969052E+01  0.38413030449E+02  0.47787262862E+02  0.19999962694E+02 0.  0.
        -12    1    1    2    0    0 -0.17862539721E+02  0.94335969052E+01 -0.38413030449E+02  0.43400737138E+02  0.00000000000E+00 0.  1.
         11    1    3    3    0    0 -0.40731168098E+00  0.42826362715E+01  0.10473502404E+02  0.11322593745E+02  0.51100000000E-03 0. -1.
        -11    1    3    3    0    0  0.28029478447E+01 -0.10531508697E+00  0.39066333266E+01  0.48093026623E+01  0.51100000000E-03 0.  1.
         12    1    3    3    0    0  0.15466903557E+02 -0.13610918090E+02  0.24032894718E+02  0.31655366455E+02  0.00000000000E+00 0. -1.
</event>
<event>
 7    1  0.8300060E-011  0.4778727E+02  0.7816164E-02  0.1312668E+00
        -11   -1    0    0    0    0  0.00000000000E+00  0.00000000000E+00  0.45593999997E+02  0.45594000000E+02  0.51100000000E-03 0.  1.
         11   -1    0    0    0    0 -0.00000000000E+00 -0.00000000000E+00 -0.45593999997E+02  0.45594000000E+02  0.51100000000E-03 0. -1.
    9900012    2    1    2    0    0 -0.39200973321E+02 -0.18597255305E+02 -0.10243169306E+01  0.47787269138E+02  0.19999991307E+02 0.  0.
        -12    1    1    2    0    0  0.39200973321E+02  0.18597255305E+02  0.10243169306E+01  0.43400730862E+02  0.00000000000E+00 0.  1.
         11    1    3    3    0    0 -0.35550360398E+02 -0.10440580180E+02 -0.55915372432E+01  0.37471310731E+02  0.51100000000E-03 0. -1.
        -11    1    3    3    0    0 -0.38899602675E+01 -0.67749327265E+01  0.41844252107E+01  0.88623314617E+01  0.51100000000E-03 0.  1.
        -12    1    3    3    0    0  0.23934734405E+00 -0.13817423981E+01  0.38279510191E+00  0.14536269452E+01  0.00000000000E+00 0.  1.
</event>
<event>
 7    1  0.8300060E-011  0.4778727E+02  0.7816164E-02  0.1312668E+00
        -11   -1    0    0    0    0  0.00000000000E+00  0.00000000000E+00  0.45593999997E+02  0.45594000000E+02  0.51100000000E-03 0. -1.
         11   -1    0    0    0    0 -0.00000000000E+00 -0.00000000000E+00 -0.45593999997E+02  0.45594000000E+02  0.51100000000E-03 0.  1.
    9900012    2    1    2    0    0 -0.17208042553E+02 -0.31038663039E+01  0.39722442174E+02  0.47787272739E+02  0.20000007724E+02 0.  0.
        -12    1    1    2    0    0  0.17208042553E+02  0.31038663039E+01 -0.39722442174E+02  0.43400727261E+02  0.00000000000E+00 0.  1.
         11    1    3    3    0    0 -0.11701372019E+02  0.61185684630E+01  0.20977612398E+02  0.24787480900E+02  0.51100000000E-03 0. -1.
        -11    1    3    3    0    0 -0.57744982499E+01 -0.99546167802E+01  0.13686891172E+02  0.17882119995E+02  0.51100000000E-03 0.  1.
         12    1    3    3    0    0  0.26782771591E+00  0.73218201328E+00  0.50579386038E+01  0.51176718443E+01  0.00000000000E+00 0. -1.
</event>
<event>
 7    1  0.8300060E-011  0.4778727E+02  0.7816164E-02  0.1312668E+00
        -11   -1    0    0    0    0  0.00000000000E+00  0.00000000000E+00  0.45593999997E+02  0.45594000000E+02  0.51100000000E-03 0. -1.
         11   -1    0    0    0    0 -0.00000000000E+00 -0.00000000000E+00 -0.45593999997E+02  0.45594000000E+02  0.51100000000E-03 0.  1.
    9900012    2    1    2    0    0 -0.25892896198E+02  0.93604185355E+01  0.33549422073E+02  0.47787271549E+02  0.20000002300E+02 0.  0.
        -12    1    1    2    0    0  0.25892896198E+02 -0.93604185355E+01 -0.33549422073E+02  0.43400728451E+02  0.00000000000E+00 0.  1.
         11    1    3    3    0    0 -0.25594807453E+01 -0.32551929328E+00  0.14419076580E+02  0.14648094557E+02  0.51100000000E-03 0. -1.
        -11    1    3    3    0    0 -0.11532673987E+02  0.93247288149E+01  0.77184130058E+01  0.16719062065E+02  0.51100000000E-03 0.  1.
        -12    1    3    3    0    0 -0.11800741465E+02  0.36120901387E+00  0.11411932487E+02  0.16420114926E+02  0.00000000000E+00 0.  1.
</event>
<event>
 7    1  0.8300060E-011  0.4778727E+02  0.7816164E-02  0.1312668E+00
        -11   -1    0    0    0    0  0.00000000000E+00  0.00000000000E+00  0.45593999997E+02  0.45594000000E+02  0.51100000000E-03 0. -1.
         11   -1    0    0    0    0 -0.00000000000E+00 -0.00000000000E+00 -0.45593999997E+02  0.45594000000E+02  0.51100000000E-03 0.  1.
    9900012    2    1    2    0    0  0.49583918826E+01  0.37616306979E+02 -0.21072522421E+02  0.47787269569E+02  0.19999993272E+02 0.  0.
         12    1    1    2    0    0 -0.49583918826E+01 -0.37616306979E+02  0.21072522421E+02  0.43400730431E+02  0.00000000000E+00 0. -1.
         11    1    3    3    0    0  0.10682825183E+02  0.12871675576E+02 -0.10599147207E+02  0.19802643960E+02  0.51100000000E-03 0.  1.
        -11    1    3    3    0    0 -0.40009074225E+01  0.14940964803E+02 -0.35786640414E+01  0.15875973231E+02  0.51100000000E-03 0. -1.
        -12    1    3    3    0    0 -0.17235258782E+01  0.98036665993E+01 -0.68947111728E+01  0.12108652377E+02  0.00000000000E+00 0.  1.
</event>
<event>
 7    1  0.8300060E-011  0.4778727E+02  0.7816164E-02  0.1312668E+00
        -11   -1    0    0    0    0  0.00000000000E+00  0.00000000000E+00  0.45593999997E+02  0.45594000000E+02  0.51100000000E-03 0. -1.
         11   -1    0    0    0    0 -0.00000000000E+00 -0.00000000000E+00 -0.45593999997E+02  0.45594000000E+02  0.51100000000E-03 0.  1.
    9900012    2    1    2    0    0  0.39528489966E+01 -0.24075546917E+01  0.43153238214E+02  0.47787270707E+02  0.19999998462E+02 0.  0.
        -12    1    1    2    0    0 -0.39528489966E+01  0.24075546917E+01 -0.43153238214E+02  0.43400729293E+02  0.00000000000E+00 0.  1.
         11    1    3    3    0    0 -0.44085269582E+00 -0.41405306337E+01  0.34738036812E+02  0.34986705287E+02  0.51100000000E-03 0. -1.
        -11    1    3    3    0    0  0.26680642335E+01 -0.10533042719E+01 -0.83452316186E+00  0.29873810959E+01  0.51100000000E-03 0.  1.
        -12    1    3    3    0    0  0.17256374589E+01  0.27862802139E+01  0.92497245636E+01  0.98131843238E+01  0.00000000000E+00 0.  1.
</event>
<event>
 7    1  0.8300060E-011  0.4778728E+02  0.7816164E-02  0.1312668E+00
        -11   -1    0    0    0    0  0.00000000000E+00  0.00000000000E+00  0.45593999997E+02  0.45594000000E+02  0.51100000000E-03 0.  1.
         11   -1    0    0    0    0 -0.00000000000E+00 -0.00000000000E+00 -0.45593999997E+02  0.45594000000E+02  0.51100000000E-03 0. -1.
    9900012    2    1    2    0    0 -0.17658546849E+02  0.28279592729E+02 -0.27786015079E+02  0.47787282544E+02  0.20000052430E+02 0.  0.
         12    1    1    2    0    0  0.17658546849E+02 -0.28279592729E+02  0.27786015079E+02  0.43400717456E+02  0.00000000000E+00 0. -1.
         11    1    3    3    0    0  0.24099990277E+01  0.14449446402E+01 -0.23320033420E+01  0.36516024119E+01  0.51100000000E-03 0. -1.
        -11    1    3    3    0    0 -0.20708831497E+02  0.26367083212E+02 -0.26561446924E+02  0.42773698016E+02  0.51100000000E-03 0.  1.
        -12    1    3    3    0    0  0.64028561983E+00  0.46756487709E+00  0.11074351870E+01  0.13619821154E+01  0.00000000000E+00 0.  1.
</event>
<event>
 7    1  0.8300060E-011  0.4778726E+02  0.7816164E-02  0.1312668E+00
        -11   -1    0    0    0    0  0.00000000000E+00  0.00000000000E+00  0.45593999997E+02  0.45594000000E+02  0.51100000000E-03 0. -1.
         11   -1    0    0    0    0 -0.00000000000E+00 -0.00000000000E+00 -0.45593999997E+02  0.45594000000E+02  0.51100000000E-03 0.  1.
    9900012    2    1    2    0    0 -0.26036904734E+02 -0.19385037390E+02  0.28808408118E+02  0.47787257368E+02  0.19999937642E+02 0.  0.
        -12    1    1    2    0    0  0.26036904734E+02  0.19385037390E+02 -0.28808408118E+02  0.43400742632E+02  0.00000000000E+00 0.  1.
         11    1    3    3    0    0 -0.16922064216E+01 -0.64049665201E+01  0.52196563656E+01  0.84339772073E+01  0.51100000000E-03 0. -1.
        -11    1    3    3    0    0 -0.12099266390E+02 -0.44212772310E+01  0.19062678384E+01  0.13022050409E+02  0.51100000000E-03 0.  1.
        -12    1    3    3    0    0 -0.12245431923E+02 -0.85587936389E+01  0.21682483914E+02  0.26331229751E+02  0.00000000000E+00 0.  1.
</event>
<event>
 7    1  0.8300060E-011  0.4778727E+02  0.7816164E-02  0.1312668E+00
        -11   -1    0    0    0    0  0.00000000000E+00  0.00000000000E+00  0.45593999997E+02  0.45594000000E+02  0.51100000000E-03 0. -1.
         11   -1    0    0    0    0 -0.00000000000E+00 -0.00000000000E+00 -0.45593999997E+02  0.45594000000E+02  0.51100000000E-03 0.  1.
    9900012    2    1    2    0    0 -0.45617788842E+01  0.41021006832E+02 -0.13419786165E+02  0.47787268568E+02  0.19999988707E+02 0.  0.
         12    1    1    2    0    0  0.45617788842E+01 -0.41021006832E+02  0.13419786165E+02  0.43400731432E+02  0.00000000000E+00 0. -1.
         11    1    3    3    0    0  0.35868831423E+01  0.25344662617E+01 -0.32690020815E+01  0.54749999798E+01  0.51100000000E-03 0. -1.
        -11    1    3    3    0    0 -0.10909331353E+01  0.19052896528E+02  0.42511696077E+00  0.19088837730E+02  0.51100000000E-03 0.  1.
        -12    1    3    3    0    0 -0.70577288912E+01  0.19433644043E+02 -0.10575901045E+02  0.23223430858E+02  0.00000000000E+00 0.  1.
</event>
<event>
 7    1  0.8300060E-011  0.4778727E+02  0.7816164E-02  0.1312668E+00
        -11   -1    0    0    0    0  0.00000000000E+00  0.00000000000E+00  0.45593999997E+02  0.45594000000E+02  0.51100000000E-03 0. -1.
         11   -1    0    0    0    0 -0.00000000000E+00 -0.00000000000E+00 -0.45593999997E+02  0.45594000000E+02  0.51100000000E-03 0.  1.
    9900012    2    1    2    0    0  0.18931139987E+02  0.16620363736E+02  0.35341174438E+02  0.47787272327E+02  0.20000005847E+02 0.  0.
        -12    1    1    2    0    0 -0.18931139987E+02 -0.16620363736E+02 -0.35341174438E+02  0.43400727673E+02  0.00000000000E+00 0.  1.
         11    1    3    3    0    0  0.83267155756E-01  0.17230900562E+01  0.17024413105E+02  0.17111592988E+02  0.51100000000E-03 0. -1.
        -11    1    3    3    0    0  0.18070340170E+02  0.12211098236E+02  0.16321262984E+02  0.27240259537E+02  0.51100000000E-03 0.  1.
         12    1    3    3    0    0  0.77753266096E+00  0.26861754435E+01  0.19954983486E+01  0.34354198013E+01  0.00000000000E+00 0. -1.
</event>
<event>
 7    1  0.8300060E-011  0.4778725E+02  0.7816164E-02  0.1312668E+00
        -11   -1    0    0    0    0  0.00000000000E+00  0.00000000000E+00  0.45593999997E+02  0.45594000000E+02  0.51100000000E-03 0. -1.
         11   -1    0    0    0    0 -0.00000000000E+00 -0.00000000000E+00 -0.45593999997E+02  0.45594000000E+02  0.51100000000E-03 0.  1.
    9900012    2    1    2    0    0  0.10498293585E+02  0.81844905379E+01  0.41308893087E+02  0.47787254596E+02  0.19999925005E+02 0.  0.
        -12    1    1    2    0    0 -0.10498293585E+02 -0.81844905379E+01 -0.41308893087E+02  0.43400745404E+02  0.00000000000E+00 0.  1.
         11    1    3    3    0    0 -0.15710278869E+01  0.86424100404E+01  0.20464480832E+02  0.22270032688E+02  0.51100000000E-03 0. -1.
        -11    1    3    3    0    0  0.62343204388E+01 -0.17518318335E+01  0.39231261764E+01  0.75714321871E+01  0.51100000000E-03 0.  1.
         12    1    3    3    0    0  0.58350010332E+01  0.12939123309E+01  0.16921286079E+02  0.17945789722E+02  0.00000000000E+00 0. -1.
</event>
<event>
 7    1  0.8300060E-011  0.4778727E+02  0.7816164E-02  0.1312668E+00
        -11   -1    0    0    0    0  0.00000000000E+00  0.00000000000E+00  0.45593999997E+02  0.45594000000E+02  0.51100000000E-03 0. -1.
         11   -1    0    0    0    0 -0.00000000000E+00 -0.00000000000E+00 -0.45593999997E+02  0.45594000000E+02  0.51100000000E-03 0.  1.
    9900012    2    1    2    0    0 -0.24442151628E+02  0.75863756914E+01  0.35052126538E+02  0.47787269048E+02  0.19999990899E+02 0.  0.
        -12    1    1    2    0    0  0.24442151628E+02 -0.75863756914E+01 -0.35052126538E+02  0.43400730952E+02  0.00000000000E+00 0.  1.
         11    1    3    3    0    0 -0.48758783797E+01 -0.58218970604E+00  0.10079787588E+02  0.11212281343E+02  0.51100000000E-03 0. -1.
        -11    1    3    3    0    0 -0.41532065178E+01  0.76318460067E+01  0.17278133362E+02  0.19339805857E+02  0.51100000000E-03 0.  1.
        -12    1    3    3    0    0 -0.15413066730E+02  0.53671939080E+00  0.76942055873E+01  0.17235181848E+02  0.00000000000E+00 0.  1.
</event>
<event>
 7    1  0.8300060E-011  0.4778727E+02  0.7816164E-02  0.1312668E+00
        -11   -1    0    0    0    0  0.00000000000E+00  0.00000000000E+00  0.45593999997E+02  0.45594000000E+02  0.51100000000E-03 0. -1.
         11   -1    0    0    0    0 -0.00000000000E+00 -0.00000000000E+00 -0.45593999997E+02  0.45594000000E+02  0.51100000000E-03 0.  1.
    9900012    2    1    2    0    0 -0.52695505321E+01  0.21506105667E+02  0.37327503915E+02  0.47787270832E+02  0.19999999030E+02 0.  0.
        -12    1    1    2    0    0  0.52695505321E+01 -0.21506105667E+02 -0.37327503915E+02  0.43400729168E+02  0.00000000000E+00 0.  1.
         11    1    3    3    0    0 -0.11489809481E+02  0.15150638365E+02  0.31621856070E+02  0.36898500597E+02  0.51100000000E-03 0. -1.
        -11    1    3    3    0    0  0.48168203850E+01  0.60284478789E+01  0.41249774804E+01  0.87498218225E+01  0.51100000000E-03 0.  1.
         12    1    3    3    0    0  0.14034385638E+01  0.32701942328E+00  0.15806703655E+01  0.21389484121E+01  0.00000000000E+00 0. -1.
</event>
<event>
 7    1  0.8300060E-011  0.4778728E+02  0.7816164E-02  0.1312668E+00
        -11   -1    0    0    0    0  0.00000000000E+00  0.00000000000E+00  0.45593999997E+02  0.45594000000E+02  0.51100000000E-03 0. -1.
         11   -1    0    0    0    0 -0.00000000000E+00 -0.00000000000E+00 -0.45593999997E+02  0.45594000000E+02  0.51100000000E-03 0.  1.
    9900012    2    1    2    0    0 -0.20924861978E+02  0.16801425832E+02 -0.34109896483E+02  0.47787276540E+02  0.20000025056E+02 0.  0.
         12    1    1    2    0    0  0.20924861978E+02 -0.16801425832E+02  0.34109896483E+02  0.43400723460E+02  0.00000000000E+00 0. -1.
         11    1    3    3    0    0 -0.91282599737E+01 -0.20633574570E+01 -0.12181100697E+02  0.15361047770E+02  0.51100000000E-03 0. -1.
        -11    1    3    3    0    0 -0.53954495025E+01  0.12269324291E+02 -0.76143434799E+01  0.15415103658E+02  0.51100000000E-03 0.  1.
        -12    1    3    3    0    0 -0.64011525014E+01  0.65954589980E+01 -0.14314452307E+02  0.17011125112E+02  0.00000000000E+00 0.  1.
</event>
<event>
 7    1  0.8300060E-011  0.4778727E+02  0.7816164E-02  0.1312668E+00
        -11   -1    0    0    0    0  0.00000000000E+00  0.00000000000E+00  0.45593999997E+02  0.45594000000E+02  0.51100000000E-03 0. -1.
         11   -1    0    0    0    0 -0.00000000000E+00 -0.00000000000E+00 -0.45593999997E+02  0.45594000000E+02  0.51100000000E-03 0.  1.
    9900012    2    1    2    0    0 -0.23177236403E+02 -0.27148442282E+02  0.24686052587E+02  0.47787269615E+02  0.19999993483E+02 0.  0.
        -12    1    1    2    0    0  0.23177236403E+02  0.27148442282E+02 -0.24686052587E+02  0.43400730385E+02  0.00000000000E+00 0.  1.
         11    1    3    3    0    0 -0.43530757313E+01 -0.10940343049E+02  0.75396753438E+00  0.11798679658E+02  0.51100000000E-03 0. -1.
        -11    1    3    3    0    0 -0.18947815792E+02 -0.14344473515E+02  0.24402358618E+02  0.34062571103E+02  0.51100000000E-03 0.  1.
        -12    1    3    3    0    0  0.12365512010E+00 -0.18636257171E+01 -0.47027356587E+00  0.19260188548E+01  0.00000000000E+00 0.  1.
</event>
<event>
 7    1  0.8300060E-011  0.4778727E+02  0.7816164E-02  0.1312668E+00
        -11   -1    0    0    0    0  0.00000000000E+00  0.00000000000E+00  0.45593999997E+02  0.45594000000E+02  0.51100000000E-03 0. -1.
         11   -1    0    0    0    0 -0.00000000000E+00 -0.00000000000E+00 -0.45593999997E+02  0.45594000000E+02  0.51100000000E-03 0.  1.
    9900012    2    1    2    0    0 -0.26297290680E+02  0.33052687296E+01  0.34367876805E+02  0.47787271267E+02  0.20000001016E+02 0.  0.
        -12    1    1    2    0    0  0.26297290680E+02 -0.33052687296E+01 -0.34367876805E+02  0.43400728733E+02  0.00000000000E+00 0.  1.
         11    1    3    3    0    0 -0.24165462915E+02 -0.12860609466E+01  0.30181338512E+02  0.38685097199E+02  0.51100000000E-03 0. -1.
        -11    1    3    3    0    0 -0.21890899457E+01  0.55385335773E+01  0.13437275706E+01  0.61051677308E+01  0.51100000000E-03 0.  1.
        -12    1    3    3    0    0  0.57262180258E-01 -0.94720390108E+00  0.28428107216E+01  0.29970063374E+01  0.00000000000E+00 0.  1.
</event>
<event>
 7    1  0.8300060E-011  0.4778727E+02  0.7816164E-02  0.1312668E+00
        -11   -1    0    0    0    0  0.00000000000E+00  0.00000000000E+00  0.45593999997E+02  0.45594000000E+02  0.51100000000E-03 0. -1.
         11   -1    0    0    0    0 -0.00000000000E+00 -0.00000000000E+00 -0.45593999997E+02  0.45594000000E+02  0.51100000000E-03 0.  1.
    9900012    2    1    2    0    0  0.12860918087E+02  0.77061993633E+01 -0.40728790634E+02  0.47787272942E+02  0.20000008651E+02 0.  0.
         12    1    1    2    0    0 -0.12860918087E+02 -0.77061993633E+01  0.40728790634E+02  0.43400727058E+02  0.00000000000E+00 0. -1.
         11    1    3    3    0    0  0.21753461356E+01 -0.48110804411E+00  0.64628972403E+00  0.23197599936E+01  0.51100000000E-03 0.  1.
        -11    1    3    3    0    0  0.10885418753E+02  0.88710170070E+01 -0.42142494823E+02  0.44420458736E+02  0.51100000000E-03 0. -1.
         12    1    3    3    0    0 -0.19984680155E+00 -0.68370959963E+00  0.76741446514E+00  0.10470542116E+01  0.00000000000E+00 0. -1.
</event>
<event>
 7    1  0.8300060E-011  0.4778727E+02  0.7816164E-02  0.1312668E+00
        -11   -1    0    0    0    0  0.00000000000E+00  0.00000000000E+00  0.45593999997E+02  0.45594000000E+02  0.51100000000E-03 0. -1.
         11   -1    0    0    0    0 -0.00000000000E+00 -0.00000000000E+00 -0.45593999997E+02  0.45594000000E+02  0.51100000000E-03 0.  1.
    9900012    2    1    2    0    0  0.37625850752E+02  0.15321850618E+02  0.15269561853E+02  0.47787271085E+02  0.20000000186E+02 0.  0.
        -12    1    1    2    0    0 -0.37625850752E+02 -0.15321850618E+02 -0.15269561853E+02  0.43400728915E+02  0.00000000000E+00 0.  1.
         11    1    3    3    0    0  0.56235832731E+01  0.18948755417E+01  0.59982137026E+01  0.84376424451E+01  0.51100000000E-03 0. -1.
        -11    1    3    3    0    0  0.14459096369E+01  0.21635796228E+01  0.60970105534E+01  0.66291228237E+01  0.51100000000E-03 0.  1.
        -12    1    3    3    0    0  0.30556357842E+02  0.11263395453E+02  0.31743375968E+01  0.32720505816E+02  0.00000000000E+00 0.  1.
</event>
<event>
 7    1  0.8300060E-011  0.4778726E+02  0.7816164E-02  0.1312668E+00
        -11   -1    0    0    0    0  0.00000000000E+00  0.00000000000E+00  0.45593999997E+02  0.45594000000E+02  0.51100000000E-03 0. -1.
         11   -1    0    0    0    0 -0.00000000000E+00 -0.00000000000E+00 -0.45593999997E+02  0.45594000000E+02  0.51100000000E-03 0.  1.
    9900012    2    1    2    0    0  0.29504070651E+02  0.25903458496E+02  0.18497156051E+02  0.47787261193E+02  0.19999955084E+02 0.  0.
        -12    1    1    2    0    0 -0.29504070651E+02 -0.25903458496E+02 -0.18497156051E+02  0.43400738807E+02  0.00000000000E+00 0.  1.
         11    1    3    3    0    0  0.29190024042E+02  0.25530049623E+02  0.15955607568E+02  0.41933546838E+02  0.51100000000E-03 0. -1.
        -11    1    3    3    0    0  0.14396615859E+01 -0.19415259626E+01  0.21789288164E+01  0.32542095190E+01  0.51100000000E-03 0.  1.
         12    1    3    3    0    0 -0.11256149772E+01  0.23149348356E+01  0.36261966674E+00  0.25995048360E+01  0.00000000000E+00 0. -1.
</event>
<event>
 7    1  0.8300060E-011  0.4778727E+02  0.7816164E-02  0.1312668E+00
        -11   -1    0    0    0    0  0.00000000000E+00  0.00000000000E+00  0.45593999997E+02  0.45594000000E+02  0.51100000000E-03 0. -1.
         11   -1    0    0    0    0 -0.00000000000E+00 -0.00000000000E+00 -0.45593999997E+02  0.45594000000E+02  0.51100000000E-03 0.  1.
    9900012    2    1    2    0    0  0.16958397976E+02 -0.19894909886E+02 -0.34644313602E+02  0.47787272284E+02  0.20000005652E+02 0.  0.
         12    1    1    2    0    0 -0.16958397976E+02  0.19894909886E+02  0.34644313602E+02  0.43400727716E+02  0.00000000000E+00 0. -1.
         11    1    3    3    0    0  0.10172310429E+02  0.17391288686E+00 -0.92282850075E+01  0.13735624835E+02  0.51100000000E-03 0. -1.
        -11    1    3    3    0    0 -0.38714659156E+00 -0.21313168014E+01 -0.49988468928E-01  0.21667701538E+01  0.51100000000E-03 0.  1.
         12    1    3    3    0    0  0.71732341384E+01 -0.17937505972E+02 -0.25366040126E+02  0.31884877295E+02  0.00000000000E+00 0. -1.
</event>
<event>
 7    1  0.9564537E-011  0.4778727E+02  0.7816164E-02  0.1312668E+00
        -11   -1    0    0    0    0  0.00000000000E+00  0.00000000000E+00  0.45593999997E+02  0.45594000000E+02  0.51100000000E-03 0. -1.
         11   -1    0    0    0    0 -0.00000000000E+00 -0.00000000000E+00 -0.45593999997E+02  0.45594000000E+02  0.51100000000E-03 0.  1.
    9900012    2    1    2    0    0  0.17825415421E+01 -0.14819702634E+02  0.40753189864E+02  0.47787268156E+02  0.19999986829E+02 0.  0.
        -12    1    1    2    0    0 -0.17825415421E+01  0.14819702634E+02 -0.40753189864E+02  0.43400731844E+02  0.00000000000E+00 0.  1.
         11    1    3    3    0    0  0.38289168678E+01 -0.51095860544E+01  0.25281508578E+02  0.26075336053E+02  0.51100000000E-03 0. -1.
        -11    1    3    3    0    0  0.14979528580E+01 -0.35988330508E+01 -0.79409104766E+00  0.39781959411E+01  0.51100000000E-03 0.  1.
         12    1    3    3    0    0 -0.35443281837E+01 -0.61112835284E+01  0.16265772334E+02  0.17733736162E+02  0.00000000000E+00 0. -1.
</event>
<event>
 7    1  0.8300060E-011  0.4778727E+02  0.7816164E-02  0.1312668E+00
        -11   -1    0    0    0    0  0.00000000000E+00  0.00000000000E+00  0.45593999997E+02  0.45594000000E+02  0.51100000000E-03 0. -1.
         11   -1    0    0    0    0 -0.00000000000E+00 -0.00000000000E+00 -0.45593999997E+02  0.45594000000E+02  0.51100000000E-03 0.  1.
    9900012    2    1    2    0    0 -0.24105997363E+02 -0.35877718678E+02 -0.39132430449E+01  0.47787271002E+02  0.19999999806E+02 0.  0.
         12    1    1    2    0    0  0.24105997363E+02  0.35877718678E+02  0.39132430449E+01  0.43400728998E+02  0.00000000000E+00 0. -1.
         11    1    3    3    0    0 -0.10633539991E+02 -0.74143251028E+01 -0.76372355155E+01  0.15045655720E+02  0.51100000000E-03 0. -1.
        -11    1    3    3    0    0 -0.14399989163E+02 -0.27817469778E+02  0.31723039192E+01  0.31483881990E+02  0.51100000000E-03 0.  1.
         12    1    3    3    0    0  0.92753179095E+00 -0.64592379788E+00  0.55168855141E+00  0.12577332919E+01  0.00000000000E+00 0. -1.
</event>
<event>
 7    1  0.8300060E-011  0.4778724E+02  0.7816164E-02  0.1312668E+00
        -11   -1    0    0    0    0  0.00000000000E+00  0.00000000000E+00  0.45593999997E+02  0.45594000000E+02  0.51100000000E-03 0. -1.
         11   -1    0    0    0    0 -0.00000000000E+00 -0.00000000000E+00 -0.45593999997E+02  0.45594000000E+02  0.51100000000E-03 0.  1.
    9900012    2    1    2    0    0  0.33005772826E+02 -0.24188710981E+02 -0.14462047767E+02  0.47787244196E+02  0.19999877585E+02 0.  0.
         12    1    1    2    0    0 -0.33005772826E+02  0.24188710981E+02  0.14462047767E+02  0.43400755804E+02  0.00000000000E+00 0. -1.
         11    1    3    3    0    0  0.18981071846E+02 -0.11469343349E+02  0.13565165906E+00  0.22177586138E+02  0.51100000000E-03 0. -1.
        -11    1    3    3    0    0  0.34353774785E+01 -0.10574168443E+01 -0.75311029511E+01  0.83449062741E+01  0.51100000000E-03 0.  1.
        -12    1    3    3    0    0  0.10589323501E+02 -0.11661950788E+02 -0.70665964753E+01  0.17264751783E+02  0.00000000000E+00 0.  1.
</event>
<event>
 7    1  0.8300060E-011  0.4778727E+02  0.7816164E-02  0.1312668E+00
        -11   -1    0    0    0    0  0.00000000000E+00  0.00000000000E+00  0.45593999997E+02  0.45594000000E+02  0.51100000000E-03 0. -1.
         11   -1    0    0    0    0 -0.00000000000E+00 -0.00000000000E+00 -0.45593999997E+02  0.45594000000E+02  0.51100000000E-03 0.  1.
    9900012    2    1    2    0    0 -0.40855572306E+02 -0.60466810028E+01 -0.13337284468E+02  0.47787270783E+02  0.19999998807E+02 0.  0.
         12    1    1    2    0    0  0.40855572306E+02  0.60466810028E+01  0.13337284468E+02  0.43400729217E+02  0.00000000000E+00 0. -1.
         11    1    3    3    0    0 -0.25578017864E+01  0.14818060176E+01  0.80137913317E+00  0.30627288206E+01  0.51100000000E-03 0. -1.
        -11    1    3    3    0    0 -0.32354563573E+02 -0.18516640033E+01 -0.56267469488E+01  0.32892350556E+02  0.51100000000E-03 0.  1.
        -12    1    3    3    0    0 -0.59432069464E+01 -0.56768230171E+01 -0.85119166526E+01  0.11832191406E+02  0.00000000000E+00 0.  1.
</event>
<event>
 7    1  0.8300060E-011  0.4778727E+02  0.7816164E-02  0.1312668E+00
        -11   -1    0    0    0    0  0.00000000000E+00  0.00000000000E+00  0.45593999997E+02  0.45594000000E+02  0.51100000000E-03 0. -1.
         11   -1    0    0    0    0 -0.00000000000E+00 -0.00000000000E+00 -0.45593999997E+02  0.45594000000E+02  0.51100000000E-03 0.  1.
    9900012    2    1    2    0    0 -0.12533908228E+02  0.36384190695E+02  0.20067761604E+02  0.47787271391E+02  0.20000001579E+02 0.  0.
        -12    1    1    2    0    0  0.12533908228E+02 -0.36384190695E+02 -0.20067761604E+02  0.43400728609E+02  0.00000000000E+00 0.  1.
         11    1    3    3    0    0 -0.13970354197E+02  0.33772373575E+02  0.13361711157E+02  0.38913742285E+02  0.51100000000E-03 0. -1.
        -11    1    3    3    0    0 -0.88763536869E+00  0.14069395368E+01  0.59065231242E+01  0.61363173880E+01  0.51100000000E-03 0.  1.
        -12    1    3    3    0    0  0.23240813368E+01  0.12048775832E+01  0.79952732263E+00  0.27372117182E+01  0.00000000000E+00 0.  1.
</event>
<event>
 7    1  0.8300060E-011  0.4778727E+02  0.7816164E-02  0.1312668E+00
        -11   -1    0    0    0    0  0.00000000000E+00  0.00000000000E+00  0.45593999997E+02  0.45594000000E+02  0.51100000000E-03 0. -1.
         11   -1    0    0    0    0 -0.00000000000E+00 -0.00000000000E+00 -0.45593999997E+02  0.45594000000E+02  0.51100000000E-03 0.  1.
    9900012    2    1    2    0    0 -0.16956322505E+02 -0.13075750539E+02 -0.37750906420E+02  0.47787273501E+02  0.20000011202E+02 0.  0.
         12    1    1    2    0    0  0.16956322505E+02  0.13075750539E+02  0.37750906420E+02  0.43400726499E+02  0.00000000000E+00 0. -1.
         11    1    3    3    0    0 -0.22566184604E+01  0.22653229534E+01 -0.41456776381E+01  0.52355189140E+01  0.51100000000E-03 0. -1.
        -11    1    3    3    0    0 -0.13697763848E+02 -0.17382046682E+02 -0.33652958003E+02  0.40277609957E+02  0.51100000000E-03 0.  1.
        -12    1    3    3    0    0 -0.10019401967E+01  0.20409731897E+01  0.47729220221E-01  0.22741446298E+01  0.00000000000E+00 0.  1.
</event>
<event>
 7    1  0.8300060E-011  0.4778728E+02  0.7816164E-02  0.1312668E+00
        -11   -1    0    0    0    0  0.00000000000E+00  0.00000000000E+00  0.45593999997E+02  0.45594000000E+02  0.51100000000E-03 0. -1.
         11   -1    0    0    0    0 -0.00000000000E+00 -0.00000000000E+00 -0.45593999997E+02  0.45594000000E+02  0.51100000000E-03 0.  1.
    9900012    2    1    2    0    0  0.26007746036E+02  0.29733890964E+02  0.17975419337E+02  0.47787276204E+02  0.20000023523E+02 0.  0.
        -12    1    1    2    0    0 -0.26007746036E+02 -0.29733890964E+02 -0.17975419337E+02  0.43400723796E+02  0.00000000000E+00 0.  1.
         11    1    3    3    0    0  0.26325694656E+02  0.21102547203E+02  0.18543996708E+02  0.38499863789E+02  0.51100000000E-03 0. -1.
        -11    1    3    3    0    0 -0.73605332292E+00  0.43791900988E+01 -0.18738949702E+01  0.48198094398E+01  0.51100000000E-03 0.  1.
         12    1    3    3    0    0  0.41810470279E+00  0.42521536621E+01  0.13053175990E+01  0.44676029750E+01  0.00000000000E+00 0. -1.
</event>
<event>
 7    1  0.8300060E-011  0.4778727E+02  0.7816164E-02  0.1312668E+00
        -11   -1    0    0    0    0  0.00000000000E+00  0.00000000000E+00  0.45593999997E+02  0.45594000000E+02  0.51100000000E-03 0. -1.
         11   -1    0    0    0    0 -0.00000000000E+00 -0.00000000000E+00 -0.45593999997E+02  0.45594000000E+02  0.51100000000E-03 0.  1.
    9900012    2    1    2    0    0 -0.28109608324E+02 -0.24213616672E+02 -0.22520521315E+02  0.47787271979E+02  0.20000004259E+02 0.  0.
         12    1    1    2    0    0  0.28109608324E+02  0.24213616672E+02  0.22520521315E+02  0.43400728021E+02  0.00000000000E+00 0. -1.
         11    1    3    3    0    0 -0.30494289805E+01 -0.13441467386E+02 -0.11565755974E+02  0.17992742263E+02  0.51100000000E-03 0. -1.
        -11    1    3    3    0    0 -0.21221766245E+02 -0.76117965234E+01 -0.10273783181E+02  0.24776065668E+02  0.51100000000E-03 0.  1.
         12    1    3    3    0    0 -0.38384130983E+01 -0.31603527625E+01 -0.68098215965E+00  0.50184640477E+01  0.00000000000E+00 0. -1.
</event>
<event>
 7    1  0.8300060E-011  0.4778730E+02  0.7816164E-02  0.1312668E+00
        -11   -1    0    0    0    0  0.00000000000E+00  0.00000000000E+00  0.45593999997E+02  0.45594000000E+02  0.51100000000E-03 0. -1.
         11   -1    0    0    0    0 -0.00000000000E+00 -0.00000000000E+00 -0.45593999997E+02  0.45594000000E+02  0.51100000000E-03 0.  1.
    9900012    2    1    2    0    0  0.35975980059E+01  0.54024825447E+01  0.42912604115E+02  0.47787295847E+02  0.20000113083E+02 0.  0.
        -12    1    1    2    0    0 -0.35975980059E+01 -0.54024825447E+01 -0.42912604115E+02  0.43400704153E+02  0.00000000000E+00 0.  1.
         11    1    3    3    0    0  0.71408164097E+01 -0.40148798959E+01  0.18970545397E+02  0.20663787468E+02  0.51100000000E-03 0. -1.
        -11    1    3    3    0    0  0.85833834638E-01  0.75681111341E+01  0.96592998340E+01  0.12271338441E+02  0.51100000000E-03 0.  1.
         12    1    3    3    0    0 -0.36290522385E+01  0.18492513065E+01  0.14282758884E+02  0.14852169938E+02  0.00000000000E+00 0. -1.
</event>
<event>
 7    1  0.8300060E-011  0.4778727E+02  0.7816164E-02  0.1312668E+00
        -11   -1    0    0    0    0  0.00000000000E+00  0.00000000000E+00  0.45593999997E+02  0.45594000000E+02  0.51100000000E-03 0. -1.
         11   -1    0    0    0    0 -0.00000000000E+00 -0.00000000000E+00 -0.45593999997E+02  0.45594000000E+02  0.51100000000E-03 0.  1.
    9900012    2    1    2    0    0  0.41441269661E+02 -0.45370732569E+01  0.12068939283E+02  0.47787272353E+02  0.20000005967E+02 0.  0.
        -12    1    1    2    0    0 -0.41441269661E+02  0.45370732569E+01 -0.12068939283E+02  0.43400727647E+02  0.00000000000E+00 0.  1.
         11    1    3    3    0    0  0.24532220728E+02 -0.45196990212E+01  0.84202653737E+01  0.26327901594E+02  0.51100000000E-03 0. -1.
        -11    1    3    3    0    0 -0.55763750091E+00  0.20736120434E+01 -0.20492349630E+01  0.29681965372E+01  0.51100000000E-03 0.  1.
        -12    1    3    3    0    0  0.17466686434E+02 -0.20909862791E+01  0.56979088724E+01  0.18491174222E+02  0.00000000000E+00 0.  1.
</event>
<event>
 7    1  0.8300060E-011  0.4778727E+02  0.7816164E-02  0.1312668E+00
        -11   -1    0    0    0    0  0.00000000000E+00  0.00000000000E+00  0.45593999997E+02  0.45594000000E+02  0.51100000000E-03 0. -1.
         11   -1    0    0    0    0 -0.00000000000E+00 -0.00000000000E+00 -0.45593999997E+02  0.45594000000E+02  0.51100000000E-03 0.  1.
    9900012    2    1    2    0    0  0.14766295926E+02 -0.29357235290E+02 -0.28350173805E+02  0.47787272886E+02  0.20000008398E+02 0.  0.
         12    1    1    2    0    0 -0.14766295926E+02  0.29357235290E+02  0.28350173805E+02  0.43400727114E+02  0.00000000000E+00 0. -1.
         11    1    3    3    0    0  0.22688774019E+01 -0.68054353476E+01 -0.13947895831E+02  0.15684564173E+02  0.51100000000E-03 0. -1.
        -11    1    3    3    0    0  0.62116108458E+01 -0.20958326774E+02 -0.89131865465E+01  0.23606788539E+02  0.51100000000E-03 0.  1.
         12    1    3    3    0    0  0.62858076778E+01 -0.15934731680E+01 -0.54890914281E+01  0.84959201742E+01  0.00000000000E+00 0. -1.
</event>
<event>
 7    1  0.8300060E-011  0.4778727E+02  0.7816164E-02  0.1312668E+00
        -11   -1    0    0    0    0  0.00000000000E+00  0.00000000000E+00  0.45593999997E+02  0.45594000000E+02  0.51100000000E-03 0. -1.
         11   -1    0    0    0    0 -0.00000000000E+00 -0.00000000000E+00 -0.45593999997E+02  0.45594000000E+02  0.51100000000E-03 0.  1.
    9900012    2    1    2    0    0 -0.38141599822E+01  0.41917645040E+02 -0.10582368388E+02  0.47787270711E+02  0.19999998480E+02 0.  0.
         12    1    1    2    0    0  0.38141599822E+01 -0.41917645040E+02  0.10582368388E+02  0.43400729289E+02  0.00000000000E+00 0. -1.
         11    1    3    3    0    0  0.43869750023E+01  0.23196745317E+02 -0.16843033439E+00  0.23608534728E+02  0.51100000000E-03 0. -1.
        -11    1    3    3    0    0 -0.30253853389E+01  0.84006398263E+00 -0.21900515761E+01  0.38281836569E+01  0.51100000000E-03 0.  1.
         12    1    3    3    0    0 -0.51757496456E+01  0.17880835741E+02 -0.82238864775E+01  0.20350552326E+02  0.00000000000E+00 0. -1.
</event>
<event>
 7    1  0.8300060E-011  0.4778728E+02  0.7816164E-02  0.1312668E+00
        -11   -1    0    0    0    0  0.00000000000E+00  0.00000000000E+00  0.45593999997E+02  0.45594000000E+02  0.51100000000E-03 0. -1.
         11   -1    0    0    0    0 -0.00000000000E+00 -0.00000000000E+00 -0.45593999997E+02  0.45594000000E+02  0.51100000000E-03 0.  1.
    9900012    2    1    2    0    0 -0.83584869651E+01  0.19476604566E+02 -0.37873744038E+02  0.47787275153E+02  0.20000018734E+02 0.  0.
         12    1    1    2    0    0  0.83584869651E+01 -0.19476604566E+02  0.37873744038E+02  0.43400724847E+02  0.00000000000E+00 0. -1.
         11    1    3    3    0    0 -0.18251391861E+01 -0.30796639722E+01 -0.29846463248E+01  0.46608558415E+01  0.51100000000E-03 0. -1.
        -11    1    3    3    0    0 -0.28794298116E+01  0.15411208807E+02 -0.15078997226E+02  0.21752531589E+02  0.51100000000E-03 0.  1.
         12    1    3    3    0    0 -0.36539179674E+01  0.71450597312E+01 -0.19810100487E+02  0.21373887723E+02  0.00000000000E+00 0. -1.
</event>
<event>
 7    1  0.8300060E-011  0.4778727E+02  0.7816164E-02  0.1312668E+00
        -11   -1    0    0    0    0  0.00000000000E+00  0.00000000000E+00  0.45593999997E+02  0.45594000000E+02  0.51100000000E-03 0. -1.
         11   -1    0    0    0    0 -0.00000000000E+00 -0.00000000000E+00 -0.45593999997E+02  0.45594000000E+02  0.51100000000E-03 0.  1.
    9900012    2    1    2    0    0  0.14748116952E+02 -0.28095730076E+02  0.29609897614E+02  0.47787273753E+02  0.20000012348E+02 0.  0.
        -12    1    1    2    0    0 -0.14748116952E+02  0.28095730076E+02 -0.29609897614E+02  0.43400726247E+02  0.00000000000E+00 0.  1.
         11    1    3    3    0    0 -0.39426024619E+01 -0.24260716030E+01  0.19975627601E+01  0.50418443885E+01  0.51100000000E-03 0. -1.
        -11    1    3    3    0    0  0.15544254464E+01 -0.12121799890E+01  0.47269092289E+01  0.51214538867E+01  0.51100000000E-03 0.  1.
         12    1    3    3    0    0  0.17136293967E+02 -0.24457478484E+02  0.22885425625E+02  0.37623975477E+02  0.00000000000E+00 0. -1.
</event>
<event>
 7    1  0.8300060E-011  0.4778727E+02  0.7816164E-02  0.1312668E+00
        -11   -1    0    0    0    0  0.00000000000E+00  0.00000000000E+00  0.45593999997E+02  0.45594000000E+02  0.51100000000E-03 0. -1.
         11   -1    0    0    0    0 -0.00000000000E+00 -0.00000000000E+00 -0.45593999997E+02  0.45594000000E+02  0.51100000000E-03 0.  1.
    9900012    2    1    2    0    0  0.26099534336E+02 -0.32200459523E+02 -0.12867331744E+02  0.47787268298E+02  0.19999987480E+02 0.  0.
         12    1    1    2    0    0 -0.26099534336E+02  0.32200459523E+02  0.12867331744E+02  0.43400731702E+02  0.00000000000E+00 0. -1.
         11    1    3    3    0    0  0.32768206092E+01 -0.85600766205E+01  0.45076715734E+01  0.10214282566E+02  0.51100000000E-03 0. -1.
        -11    1    3    3    0    0  0.21593747838E+02 -0.23426821322E+02 -0.15798263618E+02  0.35562494803E+02  0.51100000000E-03 0.  1.
        -12    1    3    3    0    0  0.12289658884E+01 -0.21356157980E+00 -0.15767396986E+01  0.20104909302E+01  0.00000000000E+00 0.  1.
</event>
<event>
 7    1  0.8300060E-011  0.4778729E+02  0.7816164E-02  0.1312668E+00
        -11   -1    0    0    0    0  0.00000000000E+00  0.00000000000E+00  0.45593999997E+02  0.45594000000E+02  0.51100000000E-03 0. -1.
         11   -1    0    0    0    0 -0.00000000000E+00 -0.00000000000E+00 -0.45593999997E+02  0.45594000000E+02  0.51100000000E-03 0.  1.
    9900012    2    1    2    0    0 -0.25796710637E+01  0.14199276121E+02  0.40931013850E+02  0.47787285260E+02  0.20000064815E+02 0.  0.
        -12    1    1    2    0    0  0.25796710637E+01 -0.14199276121E+02 -0.40931013850E+02  0.43400714740E+02  0.00000000000E+00 0.  1.
         11    1    3    3    0    0  0.24396847831E+01  0.76794790315E+01  0.73024511421E+01  0.10874385177E+02  0.51100000000E-03 0. -1.
        -11    1    3    3    0    0 -0.47983210726E+01  0.23627045999E+01  0.31998115416E+02  0.32442035210E+02  0.51100000000E-03 0.  1.
        -12    1    3    3    0    0 -0.22103477413E+00  0.41570924897E+01  0.16304472915E+01  0.44708648727E+01  0.00000000000E+00 0.  1.
</event>
<event>
 7    1  0.8300060E-011  0.4778727E+02  0.7816164E-02  0.1312668E+00
        -11   -1    0    0    0    0  0.00000000000E+00  0.00000000000E+00  0.45593999997E+02  0.45594000000E+02  0.51100000000E-03 0. -1.
         11   -1    0    0    0    0 -0.00000000000E+00 -0.00000000000E+00 -0.45593999997E+02  0.45594000000E+02  0.51100000000E-03 0.  1.
    9900012    2    1    2    0    0  0.22419003769E+02 -0.26048981905E+02  0.26504003689E+02  0.47787269593E+02  0.19999993385E+02 0.  0.
        -12    1    1    2    0    0 -0.22419003769E+02  0.26048981905E+02 -0.26504003689E+02  0.43400730407E+02  0.00000000000E+00 0.  1.
         11    1    3    3    0    0  0.76929783607E+01 -0.21897152156E+02  0.17302282734E+02  0.28948854497E+02  0.51100000000E-03 0. -1.
        -11    1    3    3    0    0  0.88584932214E+01 -0.25724023183E+01  0.20419491786E+01  0.94477358425E+01  0.51100000000E-03 0.  1.
         12    1    3    3    0    0  0.58675321869E+01 -0.15794274309E+01  0.71597717760E+01  0.93906792544E+01  0.00000000000E+00 0. -1.
</event>
<event>
 7    1  0.8300060E-011  0.4778727E+02  0.7816164E-02  0.1312668E+00
        -11   -1    0    0    0    0  0.00000000000E+00  0.00000000000E+00  0.45593999997E+02  0.45594000000E+02  0.51100000000E-03 0.  1.
         11   -1    0    0    0    0 -0.00000000000E+00 -0.00000000000E+00 -0.45593999997E+02  0.45594000000E+02  0.51100000000E-03 0. -1.
    9900012    2    1    2    0    0  0.41914893459E+02  0.11112493469E+02 -0.18104044088E+01  0.47787269950E+02  0.19999995008E+02 0.  0.
         12    1    1    2    0    0 -0.41914893459E+02 -0.11112493469E+02  0.18104044088E+01  0.43400730050E+02  0.00000000000E+00 0. -1.
         11    1    3    3    0    0 -0.61234044165E+00 -0.73160517157E+00 -0.28708275383E+00  0.99630502971E+00  0.51100000000E-03 0. -1.
        -11    1    3    3    0    0  0.88580683952E+01  0.40704256501E+01 -0.67300308791E+01  0.11845972166E+02  0.51100000000E-03 0.  1.
        -12    1    3    3    0    0  0.33669165506E+02  0.77736729909E+01  0.52067092241E+01  0.34944992754E+02  0.00000000000E+00 0.  1.
</event>
<event>
 7    1  0.8300060E-011  0.4778727E+02  0.7816164E-02  0.1312668E+00
        -11   -1    0    0    0    0  0.00000000000E+00  0.00000000000E+00  0.45593999997E+02  0.45594000000E+02  0.51100000000E-03 0. -1.
         11   -1    0    0    0    0 -0.00000000000E+00 -0.00000000000E+00 -0.45593999997E+02  0.45594000000E+02  0.51100000000E-03 0.  1.
    9900012    2    1    2    0    0 -0.38309748866E+02 -0.16494345166E+02 -0.11996801638E+02  0.47787268092E+02  0.19999986539E+02 0.  0.
         12    1    1    2    0    0  0.38309748866E+02  0.16494345166E+02  0.11996801638E+02  0.43400731908E+02  0.00000000000E+00 0. -1.
         11    1    3    3    0    0  0.43862175849E+00 -0.22063431524E+01 -0.19800242300E+01  0.29968041921E+01  0.51100000000E-03 0. -1.
        -11    1    3    3    0    0 -0.30668285180E+02 -0.10008830087E+02 -0.14999544347E+01  0.32295050072E+02  0.51100000000E-03 0.  1.
        -12    1    3    3    0    0 -0.80800854437E+01 -0.42791719270E+01 -0.85168229735E+01  0.12495413827E+02  0.00000000000E+00 0.  1.
</event>
<event>
 7    1  0.8300060E-011  0.4778727E+02  0.7816164E-02  0.1312668E+00
        -11   -1    0    0    0    0  0.00000000000E+00  0.00000000000E+00  0.45593999997E+02  0.45594000000E+02  0.51100000000E-03 0. -1.
         11   -1    0    0    0    0 -0.00000000000E+00 -0.00000000000E+00 -0.45593999997E+02  0.45594000000E+02  0.51100000000E-03 0.  1.
    9900012    2    1    2    0    0  0.24769875460E+02  0.29412469520E+02  0.20124191705E+02  0.47787272065E+02  0.20000004652E+02 0.  0.
        -12    1    1    2    0    0 -0.24769875460E+02 -0.29412469520E+02 -0.20124191705E+02  0.43400727935E+02  0.00000000000E+00 0.  1.
         11    1    3    3    0    0 -0.38279909526E+00  0.75565274700E+01  0.82136431074E+01  0.11167433721E+02  0.51100000000E-03 0. -1.
        -11    1    3    3    0    0  0.21752738639E+02  0.17053617371E+02  0.13145849836E+02  0.30607529661E+02  0.51100000000E-03 0.  1.
         12    1    3    3    0    0  0.33999359157E+01  0.48023246788E+01 -0.12353012390E+01  0.60123086832E+01  0.00000000000E+00 0. -1.
</event>
<event>
 7    1  0.8300060E-011  0.4778727E+02  0.7816164E-02  0.1312668E+00
        -11   -1    0    0    0    0  0.00000000000E+00  0.00000000000E+00  0.45593999997E+02  0.45594000000E+02  0.51100000000E-03 0. -1.
         11   -1    0    0    0    0 -0.00000000000E+00 -0.00000000000E+00 -0.45593999997E+02  0.45594000000E+02  0.51100000000E-03 0.  1.
    9900012    2    1    2    0    0 -0.20038231999E+02  0.22020690887E+02 -0.31578192114E+02  0.47787265145E+02  0.19999973103E+02 0.  0.
         12    1    1    2    0    0  0.20038231999E+02 -0.22020690887E+02  0.31578192114E+02  0.43400734855E+02  0.00000000000E+00 0. -1.
         11    1    3    3    0    0 -0.14038871946E+01 -0.33450420657E-01  0.18512231321E+00  0.14164352149E+01  0.51100000000E-03 0. -1.
        -11    1    3    3    0    0  0.12435212463E+01  0.84121360121E+00  0.15491497347E+01  0.21572785111E+01  0.51100000000E-03 0.  1.
        -12    1    3    3    0    0 -0.19877866050E+02  0.21212927706E+02 -0.33312464161E+02  0.44213551419E+02  0.00000000000E+00 0.  1.
</event>
<event>
 7    1  0.8300060E-011  0.4778727E+02  0.7816164E-02  0.1312668E+00
        -11   -1    0    0    0    0  0.00000000000E+00  0.00000000000E+00  0.45593999997E+02  0.45594000000E+02  0.51100000000E-03 0. -1.
         11   -1    0    0    0    0 -0.00000000000E+00 -0.00000000000E+00 -0.45593999997E+02  0.45594000000E+02  0.51100000000E-03 0.  1.
    9900012    2    1    2    0    0  0.27333448085E+02  0.26503730960E+02 -0.20834057886E+02  0.47787272967E+02  0.20000008766E+02 0.  0.
         12    1    1    2    0    0 -0.27333448085E+02 -0.26503730960E+02  0.20834057886E+02  0.43400727033E+02  0.00000000000E+00 0. -1.
         11    1    3    3    0    0  0.18029111161E+02  0.20330130615E+02 -0.15695491812E+02  0.31380113505E+02  0.51100000000E-03 0.  1.
        -11    1    3    3    0    0  0.66101862335E+01  0.33559133844E+01  0.25064590615E+01  0.78255385741E+01  0.51100000000E-03 0. -1.
         12    1    3    3    0    0  0.26941506903E+01  0.28176869602E+01 -0.76450251355E+01  0.85816208883E+01  0.00000000000E+00 0. -1.
</event>
<event>
 7    1  0.8300060E-011  0.4778727E+02  0.7816164E-02  0.1312668E+00
        -11   -1    0    0    0    0  0.00000000000E+00  0.00000000000E+00  0.45593999997E+02  0.45594000000E+02  0.51100000000E-03 0. -1.
         11   -1    0    0    0    0 -0.00000000000E+00 -0.00000000000E+00 -0.45593999997E+02  0.45594000000E+02  0.51100000000E-03 0.  1.
    9900012    2    1    2    0    0 -0.12825756085E+02 -0.37361820342E+02  0.17978252782E+02  0.47787271762E+02  0.20000003274E+02 0.  0.
        -12    1    1    2    0    0  0.12825756085E+02  0.37361820342E+02 -0.17978252782E+02  0.43400728238E+02  0.00000000000E+00 0.  1.
         11    1    3    3    0    0  0.18411787478E+01 -0.96697784976E+01  0.10568010775E+02  0.14442209228E+02  0.51100000000E-03 0.  1.
        -11    1    3    3    0    0 -0.10372979071E+02 -0.18314697736E+02  0.73772971642E+00  0.21061127543E+02  0.51100000000E-03 0. -1.
         12    1    3    3    0    0 -0.42939557619E+01 -0.93773441088E+01  0.66725122904E+01  0.12283934992E+02  0.00000000000E+00 0. -1.
</event>
<event>
 7    1  0.8300060E-011  0.4778727E+02  0.7816164E-02  0.1312668E+00
        -11   -1    0    0    0    0  0.00000000000E+00  0.00000000000E+00  0.45593999997E+02  0.45594000000E+02  0.51100000000E-03 0. -1.
         11   -1    0    0    0    0 -0.00000000000E+00 -0.00000000000E+00 -0.45593999997E+02  0.45594000000E+02  0.51100000000E-03 0.  1.
    9900012    2    1    2    0    0  0.42534178043E+01 -0.61642658217E+01 -0.42749661880E+02  0.47787270433E+02  0.19999997211E+02 0.  0.
         12    1    1    2    0    0 -0.42534178043E+01  0.61642658217E+01  0.42749661880E+02  0.43400729567E+02  0.00000000000E+00 0. -1.
         11    1    3    3    0    0  0.94305171779E+01 -0.79663059392E+01 -0.18308992989E+02  0.22082026834E+02  0.51100000000E-03 0. -1.
        -11    1    3    3    0    0 -0.30034584763E+01 -0.16279407580E+01 -0.15699620343E+02  0.16067016933E+02  0.51100000000E-03 0.  1.
         12    1    3    3    0    0 -0.21736408973E+01  0.34299808755E+01 -0.87410485477E+01  0.96382266662E+01  0.00000000000E+00 0. -1.
</event>
<event>
 7    1  0.8300060E-011  0.4778728E+02  0.7816164E-02  0.1312668E+00
        -11   -1    0    0    0    0  0.00000000000E+00  0.00000000000E+00  0.45593999997E+02  0.45594000000E+02  0.51100000000E-03 0.  1.
         11   -1    0    0    0    0 -0.00000000000E+00 -0.00000000000E+00 -0.45593999997E+02  0.45594000000E+02  0.51100000000E-03 0. -1.
    9900012    2    1    2    0    0  0.10947225862E+02 -0.41078696099E+02  0.87362210147E+01  0.47787278982E+02  0.20000036191E+02 0.  0.
        -12    1    1    2    0    0 -0.10947225862E+02  0.41078696099E+02 -0.87362210147E+01  0.43400721018E+02  0.00000000000E+00 0.  1.
         11    1    3    3    0    0  0.29395219645E+01 -0.87051165619E+01  0.83623526305E+01  0.12423718667E+02  0.51100000000E-03 0. -1.
        -11    1    3    3    0    0  0.72365895093E+01 -0.30671329981E+02 -0.28449130719E+01  0.31641621974E+02  0.51100000000E-03 0.  1.
        -12    1    3    3    0    0  0.77111438849E+00 -0.17022495560E+01  0.32187814562E+01  0.37219383409E+01  0.00000000000E+00 0.  1.
</event>
<event>
 7    1  0.8300060E-011  0.4778728E+02  0.7816164E-02  0.1312668E+00
        -11   -1    0    0    0    0  0.00000000000E+00  0.00000000000E+00  0.45593999997E+02  0.45594000000E+02  0.51100000000E-03 0. -1.
         11   -1    0    0    0    0 -0.00000000000E+00 -0.00000000000E+00 -0.45593999997E+02  0.45594000000E+02  0.51100000000E-03 0.  1.
    9900012    2    1    2    0    0 -0.13823154205E+02  0.88024546128E+01  0.40187809914E+02  0.47787275754E+02  0.20000021472E+02 0.  0.
        -12    1    1    2    0    0  0.13823154205E+02 -0.88024546128E+01 -0.40187809914E+02  0.43400724246E+02  0.00000000000E+00 0.  1.
         11    1    3    3    0    0  0.38863990838E-01  0.14083583401E+01  0.93892719123E+01  0.94943883914E+01  0.51100000000E-03 0. -1.
        -11    1    3    3    0    0  0.23022402840E+01  0.53543962683E+01  0.45288736160E+01  0.73810951907E+01  0.51100000000E-03 0.  1.
        -12    1    3    3    0    0 -0.16164258480E+02  0.20397000044E+01  0.26269664386E+02  0.30911792172E+02  0.00000000000E+00 0.  1.
</event>
<event>
 7    1  0.8300060E-011  0.4778727E+02  0.7816164E-02  0.1312668E+00
        -11   -1    0    0    0    0  0.00000000000E+00  0.00000000000E+00  0.45593999997E+02  0.45594000000E+02  0.51100000000E-03 0. -1.
         11   -1    0    0    0    0 -0.00000000000E+00 -0.00000000000E+00 -0.45593999997E+02  0.45594000000E+02  0.51100000000E-03 0.  1.
    9900012    2    1    2    0    0 -0.68611909555E+01  0.22963327788E+02 -0.36183319705E+02  0.47787274323E+02  0.20000014947E+02 0.  0.
         12    1    1    2    0    0  0.68611909555E+01 -0.22963327788E+02  0.36183319705E+02  0.43400725677E+02  0.00000000000E+00 0. -1.
         11    1    3    3    0    0 -0.61505233783E+01  0.16255231430E+02 -0.32418243907E+02  0.36783203027E+02  0.51100000000E-03 0.  1.
        -11    1    3    3    0    0  0.30562966045E+01  0.44695730031E+01 -0.30929102228E+00  0.54234392190E+01  0.51100000000E-03 0. -1.
        -12    1    3    3    0    0 -0.37669641817E+01  0.22385233546E+01 -0.34557847766E+01  0.55806320768E+01  0.00000000000E+00 0.  1.
</event>
<event>
 7    1  0.8300060E-011  0.4778727E+02  0.7816164E-02  0.1312668E+00
        -11   -1    0    0    0    0  0.00000000000E+00  0.00000000000E+00  0.45593999997E+02  0.45594000000E+02  0.51100000000E-03 0. -1.
         11   -1    0    0    0    0 -0.00000000000E+00 -0.00000000000E+00 -0.45593999997E+02  0.45594000000E+02  0.51100000000E-03 0.  1.
    9900012    2    1    2    0    0 -0.12178164457E+02  0.16484136170E+02  0.38256876992E+02  0.47787273370E+02  0.20000010605E+02 0.  0.
        -12    1    1    2    0    0  0.12178164457E+02 -0.16484136170E+02 -0.38256876992E+02  0.43400726630E+02  0.00000000000E+00 0.  1.
         11    1    3    3    0    0 -0.42709484457E+01 -0.17706624704E+01  0.10552345017E+02  0.11520773925E+02  0.51100000000E-03 0. -1.
        -11    1    3    3    0    0 -0.84166313516E+01  0.11738631113E+02  0.10485858121E+02  0.17849043798E+02  0.51100000000E-03 0.  1.
        -12    1    3    3    0    0  0.50941534031E+00  0.65161675270E+01  0.17218673854E+02  0.18417455647E+02  0.00000000000E+00 0.  1.
</event>
<event>
 7    1  0.8300060E-011  0.4778727E+02  0.7816164E-02  0.1312668E+00
        -11   -1    0    0    0    0  0.00000000000E+00  0.00000000000E+00  0.45593999997E+02  0.45594000000E+02  0.51100000000E-03 0. -1.
         11   -1    0    0    0    0 -0.00000000000E+00 -0.00000000000E+00 -0.45593999997E+02  0.45594000000E+02  0.51100000000E-03 0.  1.
    9900012    2    1    2    0    0  0.14008208209E+02 -0.10342809518E+02 -0.39754490007E+02  0.47787273259E+02  0.20000010096E+02 0.  0.
         12    1    1    2    0    0 -0.14008208209E+02  0.10342809518E+02  0.39754490007E+02  0.43400726741E+02  0.00000000000E+00 0. -1.
         11    1    3    3    0    0 -0.32721577412E+01 -0.46223425639E+01 -0.92279554343E+01  0.10827198568E+02  0.51100000000E-03 0. -1.
        -11    1    3    3    0    0  0.78655335854E+01  0.24077190962E+01 -0.14530881273E+02  0.16697611825E+02  0.51100000000E-03 0.  1.
         12    1    3    3    0    0  0.94148323650E+01 -0.81281860500E+01 -0.15995653299E+02  0.20262462866E+02  0.00000000000E+00 0. -1.
</event>
<event>
 7    1  0.8300060E-011  0.4778727E+02  0.7816164E-02  0.1312668E+00
        -11   -1    0    0    0    0  0.00000000000E+00  0.00000000000E+00  0.45593999997E+02  0.45594000000E+02  0.51100000000E-03 0. -1.
         11   -1    0    0    0    0 -0.00000000000E+00 -0.00000000000E+00 -0.45593999997E+02  0.45594000000E+02  0.51100000000E-03 0.  1.
    9900012    2    1    2    0    0  0.14392881307E+02 -0.36953808365E+02  0.17631923881E+02  0.47787265850E+02  0.19999976317E+02 0.  0.
        -12    1    1    2    0    0 -0.14392881307E+02  0.36953808365E+02 -0.17631923881E+02  0.43400734150E+02  0.00000000000E+00 0.  1.
         11    1    3    3    0    0  0.14469322309E+02 -0.32278958383E+02  0.13462029118E+02  0.37848628385E+02  0.51100000000E-03 0. -1.
        -11    1    3    3    0    0  0.19618403387E+01  0.63545550830E+00  0.36940999716E+01  0.42307205153E+01  0.51100000000E-03 0.  1.
         12    1    3    3    0    0 -0.20382813401E+01 -0.53103054904E+01  0.47579479088E+00  0.57079169498E+01  0.00000000000E+00 0. -1.
</event>
<event>
 7    1  0.8300060E-011  0.4778728E+02  0.7816164E-02  0.1312668E+00
        -11   -1    0    0    0    0  0.00000000000E+00  0.00000000000E+00  0.45593999997E+02  0.45594000000E+02  0.51100000000E-03 0. -1.
         11   -1    0    0    0    0 -0.00000000000E+00 -0.00000000000E+00 -0.45593999997E+02  0.45594000000E+02  0.51100000000E-03 0.  1.
    9900012    2    1    2    0    0  0.17269586069E+02 -0.16286997663E+02  0.36333418155E+02  0.47787283753E+02  0.20000057945E+02 0.  0.
        -12    1    1    2    0    0 -0.17269586069E+02  0.16286997663E+02 -0.36333418155E+02  0.43400716247E+02  0.00000000000E+00 0.  1.
         11    1    3    3    0    0 -0.74180861723E+00 -0.40864356476E+01  0.63823262996E+01  0.76146782980E+01  0.51100000000E-03 0. -1.
        -11    1    3    3    0    0  0.94172435845E+01 -0.76990620460E+01  0.27641849978E+02  0.30199865953E+02  0.51100000000E-03 0.  1.
        -12    1    3    3    0    0  0.85941511013E+01 -0.45014999694E+01  0.23092418776E+01  0.99727395020E+01  0.00000000000E+00 0.  1.
</event>
<event>
 7    1  0.8300060E-011  0.4778727E+02  0.7816164E-02  0.1312668E+00
        -11   -1    0    0    0    0  0.00000000000E+00  0.00000000000E+00  0.45593999997E+02  0.45594000000E+02  0.51100000000E-03 0. -1.
         11   -1    0    0    0    0 -0.00000000000E+00 -0.00000000000E+00 -0.45593999997E+02  0.45594000000E+02  0.51100000000E-03 0.  1.
    9900012    2    1    2    0    0  0.29228212735E+02  0.55848097753E+01  0.31593430919E+02  0.47787269624E+02  0.19999993524E+02 0.  0.
        -12    1    1    2    0    0 -0.29228212735E+02 -0.55848097753E+01 -0.31593430919E+02  0.43400730376E+02  0.00000000000E+00 0.  1.
         11    1    3    3    0    0  0.14576351594E+02  0.99343547418E+01  0.82589413838E+01  0.19477462436E+02  0.51100000000E-03 0.  1.
        -11    1    3    3    0    0  0.13128606290E+02 -0.27186578857E+01  0.17376060446E+02  0.21947183890E+02  0.51100000000E-03 0. -1.
        -12    1    3    3    0    0  0.15232548512E+01 -0.16308870808E+01  0.59584290896E+01  0.63626232977E+01  0.00000000000E+00 0.  1.
</event>
<event>
 7    1  0.8300060E-011  0.4778727E+02  0.7816164E-02  0.1312668E+00
        -11   -1    0    0    0    0  0.00000000000E+00  0.00000000000E+00  0.45593999997E+02  0.45594000000E+02  0.51100000000E-03 0. -1.
         11   -1    0    0    0    0 -0.00000000000E+00 -0.00000000000E+00 -0.45593999997E+02  0.45594000000E+02  0.51100000000E-03 0.  1.
    9900012    2    1    2    0    0 -0.24572898157E+02 -0.14220156672E+02 -0.32826560721E+02  0.47787271107E+02  0.20000000286E+02 0.  0.
         12    1    1    2    0    0  0.24572898157E+02  0.14220156672E+02  0.32826560721E+02  0.43400728893E+02  0.00000000000E+00 0. -1.
         11    1    3    3    0    0 -0.84883848281E+00 -0.53888421515E+01 -0.73615604460E+01  0.91625716349E+01  0.51100000000E-03 0. -1.
        -11    1    3    3    0    0 -0.20808084075E+02 -0.77506902081E+01 -0.12898616182E+02  0.25679249624E+02  0.51100000000E-03 0.  1.
        -12    1    3    3    0    0 -0.29159755999E+01 -0.10806243127E+01 -0.12566384093E+02  0.12945449849E+02  0.00000000000E+00 0.  1.
</event>
<event>
 7    1  0.8300060E-011  0.4778727E+02  0.7816164E-02  0.1312668E+00
        -11   -1    0    0    0    0  0.00000000000E+00  0.00000000000E+00  0.45593999997E+02  0.45594000000E+02  0.51100000000E-03 0. -1.
         11   -1    0    0    0    0 -0.00000000000E+00 -0.00000000000E+00 -0.45593999997E+02  0.45594000000E+02  0.51100000000E-03 0.  1.
    9900012    2    1    2    0    0 -0.12942339260E+02 -0.28282899124E+02  0.30268739869E+02  0.47787272568E+02  0.20000006945E+02 0.  0.
        -12    1    1    2    0    0  0.12942339260E+02  0.28282899124E+02 -0.30268739869E+02  0.43400727432E+02  0.00000000000E+00 0.  1.
         11    1    3    3    0    0 -0.48893508426E+01 -0.23290380063E+01  0.21187180813E+01  0.58154222776E+01  0.51100000000E-03 0. -1.
        -11    1    3    3    0    0 -0.18457650615E+01 -0.21684400390E+01  0.12524122765E+02  0.12843777955E+02  0.51100000000E-03 0.  1.
        -12    1    3    3    0    0 -0.62072233563E+01 -0.23785421079E+02  0.15625899023E+02  0.29128072335E+02  0.00000000000E+00 0.  1.
</event>
<event>
 7    1  0.8300060E-011  0.4778727E+02  0.7816164E-02  0.1312668E+00
        -11   -1    0    0    0    0  0.00000000000E+00  0.00000000000E+00  0.45593999997E+02  0.45594000000E+02  0.51100000000E-03 0. -1.
         11   -1    0    0    0    0 -0.00000000000E+00 -0.00000000000E+00 -0.45593999997E+02  0.45594000000E+02  0.51100000000E-03 0.  1.
    9900012    2    1    2    0    0  0.31220103315E+02 -0.17925694671E+02 -0.24240423916E+02  0.47787268070E+02  0.19999986437E+02 0.  0.
         12    1    1    2    0    0 -0.31220103315E+02  0.17925694671E+02  0.24240423916E+02  0.43400731930E+02  0.00000000000E+00 0. -1.
         11    1    3    3    0    0 -0.13159037083E+01  0.10328635441E+00  0.15713264813E+01  0.20521544319E+01  0.51100000000E-03 0. -1.
        -11    1    3    3    0    0  0.25151229048E+02 -0.16401690242E+02 -0.18826482838E+02  0.35440601317E+02  0.51100000000E-03 0.  1.
        -12    1    3    3    0    0  0.73847779754E+01 -0.16272907834E+01 -0.69852675596E+01  0.10294512321E+02  0.00000000000E+00 0.  1.
</event>
<event>
 7    1  0.8300060E-011  0.4778727E+02  0.7816164E-02  0.1312668E+00
        -11   -1    0    0    0    0  0.00000000000E+00  0.00000000000E+00  0.45593999997E+02  0.45594000000E+02  0.51100000000E-03 0. -1.
         11   -1    0    0    0    0 -0.00000000000E+00 -0.00000000000E+00 -0.45593999997E+02  0.45594000000E+02  0.51100000000E-03 0.  1.
    9900012    2    1    2    0    0  0.15084236059E+02 -0.18974956516E+02 -0.36000555706E+02  0.47787272317E+02  0.20000005801E+02 0.  0.
         12    1    1    2    0    0 -0.15084236059E+02  0.18974956516E+02  0.36000555706E+02  0.43400727683E+02  0.00000000000E+00 0. -1.
         11    1    3    3    0    0  0.48004002084E+01 -0.53071182399E+01  0.66354700477E+00  0.71867684714E+01  0.51100000000E-03 0. -1.
        -11    1    3    3    0    0  0.72809623192E+01 -0.74891457407E+01 -0.24437146139E+02  0.26575812836E+02  0.51100000000E-03 0.  1.
         12    1    3    3    0    0  0.30028735316E+01 -0.61786925355E+01 -0.12226956572E+02  0.14024691009E+02  0.00000000000E+00 0. -1.
</event>
<event>
 7    1  0.8300060E-011  0.4778727E+02  0.7816164E-02  0.1312668E+00
        -11   -1    0    0    0    0  0.00000000000E+00  0.00000000000E+00  0.45593999997E+02  0.45594000000E+02  0.51100000000E-03 0. -1.
         11   -1    0    0    0    0 -0.00000000000E+00 -0.00000000000E+00 -0.45593999997E+02  0.45594000000E+02  0.51100000000E-03 0.  1.
    9900012    2    1    2    0    0  0.29267711935E+02 -0.15745341550E+02  0.27912514210E+02  0.47787271988E+02  0.20000004300E+02 0.  0.
        -12    1    1    2    0    0 -0.29267711935E+02  0.15745341550E+02 -0.27912514210E+02  0.43400728012E+02  0.00000000000E+00 0.  1.
         11    1    3    3    0    0  0.87721515701E+01 -0.53377131858E+01  0.57012359306E+01  0.11745037957E+02  0.51100000000E-03 0. -1.
        -11    1    3    3    0    0  0.22390964964E+02 -0.66649581786E+01  0.15199262724E+02  0.27871034555E+02  0.51100000000E-03 0.  1.
        -12    1    3    3    0    0 -0.18954045987E+01 -0.37426701858E+01  0.70120155556E+01  0.81711994753E+01  0.00000000000E+00 0.  1.
</event>
<event>
 7    1  0.8300060E-011  0.4778728E+02  0.7816164E-02  0.1312668E+00
        -11   -1    0    0    0    0  0.00000000000E+00  0.00000000000E+00  0.45593999997E+02  0.45594000000E+02  0.51100000000E-03 0. -1.
         11   -1    0    0    0    0 -0.00000000000E+00 -0.00000000000E+00 -0.45593999997E+02  0.45594000000E+02  0.51100000000E-03 0.  1.
    9900012    2    1    2    0    0 -0.68429654092E+01 -0.14220042481E+02 -0.40430027500E+02  0.47787275266E+02  0.20000019248E+02 0.  0.
         12    1    1    2    0    0  0.68429654092E+01  0.14220042481E+02  0.40430027500E+02  0.43400724734E+02  0.00000000000E+00 0. -1.
         11    1    3    3    0    0 -0.39601200609E+01 -0.57140852999E+01 -0.10296476937E+02  0.12423798102E+02  0.51100000000E-03 0. -1.
        -11    1    3    3    0    0 -0.29705751215E+01 -0.10572112626E+01  0.10338194704E+01  0.33182518236E+01  0.51100000000E-03 0.  1.
        -12    1    3    3    0    0  0.87729773313E-01 -0.74487459184E+01 -0.31167370034E+02  0.32045225340E+02  0.00000000000E+00 0.  1.
</event>
<event>
 7    1  0.8300060E-011  0.4778726E+02  0.7816164E-02  0.1312668E+00
        -11   -1    0    0    0    0  0.00000000000E+00  0.00000000000E+00  0.45593999997E+02  0.45594000000E+02  0.51100000000E-03 0. -1.
         11   -1    0    0    0    0 -0.00000000000E+00 -0.00000000000E+00 -0.45593999997E+02  0.45594000000E+02  0.51100000000E-03 0.  1.
    9900012    2    1    2    0    0 -0.95211199814E+01  0.31922947488E+02  0.27819019782E+02  0.47787260794E+02  0.19999953262E+02 0.  0.
        -12    1    1    2    0    0  0.95211199814E+01 -0.31922947488E+02 -0.27819019782E+02  0.43400739206E+02  0.00000000000E+00 0.  1.
         11    1    3    3    0    0 -0.58182675147E+01  0.16401196699E+02  0.15494827132E+02  0.23301097788E+02  0.51100000000E-03 0.  1.
        -11    1    3    3    0    0  0.10152617910E+01  0.62535563840E+01 -0.21259388402E+01  0.66826147701E+01  0.51100000000E-03 0. -1.
        -12    1    3    3    0    0 -0.47181142577E+01  0.92681944058E+01  0.14450131490E+02  0.17803548236E+02  0.00000000000E+00 0.  1.
</event>
<event>
 7    1  0.8300060E-011  0.4778727E+02  0.7816164E-02  0.1312668E+00
        -11   -1    0    0    0    0  0.00000000000E+00  0.00000000000E+00  0.45593999997E+02  0.45594000000E+02  0.51100000000E-03 0. -1.
         11   -1    0    0    0    0 -0.00000000000E+00 -0.00000000000E+00 -0.45593999997E+02  0.45594000000E+02  0.51100000000E-03 0.  1.
    9900012    2    1    2    0    0 -0.38559144029E+02  0.82934808270E+01 -0.18111704082E+02  0.47787271466E+02  0.20000001923E+02 0.  0.
         12    1    1    2    0    0  0.38559144029E+02 -0.82934808270E+01  0.18111704082E+02  0.43400728534E+02  0.00000000000E+00 0. -1.
         11    1    3    3    0    0 -0.74646503516E+00 -0.88939501733E+00  0.57698808402E+00  0.12965913218E+01  0.51100000000E-03 0. -1.
        -11    1    3    3    0    0 -0.63714147323E+01  0.78366186478E+01 -0.90932792475E+01  0.13590262884E+02  0.51100000000E-03 0.  1.
        -12    1    3    3    0    0 -0.31441264262E+02  0.13462571964E+01 -0.95954129187E+01  0.32900417260E+02  0.00000000000E+00 0.  1.
</event>
<event>
 7    1  0.8300060E-011  0.4778727E+02  0.7816164E-02  0.1312668E+00
        -11   -1    0    0    0    0  0.00000000000E+00  0.00000000000E+00  0.45593999997E+02  0.45594000000E+02  0.51100000000E-03 0. -1.
         11   -1    0    0    0    0 -0.00000000000E+00 -0.00000000000E+00 -0.45593999997E+02  0.45594000000E+02  0.51100000000E-03 0.  1.
    9900012    2    1    2    0    0 -0.13135003132E+01 -0.33048641037E+02  0.28101343794E+02  0.47787268664E+02  0.19999989147E+02 0.  0.
        -12    1    1    2    0    0  0.13135003132E+01  0.33048641037E+02 -0.28101343794E+02  0.43400731336E+02  0.00000000000E+00 0.  1.
         11    1    3    3    0    0  0.88353449727E+00 -0.17054953446E+02  0.23803628844E+02  0.29296157029E+02  0.51100000000E-03 0. -1.
        -11    1    3    3    0    0  0.10383956094E+01 -0.13981309631E+02  0.23620065218E+01  0.14217396369E+02  0.51100000000E-03 0.  1.
        -12    1    3    3    0    0 -0.32354304199E+01 -0.20123779598E+01  0.19357084282E+01  0.42737152659E+01  0.00000000000E+00 0.  1.
</event>
<event>
 7    1  0.8300060E-011  0.4778728E+02  0.7816164E-02  0.1312668E+00
        -11   -1    0    0    0    0  0.00000000000E+00  0.00000000000E+00  0.45593999997E+02  0.45594000000E+02  0.51100000000E-03 0. -1.
         11   -1    0    0    0    0 -0.00000000000E+00 -0.00000000000E+00 -0.45593999997E+02  0.45594000000E+02  0.51100000000E-03 0.  1.
    9900012    2    1    2    0    0 -0.31025793031E+02 -0.11667735297E+02  0.28015822322E+02  0.47787283640E+02  0.20000057429E+02 0.  0.
        -12    1    1    2    0    0  0.31025793031E+02  0.11667735297E+02 -0.28015822322E+02  0.43400716360E+02  0.00000000000E+00 0.  1.
         11    1    3    3    0    0 -0.21783936264E+02 -0.25745230862E+01  0.22102715068E+02  0.31139975304E+02  0.51100000000E-03 0. -1.
        -11    1    3    3    0    0 -0.34483321156E+01 -0.89297491212E+01  0.23957599322E+01  0.98676785345E+01  0.51100000000E-03 0.  1.
         12    1    3    3    0    0 -0.57935246518E+01 -0.16346308953E+00  0.35173473210E+01  0.67796298018E+01  0.00000000000E+00 0. -1.
</event>
<event>
 7    1  0.9528726E-011  0.4778727E+02  0.7816164E-02  0.1312668E+00
        -11   -1    0    0    0    0  0.00000000000E+00  0.00000000000E+00  0.45593999997E+02  0.45594000000E+02  0.51100000000E-03 0. -1.
         11   -1    0    0    0    0 -0.00000000000E+00 -0.00000000000E+00 -0.45593999997E+02  0.45594000000E+02  0.51100000000E-03 0.  1.
    9900012    2    1    2    0    0  0.91932435341E+01 -0.37915394788E+02  0.19013948443E+02  0.47787272772E+02  0.20000007875E+02 0.  0.
        -12    1    1    2    0    0 -0.91932435341E+01  0.37915394788E+02 -0.19013948443E+02  0.43400727228E+02  0.00000000000E+00 0.  1.
         11    1    3    3    0    0  0.99353720877E+01 -0.28528388332E+02  0.11320002366E+02  0.32260238889E+02  0.51100000000E-03 0. -1.
        -11    1    3    3    0    0 -0.41701818121E+00 -0.17921348992E+01 -0.23158717878E+01  0.29578563283E+01  0.51100000000E-03 0.  1.
         12    1    3    3    0    0 -0.32511037243E+00 -0.75948715561E+01  0.10009817864E+02  0.12569177554E+02  0.00000000000E+00 0. -1.
</event>
<event>
 7    1  0.8300060E-011  0.4778727E+02  0.7816164E-02  0.1312668E+00
        -11   -1    0    0    0    0  0.00000000000E+00  0.00000000000E+00  0.45593999997E+02  0.45594000000E+02  0.51100000000E-03 0. -1.
         11   -1    0    0    0    0 -0.00000000000E+00 -0.00000000000E+00 -0.45593999997E+02  0.45594000000E+02  0.51100000000E-03 0.  1.
    9900012    2    1    2    0    0 -0.28884655722E+02  0.12029064224E+02 -0.30076595686E+02  0.47787270394E+02  0.19999997035E+02 0.  0.
         12    1    1    2    0    0  0.28884655722E+02 -0.12029064224E+02  0.30076595686E+02  0.43400729606E+02  0.00000000000E+00 0. -1.
         11    1    3    3    0    0 -0.12770107384E+02  0.27826977260E+01 -0.13812464628E+01  0.13142560302E+02  0.51100000000E-03 0. -1.
        -11    1    3    3    0    0 -0.13534683391E+02  0.56888317084E+01 -0.19097865450E+02  0.24088979342E+02  0.51100000000E-03 0.  1.
         12    1    3    3    0    0 -0.25798649472E+01  0.35575347895E+01 -0.95974837724E+01  0.10555730751E+02  0.00000000000E+00 0. -1.
</event>
<event>
 7    1  0.8300060E-011  0.4778727E+02  0.7816164E-02  0.1312668E+00
        -11   -1    0    0    0    0  0.00000000000E+00  0.00000000000E+00  0.45593999997E+02  0.45594000000E+02  0.51100000000E-03 0. -1.
         11   -1    0    0    0    0 -0.00000000000E+00 -0.00000000000E+00 -0.45593999997E+02  0.45594000000E+02  0.51100000000E-03 0.  1.
    9900012    2    1    2    0    0 -0.24422324979E-01  0.12736462368E+02 -0.41489822604E+02  0.47787269017E+02  0.19999990757E+02 0.  0.
         12    1    1    2    0    0  0.24422324979E-01 -0.12736462368E+02  0.41489822604E+02  0.43400730983E+02  0.00000000000E+00 0. -1.
         11    1    3    3    0    0 -0.24510883876E+01  0.69863630384E+00 -0.28384038008E+02  0.28498237505E+02  0.51100000000E-03 0. -1.
        -11    1    3    3    0    0  0.44434185863E+01  0.48361746932E+01 -0.49547427934E+01  0.82269089460E+01  0.51100000000E-03 0.  1.
         12    1    3    3    0    0 -0.20167525236E+01  0.72016513705E+01 -0.81510418027E+01  0.11062122566E+02  0.00000000000E+00 0. -1.
</event>
<event>
 7    1  0.8300060E-011  0.4778727E+02  0.7816164E-02  0.1312668E+00
        -11   -1    0    0    0    0  0.00000000000E+00  0.00000000000E+00  0.45593999997E+02  0.45594000000E+02  0.51100000000E-03 0. -1.
         11   -1    0    0    0    0 -0.00000000000E+00 -0.00000000000E+00 -0.45593999997E+02  0.45594000000E+02  0.51100000000E-03 0.  1.
    9900012    2    1    2    0    0 -0.12954555607E+02 -0.28297095294E+02 -0.30250237523E+02  0.47787274392E+02  0.20000015264E+02 0.  0.
         12    1    1    2    0    0  0.12954555607E+02  0.28297095294E+02  0.30250237523E+02  0.43400725608E+02  0.00000000000E+00 0. -1.
         11    1    3    3    0    0 -0.33712983782E+01 -0.14989480527E+02 -0.77317208784E+01  0.17199700208E+02  0.51100000000E-03 0. -1.
        -11    1    3    3    0    0 -0.30142352294E+01 -0.49924679595E+01 -0.18257179873E+02  0.19165984648E+02  0.51100000000E-03 0.  1.
        -12    1    3    3    0    0 -0.65690219994E+01 -0.83151468076E+01 -0.42613367716E+01  0.11421589537E+02  0.00000000000E+00 0.  1.
</event>
<event>
 7    1  0.8300060E-011  0.4778727E+02  0.7816164E-02  0.1312668E+00
        -11   -1    0    0    0    0  0.00000000000E+00  0.00000000000E+00  0.45593999997E+02  0.45594000000E+02  0.51100000000E-03 0. -1.
         11   -1    0    0    0    0 -0.00000000000E+00 -0.00000000000E+00 -0.45593999997E+02  0.45594000000E+02  0.51100000000E-03 0.  1.
    9900012    2    1    2    0    0  0.10486028018E+02 -0.40178146378E+02  0.12624704750E+02  0.47787269592E+02  0.19999993378E+02 0.  0.
        -12    1    1    2    0    0 -0.10486028018E+02  0.40178146378E+02 -0.12624704750E+02  0.43400730408E+02  0.00000000000E+00 0.  1.
         11    1    3    3    0    0  0.65329292263E+01 -0.14126821792E+02 -0.88432242889E+00  0.15589364472E+02  0.51100000000E-03 0. -1.
        -11    1    3    3    0    0  0.72396956749E+01 -0.20057472105E+02  0.13724070991E+02  0.25358736277E+02  0.51100000000E-03 0.  1.
        -12    1    3    3    0    0 -0.32865968834E+01 -0.59938524802E+01 -0.21504381232E+00  0.68391688435E+01  0.00000000000E+00 0.  1.
</event>
<event>
 7    1  0.8300060E-011  0.4778727E+02  0.7816164E-02  0.1312668E+00
        -11   -1    0    0    0    0  0.00000000000E+00  0.00000000000E+00  0.45593999997E+02  0.45594000000E+02  0.51100000000E-03 0. -1.
         11   -1    0    0    0    0 -0.00000000000E+00 -0.00000000000E+00 -0.45593999997E+02  0.45594000000E+02  0.51100000000E-03 0.  1.
    9900012    2    1    2    0    0  0.32962727369E+01  0.30083719916E+02  0.31108321765E+02  0.47787270733E+02  0.19999998579E+02 0.  0.
        -12    1    1    2    0    0 -0.32962727369E+01 -0.30083719916E+02 -0.31108321765E+02  0.43400729267E+02  0.00000000000E+00 0.  1.
         11    1    3    3    0    0  0.12578441243E+01  0.20124475248E+02  0.25497701900E+02  0.32507068128E+02  0.51100000000E-03 0. -1.
        -11    1    3    3    0    0 -0.15667558665E+00 -0.16593137265E+01  0.25839956808E+01  0.30748826355E+01  0.51100000000E-03 0.  1.
         12    1    3    3    0    0  0.21951041993E+01  0.11618558394E+02  0.30266241839E+01  0.12205319969E+02  0.00000000000E+00 0. -1.
</event>
<event>
 7    1  0.8300060E-011  0.4778727E+02  0.7816164E-02  0.1312668E+00
        -11   -1    0    0    0    0  0.00000000000E+00  0.00000000000E+00  0.45593999997E+02  0.45594000000E+02  0.51100000000E-03 0. -1.
         11   -1    0    0    0    0 -0.00000000000E+00 -0.00000000000E+00 -0.45593999997E+02  0.45594000000E+02  0.51100000000E-03 0.  1.
    9900012    2    1    2    0    0 -0.21301551157E+02 -0.27257320369E+02  0.26208886319E+02  0.47787270542E+02  0.19999997708E+02 0.  0.
        -12    1    1    2    0    0  0.21301551157E+02  0.27257320369E+02 -0.26208886319E+02  0.43400729458E+02  0.00000000000E+00 0.  1.
         11    1    3    3    0    0 -0.10757024173E+02 -0.43163861545E+01  0.99058070490E+01  0.15246959436E+02  0.51100000000E-03 0. -1.
        -11    1    3    3    0    0 -0.58499409845E+01 -0.22706441522E+02  0.13949400722E+02  0.27283512913E+02  0.51100000000E-03 0.  1.
        -12    1    3    3    0    0 -0.46945859998E+01 -0.23449269319E+00  0.23536785477E+01  0.52567981927E+01  0.00000000000E+00 0.  1.
</event>
<event>
 7    1  0.8300060E-011  0.4778727E+02  0.7816164E-02  0.1312668E+00
        -11   -1    0    0    0    0  0.00000000000E+00  0.00000000000E+00  0.45593999997E+02  0.45594000000E+02  0.51100000000E-03 0. -1.
         11   -1    0    0    0    0 -0.00000000000E+00 -0.00000000000E+00 -0.45593999997E+02  0.45594000000E+02  0.51100000000E-03 0.  1.
    9900012    2    1    2    0    0  0.34245039237E+02 -0.21110081012E+02  0.16286962320E+02  0.47787269887E+02  0.19999994724E+02 0.  0.
        -12    1    1    2    0    0 -0.34245039237E+02  0.21110081012E+02 -0.16286962320E+02  0.43400730113E+02  0.00000000000E+00 0.  1.
         11    1    3    3    0    0  0.28634531097E+02 -0.17668626387E+02  0.17489809931E+02  0.37921104694E+02  0.51100000000E-03 0.  1.
        -11    1    3    3    0    0 -0.16349431806E+01 -0.66125485570E+00  0.66361582863E+00  0.18843257194E+01  0.51100000000E-03 0. -1.
        -12    1    3    3    0    0  0.72454513212E+01 -0.27801997699E+01 -0.18664634402E+01  0.79818394736E+01  0.00000000000E+00 0.  1.
</event>
<event>
 7    1  0.8300060E-011  0.4778728E+02  0.7816164E-02  0.1312668E+00
        -11   -1    0    0    0    0  0.00000000000E+00  0.00000000000E+00  0.45593999997E+02  0.45594000000E+02  0.51100000000E-03 0. -1.
         11   -1    0    0    0    0 -0.00000000000E+00 -0.00000000000E+00 -0.45593999997E+02  0.45594000000E+02  0.51100000000E-03 0.  1.
    9900012    2    1    2    0    0  0.72768158535E+01 -0.35126518135E+02 -0.24429460228E+02  0.47787275902E+02  0.20000022146E+02 0.  0.
         12    1    1    2    0    0 -0.72768158535E+01  0.35126518135E+02  0.24429460228E+02  0.43400724098E+02  0.00000000000E+00 0. -1.
         11    1    3    3    0    0  0.37906329112E+01 -0.98238443519E+01  0.21583805657E+01  0.10748740514E+02  0.51100000000E-03 0. -1.
        -11    1    3    3    0    0  0.61308219071E+00 -0.14269922675E+02 -0.13133740526E+02  0.19403651805E+02  0.51100000000E-03 0.  1.
         12    1    3    3    0    0  0.28731007516E+01 -0.11032751108E+02 -0.13454100267E+02  0.17634883582E+02  0.00000000000E+00 0. -1.
</event>
<event>
 7    1  0.8300060E-011  0.4778727E+02  0.7816164E-02  0.1312668E+00
        -11   -1    0    0    0    0  0.00000000000E+00  0.00000000000E+00  0.45593999997E+02  0.45594000000E+02  0.51100000000E-03 0. -1.
         11   -1    0    0    0    0 -0.00000000000E+00 -0.00000000000E+00 -0.45593999997E+02  0.45594000000E+02  0.51100000000E-03 0.  1.
    9900012    2    1    2    0    0  0.24008793368E+02 -0.14796533617E+01 -0.36124950459E+02  0.47787267533E+02  0.19999983989E+02 0.  0.
         12    1    1    2    0    0 -0.24008793368E+02  0.14796533617E+01  0.36124950459E+02  0.43400732467E+02  0.00000000000E+00 0. -1.
         11    1    3    3    0    0  0.16439534449E+02  0.57468659159E+01 -0.27229150435E+02  0.32321995520E+02  0.51100000000E-03 0. -1.
        -11    1    3    3    0    0  0.87975649417E+01 -0.66442313075E+01 -0.87935253617E+01  0.14102093714E+02  0.51100000000E-03 0.  1.
         12    1    3    3    0    0 -0.12283060232E+01 -0.58228797010E+00 -0.10227466239E+00  0.13631782984E+01  0.00000000000E+00 0. -1.
</event>
<event>
 7    1  0.8300060E-011  0.4778727E+02  0.7816164E-02  0.1312668E+00
        -11   -1    0    0    0    0  0.00000000000E+00  0.00000000000E+00  0.45593999997E+02  0.45594000000E+02  0.51100000000E-03 0. -1.
         11   -1    0    0    0    0 -0.00000000000E+00 -0.00000000000E+00 -0.45593999997E+02  0.45594000000E+02  0.51100000000E-03 0.  1.
    9900012    2    1    2    0    0  0.80270392239E+01  0.88056727169E+01  0.41733082358E+02  0.47787269663E+02  0.19999993702E+02 0.  0.
        -12    1    1    2    0    0 -0.80270392239E+01 -0.88056727169E+01 -0.41733082358E+02  0.43400730337E+02  0.00000000000E+00 0.  1.
         11    1    3    3    0    0  0.79590671038E+01 -0.39816718341E+00  0.60166216055E+01  0.99852402111E+01  0.51100000000E-03 0. -1.
        -11    1    3    3    0    0  0.34532953458E+00  0.88349135447E+01  0.17755495856E+02  0.19835135068E+02  0.51100000000E-03 0.  1.
        -12    1    3    3    0    0 -0.27735741445E+00  0.36892635560E+00  0.17960964896E+02  0.17966894384E+02  0.00000000000E+00 0.  1.
</event>
<event>
 7    1  0.9509252E-011  0.4778727E+02  0.7816164E-02  0.1312668E+00
        -11   -1    0    0    0    0  0.00000000000E+00  0.00000000000E+00  0.45593999997E+02  0.45594000000E+02  0.51100000000E-03 0. -1.
         11   -1    0    0    0    0 -0.00000000000E+00 -0.00000000000E+00 -0.45593999997E+02  0.45594000000E+02  0.51100000000E-03 0.  1.
    9900012    2    1    2    0    0  0.27858055697E+02  0.63493854563E+01 -0.32668596571E+02  0.47787272301E+02  0.20000005728E+02 0.  0.
         12    1    1    2    0    0 -0.27858055697E+02 -0.63493854563E+01  0.32668596571E+02  0.43400727699E+02  0.00000000000E+00 0. -1.
         11    1    3    3    0    0  0.50472039421E+01 -0.17312519482E+01  0.38434541141E+00  0.53496936920E+01  0.51100000000E-03 0. -1.
        -11    1    3    3    0    0  0.23879575678E+02  0.85950390819E+01 -0.32068509587E+02  0.40896187338E+02  0.51100000000E-03 0.  1.
        -12    1    3    3    0    0 -0.10687239229E+01 -0.51440167738E+00 -0.98443239568E+00  0.15413912711E+01  0.00000000000E+00 0.  1.
</event>
<event>
 7    1  0.8300060E-011  0.4778727E+02  0.7816164E-02  0.1312668E+00
        -11   -1    0    0    0    0  0.00000000000E+00  0.00000000000E+00  0.45593999997E+02  0.45594000000E+02  0.51100000000E-03 0. -1.
         11   -1    0    0    0    0 -0.00000000000E+00 -0.00000000000E+00 -0.45593999997E+02  0.45594000000E+02  0.51100000000E-03 0.  1.
    9900012    2    1    2    0    0  0.12665075938E+02 -0.78678680941E+01 -0.40759242000E+02  0.47787270682E+02  0.19999998350E+02 0.  0.
         12    1    1    2    0    0 -0.12665075938E+02  0.78678680941E+01  0.40759242000E+02  0.43400729318E+02  0.00000000000E+00 0. -1.
         11    1    3    3    0    0  0.23016039523E+01 -0.59526118318E+00  0.20120429732E+01  0.31144877294E+01  0.51100000000E-03 0. -1.
        -11    1    3    3    0    0  0.79792786199E+01 -0.57540384513E+01 -0.36333460122E+02  0.37641707858E+02  0.51100000000E-03 0.  1.
         12    1    3    3    0    0  0.23841933653E+01 -0.15185684596E+01 -0.64378248518E+01  0.70310750951E+01  0.00000000000E+00 0. -1.
</event>
<event>
 7    1  0.8300060E-011  0.4778727E+02  0.7816164E-02  0.1312668E+00
        -11   -1    0    0    0    0  0.00000000000E+00  0.00000000000E+00  0.45593999997E+02  0.45594000000E+02  0.51100000000E-03 0. -1.
         11   -1    0    0    0    0 -0.00000000000E+00 -0.00000000000E+00 -0.45593999997E+02  0.45594000000E+02  0.51100000000E-03 0.  1.
    9900012    2    1    2    0    0 -0.17916655825E+02 -0.45473126835E+01 -0.39267525673E+02  0.47787272113E+02  0.20000004873E+02 0.  0.
         12    1    1    2    0    0  0.17916655825E+02  0.45473126835E+01  0.39267525673E+02  0.43400727887E+02  0.00000000000E+00 0. -1.
         11    1    3    3    0    0  0.33070239066E+01 -0.12654810256E+00 -0.17934089004E+01  0.37641383192E+01  0.51100000000E-03 0. -1.
        -11    1    3    3    0    0 -0.14331225386E+02 -0.67222223908E+01 -0.25194603600E+02  0.29754669310E+02  0.51100000000E-03 0.  1.
         12    1    3    3    0    0 -0.68924543463E+01  0.23014578099E+01 -0.12279513173E+02  0.14268464484E+02  0.00000000000E+00 0. -1.
</event>
<event>
 7    1  0.8300060E-011  0.4778727E+02  0.7816164E-02  0.1312668E+00
        -11   -1    0    0    0    0  0.00000000000E+00  0.00000000000E+00  0.45593999997E+02  0.45594000000E+02  0.51100000000E-03 0. -1.
         11   -1    0    0    0    0 -0.00000000000E+00 -0.00000000000E+00 -0.45593999997E+02  0.45594000000E+02  0.51100000000E-03 0.  1.
    9900012    2    1    2    0    0  0.29380149733E+02 -0.61185959783E+01 -0.31352715634E+02  0.47787271980E+02  0.20000004266E+02 0.  0.
         12    1    1    2    0    0 -0.29380149733E+02  0.61185959783E+01  0.31352715634E+02  0.43400728020E+02  0.00000000000E+00 0. -1.
         11    1    3    3    0    0  0.11260935629E+01  0.76852657669E+00  0.10414175360E+01  0.17155962686E+01  0.51100000000E-03 0. -1.
        -11    1    3    3    0    0  0.15229208461E+02  0.13702726272E+01 -0.24152426476E+02  0.28585768179E+02  0.51100000000E-03 0.  1.
        -12    1    3    3    0    0  0.13024847709E+02 -0.82573951821E+01 -0.82417066936E+01  0.17485907533E+02  0.00000000000E+00 0.  1.
</event>
<event>
 7    1  0.8300060E-011  0.4778727E+02  0.7816164E-02  0.1312668E+00
        -11   -1    0    0    0    0  0.00000000000E+00  0.00000000000E+00  0.45593999997E+02  0.45594000000E+02  0.51100000000E-03 0.  1.
         11   -1    0    0    0    0 -0.00000000000E+00 -0.00000000000E+00 -0.45593999997E+02  0.45594000000E+02  0.51100000000E-03 0. -1.
    9900012    2    1    2    0    0 -0.68249361347E+01 -0.42079522745E+02 -0.81460303509E+01  0.47787265004E+02  0.19999972461E+02 0.  0.
         12    1    1    2    0    0  0.68249361347E+01  0.42079522745E+02  0.81460303509E+01  0.43400734996E+02  0.00000000000E+00 0. -1.
         11    1    3    3    0    0  0.27167374459E+01 -0.52513620164E+01  0.40930527878E+01  0.71910045725E+01  0.51100000000E-03 0. -1.
        -11    1    3    3    0    0 -0.13523796798E+01 -0.54874062709E+01  0.73989267687E+00  0.56998245424E+01  0.51100000000E-03 0.  1.
         12    1    3    3    0    0 -0.81892939008E+01 -0.31340754458E+02 -0.12978975816E+02  0.34896435890E+02  0.00000000000E+00 0. -1.
</event>
<event>
 7    1  0.8300060E-011  0.4778727E+02  0.7816164E-02  0.1312668E+00
        -11   -1    0    0    0    0  0.00000000000E+00  0.00000000000E+00  0.45593999997E+02  0.45594000000E+02  0.51100000000E-03 0. -1.
         11   -1    0    0    0    0 -0.00000000000E+00 -0.00000000000E+00 -0.45593999997E+02  0.45594000000E+02  0.51100000000E-03 0.  1.
    9900012    2    1    2    0    0 -0.19419971019E+02 -0.23012974998E+02  0.31255254222E+02  0.47787271791E+02  0.20000003403E+02 0.  0.
        -12    1    1    2    0    0  0.19419971019E+02  0.23012974998E+02 -0.31255254222E+02  0.43400728209E+02  0.00000000000E+00 0.  1.
         11    1    3    3    0    0 -0.19253554198E+02 -0.18271712245E+02  0.30343063459E+02  0.40314467849E+02  0.51100000000E-03 0. -1.
        -11    1    3    3    0    0 -0.63983244060E+00  0.47589063521E-01 -0.18264703823E+01  0.19358834132E+01  0.51100000000E-03 0.  1.
         12    1    3    3    0    0  0.47341562002E+00 -0.47888518165E+01  0.27386611453E+01  0.55369205285E+01  0.00000000000E+00 0. -1.
</event>
<event>
 7    1  0.8300060E-011  0.4778728E+02  0.7816164E-02  0.1312668E+00
        -11   -1    0    0    0    0  0.00000000000E+00  0.00000000000E+00  0.45593999997E+02  0.45594000000E+02  0.51100000000E-03 0. -1.
         11   -1    0    0    0    0 -0.00000000000E+00 -0.00000000000E+00 -0.45593999997E+02  0.45594000000E+02  0.51100000000E-03 0.  1.
    9900012    2    1    2    0    0 -0.11598566705E+02 -0.18946599631E+02 -0.37284337093E+02  0.47787283651E+02  0.20000057477E+02 0.  0.
         12    1    1    2    0    0  0.11598566705E+02  0.18946599631E+02  0.37284337093E+02  0.43400716349E+02  0.00000000000E+00 0. -1.
         11    1    3    3    0    0  0.34061938489E+01 -0.26227522842E+01 -0.57716287259E+01  0.71967134507E+01  0.51100000000E-03 0. -1.
        -11    1    3    3    0    0 -0.14291186145E+02 -0.18293487071E+02 -0.30298501899E+02  0.38169213881E+02  0.51100000000E-03 0.  1.
        -12    1    3    3    0    0 -0.71357440877E+00  0.19696397243E+01 -0.12142064674E+01  0.24213563195E+01  0.00000000000E+00 0.  1.
</event>
<event>
 7    1  0.8300060E-011  0.4778729E+02  0.7816164E-02  0.1312668E+00
        -11   -1    0    0    0    0  0.00000000000E+00  0.00000000000E+00  0.45593999997E+02  0.45594000000E+02  0.51100000000E-03 0. -1.
         11   -1    0    0    0    0 -0.00000000000E+00 -0.00000000000E+00 -0.45593999997E+02  0.45594000000E+02  0.51100000000E-03 0.  1.
    9900012    2    1    2    0    0  0.16648879844E+02 -0.14722153201E+02 -0.37278606824E+02  0.47787291231E+02  0.20000092036E+02 0.  0.
         12    1    1    2    0    0 -0.16648879844E+02  0.14722153201E+02  0.37278606824E+02  0.43400708769E+02  0.00000000000E+00 0. -1.
         11    1    3    3    0    0  0.24338193204E+01 -0.40373038892E+01 -0.26030235879E+02  0.26453666653E+02  0.51100000000E-03 0. -1.
        -11    1    3    3    0    0  0.96160879879E+01 -0.73991140918E+01 -0.56715469819E+01  0.13393374592E+02  0.51100000000E-03 0.  1.
         12    1    3    3    0    0  0.45989725361E+01 -0.32857352204E+01 -0.55768239628E+01  0.79402499859E+01  0.00000000000E+00 0. -1.
</event>
<event>
 7    1  0.8300060E-011  0.4778728E+02  0.7816164E-02  0.1312668E+00
        -11   -1    0    0    0    0  0.00000000000E+00  0.00000000000E+00  0.45593999997E+02  0.45594000000E+02  0.51100000000E-03 0. -1.
         11   -1    0    0    0    0 -0.00000000000E+00 -0.00000000000E+00 -0.45593999997E+02  0.45594000000E+02  0.51100000000E-03 0.  1.
    9900012    2    1    2    0    0 -0.35720926283E+02  0.50246716354E+01 -0.24132770706E+02  0.47787279712E+02  0.20000039518E+02 0.  0.
         12    1    1    2    0    0  0.35720926283E+02 -0.50246716354E+01  0.24132770706E+02  0.43400720288E+02  0.00000000000E+00 0. -1.
         11    1    3    3    0    0 -0.41602314871E+01  0.68108060022E+01 -0.26206457517E+01  0.84001421918E+01  0.51100000000E-03 0. -1.
        -11    1    3    3    0    0 -0.29078479654E+02 -0.64367660365E+00 -0.22175895620E+02  0.36575164325E+02  0.51100000000E-03 0.  1.
        -12    1    3    3    0    0 -0.24822151423E+01 -0.11424577631E+01  0.66377066602E+00  0.28119731951E+01  0.00000000000E+00 0.  1.
</event>
<event>
 7    1  0.8300060E-011  0.4778728E+02  0.7816164E-02  0.1312668E+00
        -11   -1    0    0    0    0  0.00000000000E+00  0.00000000000E+00  0.45593999997E+02  0.45594000000E+02  0.51100000000E-03 0. -1.
         11   -1    0    0    0    0 -0.00000000000E+00 -0.00000000000E+00 -0.45593999997E+02  0.45594000000E+02  0.51100000000E-03 0.  1.
    9900012    2    1    2    0    0  0.12113487079E+01  0.28391547825E+02  0.32803588154E+02  0.47787277087E+02  0.20000027553E+02 0.  0.
        -12    1    1    2    0    0 -0.12113487079E+01 -0.28391547825E+02 -0.32803588154E+02  0.43400722913E+02  0.00000000000E+00 0.  1.
         11    1    3    3    0    0 -0.59390674612E+00  0.12199723460E+02  0.16651129896E+01  0.12327148058E+02  0.51100000000E-03 0.  1.
        -11    1    3    3    0    0  0.28371242258E+01  0.13880492588E+02  0.28358088979E+02  0.31700135002E+02  0.51100000000E-03 0. -1.
         12    1    3    3    0    0 -0.10318687718E+01  0.23113317771E+01  0.27803861854E+01  0.37599940274E+01  0.00000000000E+00 0. -1.
</event>
<event>
 7    1  0.8300060E-011  0.4778727E+02  0.7816164E-02  0.1312668E+00
        -11   -1    0    0    0    0  0.00000000000E+00  0.00000000000E+00  0.45593999997E+02  0.45594000000E+02  0.51100000000E-03 0.  1.
         11   -1    0    0    0    0 -0.00000000000E+00 -0.00000000000E+00 -0.45593999997E+02  0.45594000000E+02  0.51100000000E-03 0. -1.
    9900012    2    1    2    0    0 -0.19296892140E+02 -0.25011390716E+02 -0.29760439772E+02  0.47787268586E+02  0.19999988791E+02 0.  0.
         12    1    1    2    0    0  0.19296892140E+02  0.25011390716E+02  0.29760439772E+02  0.43400731414E+02  0.00000000000E+00 0. -1.
         11    1    3    3    0    0  0.24089166664E+01 -0.10025577336E+00 -0.68184080666E+01  0.72321241382E+01  0.51100000000E-03 0. -1.
        -11    1    3    3    0    0 -0.18467725205E+02 -0.20293630620E+02 -0.21128721943E+02  0.34631072885E+02  0.51100000000E-03 0.  1.
        -12    1    3    3    0    0 -0.32380836019E+01 -0.46175043230E+01 -0.18133097630E+01  0.59240715630E+01  0.00000000000E+00 0.  1.
</event>
<event>
 7    1  0.8300060E-011  0.4778727E+02  0.7816164E-02  0.1312668E+00
        -11   -1    0    0    0    0  0.00000000000E+00  0.00000000000E+00  0.45593999997E+02  0.45594000000E+02  0.51100000000E-03 0. -1.
         11   -1    0    0    0    0 -0.00000000000E+00 -0.00000000000E+00 -0.45593999997E+02  0.45594000000E+02  0.51100000000E-03 0.  1.
    9900012    2    1    2    0    0  0.70054437348E+01  0.12339851717E+02  0.41015546156E+02  0.47787271794E+02  0.20000003416E+02 0.  0.
        -12    1    1    2    0    0 -0.70054437348E+01 -0.12339851717E+02 -0.41015546156E+02  0.43400728206E+02  0.00000000000E+00 0.  1.
         11    1    3    3    0    0  0.43721889544E+01 -0.29159188557E+01  0.98690854795E+01  0.11181121030E+02  0.51100000000E-03 0. -1.
        -11    1    3    3    0    0 -0.10610322683E+01 -0.13737130600E+01  0.10657127054E+01  0.20368163582E+01  0.51100000000E-03 0.  1.
         12    1    3    3    0    0  0.36942870487E+01  0.16629483633E+02  0.30080747972E+02  0.34569334405E+02  0.00000000000E+00 0. -1.
</event>
<event>
 7    1  0.8300060E-011  0.4778727E+02  0.7816164E-02  0.1312668E+00
        -11   -1    0    0    0    0  0.00000000000E+00  0.00000000000E+00  0.45593999997E+02  0.45594000000E+02  0.51100000000E-03 0.  1.
         11   -1    0    0    0    0 -0.00000000000E+00 -0.00000000000E+00 -0.45593999997E+02  0.45594000000E+02  0.51100000000E-03 0. -1.
    9900012    2    1    2    0    0 -0.37393974692E+02 -0.19217771603E+02 -0.10769936857E+02  0.47787266958E+02  0.19999981369E+02 0.  0.
         12    1    1    2    0    0  0.37393974692E+02  0.19217771603E+02  0.10769936857E+02  0.43400733042E+02  0.00000000000E+00 0. -1.
         11    1    3    3    0    0 -0.20903654999E+02 -0.77097832634E+01 -0.68524896183E+01  0.23310087184E+02  0.51100000000E-03 0. -1.
        -11    1    3    3    0    0 -0.12952568778E+00 -0.59534855260E+01  0.18927367765E+01  0.62484573759E+01  0.51100000000E-03 0.  1.
        -12    1    3    3    0    0 -0.16360794005E+02 -0.55545028133E+01 -0.58101840149E+01  0.18228722398E+02  0.00000000000E+00 0.  1.
</event>
<event>
 7    1  0.8300060E-011  0.4778727E+02  0.7816164E-02  0.1312668E+00
        -11   -1    0    0    0    0  0.00000000000E+00  0.00000000000E+00  0.45593999997E+02  0.45594000000E+02  0.51100000000E-03 0. -1.
         11   -1    0    0    0    0 -0.00000000000E+00 -0.00000000000E+00 -0.45593999997E+02  0.45594000000E+02  0.51100000000E-03 0.  1.
    9900012    2    1    2    0    0 -0.33957336762E+02  0.24832600843E+02  0.10670738386E+02  0.47787269104E+02  0.19999991155E+02 0.  0.
         12    1    1    2    0    0  0.33957336762E+02 -0.24832600843E+02 -0.10670738386E+02  0.43400730896E+02  0.00000000000E+00 0. -1.
         11    1    3    3    0    0 -0.11248167701E+02  0.19797788119E+02  0.22049080559E+01  0.22876523136E+02  0.51100000000E-03 0. -1.
        -11    1    3    3    0    0 -0.16401853359E+02  0.48545168398E+01  0.58139373997E+01  0.18066239114E+02  0.51100000000E-03 0.  1.
         12    1    3    3    0    0 -0.63073157012E+01  0.18029588464E+00  0.26518929305E+01  0.68445068541E+01  0.00000000000E+00 0. -1.
</event>
<event>
 7    1  0.8300060E-011  0.4778727E+02  0.7816164E-02  0.1312668E+00
        -11   -1    0    0    0    0  0.00000000000E+00  0.00000000000E+00  0.45593999997E+02  0.45594000000E+02  0.51100000000E-03 0. -1.
         11   -1    0    0    0    0 -0.00000000000E+00 -0.00000000000E+00 -0.45593999997E+02  0.45594000000E+02  0.51100000000E-03 0.  1.
    9900012    2    1    2    0    0  0.15095151480E+02 -0.21140490422E+02 -0.34768365516E+02  0.47787272193E+02  0.20000005237E+02 0.  0.
         12    1    1    2    0    0 -0.15095151480E+02  0.21140490422E+02  0.34768365516E+02  0.43400727807E+02  0.00000000000E+00 0. -1.
         11    1    3    3    0    0 -0.43817882013E+00 -0.92468626998E+00  0.20057989251E+01  0.22517271072E+01  0.51100000000E-03 0. -1.
        -11    1    3    3    0    0  0.65278013164E+01 -0.15092797521E+02 -0.21199383497E+02  0.26829435103E+02  0.51100000000E-03 0.  1.
         12    1    3    3    0    0  0.90055289841E+01 -0.51230066311E+01 -0.15574780944E+02  0.18706109983E+02  0.00000000000E+00 0. -1.
</event>
<event>
 7    1  0.8300060E-011  0.4778727E+02  0.7816164E-02  0.1312668E+00
        -11   -1    0    0    0    0  0.00000000000E+00  0.00000000000E+00  0.45593999997E+02  0.45594000000E+02  0.51100000000E-03 0. -1.
         11   -1    0    0    0    0 -0.00000000000E+00 -0.00000000000E+00 -0.45593999997E+02  0.45594000000E+02  0.51100000000E-03 0.  1.
    9900012    2    1    2    0    0 -0.31696552990E+01  0.20424779444E+02  0.38162872453E+02  0.47787272311E+02  0.20000005776E+02 0.  0.
        -12    1    1    2    0    0  0.31696552990E+01 -0.20424779444E+02 -0.38162872453E+02  0.43400727689E+02  0.00000000000E+00 0.  1.
         11    1    3    3    0    0  0.18558247383E+00  0.10541760843E+02  0.18542448811E+02  0.21330390777E+02  0.51100000000E-03 0. -1.
        -11    1    3    3    0    0  0.30179860292E+00 -0.80557271439E+00 -0.19366456067E+01  0.21191097805E+01  0.51100000000E-03 0.  1.
        -12    1    3    3    0    0 -0.36570363757E+01  0.10688591316E+02  0.21557069248E+02  0.24337771754E+02  0.00000000000E+00 0.  1.
</event>
<event>
 7    1  0.8300060E-011  0.4778728E+02  0.7816164E-02  0.1312668E+00
        -11   -1    0    0    0    0  0.00000000000E+00  0.00000000000E+00  0.45593999997E+02  0.45594000000E+02  0.51100000000E-03 0. -1.
         11   -1    0    0    0    0 -0.00000000000E+00 -0.00000000000E+00 -0.45593999997E+02  0.45594000000E+02  0.51100000000E-03 0.  1.
    9900012    2    1    2    0    0  0.36413422661E+02  0.10145461902E+02  0.21324987077E+02  0.47787276263E+02  0.20000023793E+02 0.  0.
        -12    1    1    2    0    0 -0.36413422661E+02 -0.10145461902E+02 -0.21324987077E+02  0.43400723737E+02  0.00000000000E+00 0.  1.
         11    1    3    3    0    0  0.16119550821E+02  0.16760351142E+01 -0.16326702788E+00  0.16207272095E+02  0.51100000000E-03 0. -1.
        -11    1    3    3    0    0  0.15254069498E+00 -0.61342513845E+00  0.20722968527E+01  0.21665580008E+01  0.51100000000E-03 0.  1.
         12    1    3    3    0    0  0.20141331144E+02  0.90828519261E+01  0.19415957253E+02  0.29413446167E+02  0.00000000000E+00 0. -1.
</event>
<event>
 7    1  0.8300060E-011  0.4778727E+02  0.7816164E-02  0.1312668E+00
        -11   -1    0    0    0    0  0.00000000000E+00  0.00000000000E+00  0.45593999997E+02  0.45594000000E+02  0.51100000000E-03 0. -1.
         11   -1    0    0    0    0 -0.00000000000E+00 -0.00000000000E+00 -0.45593999997E+02  0.45594000000E+02  0.51100000000E-03 0.  1.
    9900012    2    1    2    0    0 -0.37738685727E+02  0.35332658950E+01 -0.21140739211E+02  0.47787271634E+02  0.20000002688E+02 0.  0.
         12    1    1    2    0    0  0.37738685727E+02 -0.35332658950E+01  0.21140739211E+02  0.43400728366E+02  0.00000000000E+00 0. -1.
         11    1    3    3    0    0 -0.15855128456E+02 -0.70890725474E+01 -0.90242939977E+01  0.19572376717E+02  0.51100000000E-03 0. -1.
        -11    1    3    3    0    0 -0.21395222212E+02  0.85087042975E+01 -0.97491928978E+01  0.25004006574E+02  0.51100000000E-03 0.  1.
         12    1    3    3    0    0 -0.48833505965E+00  0.21136341449E+01 -0.23672523155E+01  0.32108883435E+01  0.00000000000E+00 0. -1.
</event>
<event>
 7    1  0.8300060E-011  0.4778726E+02  0.7816164E-02  0.1312668E+00
        -11   -1    0    0    0    0  0.00000000000E+00  0.00000000000E+00  0.45593999997E+02  0.45594000000E+02  0.51100000000E-03 0. -1.
         11   -1    0    0    0    0 -0.00000000000E+00 -0.00000000000E+00 -0.45593999997E+02  0.45594000000E+02  0.51100000000E-03 0.  1.
    9900012    2    1    2    0    0  0.34559914709E+01  0.39246887173E+02  0.18203345128E+02  0.47787264941E+02  0.19999972173E+02 0.  0.
        -12    1    1    2    0    0 -0.34559914709E+01 -0.39246887173E+02 -0.18203345128E+02  0.43400735059E+02  0.00000000000E+00 0.  1.
         11    1    3    3    0    0  0.69592267774E+01  0.66385733212E+01  0.93080243069E+01  0.13384349437E+02  0.51100000000E-03 0. -1.
        -11    1    3    3    0    0 -0.42541623240E+01  0.30572080825E+02  0.92065902146E+01  0.32210422640E+02  0.51100000000E-03 0.  1.
         12    1    3    3    0    0  0.75092701743E+00  0.20362330267E+01 -0.31126939352E+00  0.21924928642E+01  0.00000000000E+00 0. -1.
</event>
<event>
 7    1  0.8300060E-011  0.4778728E+02  0.7816164E-02  0.1312668E+00
        -11   -1    0    0    0    0  0.00000000000E+00  0.00000000000E+00  0.45593999997E+02  0.45594000000E+02  0.51100000000E-03 0.  1.
         11   -1    0    0    0    0 -0.00000000000E+00 -0.00000000000E+00 -0.45593999997E+02  0.45594000000E+02  0.51100000000E-03 0. -1.
    9900012    2    1    2    0    0 -0.37016442363E+02 -0.11584028089E+02  0.19473457483E+02  0.47787282744E+02  0.20000053343E+02 0.  0.
        -12    1    1    2    0    0  0.37016442363E+02  0.11584028089E+02 -0.19473457483E+02  0.43400717256E+02  0.00000000000E+00 0.  1.
         11    1    3    3    0    0 -0.33596697338E+01  0.23847112435E+01 -0.17902032393E+01  0.44921104544E+01  0.51100000000E-03 0. -1.
        -11    1    3    3    0    0 -0.22608719867E+02 -0.10495451583E+02  0.19353919157E+02  0.31557612472E+02  0.51100000000E-03 0.  1.
        -12    1    3    3    0    0 -0.11048052762E+02 -0.34732877494E+01  0.19097415661E+01  0.11737559818E+02  0.00000000000E+00 0.  1.
</event>
<event>
 7    1  0.8300060E-011  0.4778727E+02  0.7816164E-02  0.1312668E+00
        -11   -1    0    0    0    0  0.00000000000E+00  0.00000000000E+00  0.45593999997E+02  0.45594000000E+02  0.51100000000E-03 0. -1.
         11   -1    0    0    0    0 -0.00000000000E+00 -0.00000000000E+00 -0.45593999997E+02  0.45594000000E+02  0.51100000000E-03 0.  1.
    9900012    2    1    2    0    0 -0.31780714748E+01  0.18988657581E+02  0.38896708876E+02  0.47787271707E+02  0.20000003020E+02 0.  0.
        -12    1    1    2    0    0  0.31780714748E+01 -0.18988657581E+02 -0.38896708876E+02  0.43400728293E+02  0.00000000000E+00 0.  1.
         11    1    3    3    0    0 -0.13554376667E+01  0.25120709124E+01  0.71159032246E+01  0.76670587908E+01  0.51100000000E-03 0. -1.
        -11    1    3    3    0    0 -0.63427101918E+01  0.15694272859E+02  0.31200152168E+02  0.35496333173E+02  0.51100000000E-03 0.  1.
        -12    1    3    3    0    0  0.45200763838E+01  0.78231380962E+00  0.58065348312E+00  0.46238797432E+01  0.00000000000E+00 0.  1.
</event>
<event>
 7    1  0.8300060E-011  0.4778728E+02  0.7816164E-02  0.1312668E+00
        -11   -1    0    0    0    0  0.00000000000E+00  0.00000000000E+00  0.45593999997E+02  0.45594000000E+02  0.51100000000E-03 0. -1.
         11   -1    0    0    0    0 -0.00000000000E+00 -0.00000000000E+00 -0.45593999997E+02  0.45594000000E+02  0.51100000000E-03 0.  1.
    9900012    2    1    2    0    0  0.52798102412E+01  0.34066636921E+02 -0.26366844201E+02  0.47787278572E+02  0.20000034323E+02 0.  0.
         12    1    1    2    0    0 -0.52798102412E+01 -0.34066636921E+02  0.26366844201E+02  0.43400721428E+02  0.00000000000E+00 0. -1.
         11    1    3    3    0    0  0.31159287986E+01  0.49833909926E+01 -0.14151227863E+02  0.15323199678E+02  0.51100000000E-03 0. -1.
        -11    1    3    3    0    0  0.22751492773E+01  0.20299154045E+02 -0.11971458054E+02  0.23675890002E+02  0.51100000000E-03 0.  1.
         12    1    3    3    0    0 -0.11126783474E+00  0.87840918837E+01 -0.24415828441E+00  0.87881888931E+01  0.00000000000E+00 0. -1.
</event>
<event>
 7    1  0.8300060E-011  0.4778727E+02  0.7816164E-02  0.1312668E+00
        -11   -1    0    0    0    0  0.00000000000E+00  0.00000000000E+00  0.45593999997E+02  0.45594000000E+02  0.51100000000E-03 0. -1.
         11   -1    0    0    0    0 -0.00000000000E+00 -0.00000000000E+00 -0.45593999997E+02  0.45594000000E+02  0.51100000000E-03 0.  1.
    9900012    2    1    2    0    0  0.11110108920E+02  0.36438231905E+02  0.20795292274E+02  0.47787269069E+02  0.19999990994E+02 0.  0.
        -12    1    1    2    0    0 -0.11110108920E+02 -0.36438231905E+02 -0.20795292274E+02  0.43400730931E+02  0.00000000000E+00 0.  1.
         11    1    3    3    0    0  0.71097262472E+01  0.11247149352E+02  0.85990384359E+01  0.15842665121E+02  0.51100000000E-03 0. -1.
        -11    1    3    3    0    0 -0.70353364386E-01  0.74296249069E+01 -0.31993657834E+01  0.80895128117E+01  0.51100000000E-03 0.  1.
        -12    1    3    3    0    0  0.40707360370E+01  0.17761457646E+02  0.15395619622E+02  0.23855091137E+02  0.00000000000E+00 0.  1.
</event>
<event>
 7    1  0.8300060E-011  0.4778727E+02  0.7816164E-02  0.1312668E+00
        -11   -1    0    0    0    0  0.00000000000E+00  0.00000000000E+00  0.45593999997E+02  0.45594000000E+02  0.51100000000E-03 0. -1.
         11   -1    0    0    0    0 -0.00000000000E+00 -0.00000000000E+00 -0.45593999997E+02  0.45594000000E+02  0.51100000000E-03 0.  1.
    9900012    2    1    2    0    0 -0.33025650046E+02 -0.27048444723E+02 -0.78301452387E+01  0.47787273078E+02  0.20000009272E+02 0.  0.
         12    1    1    2    0    0  0.33025650046E+02  0.27048444723E+02  0.78301452387E+01  0.43400726922E+02  0.00000000000E+00 0. -1.
         11    1    3    3    0    0 -0.10030894017E+02  0.22612767269E+00 -0.38695490572E+01  0.10753761141E+02  0.51100000000E-03 0. -1.
        -11    1    3    3    0    0 -0.20262011703E+02 -0.18144793291E+02 -0.40769891931E+01  0.27502808638E+02  0.51100000000E-03 0.  1.
        -12    1    3    3    0    0 -0.27327443261E+01 -0.91297791048E+01  0.11639301160E+00  0.95307032997E+01  0.00000000000E+00 0.  1.
</event>
<event>
 7    1  0.8300060E-011  0.4778727E+02  0.7816164E-02  0.1312668E+00
        -11   -1    0    0    0    0  0.00000000000E+00  0.00000000000E+00  0.45593999997E+02  0.45594000000E+02  0.51100000000E-03 0. -1.
         11   -1    0    0    0    0 -0.00000000000E+00 -0.00000000000E+00 -0.45593999997E+02  0.45594000000E+02  0.51100000000E-03 0.  1.
    9900012    2    1    2    0    0 -0.10082541352E+02 -0.14712236698E+02 -0.39566600074E+02  0.47787269704E+02  0.19999993889E+02 0.  0.
         12    1    1    2    0    0  0.10082541352E+02  0.14712236698E+02  0.39566600074E+02  0.43400730296E+02  0.00000000000E+00 0. -1.
         11    1    3    3    0    0 -0.32493402679E+01 -0.14446326220E+01 -0.23982035761E+02  0.24244240864E+02  0.51100000000E-03 0. -1.
        -11    1    3    3    0    0 -0.83149231742E+01 -0.64244481565E+01 -0.10763123245E+02  0.15041818499E+02  0.51100000000E-03 0.  1.
         12    1    3    3    0    0  0.14817220900E+01 -0.68431559192E+01 -0.48214410688E+01  0.85012103413E+01  0.00000000000E+00 0. -1.
</event>
<event>
 7    1  0.8300060E-011  0.4778727E+02  0.7816164E-02  0.1312668E+00
        -11   -1    0    0    0    0  0.00000000000E+00  0.00000000000E+00  0.45593999997E+02  0.45594000000E+02  0.51100000000E-03 0. -1.
         11   -1    0    0    0    0 -0.00000000000E+00 -0.00000000000E+00 -0.45593999997E+02  0.45594000000E+02  0.51100000000E-03 0.  1.
    9900012    2    1    2    0    0  0.25431829151E+02  0.13351619543E+01 -0.35143455033E+02  0.47787273934E+02  0.20000013173E+02 0.  0.
         12    1    1    2    0    0 -0.25431829151E+02 -0.13351619543E+01  0.35143455033E+02  0.43400726066E+02  0.00000000000E+00 0. -1.
         11    1    3    3    0    0  0.16357962819E+02  0.32686594293E+01 -0.26707116656E+02  0.31488683084E+02  0.51100000000E-03 0. -1.
        -11    1    3    3    0    0  0.11081839161E+02 -0.30026552674E+01 -0.59608006305E+01  0.12936546768E+02  0.51100000000E-03 0.  1.
         12    1    3    3    0    0 -0.20079728296E+01  0.10691577924E+01 -0.24755377470E+01  0.33620440815E+01  0.00000000000E+00 0. -1.
</event>
<event>
 7    1  0.8300060E-011  0.4778727E+02  0.7816164E-02  0.1312668E+00
        -11   -1    0    0    0    0  0.00000000000E+00  0.00000000000E+00  0.45593999997E+02  0.45594000000E+02  0.51100000000E-03 0. -1.
         11   -1    0    0    0    0 -0.00000000000E+00 -0.00000000000E+00 -0.45593999997E+02  0.45594000000E+02  0.51100000000E-03 0.  1.
    9900012    2    1    2    0    0  0.22437419384E+01  0.15907418261E+02  0.40318019083E+02  0.47787274241E+02  0.20000014575E+02 0.  0.
        -12    1    1    2    0    0 -0.22437419384E+01 -0.15907418261E+02 -0.40318019083E+02  0.43400725759E+02  0.00000000000E+00 0.  1.
         11    1    3    3    0    0  0.14839524259E+01  0.21319059757E+01 -0.11565424921E+01  0.28433657324E+01  0.51100000000E-03 0. -1.
        -11    1    3    3    0    0  0.27250702951E+01  0.12826717945E+00  0.29108341630E+01  0.39894130355E+01  0.51100000000E-03 0.  1.
         12    1    3    3    0    0 -0.19652807825E+01  0.13647245106E+02  0.38563727412E+02  0.40954495473E+02  0.00000000000E+00 0. -1.
</event>
<event>
 7    1  0.8300060E-011  0.4778725E+02  0.7816164E-02  0.1312668E+00
        -11   -1    0    0    0    0  0.00000000000E+00  0.00000000000E+00  0.45593999997E+02  0.45594000000E+02  0.51100000000E-03 0. -1.
         11   -1    0    0    0    0 -0.00000000000E+00 -0.00000000000E+00 -0.45593999997E+02  0.45594000000E+02  0.51100000000E-03 0.  1.
    9900012    2    1    2    0    0  0.30508840014E+02 -0.28571326756E+01  0.30735530705E+02  0.47787246852E+02  0.19999889695E+02 0.  0.
        -12    1    1    2    0    0 -0.30508840014E+02  0.28571326756E+01 -0.30735530705E+02  0.43400753148E+02  0.00000000000E+00 0.  1.
         11    1    3    3    0    0  0.20010604157E+02 -0.37574947720E+01  0.15874304033E+02  0.25817369628E+02  0.51100000000E-03 0. -1.
        -11    1    3    3    0    0  0.35212093739E+00 -0.14991504985E+01  0.10592495306E+02  0.10703849702E+02  0.51100000000E-03 0.  1.
        -12    1    3    3    0    0  0.10146114920E+02  0.23995125949E+01  0.42687313656E+01  0.11266027522E+02  0.00000000000E+00 0.  1.
</event>
<event>
 7    1  0.8300060E-011  0.4778727E+02  0.7816164E-02  0.1312668E+00
        -11   -1    0    0    0    0  0.00000000000E+00  0.00000000000E+00  0.45593999997E+02  0.45594000000E+02  0.51100000000E-03 0.  1.
         11   -1    0    0    0    0 -0.00000000000E+00 -0.00000000000E+00 -0.45593999997E+02  0.45594000000E+02  0.51100000000E-03 0. -1.
    9900012    2    1    2    0    0  0.32989695057E+02 -0.16969930525E+02 -0.22523872200E+02  0.47787270272E+02  0.19999996480E+02 0.  0.
         12    1    1    2    0    0 -0.32989695057E+02  0.16969930525E+02  0.22523872200E+02  0.43400729728E+02  0.00000000000E+00 0. -1.
         11    1    3    3    0    0  0.24516077079E+02 -0.59436440318E+01 -0.11841426411E+02  0.27867262503E+02  0.51100000000E-03 0. -1.
        -11    1    3    3    0    0  0.10426192943E+01 -0.73226654401E+01 -0.15122716813E+01  0.75495331008E+01  0.51100000000E-03 0.  1.
        -12    1    3    3    0    0  0.74309986839E+01 -0.37036210526E+01 -0.91701741082E+01  0.12370474668E+02  0.00000000000E+00 0.  1.
</event>
<event>
 7    1  0.8300060E-011  0.4778727E+02  0.7816164E-02  0.1312668E+00
        -11   -1    0    0    0    0  0.00000000000E+00  0.00000000000E+00  0.45593999997E+02  0.45594000000E+02  0.51100000000E-03 0. -1.
         11   -1    0    0    0    0 -0.00000000000E+00 -0.00000000000E+00 -0.45593999997E+02  0.45594000000E+02  0.51100000000E-03 0.  1.
    9900012    2    1    2    0    0  0.28995512850E+02 -0.17678495718E+02  0.27025071990E+02  0.47787268528E+02  0.19999988525E+02 0.  0.
        -12    1    1    2    0    0 -0.28995512850E+02  0.17678495718E+02 -0.27025071990E+02  0.43400731472E+02  0.00000000000E+00 0.  1.
         11    1    3    3    0    0 -0.18315406316E+01 -0.26987830036E+01  0.20667099974E+01  0.38612512558E+01  0.51100000000E-03 0. -1.
        -11    1    3    3    0    0  0.30923982056E+02 -0.14276600166E+02  0.25869653048E+02  0.42770935547E+02  0.51100000000E-03 0.  1.
        -12    1    3    3    0    0 -0.96928574222E-01 -0.70311254863E+00 -0.91129105527E+00  0.11550817252E+01  0.00000000000E+00 0.  1.
</event>
<event>
 7    1  0.8300060E-011  0.4778727E+02  0.7816164E-02  0.1312668E+00
        -11   -1    0    0    0    0  0.00000000000E+00  0.00000000000E+00  0.45593999997E+02  0.45594000000E+02  0.51100000000E-03 0. -1.
         11   -1    0    0    0    0 -0.00000000000E+00 -0.00000000000E+00 -0.45593999997E+02  0.45594000000E+02  0.51100000000E-03 0.  1.
    9900012    2    1    2    0    0 -0.92116642369E+01 -0.12764114292E+02 -0.40445593556E+02  0.47787269479E+02  0.19999992864E+02 0.  0.
         12    1    1    2    0    0  0.92116642369E+01  0.12764114292E+02  0.40445593556E+02  0.43400730521E+02  0.00000000000E+00 0. -1.
         11    1    3    3    0    0 -0.68256686837E+01 -0.12245563449E+01 -0.30299952138E+02  0.31083378051E+02  0.51100000000E-03 0.  1.
        -11    1    3    3    0    0 -0.42065693432E+01 -0.10041053673E+02 -0.79330495846E+01  0.13470384570E+02  0.51100000000E-03 0. -1.
        -12    1    3    3    0    0  0.18205737900E+01 -0.14985042738E+01 -0.22125918329E+01  0.32335068582E+01  0.00000000000E+00 0.  1.
</event>
<event>
 7    1  0.8300060E-011  0.4778725E+02  0.7816164E-02  0.1312668E+00
        -11   -1    0    0    0    0  0.00000000000E+00  0.00000000000E+00  0.45593999997E+02  0.45594000000E+02  0.51100000000E-03 0. -1.
         11   -1    0    0    0    0 -0.00000000000E+00 -0.00000000000E+00 -0.45593999997E+02  0.45594000000E+02  0.51100000000E-03 0.  1.
    9900012    2    1    2    0    0  0.75388930386E+01  0.86396908797E+00  0.42732232767E+02  0.47787250374E+02  0.19999905754E+02 0.  0.
        -12    1    1    2    0    0 -0.75388930386E+01 -0.86396908797E+00 -0.42732232767E+02  0.43400749626E+02  0.00000000000E+00 0.  1.
         11    1    3    3    0    0  0.10112285921E+02  0.35614027660E+01  0.31811532446E+02  0.33569562300E+02  0.51100000000E-03 0. -1.
        -11    1    3    3    0    0 -0.26202116702E+01 -0.70231096164E+00 -0.38261372431E+00  0.27395516799E+01  0.51100000000E-03 0.  1.
        -12    1    3    3    0    0  0.46818788279E-01 -0.19951227164E+01  0.11303314046E+02  0.11478136394E+02  0.00000000000E+00 0.  1.
</event>
<event>
 7    1  0.8300060E-011  0.4778727E+02  0.7816164E-02  0.1312668E+00
        -11   -1    0    0    0    0  0.00000000000E+00  0.00000000000E+00  0.45593999997E+02  0.45594000000E+02  0.51100000000E-03 0. -1.
         11   -1    0    0    0    0 -0.00000000000E+00 -0.00000000000E+00 -0.45593999997E+02  0.45594000000E+02  0.51100000000E-03 0.  1.
    9900012    2    1    2    0    0 -0.93646740731E+01 -0.18526192805E+01  0.42337851509E+02  0.47787274326E+02  0.20000014960E+02 0.  0.
        -12    1    1    2    0    0  0.93646740731E+01  0.18526192805E+01 -0.42337851509E+02  0.43400725674E+02  0.00000000000E+00 0.  1.
         11    1    3    3    0    0 -0.12807135795E+02 -0.91641109071E+00  0.24242225881E+02  0.27432609290E+02  0.51100000000E-03 0. -1.
        -11    1    3    3    0    0  0.44414433198E+00 -0.43085804517E+01  0.12091228110E+02  0.12843633721E+02  0.51100000000E-03 0.  1.
         12    1    3    3    0    0  0.29983173903E+01  0.33723722619E+01  0.60043975184E+01  0.75110313143E+01  0.00000000000E+00 0. -1.
</event>
<event>
 7    1  0.8300060E-011  0.4778727E+02  0.7816164E-02  0.1312668E+00
        -11   -1    0    0    0    0  0.00000000000E+00  0.00000000000E+00  0.45593999997E+02  0.45594000000E+02  0.51100000000E-03 0. -1.
         11   -1    0    0    0    0 -0.00000000000E+00 -0.00000000000E+00 -0.45593999997E+02  0.45594000000E+02  0.51100000000E-03 0.  1.
    9900012    2    1    2    0    0  0.38337414574E+02 -0.63985590413E+01 -0.19311253310E+02  0.47787269379E+02  0.19999992404E+02 0.  0.
         12    1    1    2    0    0 -0.38337414574E+02  0.63985590413E+01  0.19311253310E+02  0.43400730621E+02  0.00000000000E+00 0. -1.
         11    1    3    3    0    0  0.22667078351E+01  0.23331627077E+01 -0.16335653883E+01  0.36400753796E+01  0.51100000000E-03 0. -1.
        -11    1    3    3    0    0  0.23569602389E+02 -0.14755413164E+01 -0.34520793263E+01  0.23866718058E+02  0.51100000000E-03 0.  1.
        -12    1    3    3    0    0  0.12501104351E+02 -0.72561804326E+01 -0.14225608596E+02  0.20280475941E+02  0.00000000000E+00 0.  1.
</event>
<event>
 7    1  0.1069127E-010  0.4778726E+02  0.7816164E-02  0.1312668E+00
        -11   -1    0    0    0    0  0.00000000000E+00  0.00000000000E+00  0.45593999997E+02  0.45594000000E+02  0.51100000000E-03 0. -1.
         11   -1    0    0    0    0 -0.00000000000E+00 -0.00000000000E+00 -0.45593999997E+02  0.45594000000E+02  0.51100000000E-03 0.  1.
    9900012    2    1    2    0    0  0.21848099047E+02 -0.38371155625E+00  0.37498502669E+02  0.47787258429E+02  0.19999942480E+02 0.  0.
        -12    1    1    2    0    0 -0.21848099047E+02  0.38371155625E+00 -0.37498502669E+02  0.43400741571E+02  0.00000000000E+00 0.  1.
         11    1    3    3    0    0  0.15768407279E+02  0.20172045273E+01  0.12202609352E+02  0.20040345742E+02  0.51100000000E-03 0. -1.
        -11    1    3    3    0    0  0.14975895693E+00  0.95738377698E+00 -0.48280229150E+00  0.10826401782E+01  0.51100000000E-03 0.  1.
         12    1    3    3    0    0  0.59299328109E+01 -0.33582998605E+01  0.25778695609E+02  0.26664272508E+02  0.00000000000E+00 0. -1.
</event>
<event>
 7    1  0.8300060E-011  0.4778728E+02  0.7816164E-02  0.1312668E+00
        -11   -1    0    0    0    0  0.00000000000E+00  0.00000000000E+00  0.45593999997E+02  0.45594000000E+02  0.51100000000E-03 0. -1.
         11   -1    0    0    0    0 -0.00000000000E+00 -0.00000000000E+00 -0.45593999997E+02  0.45594000000E+02  0.51100000000E-03 0.  1.
    9900012    2    1    2    0    0  0.22890453126E+02 -0.23795537083E+02 -0.28167755759E+02  0.47787275422E+02  0.20000019960E+02 0.  0.
         12    1    1    2    0    0 -0.22890453126E+02  0.23795537083E+02  0.28167755759E+02  0.43400724578E+02  0.00000000000E+00 0. -1.
         11    1    3    3    0    0  0.19294514588E+01  0.13444478995E+01  0.41940763112E-01  0.23520379195E+01  0.51100000000E-03 0. -1.
        -11    1    3    3    0    0  0.10800068043E+02 -0.13955593912E+02 -0.23924771886E+02  0.29728686167E+02  0.51100000000E-03 0.  1.
        -12    1    3    3    0    0  0.10160933624E+02 -0.11184391070E+02 -0.42849246368E+01  0.15706551336E+02  0.00000000000E+00 0.  1.
</event>
<event>
 7    1  0.8300060E-011  0.4778727E+02  0.7816164E-02  0.1312668E+00
        -11   -1    0    0    0    0  0.00000000000E+00  0.00000000000E+00  0.45593999997E+02  0.45594000000E+02  0.51100000000E-03 0. -1.
         11   -1    0    0    0    0 -0.00000000000E+00 -0.00000000000E+00 -0.45593999997E+02  0.45594000000E+02  0.51100000000E-03 0.  1.
    9900012    2    1    2    0    0  0.27689671398E+02  0.16783038029E+02 -0.28900431994E+02  0.47787271468E+02  0.20000001933E+02 0.  0.
         12    1    1    2    0    0 -0.27689671398E+02 -0.16783038029E+02  0.28900431994E+02  0.43400728532E+02  0.00000000000E+00 0. -1.
         11    1    3    3    0    0  0.10076241487E+02  0.70239744104E+01 -0.22278141761E+01  0.12483189308E+02  0.51100000000E-03 0. -1.
        -11    1    3    3    0    0  0.11079562563E+01  0.53028986099E+01 -0.32906485462E+01  0.63385068311E+01  0.51100000000E-03 0.  1.
         12    1    3    3    0    0  0.16505473654E+02  0.44561650088E+01 -0.23381969272E+02  0.28965575330E+02  0.00000000000E+00 0. -1.
</event>
<event>
 7    1  0.8300060E-011  0.4778727E+02  0.7816164E-02  0.1312668E+00
        -11   -1    0    0    0    0  0.00000000000E+00  0.00000000000E+00  0.45593999997E+02  0.45594000000E+02  0.51100000000E-03 0. -1.
         11   -1    0    0    0    0 -0.00000000000E+00 -0.00000000000E+00 -0.45593999997E+02  0.45594000000E+02  0.51100000000E-03 0.  1.
    9900012    2    1    2    0    0  0.12291335084E+02  0.33396003395E+02  0.24844577776E+02  0.47787274133E+02  0.20000014080E+02 0.  0.
        -12    1    1    2    0    0 -0.12291335084E+02 -0.33396003395E+02 -0.24844577776E+02  0.43400725867E+02  0.00000000000E+00 0.  1.
         11    1    3    3    0    0 -0.13904428155E+01  0.17885065676E+02  0.46989388555E+01  0.18544242559E+02  0.51100000000E-03 0. -1.
        -11    1    3    3    0    0  0.74311456421E+01  0.90260224790E+01  0.14445450923E+02  0.18583919392E+02  0.51100000000E-03 0.  1.
        -12    1    3    3    0    0  0.62506322571E+01  0.64849152409E+01  0.57001879981E+01  0.10659112182E+02  0.00000000000E+00 0.  1.
</event>
<event>
 7    1  0.8300060E-011  0.4778727E+02  0.7816164E-02  0.1312668E+00
        -11   -1    0    0    0    0  0.00000000000E+00  0.00000000000E+00  0.45593999997E+02  0.45594000000E+02  0.51100000000E-03 0. -1.
         11   -1    0    0    0    0 -0.00000000000E+00 -0.00000000000E+00 -0.45593999997E+02  0.45594000000E+02  0.51100000000E-03 0.  1.
    9900012    2    1    2    0    0 -0.13281281635E+01  0.40690626333E+02 -0.15037696980E+02  0.47787270441E+02  0.19999997249E+02 0.  0.
         12    1    1    2    0    0  0.13281281635E+01 -0.40690626333E+02  0.15037696980E+02  0.43400729559E+02  0.00000000000E+00 0. -1.
         11    1    3    3    0    0  0.19821837593E+01  0.15288900388E+02 -0.47239904311E+01  0.16124379473E+02  0.51100000000E-03 0. -1.
        -11    1    3    3    0    0 -0.75067471501E+01  0.22879811329E+02 -0.53018996593E+01  0.24656584505E+02  0.51100000000E-03 0.  1.
        -12    1    3    3    0    0  0.41964352273E+01  0.25219146157E+01 -0.50118068900E+01  0.70063064626E+01  0.00000000000E+00 0.  1.
</event>
<event>
 7    1  0.8300060E-011  0.4778724E+02  0.7816164E-02  0.1312668E+00
        -11   -1    0    0    0    0  0.00000000000E+00  0.00000000000E+00  0.45593999997E+02  0.45594000000E+02  0.51100000000E-03 0. -1.
         11   -1    0    0    0    0 -0.00000000000E+00 -0.00000000000E+00 -0.45593999997E+02  0.45594000000E+02  0.51100000000E-03 0.  1.
    9900012    2    1    2    0    0  0.10440251901E+02 -0.94246329458E+01  0.41058531934E+02  0.47787244125E+02  0.19999877265E+02 0.  0.
        -12    1    1    2    0    0 -0.10440251901E+02  0.94246329458E+01 -0.41058531934E+02  0.43400755875E+02  0.00000000000E+00 0.  1.
         11    1    3    3    0    0  0.13767376307E+02 -0.31363568507E+01  0.19170371480E+02  0.23809252983E+02  0.51100000000E-03 0. -1.
        -11    1    3    3    0    0  0.56329356306E+00  0.11586032609E+01  0.42496979780E+01  0.44406749847E+01  0.51100000000E-03 0.  1.
         12    1    3    3    0    0 -0.38904179693E+01 -0.74468793560E+01  0.17638462476E+02  0.19537316158E+02  0.00000000000E+00 0. -1.
</event>
<event>
 7    1  0.8300060E-011  0.4778728E+02  0.7816164E-02  0.1312668E+00
        -11   -1    0    0    0    0  0.00000000000E+00  0.00000000000E+00  0.45593999997E+02  0.45594000000E+02  0.51100000000E-03 0. -1.
         11   -1    0    0    0    0 -0.00000000000E+00 -0.00000000000E+00 -0.45593999997E+02  0.45594000000E+02  0.51100000000E-03 0.  1.
    9900012    2    1    2    0    0 -0.47437172055E+01 -0.33991274283E+02 -0.26565261304E+02  0.47787277789E+02  0.20000030751E+02 0.  0.
         12    1    1    2    0    0  0.47437172055E+01  0.33991274283E+02  0.26565261304E+02  0.43400722211E+02  0.00000000000E+00 0. -1.
         11    1    3    3    0    0 -0.19156061006E+01  0.11579262654E+01  0.10604806671E+01  0.24768850347E+01  0.51100000000E-03 0. -1.
        -11    1    3    3    0    0 -0.42193497237E+01 -0.31398628994E+02 -0.22747014097E+02  0.39001326456E+02  0.51100000000E-03 0.  1.
        -12    1    3    3    0    0  0.13912386188E+01 -0.37505715547E+01 -0.48787278744E+01  0.63090662981E+01  0.00000000000E+00 0.  1.
</event>
<event>
 7    1  0.8300060E-011  0.4778727E+02  0.7816164E-02  0.1312668E+00
        -11   -1    0    0    0    0  0.00000000000E+00  0.00000000000E+00  0.45593999997E+02  0.45594000000E+02  0.51100000000E-03 0. -1.
         11   -1    0    0    0    0 -0.00000000000E+00 -0.00000000000E+00 -0.45593999997E+02  0.45594000000E+02  0.51100000000E-03 0.  1.
    9900012    2    1    2    0    0  0.16777460444E+02  0.23488842640E+02 -0.32410092737E+02  0.47787273984E+02  0.20000013402E+02 0.  0.
         12    1    1    2    0    0 -0.16777460444E+02 -0.23488842640E+02  0.32410092737E+02  0.43400726016E+02  0.00000000000E+00 0. -1.
         11    1    3    3    0    0  0.25295824284E+01  0.36865073284E+01  0.41828692267E+00  0.44904440487E+01  0.51100000000E-03 0. -1.
        -11    1    3    3    0    0  0.23852060356E+01  0.14424496652E+02 -0.12947188999E+02  0.19529081257E+02  0.51100000000E-03 0.  1.
        -12    1    3    3    0    0  0.11862671980E+02  0.53778386596E+01 -0.19881190661E+02  0.23767748678E+02  0.00000000000E+00 0.  1.
</event>
<event>
 7    1  0.8300060E-011  0.4778727E+02  0.7816164E-02  0.1312668E+00
        -11   -1    0    0    0    0  0.00000000000E+00  0.00000000000E+00  0.45593999997E+02  0.45594000000E+02  0.51100000000E-03 0. -1.
         11   -1    0    0    0    0 -0.00000000000E+00 -0.00000000000E+00 -0.45593999997E+02  0.45594000000E+02  0.51100000000E-03 0.  1.
    9900012    2    1    2    0    0  0.18198774544E+02 -0.32783306741E+02  0.21855956609E+02  0.47787269188E+02  0.19999991535E+02 0.  0.
        -12    1    1    2    0    0 -0.18198774544E+02  0.32783306741E+02 -0.21855956609E+02  0.43400730812E+02  0.00000000000E+00 0.  1.
         11    1    3    3    0    0 -0.29836466577E+01 -0.61898690026E+01  0.22015839819E+01  0.72155109270E+01  0.51100000000E-03 0. -1.
        -11    1    3    3    0    0  0.18117089181E+02 -0.24160675549E+02  0.20587366397E+02  0.36548691069E+02  0.51100000000E-03 0.  1.
        -12    1    3    3    0    0  0.30653320198E+01 -0.24327621886E+01 -0.93299377007E+00  0.40230671922E+01  0.00000000000E+00 0.  1.
</event>
<event>
 7    1  0.8300060E-011  0.4778728E+02  0.7816164E-02  0.1312668E+00
        -11   -1    0    0    0    0  0.00000000000E+00  0.00000000000E+00  0.45593999997E+02  0.45594000000E+02  0.51100000000E-03 0. -1.
         11   -1    0    0    0    0 -0.00000000000E+00 -0.00000000000E+00 -0.45593999997E+02  0.45594000000E+02  0.51100000000E-03 0.  1.
    9900012    2    1    2    0    0 -0.13170233184E+02  0.33110667332E+02 -0.24776026331E+02  0.47787276342E+02  0.20000024153E+02 0.  0.
         12    1    1    2    0    0  0.13170233184E+02 -0.33110667332E+02  0.24776026331E+02  0.43400723658E+02  0.00000000000E+00 0. -1.
         11    1    3    3    0    0 -0.85205751517E+01  0.53927587274E+01 -0.77709273610E+01  0.12730646485E+02  0.51100000000E-03 0. -1.
        -11    1    3    3    0    0  0.26016623939E+00  0.23719559674E+02 -0.10381131071E+02  0.25893108739E+02  0.51100000000E-03 0.  1.
        -12    1    3    3    0    0 -0.49098242713E+01  0.39983489308E+01 -0.66239678992E+01  0.91635211178E+01  0.00000000000E+00 0.  1.
</event>
<event>
 7    1  0.8300060E-011  0.4778730E+02  0.7816164E-02  0.1312668E+00
        -11   -1    0    0    0    0  0.00000000000E+00  0.00000000000E+00  0.45593999997E+02  0.45594000000E+02  0.51100000000E-03 0. -1.
         11   -1    0    0    0    0 -0.00000000000E+00 -0.00000000000E+00 -0.45593999997E+02  0.45594000000E+02  0.51100000000E-03 0.  1.
    9900012    2    1    2    0    0  0.15600938016E+02  0.28072971483E+02 -0.29191431490E+02  0.47787301074E+02  0.20000136918E+02 0.  0.
         12    1    1    2    0    0 -0.15600938016E+02 -0.28072971483E+02  0.29191431490E+02  0.43400698926E+02  0.00000000000E+00 0. -1.
         11    1    3    3    0    0  0.17696399968E+01  0.55761758647E+01  0.10015343186E+01  0.59353546014E+01  0.51100000000E-03 0. -1.
        -11    1    3    3    0    0  0.59919527799E+01  0.81150954621E+01 -0.20426947839E+02  0.22781976884E+02  0.51100000000E-03 0.  1.
        -12    1    3    3    0    0  0.78393452388E+01  0.14381700156E+02 -0.97660179697E+01  0.19069969589E+02  0.00000000000E+00 0.  1.
</event>
<event>
 7    1  0.8300060E-011  0.4778728E+02  0.7816164E-02  0.1312668E+00
        -11   -1    0    0    0    0  0.00000000000E+00  0.00000000000E+00  0.45593999997E+02  0.45594000000E+02  0.51100000000E-03 0. -1.
         11   -1    0    0    0    0 -0.00000000000E+00 -0.00000000000E+00 -0.45593999997E+02  0.45594000000E+02  0.51100000000E-03 0.  1.
    9900012    2    1    2    0    0  0.12871816167E+02  0.16117254553E+02  0.38186036411E+02  0.47787275092E+02  0.20000018456E+02 0.  0.
        -12    1    1    2    0    0 -0.12871816167E+02 -0.16117254553E+02 -0.38186036411E+02  0.43400724908E+02  0.00000000000E+00 0.  1.
         11    1    3    3    0    0  0.12369282889E+02  0.11489345645E+02  0.38521160780E+02  0.42058103269E+02  0.51100000000E-03 0. -1.
        -11    1    3    3    0    0 -0.11366494177E+01  0.25022375800E+01  0.72629167023E+00  0.28426509910E+01  0.51100000000E-03 0.  1.
         12    1    3    3    0    0  0.16391826958E+01  0.21256713280E+01 -0.10614160393E+01  0.28865208320E+01  0.00000000000E+00 0. -1.
</event>
<event>
 7    1  0.8300060E-011  0.4778726E+02  0.7816164E-02  0.1312668E+00
        -11   -1    0    0    0    0  0.00000000000E+00  0.00000000000E+00  0.45593999997E+02  0.45594000000E+02  0.51100000000E-03 0. -1.
         11   -1    0    0    0    0 -0.00000000000E+00 -0.00000000000E+00 -0.45593999997E+02  0.45594000000E+02  0.51100000000E-03 0.  1.
    9900012    2    1    2    0    0  0.16443377157E+02 -0.72866510496E-01 -0.40165083249E+02  0.47787264128E+02  0.19999968464E+02 0.  0.
         12    1    1    2    0    0 -0.16443377157E+02  0.72866510496E-01  0.40165083249E+02  0.43400735872E+02  0.00000000000E+00 0. -1.
         11    1    3    3    0    0 -0.33765899393E+01  0.25910738461E+01 -0.47716387789E+01  0.63940253512E+01  0.51100000000E-03 0. -1.
        -11    1    3    3    0    0  0.13822132085E+02 -0.19687549382E+01 -0.30766862853E+02  0.33786494069E+02  0.51100000000E-03 0.  1.
         12    1    3    3    0    0  0.59978350113E+01 -0.69518541838E+00 -0.46265816169E+01  0.76067447076E+01  0.00000000000E+00 0. -1.
</event>
<event>
 7    1  0.8300060E-011  0.4778727E+02  0.7816164E-02  0.1312668E+00
        -11   -1    0    0    0    0  0.00000000000E+00  0.00000000000E+00  0.45593999997E+02  0.45594000000E+02  0.51100000000E-03 0. -1.
         11   -1    0    0    0    0 -0.00000000000E+00 -0.00000000000E+00 -0.45593999997E+02  0.45594000000E+02  0.51100000000E-03 0.  1.
    9900012    2    1    2    0    0  0.28960444337E+01 -0.35851973148E+02 -0.24287279882E+02  0.47787274015E+02  0.20000013543E+02 0.  0.
         12    1    1    2    0    0 -0.28960444337E+01  0.35851973148E+02  0.24287279882E+02  0.43400725985E+02  0.00000000000E+00 0. -1.
         11    1    3    3    0    0  0.89907529996E+01 -0.79350992823E+01 -0.74282633339E+01  0.14105975207E+02  0.51100000000E-03 0. -1.
        -11    1    3    3    0    0 -0.42206295672E+01 -0.19096371541E+02 -0.82896646692E+01  0.21241555041E+02  0.51100000000E-03 0.  1.
        -12    1    3    3    0    0 -0.18740789987E+01 -0.88205023251E+01 -0.85693518789E+01  0.12439743767E+02  0.00000000000E+00 0.  1.
</event>
<event>
 7    1  0.8300060E-011  0.4778727E+02  0.7816164E-02  0.1312668E+00
        -11   -1    0    0    0    0  0.00000000000E+00  0.00000000000E+00  0.45593999997E+02  0.45594000000E+02  0.51100000000E-03 0.  1.
         11   -1    0    0    0    0 -0.00000000000E+00 -0.00000000000E+00 -0.45593999997E+02  0.45594000000E+02  0.51100000000E-03 0. -1.
    9900012    2    1    2    0    0 -0.37827937481E+02  0.21271079533E+02 -0.45989863758E+00  0.47787272065E+02  0.20000004654E+02 0.  0.
         12    1    1    2    0    0  0.37827937481E+02 -0.21271079533E+02  0.45989863758E+00  0.43400727935E+02  0.00000000000E+00 0. -1.
         11    1    3    3    0    0  0.95962682219E+00 -0.59558028873E+00 -0.23768902807E+00  0.11541645694E+01  0.51100000000E-03 0. -1.
        -11    1    3    3    0    0 -0.36805919606E+02  0.21904940167E+02  0.29063257880E+01  0.42929580147E+02  0.51100000000E-03 0.  1.
        -12    1    3    3    0    0 -0.19816446968E+01 -0.38280345353E-01 -0.31285353975E+01  0.37035273487E+01  0.00000000000E+00 0.  1.
</event>
<event>
 7    1  0.8300060E-011  0.4778727E+02  0.7816164E-02  0.1312668E+00
        -11   -1    0    0    0    0  0.00000000000E+00  0.00000000000E+00  0.45593999997E+02  0.45594000000E+02  0.51100000000E-03 0.  1.
         11   -1    0    0    0    0 -0.00000000000E+00 -0.00000000000E+00 -0.45593999997E+02  0.45594000000E+02  0.51100000000E-03 0. -1.
    9900012    2    1    2    0    0  0.11857686103E+02  0.36405296499E+02 -0.20437047279E+02  0.47787271499E+02  0.20000002075E+02 0.  0.
         12    1    1    2    0    0 -0.11857686103E+02 -0.36405296499E+02  0.20437047279E+02  0.43400728501E+02  0.00000000000E+00 0. -1.
         11    1    3    3    0    0  0.74719669668E+01  0.87190440089E+01 -0.30679939481E+01  0.11885478783E+02  0.51100000000E-03 0. -1.
        -11    1    3    3    0    0  0.15461837232E+00  0.27624594605E+01 -0.87745466439E+01  0.92004216305E+01  0.51100000000E-03 0.  1.
        -12    1    3    3    0    0  0.42311007634E+01  0.24923793030E+02 -0.85945066871E+01  0.26701371086E+02  0.00000000000E+00 0.  1.
</event>
<event>
 7    1  0.1199860E-010  0.4778727E+02  0.7816164E-02  0.1312668E+00
        -11   -1    0    0    0    0  0.00000000000E+00  0.00000000000E+00  0.45593999997E+02  0.45594000000E+02  0.51100000000E-03 0. -1.
         11   -1    0    0    0    0 -0.00000000000E+00 -0.00000000000E+00 -0.45593999997E+02  0.45594000000E+02  0.51100000000E-03 0.  1.
    9900012    2    1    2    0    0  0.30411563035E+02  0.27018798248E+01 -0.30845750784E+02  0.47787266570E+02  0.19999979599E+02 0.  0.
         12    1    1    2    0    0 -0.30411563035E+02 -0.27018798248E+01  0.30845750784E+02  0.43400733430E+02  0.00000000000E+00 0. -1.
         11    1    3    3    0    0 -0.78546168053E+00 -0.12917671710E+01  0.82489317305E+00  0.17222257354E+01  0.51100000000E-03 0. -1.
        -11    1    3    3    0    0  0.26874839994E+02  0.12985421717E+01 -0.20626007570E+02  0.33902439810E+02  0.51100000000E-03 0.  1.
        -12    1    3    3    0    0  0.43221847218E+01  0.26951048241E+01 -0.11044636387E+02  0.12162601025E+02  0.00000000000E+00 0.  1.
</event>
<event>
 7    1  0.8300060E-011  0.4778727E+02  0.7816164E-02  0.1312668E+00
        -11   -1    0    0    0    0  0.00000000000E+00  0.00000000000E+00  0.45593999997E+02  0.45594000000E+02  0.51100000000E-03 0. -1.
         11   -1    0    0    0    0 -0.00000000000E+00 -0.00000000000E+00 -0.45593999997E+02  0.45594000000E+02  0.51100000000E-03 0.  1.
    9900012    2    1    2    0    0 -0.41577882036E+01  0.32610784617E+02  0.28335011108E+02  0.47787270391E+02  0.19999997022E+02 0.  0.
        -12    1    1    2    0    0  0.41577882036E+01 -0.32610784617E+02 -0.28335011108E+02  0.43400729609E+02  0.00000000000E+00 0.  1.
         11    1    3    3    0    0  0.15587202071E+01  0.28684354332E+02  0.28803840532E+02  0.40680253463E+02  0.51100000000E-03 0. -1.
        -11    1    3    3    0    0 -0.34555897222E+01  0.17675133830E+01  0.28318740445E+00  0.38917090403E+01  0.51100000000E-03 0.  1.
         12    1    3    3    0    0 -0.22609186885E+01  0.21589169014E+01 -0.75201682859E+00  0.32153078879E+01  0.00000000000E+00 0. -1.
</event>
<event>
 7    1  0.8300060E-011  0.4778727E+02  0.7816164E-02  0.1312668E+00
        -11   -1    0    0    0    0  0.00000000000E+00  0.00000000000E+00  0.45593999997E+02  0.45594000000E+02  0.51100000000E-03 0. -1.
         11   -1    0    0    0    0 -0.00000000000E+00 -0.00000000000E+00 -0.45593999997E+02  0.45594000000E+02  0.51100000000E-03 0.  1.
    9900012    2    1    2    0    0 -0.33599849436E+02 -0.20475580238E+02  0.18314584186E+02  0.47787271180E+02  0.20000000618E+02 0.  0.
        -12    1    1    2    0    0  0.33599849436E+02  0.20475580238E+02 -0.18314584186E+02  0.43400728820E+02  0.00000000000E+00 0.  1.
         11    1    3    3    0    0 -0.44699811188E+01 -0.10084893166E+02  0.65447458368E+01  0.12826515493E+02  0.51100000000E-03 0. -1.
        -11    1    3    3    0    0 -0.29281289558E+02 -0.11480470111E+02  0.10240221604E+02  0.33076536260E+02  0.51100000000E-03 0.  1.
         12    1    3    3    0    0  0.15142124143E+00  0.10897830383E+01  0.15296167448E+01  0.18842194270E+01  0.00000000000E+00 0. -1.
</event>
<event>
 7    1  0.8300060E-011  0.4778727E+02  0.7816164E-02  0.1312668E+00
        -11   -1    0    0    0    0  0.00000000000E+00  0.00000000000E+00  0.45593999997E+02  0.45594000000E+02  0.51100000000E-03 0. -1.
         11   -1    0    0    0    0 -0.00000000000E+00 -0.00000000000E+00 -0.45593999997E+02  0.45594000000E+02  0.51100000000E-03 0.  1.
    9900012    2    1    2    0    0 -0.35267540064E+02  0.97698447828E+01  0.23331823473E+02  0.47787271483E+02  0.20000001999E+02 0.  0.
        -12    1    1    2    0    0  0.35267540064E+02 -0.97698447828E+01 -0.23331823473E+02  0.43400728517E+02  0.00000000000E+00 0.  1.
         11    1    3    3    0    0 -0.22461746344E+02  0.12545147624E+01  0.10317095870E+02  0.24749673201E+02  0.51100000000E-03 0. -1.
        -11    1    3    3    0    0 -0.16535145371E+01  0.34890215873E+01 -0.14226149291E+01  0.41147558201E+01  0.51100000000E-03 0.  1.
         12    1    3    3    0    0 -0.11152279183E+02  0.50263084331E+01  0.14437342532E+02  0.18922842462E+02  0.00000000000E+00 0. -1.
</event>
<event>
 7    1  0.8300060E-011  0.4778727E+02  0.7816164E-02  0.1312668E+00
        -11   -1    0    0    0    0  0.00000000000E+00  0.00000000000E+00  0.45593999997E+02  0.45594000000E+02  0.51100000000E-03 0. -1.
         11   -1    0    0    0    0 -0.00000000000E+00 -0.00000000000E+00 -0.45593999997E+02  0.45594000000E+02  0.51100000000E-03 0.  1.
    9900012    2    1    2    0    0 -0.17563980359E+02 -0.32622651931E+02  0.22602927715E+02  0.47787272283E+02  0.20000005647E+02 0.  0.
        -12    1    1    2    0    0  0.17563980359E+02  0.32622651931E+02 -0.22602927715E+02  0.43400727717E+02  0.00000000000E+00 0.  1.
         11    1    3    3    0    0 -0.66677162749E+01 -0.15930046750E+02  0.18115778387E+02  0.25028109330E+02  0.51100000000E-03 0. -1.
        -11    1    3    3    0    0 -0.64345492714E+01 -0.13966412685E+02 -0.70092271373E+00  0.15393355726E+02  0.51100000000E-03 0.  1.
        -12    1    3    3    0    0 -0.44617148127E+01 -0.27261924963E+01  0.51880720414E+01  0.73658072269E+01  0.00000000000E+00 0.  1.
</event>
<event>
 7    1  0.8300060E-011  0.4778727E+02  0.7816164E-02  0.1312668E+00
        -11   -1    0    0    0    0  0.00000000000E+00  0.00000000000E+00  0.45593999997E+02  0.45594000000E+02  0.51100000000E-03 0. -1.
         11   -1    0    0    0    0 -0.00000000000E+00 -0.00000000000E+00 -0.45593999997E+02  0.45594000000E+02  0.51100000000E-03 0.  1.
    9900012    2    1    2    0    0  0.32384003048E+02 -0.18766261982E+02  0.21971042046E+02  0.47787274997E+02  0.20000018021E+02 0.  0.
        -12    1    1    2    0    0 -0.32384003048E+02  0.18766261982E+02 -0.21971042046E+02  0.43400725003E+02  0.00000000000E+00 0.  1.
         11    1    3    3    0    0  0.45452834402E+01  0.29134193701E+01  0.27731161185E+01  0.60694140777E+01  0.51100000000E-03 0. -1.
        -11    1    3    3    0    0 -0.12488809068E+00 -0.16080867315E+01  0.35648574083E+01  0.39127673805E+01  0.51100000000E-03 0.  1.
         12    1    3    3    0    0  0.27963607699E+02 -0.20071594621E+02  0.15633068519E+02  0.37805093539E+02  0.00000000000E+00 0. -1.
</event>
<event>
 7    1  0.8300060E-011  0.4778727E+02  0.7816164E-02  0.1312668E+00
        -11   -1    0    0    0    0  0.00000000000E+00  0.00000000000E+00  0.45593999997E+02  0.45594000000E+02  0.51100000000E-03 0. -1.
         11   -1    0    0    0    0 -0.00000000000E+00 -0.00000000000E+00 -0.45593999997E+02  0.45594000000E+02  0.51100000000E-03 0.  1.
    9900012    2    1    2    0    0  0.10521720259E+02 -0.72095852772E+00  0.42099845720E+02  0.47787269729E+02  0.19999994002E+02 0.  0.
        -12    1    1    2    0    0 -0.10521720259E+02  0.72095852772E+00 -0.42099845720E+02  0.43400730271E+02  0.00000000000E+00 0.  1.
         11    1    3    3    0    0  0.88694916963E+01 -0.73963238206E+01  0.22334030172E+02  0.25143237520E+02  0.51100000000E-03 0. -1.
        -11    1    3    3    0    0 -0.15360570589E+01 -0.10807677122E+01  0.10891867333E+01  0.21711421273E+01  0.51100000000E-03 0.  1.
         12    1    3    3    0    0  0.31882856216E+01  0.77561330051E+01  0.18676628815E+02  0.20472890081E+02  0.00000000000E+00 0. -1.
</event>
<event>
 7    1  0.8300060E-011  0.4778727E+02  0.7816164E-02  0.1312668E+00
        -11   -1    0    0    0    0  0.00000000000E+00  0.00000000000E+00  0.45593999997E+02  0.45594000000E+02  0.51100000000E-03 0. -1.
         11   -1    0    0    0    0 -0.00000000000E+00 -0.00000000000E+00 -0.45593999997E+02  0.45594000000E+02  0.51100000000E-03 0.  1.
    9900012    2    1    2    0    0 -0.31231207523E+02 -0.16423074564E+02  0.25268909852E+02  0.47787268364E+02  0.19999987777E+02 0.  0.
        -12    1    1    2    0    0  0.31231207523E+02  0.16423074564E+02 -0.25268909852E+02  0.43400731636E+02  0.00000000000E+00 0.  1.
         11    1    3    3    0    0 -0.44352691927E+01 -0.69907121719E+01  0.12806211346E+02  0.15249285845E+02  0.51100000000E-03 0. -1.
        -11    1    3    3    0    0 -0.10468022283E+02  0.10779801186E+01  0.30361203474E+01  0.10952605109E+02  0.51100000000E-03 0.  1.
         12    1    3    3    0    0 -0.16327916047E+02 -0.10510342511E+02  0.94265781587E+01  0.21585377410E+02  0.00000000000E+00 0. -1.
</event>
<event>
 7    1  0.8300060E-011  0.4778728E+02  0.7816164E-02  0.1312668E+00
        -11   -1    0    0    0    0  0.00000000000E+00  0.00000000000E+00  0.45593999997E+02  0.45594000000E+02  0.51100000000E-03 0. -1.
         11   -1    0    0    0    0 -0.00000000000E+00 -0.00000000000E+00 -0.45593999997E+02  0.45594000000E+02  0.51100000000E-03 0.  1.
    9900012    2    1    2    0    0 -0.62305635651E+01  0.15900544686E+02 -0.39899560024E+02  0.47787284180E+02  0.20000059889E+02 0.  0.
         12    1    1    2    0    0  0.62305635651E+01 -0.15900544686E+02  0.39899560024E+02  0.43400715820E+02  0.00000000000E+00 0. -1.
         11    1    3    3    0    0 -0.70993446516E+01  0.11337897414E+01 -0.22792899363E+02  0.23899841742E+02  0.51100000000E-03 0. -1.
        -11    1    3    3    0    0 -0.25715732254E+01  0.60701723974E+01 -0.37572248672E+01  0.75879325743E+01  0.51100000000E-03 0.  1.
         12    1    3    3    0    0  0.34403543119E+01  0.86965825470E+01 -0.13349435793E+02  0.16299509863E+02  0.00000000000E+00 0. -1.
</event>
<event>
 7    1  0.8300060E-011  0.4778727E+02  0.7816164E-02  0.1312668E+00
        -11   -1    0    0    0    0  0.00000000000E+00  0.00000000000E+00  0.45593999997E+02  0.45594000000E+02  0.51100000000E-03 0. -1.
         11   -1    0    0    0    0 -0.00000000000E+00 -0.00000000000E+00 -0.45593999997E+02  0.45594000000E+02  0.51100000000E-03 0.  1.
    9900012    2    1    2    0    0 -0.10581548038E+02 -0.25720746310E+02  0.33318123226E+02  0.47787270917E+02  0.19999999417E+02 0.  0.
        -12    1    1    2    0    0  0.10581548038E+02  0.25720746310E+02 -0.33318123226E+02  0.43400729083E+02  0.00000000000E+00 0.  1.
         11    1    3    3    0    0 -0.11476049601E+02 -0.18461846858E+02  0.21954384689E+02  0.30895541931E+02  0.51100000000E-03 0. -1.
        -11    1    3    3    0    0  0.33805799821E+01  0.10602109959E-01  0.76389517670E+01  0.83535631786E+01  0.51100000000E-03 0.  1.
        -12    1    3    3    0    0 -0.24860784188E+01 -0.72695015624E+01  0.37247867705E+01  0.85381658075E+01  0.00000000000E+00 0.  1.
</event>
<event>
 7    1  0.8300060E-011  0.4778729E+02  0.7816164E-02  0.1312668E+00
        -11   -1    0    0    0    0  0.00000000000E+00  0.00000000000E+00  0.45593999997E+02  0.45594000000E+02  0.51100000000E-03 0. -1.
         11   -1    0    0    0    0 -0.00000000000E+00 -0.00000000000E+00 -0.45593999997E+02  0.45594000000E+02  0.51100000000E-03 0.  1.
    9900012    2    1    2    0    0  0.13034422151E+02  0.54706040651E+01  0.41034111919E+02  0.47787285598E+02  0.20000066357E+02 0.  0.
        -12    1    1    2    0    0 -0.13034422151E+02 -0.54706040651E+01 -0.41034111919E+02  0.43400714402E+02  0.00000000000E+00 0.  1.
         11    1    3    3    0    0  0.16433870396E+02  0.56984727387E+01  0.40119338885E+02  0.43727634748E+02  0.51100000000E-03 0. -1.
        -11    1    3    3    0    0 -0.18239758246E+01 -0.93819162835E+00  0.10897121764E+01  0.23226201215E+01  0.51100000000E-03 0.  1.
         12    1    3    3    0    0 -0.15754724211E+01  0.71032295479E+00 -0.17493914338E+00  0.17370307290E+01  0.00000000000E+00 0. -1.
</event>
<event>
 7    1  0.8300060E-011  0.4778727E+02  0.7816164E-02  0.1312668E+00
        -11   -1    0    0    0    0  0.00000000000E+00  0.00000000000E+00  0.45593999997E+02  0.45594000000E+02  0.51100000000E-03 0. -1.
         11   -1    0    0    0    0 -0.00000000000E+00 -0.00000000000E+00 -0.45593999997E+02  0.45594000000E+02  0.51100000000E-03 0.  1.
    9900012    2    1    2    0    0  0.11505841867E+02  0.29417991815E+02 -0.29762733900E+02  0.47787274560E+02  0.20000016031E+02 0.  0.
         12    1    1    2    0    0 -0.11505841867E+02 -0.29417991815E+02  0.29762733900E+02  0.43400725440E+02  0.00000000000E+00 0. -1.
         11    1    3    3    0    0  0.13302829058E+01  0.54127120990E+01  0.16403640877E+01  0.58101548583E+01  0.51100000000E-03 0. -1.
        -11    1    3    3    0    0  0.72128898494E+01  0.15738546305E+02 -0.27197988963E+02  0.32240630013E+02  0.51100000000E-03 0.  1.
        -12    1    3    3    0    0  0.29626691119E+01  0.82667334108E+01 -0.42051090249E+01  0.97364896889E+01  0.00000000000E+00 0.  1.
</event>
<event>
 7    1  0.8300060E-011  0.4778726E+02  0.7816164E-02  0.1312668E+00
        -11   -1    0    0    0    0  0.00000000000E+00  0.00000000000E+00  0.45593999997E+02  0.45594000000E+02  0.51100000000E-03 0. -1.
         11   -1    0    0    0    0 -0.00000000000E+00 -0.00000000000E+00 -0.45593999997E+02  0.45594000000E+02  0.51100000000E-03 0.  1.
    9900012    2    1    2    0    0  0.22564086331E+01  0.23456681277E+02 -0.36446079105E+02  0.47787263157E+02  0.19999964036E+02 0.  0.
         12    1    1    2    0    0 -0.22564086331E+01 -0.23456681277E+02  0.36446079105E+02  0.43400736843E+02  0.00000000000E+00 0. -1.
         11    1    3    3    0    0 -0.45226295076E+01  0.40992048396E+01 -0.39109642751E+00  0.61164217200E+01  0.51100000000E-03 0. -1.
        -11    1    3    3    0    0  0.44586621556E+01  0.12068628016E+02 -0.18630318053E+02  0.22641117495E+02  0.51100000000E-03 0.  1.
         12    1    3    3    0    0  0.23203759851E+01  0.72888484212E+01 -0.17424664624E+02  0.19029723941E+02  0.00000000000E+00 0. -1.
</event>
<event>
 7    1  0.8300060E-011  0.4778727E+02  0.7816164E-02  0.1312668E+00
        -11   -1    0    0    0    0  0.00000000000E+00  0.00000000000E+00  0.45593999997E+02  0.45594000000E+02  0.51100000000E-03 0. -1.
         11   -1    0    0    0    0 -0.00000000000E+00 -0.00000000000E+00 -0.45593999997E+02  0.45594000000E+02  0.51100000000E-03 0.  1.
    9900012    2    1    2    0    0 -0.11746254249E+01  0.42821058142E+01 -0.43172991654E+02  0.47787269782E+02  0.19999994246E+02 0.  0.
         12    1    1    2    0    0  0.11746254249E+01 -0.42821058142E+01  0.43172991654E+02  0.43400730218E+02  0.00000000000E+00 0. -1.
         11    1    3    3    0    0  0.15402645932E+01  0.98279567597E+01 -0.27565902505E+02  0.29305974310E+02  0.51100000000E-03 0. -1.
        -11    1    3    3    0    0  0.14021727982E+01 -0.46403279735E+01 -0.45520289415E+01  0.66497894706E+01  0.51100000000E-03 0.  1.
         12    1    3    3    0    0 -0.41170628162E+01 -0.90552297202E+00 -0.11055060207E+02  0.11831506002E+02  0.00000000000E+00 0. -1.
</event>
<event>
 7    1  0.8300060E-011  0.4778727E+02  0.7816164E-02  0.1312668E+00
        -11   -1    0    0    0    0  0.00000000000E+00  0.00000000000E+00  0.45593999997E+02  0.45594000000E+02  0.51100000000E-03 0.  1.
         11   -1    0    0    0    0 -0.00000000000E+00 -0.00000000000E+00 -0.45593999997E+02  0.45594000000E+02  0.51100000000E-03 0. -1.
    9900012    2    1    2    0    0  0.27246681805E+02  0.29457270553E+02  0.16538164208E+02  0.47787270361E+02  0.19999996884E+02 0.  0.
        -12    1    1    2    0    0 -0.27246681805E+02 -0.29457270553E+02 -0.16538164208E+02  0.43400729639E+02  0.00000000000E+00 0.  1.
         11    1    3    3    0    0  0.27719893131E+00  0.81005619378E+01  0.47661628262E+00  0.81193045452E+01  0.51100000000E-03 0. -1.
        -11    1    3    3    0    0  0.16968480305E+02  0.11561999567E+02  0.15377164895E+02  0.25652804102E+02  0.51100000000E-03 0.  1.
        -12    1    3    3    0    0  0.10001002569E+02  0.97947090485E+01  0.68438303055E+00  0.14015161714E+02  0.00000000000E+00 0.  1.
</event>
<event>
 7    1  0.8300060E-011  0.4778729E+02  0.7816164E-02  0.1312668E+00
        -11   -1    0    0    0    0  0.00000000000E+00  0.00000000000E+00  0.45593999997E+02  0.45594000000E+02  0.51100000000E-03 0. -1.
         11   -1    0    0    0    0 -0.00000000000E+00 -0.00000000000E+00 -0.45593999997E+02  0.45594000000E+02  0.51100000000E-03 0.  1.
    9900012    2    1    2    0    0 -0.14839200364E+02  0.80623302903E+01 -0.39980224119E+02  0.47787293119E+02  0.20000100646E+02 0.  0.
         12    1    1    2    0    0  0.14839200364E+02 -0.80623302903E+01  0.39980224119E+02  0.43400706881E+02  0.00000000000E+00 0. -1.
         11    1    3    3    0    0 -0.34406311034E+01  0.60949106128E+01 -0.19455302409E+01  0.72643627351E+01  0.51100000000E-03 0. -1.
        -11    1    3    3    0    0 -0.79399725709E+01  0.43859935103E+01 -0.31185093870E+02  0.32477533518E+02  0.51100000000E-03 0.  1.
        -12    1    3    3    0    0 -0.34585966894E+01 -0.24185738327E+01 -0.68496000088E+01  0.80453968656E+01  0.00000000000E+00 0.  1.
</event>
<event>
 7    1  0.8300060E-011  0.4778727E+02  0.7816164E-02  0.1312668E+00
        -11   -1    0    0    0    0  0.00000000000E+00  0.00000000000E+00  0.45593999997E+02  0.45594000000E+02  0.51100000000E-03 0. -1.
         11   -1    0    0    0    0 -0.00000000000E+00 -0.00000000000E+00 -0.45593999997E+02  0.45594000000E+02  0.51100000000E-03 0.  1.
    9900012    2    1    2    0    0 -0.34014104054E+02  0.67410704020E+01 -0.26100229374E+02  0.47787270995E+02  0.19999999777E+02 0.  0.
         12    1    1    2    0    0  0.34014104054E+02 -0.67410704020E+01  0.26100229374E+02  0.43400729005E+02  0.00000000000E+00 0. -1.
         11    1    3    3    0    0 -0.96298525316E+01  0.12280245576E+01  0.10324623408E+01  0.97625858685E+01  0.51100000000E-03 0. -1.
        -11    1    3    3    0    0 -0.10892181391E+02 -0.11354386100E+01 -0.15651521653E+02  0.19102328827E+02  0.51100000000E-03 0.  1.
         12    1    3    3    0    0 -0.13492070131E+02  0.66484844544E+01 -0.11481170061E+02  0.18922356300E+02  0.00000000000E+00 0. -1.
</event>
<event>
 7    1  0.8300060E-011  0.4778727E+02  0.7816164E-02  0.1312668E+00
        -11   -1    0    0    0    0  0.00000000000E+00  0.00000000000E+00  0.45593999997E+02  0.45594000000E+02  0.51100000000E-03 0. -1.
         11   -1    0    0    0    0 -0.00000000000E+00 -0.00000000000E+00 -0.45593999997E+02  0.45594000000E+02  0.51100000000E-03 0.  1.
    9900012    2    1    2    0    0 -0.19636994652E+02 -0.32376298182E+02  0.21208184181E+02  0.47787270522E+02  0.19999997619E+02 0.  0.
        -12    1    1    2    0    0  0.19636994652E+02  0.32376298182E+02 -0.21208184181E+02  0.43400729478E+02  0.00000000000E+00 0.  1.
         11    1    3    3    0    0 -0.16632728670E+02 -0.15995343863E+02  0.12575939818E+02  0.26280276841E+02  0.51100000000E-03 0. -1.
        -11    1    3    3    0    0  0.27547308702E+01 -0.10083995481E+02  0.18706975054E+01  0.10619558204E+02  0.51100000000E-03 0.  1.
         12    1    3    3    0    0 -0.57589968519E+01 -0.62969588387E+01  0.67615468579E+01  0.10887435477E+02  0.00000000000E+00 0. -1.
</event>
<event>
 7    1  0.8300060E-011  0.4778727E+02  0.7816164E-02  0.1312668E+00
        -11   -1    0    0    0    0  0.00000000000E+00  0.00000000000E+00  0.45593999997E+02  0.45594000000E+02  0.51100000000E-03 0. -1.
         11   -1    0    0    0    0 -0.00000000000E+00 -0.00000000000E+00 -0.45593999997E+02  0.45594000000E+02  0.51100000000E-03 0.  1.
    9900012    2    1    2    0    0 -0.35302301278E+02  0.22486581157E+02 -0.11477122583E+02  0.47787272466E+02  0.20000006483E+02 0.  0.
         12    1    1    2    0    0  0.35302301278E+02 -0.22486581157E+02  0.11477122583E+02  0.43400727534E+02  0.00000000000E+00 0. -1.
         11    1    3    3    0    0 -0.49961987668E+00  0.86237979881E+00 -0.14013626186E+01  0.17196326319E+01  0.51100000000E-03 0. -1.
        -11    1    3    3    0    0 -0.34608650048E+01  0.29397264916E+01  0.48503421969E+01  0.66442003368E+01  0.51100000000E-03 0.  1.
        -12    1    3    3    0    0 -0.31341816396E+02  0.18684474867E+02 -0.14926102162E+02  0.39423439498E+02  0.00000000000E+00 0.  1.
</event>
<event>
 7    1  0.8300060E-011  0.4778727E+02  0.7816164E-02  0.1312668E+00
        -11   -1    0    0    0    0  0.00000000000E+00  0.00000000000E+00  0.45593999997E+02  0.45594000000E+02  0.51100000000E-03 0.  1.
         11   -1    0    0    0    0 -0.00000000000E+00 -0.00000000000E+00 -0.45593999997E+02  0.45594000000E+02  0.51100000000E-03 0. -1.
    9900012    2    1    2    0    0  0.34056519034E+02  0.72990737378E+01 -0.25894026790E+02  0.47787267408E+02  0.19999983420E+02 0.  0.
         12    1    1    2    0    0 -0.34056519034E+02 -0.72990737378E+01  0.25894026790E+02  0.43400732592E+02  0.00000000000E+00 0. -1.
         11    1    3    3    0    0  0.12877111814E+01  0.12962552063E+01 -0.93646983618E+01  0.95412815342E+01  0.51100000000E-03 0. -1.
        -11    1    3    3    0    0  0.18043634963E+02 -0.12269250961E+01 -0.86225505820E+01  0.20035630428E+02  0.51100000000E-03 0.  1.
         12    1    3    3    0    0  0.14725172890E+02  0.72297436275E+01 -0.79067778461E+01  0.18210355446E+02  0.00000000000E+00 0. -1.
</event>
<event>
 7    1  0.8300060E-011  0.4778728E+02  0.7816164E-02  0.1312668E+00
        -11   -1    0    0    0    0  0.00000000000E+00  0.00000000000E+00  0.45593999997E+02  0.45594000000E+02  0.51100000000E-03 0. -1.
         11   -1    0    0    0    0 -0.00000000000E+00 -0.00000000000E+00 -0.45593999997E+02  0.45594000000E+02  0.51100000000E-03 0.  1.
    9900012    2    1    2    0    0 -0.23261460156E+02 -0.23867390381E+02 -0.27800629237E+02  0.47787276064E+02  0.20000022887E+02 0.  0.
         12    1    1    2    0    0  0.23261460156E+02  0.23867390381E+02  0.27800629237E+02  0.43400723936E+02  0.00000000000E+00 0. -1.
         11    1    3    3    0    0 -0.11330186148E+02 -0.79343755808E+01 -0.25295253881E+01  0.14061505359E+02  0.51100000000E-03 0. -1.
        -11    1    3    3    0    0 -0.29891359251E+00 -0.17346235754E+01 -0.90833534100E+01  0.92523282322E+01  0.51100000000E-03 0.  1.
        -12    1    3    3    0    0 -0.11632360415E+02 -0.14198391225E+02 -0.16187750439E+02  0.24473442473E+02  0.00000000000E+00 0.  1.
</event>
<event>
 7    1  0.8300060E-011  0.4778726E+02  0.7816164E-02  0.1312668E+00
        -11   -1    0    0    0    0  0.00000000000E+00  0.00000000000E+00  0.45593999997E+02  0.45594000000E+02  0.51100000000E-03 0. -1.
         11   -1    0    0    0    0 -0.00000000000E+00 -0.00000000000E+00 -0.45593999997E+02  0.45594000000E+02  0.51100000000E-03 0.  1.
    9900012    2    1    2    0    0 -0.20541108745E+02  0.14101912024E+02  0.35536229082E+02  0.47787255207E+02  0.19999927792E+02 0.  0.
        -12    1    1    2    0    0  0.20541108745E+02 -0.14101912024E+02 -0.35536229082E+02  0.43400744793E+02  0.00000000000E+00 0.  1.
         11    1    3    3    0    0 -0.29885882087E+01 -0.35992023267E-01  0.94765838234E+01  0.99367296496E+01  0.51100000000E-03 0. -1.
        -11    1    3    3    0    0 -0.14569273043E+02  0.25969405692E+01  0.10043035980E+02  0.17884920723E+02  0.51100000000E-03 0.  1.
        -12    1    3    3    0    0 -0.29832474927E+01  0.11540963479E+02  0.16016609279E+02  0.19965604834E+02  0.00000000000E+00 0.  1.
</event>
<event>
 7    1  0.8300060E-011  0.4778729E+02  0.7816164E-02  0.1312668E+00
        -11   -1    0    0    0    0  0.00000000000E+00  0.00000000000E+00  0.45593999997E+02  0.45594000000E+02  0.51100000000E-03 0. -1.
         11   -1    0    0    0    0 -0.00000000000E+00 -0.00000000000E+00 -0.45593999997E+02  0.45594000000E+02  0.51100000000E-03 0.  1.
    9900012    2    1    2    0    0 -0.26091122846E+01  0.17119190714E+02  0.39796322048E+02  0.47787292561E+02  0.20000098103E+02 0.  0.
        -12    1    1    2    0    0  0.26091122846E+01 -0.17119190714E+02 -0.39796322048E+02  0.43400707439E+02  0.00000000000E+00 0.  1.
         11    1    3    3    0    0 -0.35878904731E+01  0.10362679797E+02  0.55331184163E+01  0.12283057041E+02  0.51100000000E-03 0.  1.
        -11    1    3    3    0    0 -0.12912843299E+01  0.62924232317E+01  0.29697380619E+02  0.30384147532E+02  0.51100000000E-03 0. -1.
         12    1    3    3    0    0  0.22700625184E+01  0.46408768545E+00  0.45658230128E+01  0.51200879877E+01  0.00000000000E+00 0. -1.
</event>
<event>
 7    1  0.8300060E-011  0.4778727E+02  0.7816164E-02  0.1312668E+00
        -11   -1    0    0    0    0  0.00000000000E+00  0.00000000000E+00  0.45593999997E+02  0.45594000000E+02  0.51100000000E-03 0. -1.
         11   -1    0    0    0    0 -0.00000000000E+00 -0.00000000000E+00 -0.45593999997E+02  0.45594000000E+02  0.51100000000E-03 0.  1.
    9900012    2    1    2    0    0 -0.12193313167E+02  0.17850736837E+02 -0.37633731522E+02  0.47787269132E+02  0.19999991279E+02 0.  0.
         12    1    1    2    0    0  0.12193313167E+02 -0.17850736837E+02  0.37633731522E+02  0.43400730868E+02  0.00000000000E+00 0. -1.
         11    1    3    3    0    0 -0.52089330082E+01  0.53247225519E+01 -0.24151022362E+02  0.25273652975E+02  0.51100000000E-03 0. -1.
        -11    1    3    3    0    0  0.63221135642E+00  0.91826755401E+01 -0.97121442483E+01  0.13380843301E+02  0.51100000000E-03 0.  1.
         12    1    3    3    0    0 -0.76165915155E+01  0.33433387448E+01 -0.37705649123E+01  0.91327728558E+01  0.00000000000E+00 0. -1.
</event>
<event>
 7    1  0.8300060E-011  0.4778727E+02  0.7816164E-02  0.1312668E+00
        -11   -1    0    0    0    0  0.00000000000E+00  0.00000000000E+00  0.45593999997E+02  0.45594000000E+02  0.51100000000E-03 0.  1.
         11   -1    0    0    0    0 -0.00000000000E+00 -0.00000000000E+00 -0.45593999997E+02  0.45594000000E+02  0.51100000000E-03 0. -1.
    9900012    2    1    2    0    0 -0.39938990371E+02  0.16949035771E+02 -0.11091964803E+01  0.47787273252E+02  0.20000010067E+02 0.  0.
        -12    1    1    2    0    0  0.39938990371E+02 -0.16949035771E+02  0.11091964803E+01  0.43400726748E+02  0.00000000000E+00 0.  1.
         11    1    3    3    0    0 -0.71006675570E+01  0.98294955765E+01 -0.24741101515E+01  0.12375770051E+02  0.51100000000E-03 0. -1.
        -11    1    3    3    0    0 -0.26736869907E+02  0.74248054176E+01  0.51533079662E+01  0.28223120507E+02  0.51100000000E-03 0.  1.
         12    1    3    3    0    0 -0.61014529068E+01 -0.30526522266E+00 -0.37883942950E+01  0.71883826947E+01  0.00000000000E+00 0. -1.
</event>
<event>
 7    1  0.8300060E-011  0.4778727E+02  0.7816164E-02  0.1312668E+00
        -11   -1    0    0    0    0  0.00000000000E+00  0.00000000000E+00  0.45593999997E+02  0.45594000000E+02  0.51100000000E-03 0. -1.
         11   -1    0    0    0    0 -0.00000000000E+00 -0.00000000000E+00 -0.45593999997E+02  0.45594000000E+02  0.51100000000E-03 0.  1.
    9900012    2    1    2    0    0  0.30491226848E+02  0.15055693134E+02  0.26967293250E+02  0.47787265955E+02  0.19999976794E+02 0.  0.
        -12    1    1    2    0    0 -0.30491226848E+02 -0.15055693134E+02 -0.26967293250E+02  0.43400734045E+02  0.00000000000E+00 0.  1.
         11    1    3    3    0    0  0.15778802584E+02  0.12198441315E+02  0.18871121606E+02  0.27457090386E+02  0.51100000000E-03 0. -1.
        -11    1    3    3    0    0  0.15981274793E+02  0.77485234370E+00  0.59146735880E+01  0.17058279634E+02  0.51100000000E-03 0.  1.
        -12    1    3    3    0    0 -0.12688505292E+01  0.20823994756E+01  0.21814980557E+01  0.32718959349E+01  0.00000000000E+00 0.  1.
</event>
<event>
 7    1  0.8300060E-011  0.4778727E+02  0.7816164E-02  0.1312668E+00
        -11   -1    0    0    0    0  0.00000000000E+00  0.00000000000E+00  0.45593999997E+02  0.45594000000E+02  0.51100000000E-03 0.  1.
         11   -1    0    0    0    0 -0.00000000000E+00 -0.00000000000E+00 -0.45593999997E+02  0.45594000000E+02  0.51100000000E-03 0. -1.
    9900012    2    1    2    0    0 -0.10106407882E+02 -0.39405797450E+02  0.15121728913E+02  0.47787273759E+02  0.20000012376E+02 0.  0.
         12    1    1    2    0    0  0.10106407882E+02  0.39405797450E+02 -0.15121728913E+02  0.43400726241E+02  0.00000000000E+00 0. -1.
         11    1    3    3    0    0  0.20415636410E+01 -0.28990721768E+02  0.11591620790E+02  0.31288905438E+02  0.51100000000E-03 0. -1.
        -11    1    3    3    0    0 -0.42225063569E+01 -0.27648645432E+01  0.17386863247E+01  0.53382643503E+01  0.51100000000E-03 0.  1.
         12    1    3    3    0    0 -0.79254651660E+01 -0.76502111392E+01  0.17914217984E+01  0.11160103970E+02  0.00000000000E+00 0. -1.
</event>
<event>
 7    1  0.8300060E-011  0.4778727E+02  0.7816164E-02  0.1312668E+00
        -11   -1    0    0    0    0  0.00000000000E+00  0.00000000000E+00  0.45593999997E+02  0.45594000000E+02  0.51100000000E-03 0. -1.
         11   -1    0    0    0    0 -0.00000000000E+00 -0.00000000000E+00 -0.45593999997E+02  0.45594000000E+02  0.51100000000E-03 0.  1.
    9900012    2    1    2    0    0 -0.26954742196E+02  0.13603011240E+02  0.31177288686E+02  0.47787269920E+02  0.19999994872E+02 0.  0.
        -12    1    1    2    0    0  0.26954742196E+02 -0.13603011240E+02 -0.31177288686E+02  0.43400730080E+02  0.00000000000E+00 0.  1.
         11    1    3    3    0    0 -0.10001014430E+02  0.79567839662E+00  0.19059645185E+02  0.21538882714E+02  0.51100000000E-03 0. -1.
        -11    1    3    3    0    0 -0.16984006036E+02  0.88022788999E+01  0.11097256053E+02  0.22115281302E+02  0.51100000000E-03 0.  1.
         12    1    3    3    0    0  0.30278270632E-01  0.40050539439E+01  0.10203874481E+01  0.41331059038E+01  0.00000000000E+00 0. -1.
</event>
<event>
 7    1  0.8300060E-011  0.4778728E+02  0.7816164E-02  0.1312668E+00
        -11   -1    0    0    0    0  0.00000000000E+00  0.00000000000E+00  0.45593999997E+02  0.45594000000E+02  0.51100000000E-03 0. -1.
         11   -1    0    0    0    0 -0.00000000000E+00 -0.00000000000E+00 -0.45593999997E+02  0.45594000000E+02  0.51100000000E-03 0.  1.
    9900012    2    1    2    0    0 -0.15042531575E+02 -0.14889209702E+02  0.37890059443E+02  0.47787275048E+02  0.20000018256E+02 0.  0.
        -12    1    1    2    0    0  0.15042531575E+02  0.14889209702E+02 -0.37890059443E+02  0.43400724952E+02  0.00000000000E+00 0.  1.
         11    1    3    3    0    0 -0.11619808474E+02 -0.63205335992E+01  0.95713113527E+01  0.16327250081E+02  0.51100000000E-03 0. -1.
        -11    1    3    3    0    0  0.32412719811E+01 -0.52183373602E+01  0.10907591188E+02  0.12518483720E+02  0.51100000000E-03 0.  1.
        -12    1    3    3    0    0 -0.66639950821E+01 -0.33503387423E+01  0.17411156902E+02  0.18941541247E+02  0.00000000000E+00 0.  1.
</event>
<event>
 7    1  0.8300060E-011  0.4778726E+02  0.7816164E-02  0.1312668E+00
        -11   -1    0    0    0    0  0.00000000000E+00  0.00000000000E+00  0.45593999997E+02  0.45594000000E+02  0.51100000000E-03 0. -1.
         11   -1    0    0    0    0 -0.00000000000E+00 -0.00000000000E+00 -0.45593999997E+02  0.45594000000E+02  0.51100000000E-03 0.  1.
    9900012    2    1    2    0    0 -0.64588444903E+01  0.12487556516E+02 -0.41060544714E+02  0.47787261848E+02  0.19999958071E+02 0.  0.
         12    1    1    2    0    0  0.64588444903E+01 -0.12487556516E+02  0.41060544714E+02  0.43400738152E+02  0.00000000000E+00 0. -1.
         11    1    3    3    0    0 -0.25932689536E+01  0.54644621834E+00  0.12540033051E+01  0.29319228990E+01  0.51100000000E-03 0. -1.
        -11    1    3    3    0    0 -0.44471298810E+01  0.99269833224E+01 -0.40911180380E+02  0.42332571885E+02  0.51100000000E-03 0.  1.
        -12    1    3    3    0    0  0.58155434420E+00  0.20141269757E+01 -0.14033676395E+01  0.25227670644E+01  0.00000000000E+00 0.  1.
</event>
<event>
 7    1  0.8300060E-011  0.4778727E+02  0.7816164E-02  0.1312668E+00
        -11   -1    0    0    0    0  0.00000000000E+00  0.00000000000E+00  0.45593999997E+02  0.45594000000E+02  0.51100000000E-03 0. -1.
         11   -1    0    0    0    0 -0.00000000000E+00 -0.00000000000E+00 -0.45593999997E+02  0.45594000000E+02  0.51100000000E-03 0.  1.
    9900012    2    1    2    0    0 -0.96113907789E+01 -0.53118039142E+01 -0.41988438984E+02  0.47787273027E+02  0.20000009038E+02 0.  0.
         12    1    1    2    0    0  0.96113907789E+01  0.53118039142E+01  0.41988438984E+02  0.43400726973E+02  0.00000000000E+00 0. -1.
         11    1    3    3    0    0 -0.11135718983E+02 -0.34487847379E+01 -0.12033496452E+02  0.16754205161E+02  0.51100000000E-03 0. -1.
        -11    1    3    3    0    0 -0.26904158947E+01  0.95800409007E+00 -0.78383804688E+01  0.83424407794E+01  0.51100000000E-03 0.  1.
         12    1    3    3    0    0  0.42147440993E+01 -0.28210232664E+01 -0.22116562063E+02  0.22690627087E+02  0.00000000000E+00 0. -1.
</event>
<event>
 7    1  0.8300060E-011  0.4778727E+02  0.7816164E-02  0.1312668E+00
        -11   -1    0    0    0    0  0.00000000000E+00  0.00000000000E+00  0.45593999997E+02  0.45594000000E+02  0.51100000000E-03 0. -1.
         11   -1    0    0    0    0 -0.00000000000E+00 -0.00000000000E+00 -0.45593999997E+02  0.45594000000E+02  0.51100000000E-03 0.  1.
    9900012    2    1    2    0    0  0.50108464442E+01 -0.30503935369E+02  0.30463497328E+02  0.47787270461E+02  0.19999997339E+02 0.  0.
        -12    1    1    2    0    0 -0.50108464442E+01  0.30503935369E+02 -0.30463497328E+02  0.43400729539E+02  0.00000000000E+00 0.  1.
         11    1    3    3    0    0  0.43630643914E+01 -0.24225286397E+02  0.29363902814E+02  0.38316310112E+02  0.51100000000E-03 0. -1.
        -11    1    3    3    0    0 -0.58007988897E+00 -0.16915542057E+01  0.36618728630E+01  0.40751885152E+01  0.51100000000E-03 0.  1.
         12    1    3    3    0    0  0.12278619418E+01 -0.45870947663E+01 -0.25622783486E+01  0.53957718334E+01  0.00000000000E+00 0. -1.
</event>
<event>
 7    1  0.8300060E-011  0.4778730E+02  0.7816164E-02  0.1312668E+00
        -11   -1    0    0    0    0  0.00000000000E+00  0.00000000000E+00  0.45593999997E+02  0.45594000000E+02  0.51100000000E-03 0. -1.
         11   -1    0    0    0    0 -0.00000000000E+00 -0.00000000000E+00 -0.45593999997E+02  0.45594000000E+02  0.51100000000E-03 0.  1.
    9900012    2    1    2    0    0  0.11610132498E+02 -0.75367850768E+01  0.41134195627E+02  0.47787304662E+02  0.20000153277E+02 0.  0.
        -12    1    1    2    0    0 -0.11610132498E+02  0.75367850768E+01 -0.41134195627E+02  0.43400695338E+02  0.00000000000E+00 0.  1.
         11    1    3    3    0    0  0.13836877509E+02 -0.12402331530E+02  0.29161177272E+02  0.34578190622E+02  0.51100000000E-03 0. -1.
        -11    1    3    3    0    0 -0.58683764585E+00  0.30628471900E+01  0.61119841987E+01  0.68616151479E+01  0.51100000000E-03 0.  1.
         12    1    3    3    0    0 -0.16399073653E+01  0.18026992631E+01  0.58610341567E+01  0.63474988922E+01  0.00000000000E+00 0. -1.
</event>
<event>
 7    1  0.8300060E-011  0.4778727E+02  0.7816164E-02  0.1312668E+00
        -11   -1    0    0    0    0  0.00000000000E+00  0.00000000000E+00  0.45593999997E+02  0.45594000000E+02  0.51100000000E-03 0. -1.
         11   -1    0    0    0    0 -0.00000000000E+00 -0.00000000000E+00 -0.45593999997E+02  0.45594000000E+02  0.51100000000E-03 0.  1.
    9900012    2    1    2    0    0 -0.16369908154E+02 -0.10423818244E+02  0.38820010603E+02  0.47787273013E+02  0.20000008976E+02 0.  0.
        -12    1    1    2    0    0  0.16369908154E+02  0.10423818244E+02 -0.38820010603E+02  0.43400726987E+02  0.00000000000E+00 0.  1.
         11    1    3    3    0    0 -0.97461068718E+01 -0.84004356815E+01  0.11342658269E+02  0.17152545458E+02  0.51100000000E-03 0. -1.
        -11    1    3    3    0    0  0.24002524520E+01  0.15175030344E+01  0.12316656361E+02  0.12639780515E+02  0.51100000000E-03 0.  1.
        -12    1    3    3    0    0 -0.90240537340E+01 -0.35408855973E+01  0.15160695973E+02  0.17994947041E+02  0.00000000000E+00 0.  1.
</event>
<event>
 7    1  0.8300060E-011  0.4778727E+02  0.7816164E-02  0.1312668E+00
        -11   -1    0    0    0    0  0.00000000000E+00  0.00000000000E+00  0.45593999997E+02  0.45594000000E+02  0.51100000000E-03 0. -1.
         11   -1    0    0    0    0 -0.00000000000E+00 -0.00000000000E+00 -0.45593999997E+02  0.45594000000E+02  0.51100000000E-03 0.  1.
    9900012    2    1    2    0    0 -0.26784484111E+02 -0.17013309517E+02 -0.29610165070E+02  0.47787272296E+02  0.20000005706E+02 0.  0.
         12    1    1    2    0    0  0.26784484111E+02  0.17013309517E+02  0.29610165070E+02  0.43400727704E+02  0.00000000000E+00 0. -1.
         11    1    3    3    0    0 -0.17058181365E+02 -0.23571709258E+01 -0.13846663505E+02  0.22096784760E+02  0.51100000000E-03 0. -1.
        -11    1    3    3    0    0 -0.44512798953E+01 -0.12091671925E+02 -0.15002166479E+02  0.19775930370E+02  0.51100000000E-03 0.  1.
        -12    1    3    3    0    0 -0.52750228507E+01 -0.25644666660E+01 -0.76133508465E+00  0.59145571658E+01  0.00000000000E+00 0.  1.
</event>
<event>
 7    1  0.8300060E-011  0.4778727E+02  0.7816164E-02  0.1312668E+00
        -11   -1    0    0    0    0  0.00000000000E+00  0.00000000000E+00  0.45593999997E+02  0.45594000000E+02  0.51100000000E-03 0. -1.
         11   -1    0    0    0    0 -0.00000000000E+00 -0.00000000000E+00 -0.45593999997E+02  0.45594000000E+02  0.51100000000E-03 0.  1.
    9900012    2    1    2    0    0  0.21456191663E+02  0.87502005964E+01  0.36697261454E+02  0.47787272248E+02  0.20000005490E+02 0.  0.
        -12    1    1    2    0    0 -0.21456191663E+02 -0.87502005964E+01 -0.36697261454E+02  0.43400727752E+02  0.00000000000E+00 0.  1.
         11    1    3    3    0    0  0.14276810800E+01 -0.33228849198E-01  0.45731280011E+01  0.47909161334E+01  0.51100000000E-03 0. -1.
        -11    1    3    3    0    0  0.17304398990E+02  0.59336054127E+01  0.34016398219E+02  0.38623376932E+02  0.51100000000E-03 0.  1.
        -12    1    3    3    0    0  0.27241115928E+01  0.28498240329E+01 -0.18922647660E+01  0.43729791828E+01  0.00000000000E+00 0.  1.
</event>
<event>
 7    1  0.8300060E-011  0.4778727E+02  0.7816164E-02  0.1312668E+00
        -11   -1    0    0    0    0  0.00000000000E+00  0.00000000000E+00  0.45593999997E+02  0.45594000000E+02  0.51100000000E-03 0.  1.
         11   -1    0    0    0    0 -0.00000000000E+00 -0.00000000000E+00 -0.45593999997E+02  0.45594000000E+02  0.51100000000E-03 0. -1.
    9900012    2    1    2    0    0  0.29875035009E+02 -0.28025602376E+02 -0.14341234500E+02  0.47787272906E+02  0.20000008487E+02 0.  0.
         12    1    1    2    0    0 -0.29875035009E+02  0.28025602376E+02  0.14341234500E+02  0.43400727094E+02  0.00000000000E+00 0. -1.
         11    1    3    3    0    0  0.44785385561E+01 -0.71982511771E+01  0.29316701158E+01  0.89703298454E+01  0.51100000000E-03 0. -1.
        -11    1    3    3    0    0  0.15138515494E+02 -0.13568022306E+02 -0.16576922444E+02  0.26230902360E+02  0.51100000000E-03 0.  1.
        -12    1    3    3    0    0  0.10257980959E+02 -0.72593288932E+01 -0.69598217179E+00  0.12586040701E+02  0.00000000000E+00 0.  1.
</event>
<event>
 7    1  0.8300060E-011  0.4778727E+02  0.7816164E-02  0.1312668E+00
        -11   -1    0    0    0    0  0.00000000000E+00  0.00000000000E+00  0.45593999997E+02  0.45594000000E+02  0.51100000000E-03 0. -1.
         11   -1    0    0    0    0 -0.00000000000E+00 -0.00000000000E+00 -0.45593999997E+02  0.45594000000E+02  0.51100000000E-03 0.  1.
    9900012    2    1    2    0    0 -0.13584250929E+02  0.39444293841E+01  0.41030874093E+02  0.47787273908E+02  0.20000013057E+02 0.  0.
        -12    1    1    2    0    0  0.13584250929E+02 -0.39444293841E+01 -0.41030874093E+02  0.43400726092E+02  0.00000000000E+00 0.  1.
         11    1    3    3    0    0 -0.13923518052E+02  0.36455802801E+01  0.14167478862E+02  0.20195842842E+02  0.51100000000E-03 0. -1.
        -11    1    3    3    0    0  0.12246970312E+01  0.22776469756E+01  0.23131207296E+02  0.23275315461E+02  0.51100000000E-03 0.  1.
        -12    1    3    3    0    0 -0.88542990805E+00 -0.19787978716E+01  0.37321879350E+01  0.43161156056E+01  0.00000000000E+00 0.  1.
</event>
<event>
 7    1  0.8300060E-011  0.4778727E+02  0.7816164E-02  0.1312668E+00
        -11   -1    0    0    0    0  0.00000000000E+00  0.00000000000E+00  0.45593999997E+02  0.45594000000E+02  0.51100000000E-03 0.  1.
         11   -1    0    0    0    0 -0.00000000000E+00 -0.00000000000E+00 -0.45593999997E+02  0.45594000000E+02  0.51100000000E-03 0. -1.
    9900012    2    1    2    0    0  0.41447689368E+02  0.12307080216E+02  0.37746549689E+01  0.47787271924E+02  0.20000004010E+02 0.  0.
        -12    1    1    2    0    0 -0.41447689368E+02 -0.12307080216E+02 -0.37746549689E+01  0.43400728076E+02  0.00000000000E+00 0.  1.
         11    1    3    3    0    0  0.14752938184E+02  0.10571511360E+02 -0.13717852229E+01  0.18201314031E+02  0.51100000000E-03 0. -1.
        -11    1    3    3    0    0  0.10247436228E+02 -0.27585720723E+01  0.65617933009E+01  0.12477050962E+02  0.51100000000E-03 0.  1.
        -12    1    3    3    0    0  0.16447314956E+02  0.44941409289E+01 -0.14153531091E+01  0.17108906931E+02  0.00000000000E+00 0.  1.
</event>
<event>
 7    1  0.8300060E-011  0.4778727E+02  0.7816164E-02  0.1312668E+00
        -11   -1    0    0    0    0  0.00000000000E+00  0.00000000000E+00  0.45593999997E+02  0.45594000000E+02  0.51100000000E-03 0. -1.
         11   -1    0    0    0    0 -0.00000000000E+00 -0.00000000000E+00 -0.45593999997E+02  0.45594000000E+02  0.51100000000E-03 0.  1.
    9900012    2    1    2    0    0 -0.31302561718E+01 -0.38485840755E+02  0.19815767137E+02  0.47787273399E+02  0.20000010734E+02 0.  0.
        -12    1    1    2    0    0  0.31302561718E+01  0.38485840755E+02 -0.19815767137E+02  0.43400726601E+02  0.00000000000E+00 0.  1.
         11    1    3    3    0    0 -0.27294021357E+01 -0.26373198566E+02  0.15397486502E+02  0.30660688665E+02  0.51100000000E-03 0. -1.
        -11    1    3    3    0    0 -0.33905269228E+01  0.10828945401E+00  0.28831616490E+01  0.44519681913E+01  0.51100000000E-03 0.  1.
         12    1    3    3    0    0  0.29896728867E+01 -0.12220931643E+02  0.15351189862E+01  0.12674616542E+02  0.00000000000E+00 0. -1.
</event>
<event>
 7    1  0.8300060E-011  0.4778727E+02  0.7816164E-02  0.1312668E+00
        -11   -1    0    0    0    0  0.00000000000E+00  0.00000000000E+00  0.45593999997E+02  0.45594000000E+02  0.51100000000E-03 0. -1.
         11   -1    0    0    0    0 -0.00000000000E+00 -0.00000000000E+00 -0.45593999997E+02  0.45594000000E+02  0.51100000000E-03 0.  1.
    9900012    2    1    2    0    0 -0.51332957434E+01 -0.50119735413E+01  0.42803653800E+02  0.47787269792E+02  0.19999994290E+02 0.  0.
        -12    1    1    2    0    0  0.51332957434E+01  0.50119735413E+01 -0.42803653800E+02  0.43400730208E+02  0.00000000000E+00 0.  1.
         11    1    3    3    0    0 -0.26036406413E+01  0.10296584966E+01  0.15598038022E+02  0.15847332003E+02  0.51100000000E-03 0. -1.
        -11    1    3    3    0    0 -0.21688665970E+01 -0.42002456369E+01  0.28976669180E+02  0.29359724160E+02  0.51100000000E-03 0.  1.
        -12    1    3    3    0    0 -0.36078850511E+00 -0.18413864009E+01 -0.17710534019E+01  0.25802136298E+01  0.00000000000E+00 0.  1.
</event>
<event>
 7    1  0.8300060E-011  0.4778721E+02  0.7816164E-02  0.1312668E+00
        -11   -1    0    0    0    0  0.00000000000E+00  0.00000000000E+00  0.45593999997E+02  0.45594000000E+02  0.51100000000E-03 0. -1.
         11   -1    0    0    0    0 -0.00000000000E+00 -0.00000000000E+00 -0.45593999997E+02  0.45594000000E+02  0.51100000000E-03 0.  1.
    9900012    2    1    2    0    0 -0.19744281299E+02  0.10985760783E+02 -0.37055432312E+02  0.47787209134E+02  0.19999717722E+02 0.  0.
         12    1    1    2    0    0  0.19744281299E+02 -0.10985760783E+02  0.37055432312E+02  0.43400790866E+02  0.00000000000E+00 0. -1.
         11    1    3    3    0    0 -0.26647353705E+01 -0.32812125079E+01 -0.34406995016E+01  0.54502828769E+01  0.51100000000E-03 0. -1.
        -11    1    3    3    0    0 -0.17624994340E+02  0.84644432421E+01 -0.28621538603E+02  0.34662367160E+02  0.51100000000E-03 0.  1.
        -12    1    3    3    0    0  0.54544841143E+00  0.58025300483E+01 -0.49931942073E+01  0.76745590963E+01  0.00000000000E+00 0.  1.
</event>
<event>
 7    1  0.8300060E-011  0.4778728E+02  0.7816164E-02  0.1312668E+00
        -11   -1    0    0    0    0  0.00000000000E+00  0.00000000000E+00  0.45593999997E+02  0.45594000000E+02  0.51100000000E-03 0. -1.
         11   -1    0    0    0    0 -0.00000000000E+00 -0.00000000000E+00 -0.45593999997E+02  0.45594000000E+02  0.51100000000E-03 0.  1.
    9900012    2    1    2    0    0 -0.36204025975E+02 -0.37686394353E+01  0.23636596943E+02  0.47787275870E+02  0.20000022001E+02 0.  0.
        -12    1    1    2    0    0  0.36204025975E+02  0.37686394353E+01 -0.23636596943E+02  0.43400724130E+02  0.00000000000E+00 0.  1.
         11    1    3    3    0    0 -0.18527040438E+02 -0.47318972381E+01  0.11307537588E+02  0.22214915833E+02  0.51100000000E-03 0. -1.
        -11    1    3    3    0    0 -0.15644543402E+02  0.48521456116E+01  0.13274915577E+02  0.21083605933E+02  0.51100000000E-03 0.  1.
        -12    1    3    3    0    0 -0.20324421344E+01 -0.38888878088E+01 -0.94585622208E+00  0.44887541046E+01  0.00000000000E+00 0.  1.
</event>
<event>
 7    1  0.8300060E-011  0.4778727E+02  0.7816164E-02  0.1312668E+00
        -11   -1    0    0    0    0  0.00000000000E+00  0.00000000000E+00  0.45593999997E+02  0.45594000000E+02  0.51100000000E-03 0.  1.
         11   -1    0    0    0    0 -0.00000000000E+00 -0.00000000000E+00 -0.45593999997E+02  0.45594000000E+02  0.51100000000E-03 0. -1.
    9900012    2    1    2    0    0 -0.11606229989E+02 -0.38910639325E+02  0.15325822857E+02  0.47787271049E+02  0.20000000020E+02 0.  0.
        -12    1    1    2    0    0  0.11606229989E+02  0.38910639325E+02 -0.15325822857E+02  0.43400728951E+02  0.00000000000E+00 0.  1.
         11    1    3    3    0    0 -0.36303570911E+01 -0.24527748997E+01 -0.31429548776E+01  0.53920091748E+01  0.51100000000E-03 0.  1.
        -11    1    3    3    0    0 -0.70305408269E+01 -0.28072826792E+02  0.10490417209E+02  0.30782478164E+02  0.51100000000E-03 0. -1.
         12    1    3    3    0    0 -0.94533207126E+00 -0.83850376335E+01  0.79783605251E+01  0.11612783711E+02  0.00000000000E+00 0. -1.
</event>
<event>
 7    1  0.8300060E-011  0.4778727E+02  0.7816164E-02  0.1312668E+00
        -11   -1    0    0    0    0  0.00000000000E+00  0.00000000000E+00  0.45593999997E+02  0.45594000000E+02  0.51100000000E-03 0. -1.
         11   -1    0    0    0    0 -0.00000000000E+00 -0.00000000000E+00 -0.45593999997E+02  0.45594000000E+02  0.51100000000E-03 0.  1.
    9900012    2    1    2    0    0  0.20980133438E+02 -0.12702730837E+02  0.35806393849E+02  0.47787271777E+02  0.20000003341E+02 0.  0.
        -12    1    1    2    0    0 -0.20980133438E+02  0.12702730837E+02 -0.35806393849E+02  0.43400728223E+02  0.00000000000E+00 0.  1.
         11    1    3    3    0    0  0.16418728400E+01 -0.14000493334E+01 -0.45947652729E+00  0.22061286225E+01  0.51100000000E-03 0. -1.
        -11    1    3    3    0    0  0.10480738267E+02 -0.14745793303E+02  0.22989338735E+02  0.29253956834E+02  0.51100000000E-03 0.  1.
        -12    1    3    3    0    0  0.88575223313E+01  0.34431117991E+01  0.13276531642E+02  0.16327186320E+02  0.00000000000E+00 0.  1.
</event>
<event>
 7    1  0.8300060E-011  0.4778727E+02  0.7816164E-02  0.1312668E+00
        -11   -1    0    0    0    0  0.00000000000E+00  0.00000000000E+00  0.45593999997E+02  0.45594000000E+02  0.51100000000E-03 0.  1.
         11   -1    0    0    0    0 -0.00000000000E+00 -0.00000000000E+00 -0.45593999997E+02  0.45594000000E+02  0.51100000000E-03 0. -1.
    9900012    2    1    2    0    0 -0.26744223627E+02 -0.31028903422E+02 -0.14337947998E+02  0.47787273073E+02  0.20000009251E+02 0.  0.
        -12    1    1    2    0    0  0.26744223627E+02  0.31028903422E+02  0.14337947998E+02  0.43400726927E+02  0.00000000000E+00 0.  1.
         11    1    3    3    0    0 -0.80806621774E+01 -0.10636760261E+02 -0.64502211062E+01  0.14833850567E+02  0.51100000000E-03 0. -1.
        -11    1    3    3    0    0 -0.16321116313E+02 -0.19652815440E+02 -0.11952460946E+02  0.28204136494E+02  0.51100000000E-03 0.  1.
        -12    1    3    3    0    0 -0.23424451361E+01 -0.73932772054E+00  0.40647340542E+01  0.47492860121E+01  0.00000000000E+00 0.  1.
</event>
<event>
 7    1  0.8300060E-011  0.4778727E+02  0.7816164E-02  0.1312668E+00
        -11   -1    0    0    0    0  0.00000000000E+00  0.00000000000E+00  0.45593999997E+02  0.45594000000E+02  0.51100000000E-03 0. -1.
         11   -1    0    0    0    0 -0.00000000000E+00 -0.00000000000E+00 -0.45593999997E+02  0.45594000000E+02  0.51100000000E-03 0.  1.
    9900012    2    1    2    0    0 -0.18467006828E+02 -0.37927134966E+01 -0.39092304297E+02  0.47787271065E+02  0.20000000096E+02 0.  0.
         12    1    1    2    0    0  0.18467006828E+02  0.37927134966E+01  0.39092304297E+02  0.43400728935E+02  0.00000000000E+00 0. -1.
         11    1    3    3    0    0  0.28230441919E+00 -0.54256746704E+01 -0.78513522141E+01  0.95478465250E+01  0.51100000000E-03 0. -1.
        -11    1    3    3    0    0 -0.19046376433E+02  0.40732737100E+01 -0.28857281837E+02  0.34815208304E+02  0.51100000000E-03 0.  1.
        -12    1    3    3    0    0  0.29706518567E+00 -0.24403125362E+01 -0.23836702451E+01  0.34242162368E+01  0.00000000000E+00 0.  1.
</event>
<event>
 7    1  0.8300060E-011  0.4778727E+02  0.7816164E-02  0.1312668E+00
        -11   -1    0    0    0    0  0.00000000000E+00  0.00000000000E+00  0.45593999997E+02  0.45594000000E+02  0.51100000000E-03 0.  1.
         11   -1    0    0    0    0 -0.00000000000E+00 -0.00000000000E+00 -0.45593999997E+02  0.45594000000E+02  0.51100000000E-03 0. -1.
    9900012    2    1    2    0    0  0.37685202558E+02  0.17679261193E+02  0.12283830280E+02  0.47787271268E+02  0.20000001018E+02 0.  0.
        -12    1    1    2    0    0 -0.37685202558E+02 -0.17679261193E+02 -0.12283830280E+02  0.43400728732E+02  0.00000000000E+00 0.  1.
         11    1    3    3    0    0  0.16971169688E+02  0.51703888037E+01  0.15863289920E+01  0.17812073459E+02  0.51100000000E-03 0. -1.
        -11    1    3    3    0    0  0.21477942877E+02  0.13786814554E+02  0.11804571808E+02  0.28119854225E+02  0.51100000000E-03 0.  1.
        -12    1    3    3    0    0 -0.76391000738E+00 -0.12779421654E+01 -0.11070705205E+01  0.18553435841E+01  0.00000000000E+00 0.  1.
</event>
<event>
 7    1  0.8300060E-011  0.4778727E+02  0.7816164E-02  0.1312668E+00
        -11   -1    0    0    0    0  0.00000000000E+00  0.00000000000E+00  0.45593999997E+02  0.45594000000E+02  0.51100000000E-03 0.  1.
         11   -1    0    0    0    0 -0.00000000000E+00 -0.00000000000E+00 -0.45593999997E+02  0.45594000000E+02  0.51100000000E-03 0. -1.
    9900012    2    1    2    0    0 -0.59610819535E+01  0.36754637654E+02  0.22297662740E+02  0.47787266701E+02  0.19999980199E+02 0.  0.
        -12    1    1    2    0    0  0.59610819535E+01 -0.36754637654E+02 -0.22297662740E+02  0.43400733299E+02  0.00000000000E+00 0.  1.
         11    1    3    3    0    0 -0.70040638578E+01  0.35344941154E+02  0.14407150316E+02  0.38805769625E+02  0.51100000000E-03 0. -1.
        -11    1    3    3    0    0 -0.43267357005E-02  0.22470150894E+01  0.70488831088E+01  0.73983679873E+01  0.51100000000E-03 0.  1.
         12    1    3    3    0    0  0.10473086400E+01 -0.83731858917E+00  0.84162931593E+00  0.15831290891E+01  0.00000000000E+00 0. -1.
</event>
<event>
 7    1  0.8300060E-011  0.4778727E+02  0.7816164E-02  0.1312668E+00
        -11   -1    0    0    0    0  0.00000000000E+00  0.00000000000E+00  0.45593999997E+02  0.45594000000E+02  0.51100000000E-03 0.  1.
         11   -1    0    0    0    0 -0.00000000000E+00 -0.00000000000E+00 -0.45593999997E+02  0.45594000000E+02  0.51100000000E-03 0. -1.
    9900012    2    1    2    0    0  0.37316516158E+02  0.20232909369E+02  0.90404843239E+01  0.47787270092E+02  0.19999995659E+02 0.  0.
        -12    1    1    2    0    0 -0.37316516158E+02 -0.20232909369E+02 -0.90404843239E+01  0.43400729908E+02  0.00000000000E+00 0.  1.
         11    1    3    3    0    0  0.19764726623E+02  0.17387660490E+02  0.56000142033E-01  0.26324480851E+02  0.51100000000E-03 0. -1.
        -11    1    3    3    0    0  0.17121562063E+02  0.37914951055E+01  0.98472003977E+01  0.20111953623E+02  0.51100000000E-03 0.  1.
         12    1    3    3    0    0  0.43022747175E+00 -0.94624622623E+00 -0.86271621579E+00  0.13508356181E+01  0.00000000000E+00 0. -1.
</event>
<event>
 7    1  0.8300060E-011  0.4778727E+02  0.7816164E-02  0.1312668E+00
        -11   -1    0    0    0    0  0.00000000000E+00  0.00000000000E+00  0.45593999997E+02  0.45594000000E+02  0.51100000000E-03 0. -1.
         11   -1    0    0    0    0 -0.00000000000E+00 -0.00000000000E+00 -0.45593999997E+02  0.45594000000E+02  0.51100000000E-03 0.  1.
    9900012    2    1    2    0    0 -0.10534750481E+02 -0.20343951434E+02  0.36861446756E+02  0.47787267465E+02  0.19999983680E+02 0.  0.
        -12    1    1    2    0    0  0.10534750481E+02  0.20343951434E+02 -0.36861446756E+02  0.43400732535E+02  0.00000000000E+00 0.  1.
         11    1    3    3    0    0 -0.37540368058E+01 -0.17623274960E+02  0.35966234100E+02  0.40227386296E+02  0.51100000000E-03 0. -1.
        -11    1    3    3    0    0 -0.30888245264E+01 -0.44533832827E+00  0.80192733976E+00  0.32221500432E+01  0.51100000000E-03 0.  1.
         12    1    3    3    0    0 -0.36918891492E+01 -0.22753381455E+01  0.93285316200E-01  0.43377311254E+01  0.00000000000E+00 0. -1.
</event>
<event>
 7    1  0.8300060E-011  0.4778727E+02  0.7816164E-02  0.1312668E+00
        -11   -1    0    0    0    0  0.00000000000E+00  0.00000000000E+00  0.45593999997E+02  0.45594000000E+02  0.51100000000E-03 0. -1.
         11   -1    0    0    0    0 -0.00000000000E+00 -0.00000000000E+00 -0.45593999997E+02  0.45594000000E+02  0.51100000000E-03 0.  1.
    9900012    2    1    2    0    0 -0.47091537463E+00 -0.19577212362E+02  0.38731566957E+02  0.47787270927E+02  0.19999999463E+02 0.  0.
        -12    1    1    2    0    0  0.47091537463E+00  0.19577212362E+02 -0.38731566957E+02  0.43400729073E+02  0.00000000000E+00 0.  1.
         11    1    3    3    0    0 -0.74852489207E+01 -0.87910752994E+01  0.27116696671E+02  0.29472481995E+02  0.51100000000E-03 0. -1.
        -11    1    3    3    0    0  0.39756188043E+01 -0.10337234286E+02  0.94183901949E+01  0.14538570483E+02  0.51100000000E-03 0.  1.
         12    1    3    3    0    0  0.30387147418E+01 -0.44890277681E+00  0.21964800911E+01  0.37762184491E+01  0.00000000000E+00 0. -1.
</event>
<event>
 7    1  0.8300060E-011  0.4778727E+02  0.7816164E-02  0.1312668E+00
        -11   -1    0    0    0    0  0.00000000000E+00  0.00000000000E+00  0.45593999997E+02  0.45594000000E+02  0.51100000000E-03 0. -1.
         11   -1    0    0    0    0 -0.00000000000E+00 -0.00000000000E+00 -0.45593999997E+02  0.45594000000E+02  0.51100000000E-03 0.  1.
    9900012    2    1    2    0    0 -0.25515144410E+02 -0.23900737055E+02 -0.25716837019E+02  0.47787268067E+02  0.19999986424E+02 0.  0.
         12    1    1    2    0    0  0.25515144410E+02  0.23900737055E+02  0.25716837019E+02  0.43400731933E+02  0.00000000000E+00 0. -1.
         11    1    3    3    0    0  0.64596849139E+00  0.24009327057E+01 -0.66818701790E+00  0.25745343853E+01  0.51100000000E-03 0. -1.
        -11    1    3    3    0    0 -0.13804844622E+02 -0.11669004345E+02 -0.15504805800E+02  0.23814667762E+02  0.51100000000E-03 0.  1.
         12    1    3    3    0    0 -0.12356268280E+02 -0.14632665416E+02 -0.95438442011E+01  0.21398065920E+02  0.00000000000E+00 0. -1.
</event>
<event>
 7    1  0.8300060E-011  0.4778727E+02  0.7816164E-02  0.1312668E+00
        -11   -1    0    0    0    0  0.00000000000E+00  0.00000000000E+00  0.45593999997E+02  0.45594000000E+02  0.51100000000E-03 0. -1.
         11   -1    0    0    0    0 -0.00000000000E+00 -0.00000000000E+00 -0.45593999997E+02  0.45594000000E+02  0.51100000000E-03 0.  1.
    9900012    2    1    2    0    0 -0.63792967391E+01  0.90854758503E+01  0.41956908565E+02  0.47787268732E+02  0.19999989455E+02 0.  0.
        -12    1    1    2    0    0  0.63792967391E+01 -0.90854758503E+01 -0.41956908565E+02  0.43400731268E+02  0.00000000000E+00 0.  1.
         11    1    3    3    0    0 -0.65920638717E+01  0.47012615286E+01  0.19329246299E+02  0.20956548590E+02  0.51100000000E-03 0. -1.
        -11    1    3    3    0    0  0.31814860412E+01 -0.42120431599E+01  0.73084034228E+01  0.90153159603E+01  0.51100000000E-03 0.  1.
        -12    1    3    3    0    0 -0.29687189085E+01  0.85962574816E+01  0.15319258843E+02  0.17815404181E+02  0.00000000000E+00 0.  1.
</event>
<event>
 7    1  0.8300060E-011  0.4778728E+02  0.7816164E-02  0.1312668E+00
        -11   -1    0    0    0    0  0.00000000000E+00  0.00000000000E+00  0.45593999997E+02  0.45594000000E+02  0.51100000000E-03 0. -1.
         11   -1    0    0    0    0 -0.00000000000E+00 -0.00000000000E+00 -0.45593999997E+02  0.45594000000E+02  0.51100000000E-03 0.  1.
    9900012    2    1    2    0    0 -0.22631808701E+02  0.63081859596E+01  0.36491516797E+02  0.47787276811E+02  0.20000026291E+02 0.  0.
        -12    1    1    2    0    0  0.22631808701E+02 -0.63081859596E+01 -0.36491516797E+02  0.43400723189E+02  0.00000000000E+00 0.  1.
         11    1    3    3    0    0 -0.10811814258E+02  0.10084831208E+02  0.21132876584E+02  0.25791425339E+02  0.51100000000E-03 0. -1.
        -11    1    3    3    0    0 -0.31049137336E+01 -0.55141562832E+01  0.92679660766E+01  0.11222370706E+02  0.51100000000E-03 0.  1.
        -12    1    3    3    0    0 -0.87150807094E+01  0.17375110350E+01  0.60906741367E+01  0.10773480766E+02  0.00000000000E+00 0.  1.
</event>
<event>
 7    1  0.8300060E-011  0.4778727E+02  0.7816164E-02  0.1312668E+00
        -11   -1    0    0    0    0  0.00000000000E+00  0.00000000000E+00  0.45593999997E+02  0.45594000000E+02  0.51100000000E-03 0. -1.
         11   -1    0    0    0    0 -0.00000000000E+00 -0.00000000000E+00 -0.45593999997E+02  0.45594000000E+02  0.51100000000E-03 0.  1.
    9900012    2    1    2    0    0 -0.79196754706E+00 -0.36017030616E+02 -0.24202682099E+02  0.47787268119E+02  0.19999986662E+02 0.  0.
         12    1    1    2    0    0  0.79196754706E+00  0.36017030616E+02  0.24202682099E+02  0.43400731881E+02  0.00000000000E+00 0. -1.
         11    1    3    3    0    0 -0.96949424726E+00 -0.28307304055E+02 -0.19044021864E+02  0.34130897307E+02  0.51100000000E-03 0. -1.
        -11    1    3    3    0    0  0.42070033920E+00 -0.10160971287E+02 -0.43817049587E+01  0.11073466705E+02  0.51100000000E-03 0.  1.
         12    1    3    3    0    0 -0.24317363899E+00  0.24512447255E+01 -0.77695527647E+00  0.25829041068E+01  0.00000000000E+00 0. -1.
</event>
<event>
 7    1  0.8300060E-011  0.4778727E+02  0.7816164E-02  0.1312668E+00
        -11   -1    0    0    0    0  0.00000000000E+00  0.00000000000E+00  0.45593999997E+02  0.45594000000E+02  0.51100000000E-03 0. -1.
         11   -1    0    0    0    0 -0.00000000000E+00 -0.00000000000E+00 -0.45593999997E+02  0.45594000000E+02  0.51100000000E-03 0.  1.
    9900012    2    1    2    0    0  0.36560681961E+02 -0.20391348424E+02 -0.11451310963E+02  0.47787273292E+02  0.20000010248E+02 0.  0.
         12    1    1    2    0    0 -0.36560681961E+02  0.20391348424E+02  0.11451310963E+02  0.43400726708E+02  0.00000000000E+00 0. -1.
         11    1    3    3    0    0  0.17186370376E+02  0.89379874980E+00 -0.69769204106E+01  0.18570073279E+02  0.51100000000E-03 0. -1.
        -11    1    3    3    0    0  0.15781896116E+02 -0.17355702637E+02 -0.45359478095E+01  0.23892749566E+02  0.51100000000E-03 0.  1.
         12    1    3    3    0    0  0.35924154686E+01 -0.39294445363E+01  0.61557256889E-01  0.53244504467E+01  0.00000000000E+00 0. -1.
</event>
<event>
 7    1  0.8300060E-011  0.4778726E+02  0.7816164E-02  0.1312668E+00
        -11   -1    0    0    0    0  0.00000000000E+00  0.00000000000E+00  0.45593999997E+02  0.45594000000E+02  0.51100000000E-03 0. -1.
         11   -1    0    0    0    0 -0.00000000000E+00 -0.00000000000E+00 -0.45593999997E+02  0.45594000000E+02  0.51100000000E-03 0.  1.
    9900012    2    1    2    0    0 -0.17077521594E+02 -0.31454131670E+02 -0.24548313712E+02  0.47787264418E+02  0.19999969789E+02 0.  0.
         12    1    1    2    0    0  0.17077521594E+02  0.31454131670E+02  0.24548313712E+02  0.43400735582E+02  0.00000000000E+00 0. -1.
         11    1    3    3    0    0 -0.19448687243E+00 -0.41477568424E+01 -0.18882552904E+01  0.45614932062E+01  0.51100000000E-03 0. -1.
        -11    1    3    3    0    0  0.57087748825E+00  0.20786432174E+01  0.10866756338E+00  0.21583483575E+01  0.51100000000E-03 0.  1.
        -12    1    3    3    0    0 -0.17453912210E+02 -0.29385018045E+02 -0.22768725985E+02  0.41067422855E+02  0.00000000000E+00 0.  1.
</event>
<event>
 7    1  0.8300060E-011  0.4778727E+02  0.7816164E-02  0.1312668E+00
        -11   -1    0    0    0    0  0.00000000000E+00  0.00000000000E+00  0.45593999997E+02  0.45594000000E+02  0.51100000000E-03 0.  1.
         11   -1    0    0    0    0 -0.00000000000E+00 -0.00000000000E+00 -0.45593999997E+02  0.45594000000E+02  0.51100000000E-03 0. -1.
    9900012    2    1    2    0    0 -0.24329232193E+02  0.28598035775E+02 -0.21768419913E+02  0.47787270803E+02  0.19999998899E+02 0.  0.
         12    1    1    2    0    0  0.24329232193E+02 -0.28598035775E+02  0.21768419913E+02  0.43400729197E+02  0.00000000000E+00 0. -1.
         11    1    3    3    0    0 -0.12247725109E+02  0.15487297835E+02 -0.19647285399E+02  0.27854604438E+02  0.51100000000E-03 0. -1.
        -11    1    3    3    0    0 -0.11225136510E+02  0.14021856385E+02 -0.32439720067E+01  0.18252109489E+02  0.51100000000E-03 0.  1.
         12    1    3    3    0    0 -0.85637057410E+00 -0.91111844477E+00  0.11228374922E+01  0.16805568763E+01  0.00000000000E+00 0. -1.
</event>
<event>
 7    1  0.1072315E-010  0.4778727E+02  0.7816164E-02  0.1312668E+00
        -11   -1    0    0    0    0  0.00000000000E+00  0.00000000000E+00  0.45593999997E+02  0.45594000000E+02  0.51100000000E-03 0. -1.
         11   -1    0    0    0    0 -0.00000000000E+00 -0.00000000000E+00 -0.45593999997E+02  0.45594000000E+02  0.51100000000E-03 0.  1.
    9900012    2    1    2    0    0 -0.13893372204E+02  0.19810507507E+02 -0.36029726635E+02  0.47787271893E+02  0.20000003868E+02 0.  0.
         12    1    1    2    0    0  0.13893372204E+02 -0.19810507507E+02  0.36029726635E+02  0.43400728107E+02  0.00000000000E+00 0. -1.
         11    1    3    3    0    0 -0.38769117490E+01  0.49619691389E+01 -0.74296380219E+00  0.63406291421E+01  0.51100000000E-03 0. -1.
        -11    1    3    3    0    0 -0.92356872736E+01  0.16783593014E+02 -0.28449948379E+02  0.34298490884E+02  0.51100000000E-03 0.  1.
        -12    1    3    3    0    0 -0.78077318172E+00 -0.19350546459E+01 -0.68368144530E+01  0.71481518667E+01  0.00000000000E+00 0.  1.
</event>
<event>
 7    1  0.9245976E-011  0.4778727E+02  0.7816164E-02  0.1312668E+00
        -11   -1    0    0    0    0  0.00000000000E+00  0.00000000000E+00  0.45593999997E+02  0.45594000000E+02  0.51100000000E-03 0. -1.
         11   -1    0    0    0    0 -0.00000000000E+00 -0.00000000000E+00 -0.45593999997E+02  0.45594000000E+02  0.51100000000E-03 0.  1.
    9900012    2    1    2    0    0  0.24052092200E+02  0.97009517215E+01  0.34799596906E+02  0.47787267883E+02  0.19999985584E+02 0.  0.
        -12    1    1    2    0    0 -0.24052092200E+02 -0.97009517215E+01 -0.34799596906E+02  0.43400732117E+02  0.00000000000E+00 0.  1.
         11    1    3    3    0    0  0.75173141898E+01 -0.45510494583E+01  0.82475176555E+01  0.12051705752E+02  0.51100000000E-03 0. -1.
        -11    1    3    3    0    0  0.43545623389E+01  0.18162009160E-01  0.18455236245E+01  0.47295349382E+01  0.51100000000E-03 0.  1.
         12    1    3    3    0    0  0.12180215672E+02  0.14233839171E+02  0.24706555626E+02  0.31006027192E+02  0.00000000000E+00 0. -1.
</event>
<event>
 7    1  0.8300060E-011  0.4778727E+02  0.7816164E-02  0.1312668E+00
        -11   -1    0    0    0    0  0.00000000000E+00  0.00000000000E+00  0.45593999997E+02  0.45594000000E+02  0.51100000000E-03 0.  1.
         11   -1    0    0    0    0 -0.00000000000E+00 -0.00000000000E+00 -0.45593999997E+02  0.45594000000E+02  0.51100000000E-03 0. -1.
    9900012    2    1    2    0    0  0.24707189484E+02 -0.33513658690E+02  0.12247959662E+02  0.47787273660E+02  0.20000011924E+02 0.  0.
         12    1    1    2    0    0 -0.24707189484E+02  0.33513658690E+02 -0.12247959662E+02  0.43400726340E+02  0.00000000000E+00 0. -1.
         11    1    3    3    0    0  0.14385739362E+02 -0.88349092119E+01  0.44722761584E+00  0.16888017367E+02  0.51100000000E-03 0. -1.
        -11    1    3    3    0    0  0.29370949190E+01 -0.17588105672E+02  0.10184037725E+02  0.20534912036E+02  0.51100000000E-03 0.  1.
        -12    1    3    3    0    0  0.73843552027E+01 -0.70906438068E+01  0.16166943215E+01  0.10364344257E+02  0.00000000000E+00 0.  1.
</event>
<event>
 7    1  0.8300060E-011  0.4778727E+02  0.7816164E-02  0.1312668E+00
        -11   -1    0    0    0    0  0.00000000000E+00  0.00000000000E+00  0.45593999997E+02  0.45594000000E+02  0.51100000000E-03 0. -1.
         11   -1    0    0    0    0 -0.00000000000E+00 -0.00000000000E+00 -0.45593999997E+02  0.45594000000E+02  0.51100000000E-03 0.  1.
    9900012    2    1    2    0    0  0.25469765579E+02  0.11690048325E+02  0.33139969668E+02  0.47787265236E+02  0.19999973515E+02 0.  0.
        -12    1    1    2    0    0 -0.25469765579E+02 -0.11690048325E+02 -0.33139969668E+02  0.43400734764E+02  0.00000000000E+00 0.  1.
         11    1    3    3    0    0  0.21078474134E+02  0.87836798645E+01  0.24650379609E+02  0.33602028494E+02  0.51100000000E-03 0. -1.
        -11    1    3    3    0    0  0.18646319915E+01  0.46147965249E+01 -0.19453224913E+00  0.49810684082E+01  0.51100000000E-03 0.  1.
        -12    1    3    3    0    0  0.25266594533E+01 -0.17084280643E+01  0.86841223086E+01  0.92041683336E+01  0.00000000000E+00 0.  1.
</event>
<event>
 7    1  0.8300060E-011  0.4778728E+02  0.7816164E-02  0.1312668E+00
        -11   -1    0    0    0    0  0.00000000000E+00  0.00000000000E+00  0.45593999997E+02  0.45594000000E+02  0.51100000000E-03 0. -1.
         11   -1    0    0    0    0 -0.00000000000E+00 -0.00000000000E+00 -0.45593999997E+02  0.45594000000E+02  0.51100000000E-03 0.  1.
    9900012    2    1    2    0    0 -0.33568214439E+02  0.23512055946E+02 -0.14282190704E+02  0.47787276887E+02  0.20000026639E+02 0.  0.
         12    1    1    2    0    0  0.33568214439E+02 -0.23512055946E+02  0.14282190704E+02  0.43400723113E+02  0.00000000000E+00 0. -1.
         11    1    3    3    0    0 -0.10864272191E+01  0.16583898442E+01  0.13537047864E+01  0.24006453065E+01  0.51100000000E-03 0. -1.
        -11    1    3    3    0    0 -0.86832048284E+01  0.41586931034E+01  0.33267357614E+01  0.10186262588E+02  0.51100000000E-03 0.  1.
        -12    1    3    3    0    0 -0.23798582391E+02  0.17694972998E+02 -0.18962631252E+02  0.35200368993E+02  0.00000000000E+00 0.  1.
</event>
<event>
 7    1  0.8300060E-011  0.4778727E+02  0.7816164E-02  0.1312668E+00
        -11   -1    0    0    0    0  0.00000000000E+00  0.00000000000E+00  0.45593999997E+02  0.45594000000E+02  0.51100000000E-03 0. -1.
         11   -1    0    0    0    0 -0.00000000000E+00 -0.00000000000E+00 -0.45593999997E+02  0.45594000000E+02  0.51100000000E-03 0.  1.
    9900012    2    1    2    0    0  0.20859917370E+02  0.21080048512E+02  0.31687829878E+02  0.47787272353E+02  0.20000005964E+02 0.  0.
        -12    1    1    2    0    0 -0.20859917370E+02 -0.21080048512E+02 -0.31687829878E+02  0.43400727647E+02  0.00000000000E+00 0.  1.
         11    1    3    3    0    0  0.50041636457E+01  0.14574232461E+02  0.16691941393E+02  0.22717192022E+02  0.51100000000E-03 0. -1.
        -11    1    3    3    0    0  0.12724446233E+02  0.71696443653E+01  0.64909352109E+01  0.15982727315E+02  0.51100000000E-03 0.  1.
        -12    1    3    3    0    0  0.31313074910E+01 -0.66382831401E+00  0.85049532743E+01  0.90873530156E+01  0.00000000000E+00 0.  1.
</event>
<event>
 7    1  0.8300060E-011  0.4778727E+02  0.7816164E-02  0.1312668E+00
        -11   -1    0    0    0    0  0.00000000000E+00  0.00000000000E+00  0.45593999997E+02  0.45594000000E+02  0.51100000000E-03 0. -1.
         11   -1    0    0    0    0 -0.00000000000E+00 -0.00000000000E+00 -0.45593999997E+02  0.45594000000E+02  0.51100000000E-03 0.  1.
    9900012    2    1    2    0    0 -0.30513106118E+02  0.29743622248E+02  0.82395723504E+01  0.47787271182E+02  0.20000000628E+02 0.  0.
        -12    1    1    2    0    0  0.30513106118E+02 -0.29743622248E+02 -0.82395723504E+01  0.43400728818E+02  0.00000000000E+00 0.  1.
         11    1    3    3    0    0 -0.76995162721E+01  0.16014021974E+02  0.42061292575E+01  0.18259873335E+02  0.51100000000E-03 0. -1.
        -11    1    3    3    0    0 -0.24170692136E+02  0.13873847494E+02  0.36338431630E+01  0.28105352141E+02  0.51100000000E-03 0.  1.
        -12    1    3    3    0    0  0.13571022896E+01 -0.14424722040E+00  0.39959992992E+00  0.14220457056E+01  0.00000000000E+00 0.  1.
</event>
<event>
 7    1  0.8300060E-011  0.4778729E+02  0.7816164E-02  0.1312668E+00
        -11   -1    0    0    0    0  0.00000000000E+00  0.00000000000E+00  0.45593999997E+02  0.45594000000E+02  0.51100000000E-03 0. -1.
         11   -1    0    0    0    0 -0.00000000000E+00 -0.00000000000E+00 -0.45593999997E+02  0.45594000000E+02  0.51100000000E-03 0.  1.
    9900012    2    1    2    0    0 -0.51211496437E+01  0.12369834991E+02  0.41284166497E+02  0.47787292693E+02  0.20000098706E+02 0.  0.
        -12    1    1    2    0    0  0.51211496437E+01 -0.12369834991E+02 -0.41284166497E+02  0.43400707307E+02  0.00000000000E+00 0.  1.
         11    1    3    3    0    0 -0.19256963844E-01  0.17986272249E+01  0.37926231963E+01  0.41975494869E+01  0.51100000000E-03 0. -1.
        -11    1    3    3    0    0 -0.11056165106E+00 -0.26947329466E+01  0.23565507191E+02  0.23719336816E+02  0.51100000000E-03 0.  1.
        -12    1    3    3    0    0 -0.49913310288E+01  0.13265940712E+02  0.13926036109E+02  0.19870406391E+02  0.00000000000E+00 0.  1.
</event>
<event>
 7    1  0.8300060E-011  0.4778727E+02  0.7816164E-02  0.1312668E+00
        -11   -1    0    0    0    0  0.00000000000E+00  0.00000000000E+00  0.45593999997E+02  0.45594000000E+02  0.51100000000E-03 0. -1.
         11   -1    0    0    0    0 -0.00000000000E+00 -0.00000000000E+00 -0.45593999997E+02  0.45594000000E+02  0.51100000000E-03 0.  1.
    9900012    2    1    2    0    0  0.28821959573E+02 -0.12124392568E+02  0.30098455109E+02  0.47787271334E+02  0.20000001321E+02 0.  0.
        -12    1    1    2    0    0 -0.28821959573E+02  0.12124392568E+02 -0.30098455109E+02  0.43400728666E+02  0.00000000000E+00 0.  1.
         11    1    3    3    0    0  0.15759441574E+02 -0.71965734371E+01  0.39472944678E+01  0.17768843570E+02  0.51100000000E-03 0. -1.
        -11    1    3    3    0    0  0.92474333032E-01  0.51882908480E+00  0.35334445117E+00  0.63449797777E+00  0.51100000000E-03 0.  1.
         12    1    3    3    0    0  0.12970043667E+02 -0.54466482158E+01  0.25797816190E+02  0.29383929786E+02  0.00000000000E+00 0. -1.
</event>
<event>
 7    1  0.1068353E-010  0.4778726E+02  0.7816164E-02  0.1312668E+00
        -11   -1    0    0    0    0  0.00000000000E+00  0.00000000000E+00  0.45593999997E+02  0.45594000000E+02  0.51100000000E-03 0. -1.
         11   -1    0    0    0    0 -0.00000000000E+00 -0.00000000000E+00 -0.45593999997E+02  0.45594000000E+02  0.51100000000E-03 0.  1.
    9900012    2    1    2    0    0 -0.26233226766E+01  0.90598988801E+01 -0.42363432959E+02  0.47787262199E+02  0.19999959672E+02 0.  0.
         12    1    1    2    0    0  0.26233226766E+01 -0.90598988801E+01  0.42363432959E+02  0.43400737801E+02  0.00000000000E+00 0. -1.
         11    1    3    3    0    0 -0.60415569634E+00  0.27855093409E+01  0.87272980235E+00  0.29808931485E+01  0.51100000000E-03 0. -1.
        -11    1    3    3    0    0  0.26882214673E+01  0.47521415433E+01 -0.32867079070E+02  0.33317476957E+02  0.51100000000E-03 0.  1.
         12    1    3    3    0    0 -0.47073884476E+01  0.15222479959E+01 -0.10369083691E+02  0.11488892094E+02  0.00000000000E+00 0. -1.
</event>
<event>
 7    1  0.8300060E-011  0.4778727E+02  0.7816164E-02  0.1312668E+00
        -11   -1    0    0    0    0  0.00000000000E+00  0.00000000000E+00  0.45593999997E+02  0.45594000000E+02  0.51100000000E-03 0.  1.
         11   -1    0    0    0    0 -0.00000000000E+00 -0.00000000000E+00 -0.45593999997E+02  0.45594000000E+02  0.51100000000E-03 0. -1.
    9900012    2    1    2    0    0 -0.42834297913E+02  0.40085089831E+01 -0.57252376817E+01  0.47787267650E+02  0.19999984524E+02 0.  0.
        -12    1    1    2    0    0  0.42834297913E+02 -0.40085089831E+01  0.57252376817E+01  0.43400732350E+02  0.00000000000E+00 0.  1.
         11    1    3    3    0    0 -0.34669581623E+02  0.90856757474E+01 -0.25732662841E+01  0.35932590963E+02  0.51100000000E-03 0. -1.
        -11    1    3    3    0    0 -0.79284982131E+01 -0.46160022801E+01 -0.46386075853E+01  0.10280332755E+02  0.51100000000E-03 0.  1.
        -12    1    3    3    0    0 -0.23621807753E+00 -0.46116448409E+00  0.14866361877E+01  0.15743439319E+01  0.00000000000E+00 0.  1.
</event>
<event>
 7    1  0.8300060E-011  0.4778727E+02  0.7816164E-02  0.1312668E+00
        -11   -1    0    0    0    0  0.00000000000E+00  0.00000000000E+00  0.45593999997E+02  0.45594000000E+02  0.51100000000E-03 0. -1.
         11   -1    0    0    0    0 -0.00000000000E+00 -0.00000000000E+00 -0.45593999997E+02  0.45594000000E+02  0.51100000000E-03 0.  1.
    9900012    2    1    2    0    0 -0.12909044326E+02 -0.33967669156E+02 -0.23731352125E+02  0.47787273658E+02  0.20000011917E+02 0.  0.
         12    1    1    2    0    0  0.12909044326E+02  0.33967669156E+02  0.23731352125E+02  0.43400726342E+02  0.00000000000E+00 0. -1.
         11    1    3    3    0    0 -0.13534620931E+02 -0.19142572251E+02 -0.11951138600E+02  0.26314515960E+02  0.51100000000E-03 0.  1.
        -11    1    3    3    0    0  0.38009358667E+01 -0.13556072222E+02 -0.11230301357E+02  0.18009271956E+02  0.51100000000E-03 0. -1.
         12    1    3    3    0    0 -0.31753592621E+01 -0.12690246834E+01 -0.54991216742E+00  0.34634857416E+01  0.00000000000E+00 0. -1.
</event>
<event>
 7    1  0.8300060E-011  0.4778727E+02  0.7816164E-02  0.1312668E+00
        -11   -1    0    0    0    0  0.00000000000E+00  0.00000000000E+00  0.45593999997E+02  0.45594000000E+02  0.51100000000E-03 0. -1.
         11   -1    0    0    0    0 -0.00000000000E+00 -0.00000000000E+00 -0.45593999997E+02  0.45594000000E+02  0.51100000000E-03 0.  1.
    9900012    2    1    2    0    0 -0.25919535304E+02  0.59157698817E+01  0.34304586220E+02  0.47787270981E+02  0.19999999711E+02 0.  0.
        -12    1    1    2    0    0  0.25919535304E+02 -0.59157698817E+01 -0.34304586220E+02  0.43400729019E+02  0.00000000000E+00 0.  1.
         11    1    3    3    0    0 -0.16364110322E+02  0.96788003432E+01  0.22763425347E+02  0.29658671860E+02  0.51100000000E-03 0. -1.
        -11    1    3    3    0    0 -0.72417956948E+01 -0.43719958730E+01  0.25656576292E+01  0.88397144824E+01  0.51100000000E-03 0.  1.
        -12    1    3    3    0    0 -0.23136292873E+01  0.60896541156E+00  0.89755032436E+01  0.92888846385E+01  0.00000000000E+00 0.  1.
</event>
<event>
 7    1  0.8300060E-011  0.4778726E+02  0.7816164E-02  0.1312668E+00
        -11   -1    0    0    0    0  0.00000000000E+00  0.00000000000E+00  0.45593999997E+02  0.45594000000E+02  0.51100000000E-03 0. -1.
         11   -1    0    0    0    0 -0.00000000000E+00 -0.00000000000E+00 -0.45593999997E+02  0.45594000000E+02  0.51100000000E-03 0.  1.
    9900012    2    1    2    0    0 -0.98991753605E+01 -0.69428585167E+01 -0.41682455910E+02  0.47787261667E+02  0.19999957243E+02 0.  0.
         12    1    1    2    0    0  0.98991753605E+01  0.69428585167E+01  0.41682455910E+02  0.43400738333E+02  0.00000000000E+00 0. -1.
         11    1    3    3    0    0  0.48545755277E+01  0.16873879832E-01 -0.38385227367E+01  0.61888161504E+01  0.51100000000E-03 0. -1.
        -11    1    3    3    0    0 -0.92871170079E+01 -0.13661172640E+01 -0.22385874323E+02  0.24274352477E+02  0.51100000000E-03 0.  1.
        -12    1    3    3    0    0 -0.54666338803E+01 -0.55936151325E+01 -0.15458058850E+02  0.17324093039E+02  0.00000000000E+00 0.  1.
</event>
<event>
 7    1  0.8300060E-011  0.4778728E+02  0.7816164E-02  0.1312668E+00
        -11   -1    0    0    0    0  0.00000000000E+00  0.00000000000E+00  0.45593999997E+02  0.45594000000E+02  0.51100000000E-03 0. -1.
         11   -1    0    0    0    0 -0.00000000000E+00 -0.00000000000E+00 -0.45593999997E+02  0.45594000000E+02  0.51100000000E-03 0.  1.
    9900012    2    1    2    0    0  0.20908186941E+02 -0.23642164972E+02 -0.29791250850E+02  0.47787275664E+02  0.20000021061E+02 0.  0.
         12    1    1    2    0    0 -0.20908186941E+02  0.23642164972E+02  0.29791250850E+02  0.43400724336E+02  0.00000000000E+00 0. -1.
         11    1    3    3    0    0  0.14036994438E+02 -0.60717423953E+01 -0.18691550828E+02  0.24151135401E+02  0.51100000000E-03 0. -1.
        -11    1    3    3    0    0 -0.14601825369E+01 -0.55781301018E+01 -0.55843004479E+01  0.80269595880E+01  0.51100000000E-03 0.  1.
         12    1    3    3    0    0  0.83313750395E+01 -0.11992292475E+02 -0.55153995742E+01  0.15609180674E+02  0.00000000000E+00 0. -1.
</event>
<event>
 7    1  0.8300060E-011  0.4778726E+02  0.7816164E-02  0.1312668E+00
        -11   -1    0    0    0    0  0.00000000000E+00  0.00000000000E+00  0.45593999997E+02  0.45594000000E+02  0.51100000000E-03 0. -1.
         11   -1    0    0    0    0 -0.00000000000E+00 -0.00000000000E+00 -0.45593999997E+02  0.45594000000E+02  0.51100000000E-03 0.  1.
    9900012    2    1    2    0    0  0.18785013300E+02  0.12833814013E+02 -0.36959983307E+02  0.47787264144E+02  0.19999968538E+02 0.  0.
         12    1    1    2    0    0 -0.18785013300E+02 -0.12833814013E+02  0.36959983307E+02  0.43400735856E+02  0.00000000000E+00 0. -1.
         11    1    3    3    0    0  0.81434132616E+01 -0.15373023494E+01 -0.45025777796E+01  0.94314200938E+01  0.51100000000E-03 0. -1.
        -11    1    3    3    0    0  0.10256854510E+02  0.65397528862E+01 -0.15754690815E+02  0.19904313984E+02  0.51100000000E-03 0.  1.
         12    1    3    3    0    0  0.38474552844E+00  0.78313634764E+01 -0.16702714713E+02  0.18451530066E+02  0.00000000000E+00 0. -1.
</event>
<event>
 7    1  0.8300060E-011  0.4778728E+02  0.7816164E-02  0.1312668E+00
        -11   -1    0    0    0    0  0.00000000000E+00  0.00000000000E+00  0.45593999997E+02  0.45594000000E+02  0.51100000000E-03 0. -1.
         11   -1    0    0    0    0 -0.00000000000E+00 -0.00000000000E+00 -0.45593999997E+02  0.45594000000E+02  0.51100000000E-03 0.  1.
    9900012    2    1    2    0    0  0.15282271721E+02 -0.31003969077E+02  0.26245550367E+02  0.47787276025E+02  0.20000022710E+02 0.  0.
        -12    1    1    2    0    0 -0.15282271721E+02  0.31003969077E+02 -0.26245550367E+02  0.43400723975E+02  0.00000000000E+00 0.  1.
         11    1    3    3    0    0  0.14364408137E+01 -0.37306469657E+01  0.50337827661E+00  0.40292032642E+01  0.51100000000E-03 0. -1.
        -11    1    3    3    0    0 -0.36025903312E+01 -0.82499861037E+01  0.34146267515E+01  0.96281152838E+01  0.51100000000E-03 0.  1.
        -12    1    3    3    0    0  0.17448421238E+02 -0.19023336008E+02  0.22327545338E+02  0.34129957477E+02  0.00000000000E+00 0.  1.
</event>
<event>
 7    1  0.8300060E-011  0.4778727E+02  0.7816164E-02  0.1312668E+00
        -11   -1    0    0    0    0  0.00000000000E+00  0.00000000000E+00  0.45593999997E+02  0.45594000000E+02  0.51100000000E-03 0. -1.
         11   -1    0    0    0    0 -0.00000000000E+00 -0.00000000000E+00 -0.45593999997E+02  0.45594000000E+02  0.51100000000E-03 0.  1.
    9900012    2    1    2    0    0  0.29598619051E+02  0.12612964771E+02  0.29128299035E+02  0.47787274952E+02  0.20000017815E+02 0.  0.
        -12    1    1    2    0    0 -0.29598619051E+02 -0.12612964771E+02 -0.29128299035E+02  0.43400725048E+02  0.00000000000E+00 0.  1.
         11    1    3    3    0    0  0.16122778198E+02  0.53178361312E+01  0.64989235582E+01  0.18178541350E+02  0.51100000000E-03 0. -1.
        -11    1    3    3    0    0 -0.95058173027E+00  0.39962263689E+01  0.67572867895E+01  0.79078667057E+01  0.51100000000E-03 0.  1.
         12    1    3    3    0    0  0.14426422583E+02  0.32989022704E+01  0.15872088688E+02  0.21700866896E+02  0.00000000000E+00 0. -1.
</event>
<event>
 7    1  0.8300060E-011  0.4778727E+02  0.7816164E-02  0.1312668E+00
        -11   -1    0    0    0    0  0.00000000000E+00  0.00000000000E+00  0.45593999997E+02  0.45594000000E+02  0.51100000000E-03 0. -1.
         11   -1    0    0    0    0 -0.00000000000E+00 -0.00000000000E+00 -0.45593999997E+02  0.45594000000E+02  0.51100000000E-03 0.  1.
    9900012    2    1    2    0    0 -0.58062220895E+01  0.95116897238E+01  0.41945664687E+02  0.47787271407E+02  0.20000001655E+02 0.  0.
        -12    1    1    2    0    0  0.58062220895E+01 -0.95116897238E+01 -0.41945664687E+02  0.43400728593E+02  0.00000000000E+00 0.  1.
         11    1    3    3    0    0 -0.47392638686E+01  0.29939575090E+01  0.16390018692E+02  0.17322156811E+02  0.51100000000E-03 0. -1.
        -11    1    3    3    0    0  0.33756699792E+01  0.45437150900E+01  0.14079312903E+01  0.58329036857E+01  0.51100000000E-03 0.  1.
        -12    1    3    3    0    0 -0.44426282000E+01  0.19740171249E+01  0.24147714704E+02  0.24632210911E+02  0.00000000000E+00 0.  1.
</event>
<event>
 7    1  0.8466640E-011  0.4778727E+02  0.7816164E-02  0.1312668E+00
        -11   -1    0    0    0    0  0.00000000000E+00  0.00000000000E+00  0.45593999997E+02  0.45594000000E+02  0.51100000000E-03 0. -1.
         11   -1    0    0    0    0 -0.00000000000E+00 -0.00000000000E+00 -0.45593999997E+02  0.45594000000E+02  0.51100000000E-03 0.  1.
    9900012    2    1    2    0    0  0.43849258622E+01  0.74926470006E+01 -0.42523590640E+02  0.47787273107E+02  0.20000009405E+02 0.  0.
         12    1    1    2    0    0 -0.43849258622E+01 -0.74926470006E+01  0.42523590640E+02  0.43400726893E+02  0.00000000000E+00 0. -1.
         11    1    3    3    0    0 -0.11972790612E+01 -0.17857323232E+01 -0.24943911525E+02  0.25036394299E+02  0.51100000000E-03 0. -1.
        -11    1    3    3    0    0 -0.49187905433E+00  0.25448864310E+01 -0.11605766774E+02  0.11891686787E+02  0.51100000000E-03 0.  1.
         12    1    3    3    0    0  0.60740839777E+01  0.67334928928E+01 -0.59739123414E+01  0.10859192022E+02  0.00000000000E+00 0. -1.
</event>
<event>
 7    1  0.8300060E-011  0.4778728E+02  0.7816164E-02  0.1312668E+00
        -11   -1    0    0    0    0  0.00000000000E+00  0.00000000000E+00  0.45593999997E+02  0.45594000000E+02  0.51100000000E-03 0. -1.
         11   -1    0    0    0    0 -0.00000000000E+00 -0.00000000000E+00 -0.45593999997E+02  0.45594000000E+02  0.51100000000E-03 0.  1.
    9900012    2    1    2    0    0  0.21596396173E+01 -0.12370486455E+02 -0.41544310324E+02  0.47787277671E+02  0.20000030212E+02 0.  0.
         12    1    1    2    0    0 -0.21596396173E+01  0.12370486455E+02  0.41544310324E+02  0.43400722329E+02  0.00000000000E+00 0. -1.
         11    1    3    3    0    0  0.78391675100E+00  0.18461510917E+01  0.10788284937E+01  0.22774262898E+01  0.51100000000E-03 0. -1.
        -11    1    3    3    0    0  0.25302399358E+00 -0.14417455653E+02 -0.41391220220E+02  0.43831041058E+02  0.51100000000E-03 0.  1.
        -12    1    3    3    0    0  0.11226988727E+01  0.20081810597E+00 -0.12319185976E+01  0.16788103233E+01  0.00000000000E+00 0.  1.
</event>
<event>
 7    1  0.8300060E-011  0.4778725E+02  0.7816164E-02  0.1312668E+00
        -11   -1    0    0    0    0  0.00000000000E+00  0.00000000000E+00  0.45593999997E+02  0.45594000000E+02  0.51100000000E-03 0. -1.
         11   -1    0    0    0    0 -0.00000000000E+00 -0.00000000000E+00 -0.45593999997E+02  0.45594000000E+02  0.51100000000E-03 0.  1.
    9900012    2    1    2    0    0 -0.49468282236E+01 -0.22279557561E+02 -0.36915781852E+02  0.47787254104E+02  0.19999922762E+02 0.  0.
         12    1    1    2    0    0  0.49468282236E+01  0.22279557561E+02  0.36915781852E+02  0.43400745896E+02  0.00000000000E+00 0. -1.
         11    1    3    3    0    0 -0.72580853493E+01 -0.18977244956E+02 -0.23502667864E+02  0.31067523655E+02  0.51100000000E-03 0.  1.
        -11    1    3    3    0    0  0.39793133676E+01 -0.11199706369E-01 -0.12204928472E+02  0.12837263710E+02  0.51100000000E-03 0. -1.
         12    1    3    3    0    0 -0.16680562418E+01 -0.32911128983E+01 -0.12081855167E+01  0.38824667388E+01  0.00000000000E+00 0. -1.
</event>
<event>
 7    1  0.8950054E-011  0.4778727E+02  0.7816164E-02  0.1312668E+00
        -11   -1    0    0    0    0  0.00000000000E+00  0.00000000000E+00  0.45593999997E+02  0.45594000000E+02  0.51100000000E-03 0. -1.
         11   -1    0    0    0    0 -0.00000000000E+00 -0.00000000000E+00 -0.45593999997E+02  0.45594000000E+02  0.51100000000E-03 0.  1.
    9900012    2    1    2    0    0  0.69891036632E+01  0.11516397826E+02 -0.41257100777E+02  0.47787270129E+02  0.19999995824E+02 0.  0.
         12    1    1    2    0    0 -0.69891036632E+01 -0.11516397826E+02  0.41257100777E+02  0.43400729871E+02  0.00000000000E+00 0. -1.
         11    1    3    3    0    0  0.14001603277E+00 -0.19204453209E+01 -0.12904744339E+02  0.13047610564E+02  0.51100000000E-03 0.  1.
        -11    1    3    3    0    0  0.10514893762E+02  0.10651898772E+02 -0.24621722983E+02  0.28814148976E+02  0.51100000000E-03 0. -1.
        -12    1    3    3    0    0 -0.36658061318E+01  0.27849443742E+01 -0.37306334546E+01  0.59255105886E+01  0.00000000000E+00 0.  1.
</event>
<event>
 7    1  0.8300060E-011  0.4778727E+02  0.7816164E-02  0.1312668E+00
        -11   -1    0    0    0    0  0.00000000000E+00  0.00000000000E+00  0.45593999997E+02  0.45594000000E+02  0.51100000000E-03 0.  1.
         11   -1    0    0    0    0 -0.00000000000E+00 -0.00000000000E+00 -0.45593999997E+02  0.45594000000E+02  0.51100000000E-03 0. -1.
    9900012    2    1    2    0    0  0.42741218570E+02  0.59535184980E+01  0.46224834054E+01  0.47787268438E+02  0.19999988115E+02 0.  0.
        -12    1    1    2    0    0 -0.42741218570E+02 -0.59535184980E+01 -0.46224834054E+01  0.43400731562E+02  0.00000000000E+00 0.  1.
         11    1    3    3    0    0  0.13736802829E+02  0.93003848498E+01  0.45496365172E+01  0.17201630825E+02  0.51100000000E-03 0. -1.
        -11    1    3    3    0    0  0.23653005126E+01 -0.24844684544E+01  0.18051851457E+01  0.38763286350E+01  0.51100000000E-03 0.  1.
         12    1    3    3    0    0  0.26639115228E+02 -0.86239789748E+00 -0.17323382575E+01  0.26709308978E+02  0.00000000000E+00 0. -1.
</event>
<event>
 7    1  0.8300060E-011  0.4778727E+02  0.7816164E-02  0.1312668E+00
        -11   -1    0    0    0    0  0.00000000000E+00  0.00000000000E+00  0.45593999997E+02  0.45594000000E+02  0.51100000000E-03 0. -1.
         11   -1    0    0    0    0 -0.00000000000E+00 -0.00000000000E+00 -0.45593999997E+02  0.45594000000E+02  0.51100000000E-03 0.  1.
    9900012    2    1    2    0    0  0.14670227032E+02 -0.18582671252E+02  0.36374328557E+02  0.47787274084E+02  0.20000013859E+02 0.  0.
        -12    1    1    2    0    0 -0.14670227032E+02  0.18582671252E+02 -0.36374328557E+02  0.43400725916E+02  0.00000000000E+00 0.  1.
         11    1    3    3    0    0  0.55099225174E+01 -0.14527741430E+02  0.12956566841E+02  0.20230846294E+02  0.51100000000E-03 0. -1.
        -11    1    3    3    0    0  0.91666010934E+01  0.74110110372E+00  0.11604815599E+02  0.14807010225E+02  0.51100000000E-03 0.  1.
        -12    1    3    3    0    0 -0.62965787545E-02 -0.47960309261E+01  0.11812946117E+02  0.12749417565E+02  0.00000000000E+00 0.  1.
</event>
<event>
 7    1  0.8300060E-011  0.4778727E+02  0.7816164E-02  0.1312668E+00
        -11   -1    0    0    0    0  0.00000000000E+00  0.00000000000E+00  0.45593999997E+02  0.45594000000E+02  0.51100000000E-03 0. -1.
         11   -1    0    0    0    0 -0.00000000000E+00 -0.00000000000E+00 -0.45593999997E+02  0.45594000000E+02  0.51100000000E-03 0.  1.
    9900012    2    1    2    0    0  0.15080473633E+02 -0.13371861441E+02 -0.38436909981E+02  0.47787269450E+02  0.19999992728E+02 0.  0.
         12    1    1    2    0    0 -0.15080473633E+02  0.13371861441E+02  0.38436909981E+02  0.43400730550E+02  0.00000000000E+00 0. -1.
         11    1    3    3    0    0  0.10532147199E+02 -0.10456766396E+02 -0.94732156134E+01  0.17607154864E+02  0.51100000000E-03 0. -1.
        -11    1    3    3    0    0  0.48688306172E+01  0.59659781082E+00 -0.18443449906E+02  0.19084608595E+02  0.51100000000E-03 0.  1.
         12    1    3    3    0    0 -0.32050418323E+00 -0.35116928555E+01 -0.10520244462E+02  0.11095505990E+02  0.00000000000E+00 0. -1.
</event>
<event>
 7    1  0.8300060E-011  0.4778727E+02  0.7816164E-02  0.1312668E+00
        -11   -1    0    0    0    0  0.00000000000E+00  0.00000000000E+00  0.45593999997E+02  0.45594000000E+02  0.51100000000E-03 0. -1.
         11   -1    0    0    0    0 -0.00000000000E+00 -0.00000000000E+00 -0.45593999997E+02  0.45594000000E+02  0.51100000000E-03 0.  1.
    9900012    2    1    2    0    0 -0.84448591954E+00 -0.33126302735E+02 -0.28027815568E+02  0.47787268038E+02  0.19999986291E+02 0.  0.
         12    1    1    2    0    0  0.84448591954E+00  0.33126302735E+02  0.28027815568E+02  0.43400731962E+02  0.00000000000E+00 0. -1.
         11    1    3    3    0    0 -0.78473063682E+00 -0.95426565929E+01  0.13714143530E+01  0.96725836575E+01  0.51100000000E-03 0. -1.
        -11    1    3    3    0    0  0.12837525692E+01 -0.17948797241E+02 -0.18724648508E+02  0.25969593856E+02  0.51100000000E-03 0.  1.
         12    1    3    3    0    0 -0.13435078519E+01 -0.56348489012E+01 -0.10674581413E+02  0.12145090524E+02  0.00000000000E+00 0. -1.
</event>
<event>
 7    1  0.8300060E-011  0.4778728E+02  0.7816164E-02  0.1312668E+00
        -11   -1    0    0    0    0  0.00000000000E+00  0.00000000000E+00  0.45593999997E+02  0.45594000000E+02  0.51100000000E-03 0. -1.
         11   -1    0    0    0    0 -0.00000000000E+00 -0.00000000000E+00 -0.45593999997E+02  0.45594000000E+02  0.51100000000E-03 0.  1.
    9900012    2    1    2    0    0 -0.16745338162E+02 -0.33781482889E+02 -0.21494820611E+02  0.47787282847E+02  0.20000053811E+02 0.  0.
         12    1    1    2    0    0  0.16745338162E+02  0.33781482889E+02  0.21494820611E+02  0.43400717153E+02  0.00000000000E+00 0. -1.
         11    1    3    3    0    0 -0.94303145090E+01 -0.70984168625E+01 -0.41458247511E+00  0.11810598316E+02  0.51100000000E-03 0. -1.
        -11    1    3    3    0    0 -0.80444217282E+01 -0.17780507822E+02 -0.17939551647E+02  0.26508238209E+02  0.51100000000E-03 0.  1.
         12    1    3    3    0    0  0.72939807543E+00 -0.89025582043E+01 -0.31406864883E+01  0.94684463219E+01  0.00000000000E+00 0. -1.
</event>
<event>
 7    1  0.8300060E-011  0.4778727E+02  0.7816164E-02  0.1312668E+00
        -11   -1    0    0    0    0  0.00000000000E+00  0.00000000000E+00  0.45593999997E+02  0.45594000000E+02  0.51100000000E-03 0. -1.
         11   -1    0    0    0    0 -0.00000000000E+00 -0.00000000000E+00 -0.45593999997E+02  0.45594000000E+02  0.51100000000E-03 0.  1.
    9900012    2    1    2    0    0 -0.15984515773E+02 -0.34659072424E+02 -0.20660766845E+02  0.47787270370E+02  0.19999996923E+02 0.  0.
         12    1    1    2    0    0  0.15984515773E+02  0.34659072424E+02  0.20660766845E+02  0.43400729630E+02  0.00000000000E+00 0. -1.
         11    1    3    3    0    0 -0.15470702139E+02 -0.21533096945E+02 -0.12744994004E+02  0.29418561507E+02  0.51100000000E-03 0. -1.
        -11    1    3    3    0    0 -0.37246275124E+01 -0.60567257533E+01 -0.78673063071E+01  0.10604305057E+02  0.51100000000E-03 0.  1.
         12    1    3    3    0    0  0.32108138779E+01 -0.70692497262E+01 -0.48466533573E-01  0.77644038055E+01  0.00000000000E+00 0. -1.
</event>
<event>
 7    1  0.8300060E-011  0.4778728E+02  0.7816164E-02  0.1312668E+00
        -11   -1    0    0    0    0  0.00000000000E+00  0.00000000000E+00  0.45593999997E+02  0.45594000000E+02  0.51100000000E-03 0. -1.
         11   -1    0    0    0    0 -0.00000000000E+00 -0.00000000000E+00 -0.45593999997E+02  0.45594000000E+02  0.51100000000E-03 0.  1.
    9900012    2    1    2    0    0 -0.26573822800E+02  0.24805023085E+02 -0.23710031480E+02  0.47787276259E+02  0.20000023775E+02 0.  0.
         12    1    1    2    0    0  0.26573822800E+02 -0.24805023085E+02  0.23710031480E+02  0.43400723741E+02  0.00000000000E+00 0. -1.
         11    1    3    3    0    0 -0.16982786049E+02  0.15963711474E+02 -0.93282555143E+01  0.25105207771E+02  0.51100000000E-03 0. -1.
        -11    1    3    3    0    0 -0.73350556235E+01  0.60775023998E+01 -0.19168768950E+01  0.97166606255E+01  0.51100000000E-03 0.  1.
        -12    1    3    3    0    0 -0.22559811275E+01  0.27638092117E+01 -0.12464899070E+02  0.12965407863E+02  0.00000000000E+00 0.  1.
</event>
<event>
 7    1  0.8300060E-011  0.4778727E+02  0.7816164E-02  0.1312668E+00
        -11   -1    0    0    0    0  0.00000000000E+00  0.00000000000E+00  0.45593999997E+02  0.45594000000E+02  0.51100000000E-03 0. -1.
         11   -1    0    0    0    0 -0.00000000000E+00 -0.00000000000E+00 -0.45593999997E+02  0.45594000000E+02  0.51100000000E-03 0.  1.
    9900012    2    1    2    0    0 -0.30890476958E+02 -0.20896483019E+02 -0.22197719128E+02  0.47787270701E+02  0.19999998432E+02 0.  0.
         12    1    1    2    0    0  0.30890476958E+02  0.20896483019E+02  0.22197719128E+02  0.43400729299E+02  0.00000000000E+00 0. -1.
         11    1    3    3    0    0 -0.17630226998E+02 -0.13631419054E+02 -0.78835025157E+01  0.23638741541E+02  0.51100000000E-03 0. -1.
        -11    1    3    3    0    0 -0.14764509656E+02 -0.67427057966E+01 -0.89129773250E+01  0.18517451010E+02  0.51100000000E-03 0.  1.
         12    1    3    3    0    0  0.15042596970E+01 -0.52235816784E+00 -0.54012392871E+01  0.56310781497E+01  0.00000000000E+00 0. -1.
</event>
<event>
 7    1  0.8300060E-011  0.4778727E+02  0.7816164E-02  0.1312668E+00
        -11   -1    0    0    0    0  0.00000000000E+00  0.00000000000E+00  0.45593999997E+02  0.45594000000E+02  0.51100000000E-03 0. -1.
         11   -1    0    0    0    0 -0.00000000000E+00 -0.00000000000E+00 -0.45593999997E+02  0.45594000000E+02  0.51100000000E-03 0.  1.
    9900012    2    1    2    0    0 -0.39270646152E+02  0.67221849848E+01  0.17211964145E+02  0.47787272704E+02  0.20000007565E+02 0.  0.
        -12    1    1    2    0    0  0.39270646152E+02 -0.67221849848E+01 -0.17211964145E+02  0.43400727296E+02  0.00000000000E+00 0.  1.
         11    1    3    3    0    0 -0.12939943498E+02  0.23909262843E+01  0.75652820674E+01  0.15178674489E+02  0.51100000000E-03 0. -1.
        -11    1    3    3    0    0 -0.16115966026E+02 -0.18790857247E+01  0.12303450254E+02  0.20362470688E+02  0.51100000000E-03 0.  1.
        -12    1    3    3    0    0 -0.10214736628E+02  0.62103444252E+01 -0.26567681763E+01  0.12246127526E+02  0.00000000000E+00 0.  1.
</event>
<event>
 7    1  0.8300060E-011  0.4778727E+02  0.7816164E-02  0.1312668E+00
        -11   -1    0    0    0    0  0.00000000000E+00  0.00000000000E+00  0.45593999997E+02  0.45594000000E+02  0.51100000000E-03 0. -1.
         11   -1    0    0    0    0 -0.00000000000E+00 -0.00000000000E+00 -0.45593999997E+02  0.45594000000E+02  0.51100000000E-03 0.  1.
    9900012    2    1    2    0    0  0.24615263090E+02  0.13800711388E+02  0.32973513378E+02  0.47787269634E+02  0.19999993569E+02 0.  0.
        -12    1    1    2    0    0 -0.24615263090E+02 -0.13800711388E+02 -0.32973513378E+02  0.43400730366E+02  0.00000000000E+00 0.  1.
         11    1    3    3    0    0 -0.77306585622E+00  0.51061481358E+01  0.83657035836E+00  0.52316565091E+01  0.51100000000E-03 0. -1.
        -11    1    3    3    0    0  0.18352304228E+02  0.88687741498E+01  0.20190370776E+02  0.28689951163E+02  0.51100000000E-03 0.  1.
         12    1    3    3    0    0  0.70360247181E+01 -0.17421089725E+00  0.11946572244E+02  0.13865661962E+02  0.00000000000E+00 0. -1.
</event>
<event>
 7    1  0.8300060E-011  0.4778727E+02  0.7816164E-02  0.1312668E+00
        -11   -1    0    0    0    0  0.00000000000E+00  0.00000000000E+00  0.45593999997E+02  0.45594000000E+02  0.51100000000E-03 0. -1.
         11   -1    0    0    0    0 -0.00000000000E+00 -0.00000000000E+00 -0.45593999997E+02  0.45594000000E+02  0.51100000000E-03 0.  1.
    9900012    2    1    2    0    0  0.40678807461E+01 -0.15328258202E+02 -0.40399511093E+02  0.47787266714E+02  0.19999980254E+02 0.  0.
         12    1    1    2    0    0 -0.40678807461E+01  0.15328258202E+02  0.40399511093E+02  0.43400733286E+02  0.00000000000E+00 0. -1.
         11    1    3    3    0    0 -0.46396810751E+01 -0.38244391733E+01 -0.12422673539E+02  0.13801296808E+02  0.51100000000E-03 0. -1.
        -11    1    3    3    0    0  0.51003351792E+01 -0.50087643305E+01 -0.27025205766E+01  0.76423004905E+01  0.51100000000E-03 0.  1.
        -12    1    3    3    0    0  0.36072266419E+01 -0.64950546981E+01 -0.25274316977E+02  0.26343669415E+02  0.00000000000E+00 0.  1.
</event>
<event>
 7    1  0.8300060E-011  0.4778728E+02  0.7816164E-02  0.1312668E+00
        -11   -1    0    0    0    0  0.00000000000E+00  0.00000000000E+00  0.45593999997E+02  0.45594000000E+02  0.51100000000E-03 0. -1.
         11   -1    0    0    0    0 -0.00000000000E+00 -0.00000000000E+00 -0.45593999997E+02  0.45594000000E+02  0.51100000000E-03 0.  1.
    9900012    2    1    2    0    0  0.36661941374E+02 -0.27799591652E-01 -0.23227642599E+02  0.47787284581E+02  0.20000061721E+02 0.  0.
         12    1    1    2    0    0 -0.36661941374E+02  0.27799591652E-01  0.23227642599E+02  0.43400715419E+02  0.00000000000E+00 0. -1.
         11    1    3    3    0    0  0.15227338088E+02 -0.39792370707E+01 -0.64441815040E+01  0.17006870036E+02  0.51100000000E-03 0. -1.
        -11    1    3    3    0    0  0.15131152411E+02  0.90923298542E+01 -0.10993599018E+02  0.20796188475E+02  0.51100000000E-03 0.  1.
         12    1    3    3    0    0  0.63034508748E+01 -0.51408923752E+01 -0.57898620774E+01  0.99842260701E+01  0.00000000000E+00 0. -1.
</event>
<event>
 7    1  0.8300060E-011  0.4778727E+02  0.7816164E-02  0.1312668E+00
        -11   -1    0    0    0    0  0.00000000000E+00  0.00000000000E+00  0.45593999997E+02  0.45594000000E+02  0.51100000000E-03 0.  1.
         11   -1    0    0    0    0 -0.00000000000E+00 -0.00000000000E+00 -0.45593999997E+02  0.45594000000E+02  0.51100000000E-03 0. -1.
    9900012    2    1    2    0    0 -0.39496817474E+02  0.17945495440E+02  0.12584823101E+01  0.47787272185E+02  0.20000005201E+02 0.  0.
         12    1    1    2    0    0  0.39496817474E+02 -0.17945495440E+02 -0.12584823101E+01  0.43400727815E+02  0.00000000000E+00 0. -1.
         11    1    3    3    0    0 -0.31468769186E+00 -0.79151759746E+00 -0.29628253906E+01  0.30828336002E+01  0.51100000000E-03 0. -1.
        -11    1    3    3    0    0 -0.27313091198E+02  0.97952890823E+01  0.63198747354E+01  0.29696690993E+02  0.51100000000E-03 0.  1.
         12    1    3    3    0    0 -0.11869038584E+02  0.89417239551E+01 -0.20985670347E+01  0.15007747592E+02  0.00000000000E+00 0. -1.
</event>
<event>
 7    1  0.8609724E-011  0.4778727E+02  0.7816164E-02  0.1312668E+00
        -11   -1    0    0    0    0  0.00000000000E+00  0.00000000000E+00  0.45593999997E+02  0.45594000000E+02  0.51100000000E-03 0. -1.
         11   -1    0    0    0    0 -0.00000000000E+00 -0.00000000000E+00 -0.45593999997E+02  0.45594000000E+02  0.51100000000E-03 0.  1.
    9900012    2    1    2    0    0  0.60601630835E+01 -0.37105724591E+01 -0.42815063140E+02  0.47787267792E+02  0.19999985169E+02 0.  0.
         12    1    1    2    0    0 -0.60601630835E+01  0.37105724591E+01  0.42815063140E+02  0.43400732208E+02  0.00000000000E+00 0. -1.
         11    1    3    3    0    0  0.64514263854E+01 -0.57847544744E+01 -0.12208497001E+02  0.14971028222E+02  0.51100000000E-03 0. -1.
        -11    1    3    3    0    0 -0.57482962194E+01 -0.25357082623E+00 -0.18503377676E+02  0.19377362908E+02  0.51100000000E-03 0.  1.
        -12    1    3    3    0    0  0.53570329175E+01  0.23277528416E+01 -0.12103188463E+02  0.13438876662E+02  0.00000000000E+00 0.  1.
</event>
<event>
 7    1  0.8300060E-011  0.4778727E+02  0.7816164E-02  0.1312668E+00
        -11   -1    0    0    0    0  0.00000000000E+00  0.00000000000E+00  0.45593999997E+02  0.45594000000E+02  0.51100000000E-03 0.  1.
         11   -1    0    0    0    0 -0.00000000000E+00 -0.00000000000E+00 -0.45593999997E+02  0.45594000000E+02  0.51100000000E-03 0. -1.
    9900012    2    1    2    0    0  0.39606193748E+02  0.10529125988E+02  0.14286707091E+02  0.47787273315E+02  0.20000010353E+02 0.  0.
        -12    1    1    2    0    0 -0.39606193748E+02 -0.10529125988E+02 -0.14286707091E+02  0.43400726685E+02  0.00000000000E+00 0.  1.
         11    1    3    3    0    0  0.37607786305E+02  0.41512432683E+01  0.13460004460E+02  0.40159060395E+02  0.51100000000E-03 0. -1.
        -11    1    3    3    0    0  0.18403233419E+00  0.19620497984E+01 -0.13424615179E+01  0.23844727928E+01  0.51100000000E-03 0.  1.
         12    1    3    3    0    0  0.18143751086E+01  0.44158329216E+01  0.21691641485E+01  0.52437401279E+01  0.00000000000E+00 0. -1.
</event>
<event>
 7    1  0.8300060E-011  0.4778722E+02  0.7816164E-02  0.1312668E+00
        -11   -1    0    0    0    0  0.00000000000E+00  0.00000000000E+00  0.45593999997E+02  0.45594000000E+02  0.51100000000E-03 0. -1.
         11   -1    0    0    0    0 -0.00000000000E+00 -0.00000000000E+00 -0.45593999997E+02  0.45594000000E+02  0.51100000000E-03 0.  1.
    9900012    2    1    2    0    0 -0.34361394758E+02 -0.27188710455E+01  0.26372899115E+02  0.47787222158E+02  0.19999777108E+02 0.  0.
        -12    1    1    2    0    0  0.34361394758E+02  0.27188710455E+01 -0.26372899115E+02  0.43400777842E+02  0.00000000000E+00 0.  1.
         11    1    3    3    0    0 -0.47712910955E+01 -0.45292985048E+01  0.11680202419E+02  0.13405479942E+02  0.51100000000E-03 0.  1.
        -11    1    3    3    0    0 -0.84583168267E+01  0.38526233816E+01  0.15779535359E+01  0.94273945544E+01  0.51100000000E-03 0. -1.
         12    1    3    3    0    0 -0.21131786836E+02 -0.20421959223E+01  0.13114743160E+02  0.24954347662E+02  0.00000000000E+00 0. -1.
</event>
<event>
 7    1  0.8300060E-011  0.4778727E+02  0.7816164E-02  0.1312668E+00
        -11   -1    0    0    0    0  0.00000000000E+00  0.00000000000E+00  0.45593999997E+02  0.45594000000E+02  0.51100000000E-03 0. -1.
         11   -1    0    0    0    0 -0.00000000000E+00 -0.00000000000E+00 -0.45593999997E+02  0.45594000000E+02  0.51100000000E-03 0.  1.
    9900012    2    1    2    0    0  0.42012273244E+02 -0.49783810695E+01 -0.96854542104E+01  0.47787269540E+02  0.19999993139E+02 0.  0.
         12    1    1    2    0    0 -0.42012273244E+02  0.49783810695E+01  0.96854542104E+01  0.43400730460E+02  0.00000000000E+00 0. -1.
         11    1    3    3    0    0  0.72065779438E+01 -0.26967766669E-01 -0.40098616987E+01  0.82470894275E+01  0.51100000000E-03 0. -1.
        -11    1    3    3    0    0  0.30671148773E+02  0.22804654647E+01 -0.52353396063E+01  0.31198215828E+02  0.51100000000E-03 0.  1.
        -12    1    3    3    0    0  0.41345465272E+01 -0.72318787675E+01 -0.44025290534E+00  0.83419642839E+01  0.00000000000E+00 0.  1.
</event>
<event>
 7    1  0.8300060E-011  0.4778727E+02  0.7816164E-02  0.1312668E+00
        -11   -1    0    0    0    0  0.00000000000E+00  0.00000000000E+00  0.45593999997E+02  0.45594000000E+02  0.51100000000E-03 0. -1.
         11   -1    0    0    0    0 -0.00000000000E+00 -0.00000000000E+00 -0.45593999997E+02  0.45594000000E+02  0.51100000000E-03 0.  1.
    9900012    2    1    2    0    0 -0.18087523650E+02  0.15225206559E+02 -0.36395848658E+02  0.47787271595E+02  0.20000002509E+02 0.  0.
         12    1    1    2    0    0  0.18087523650E+02 -0.15225206559E+02  0.36395848658E+02  0.43400728405E+02  0.00000000000E+00 0. -1.
         11    1    3    3    0    0 -0.11525857933E+00  0.13212300636E+01  0.40925613234E+00  0.13879568668E+01  0.51100000000E-03 0. -1.
        -11    1    3    3    0    0  0.16934657410E+01  0.82093069184E+00 -0.12002376330E+02  0.12149024292E+02  0.51100000000E-03 0.  1.
        -12    1    3    3    0    0 -0.19665730812E+02  0.13083045803E+02 -0.24802728460E+02  0.34250290436E+02  0.00000000000E+00 0.  1.
</event>
<event>
 7    1  0.8300060E-011  0.4778728E+02  0.7816164E-02  0.1312668E+00
        -11   -1    0    0    0    0  0.00000000000E+00  0.00000000000E+00  0.45593999997E+02  0.45594000000E+02  0.51100000000E-03 0. -1.
         11   -1    0    0    0    0 -0.00000000000E+00 -0.00000000000E+00 -0.45593999997E+02  0.45594000000E+02  0.51100000000E-03 0.  1.
    9900012    2    1    2    0    0  0.17823394941E+02  0.36933404552E+01  0.39399345453E+02  0.47787278887E+02  0.20000035759E+02 0.  0.
        -12    1    1    2    0    0 -0.17823394941E+02 -0.36933404552E+01 -0.39399345453E+02  0.43400721113E+02  0.00000000000E+00 0.  1.
         11    1    3    3    0    0  0.13241993646E+02  0.10182988711E+02  0.30680658323E+02  0.34933457462E+02  0.51100000000E-03 0. -1.
        -11    1    3    3    0    0  0.94979240093E+00 -0.14074574479E+01 -0.45278230041E+00  0.17572860169E+01  0.51100000000E-03 0.  1.
         12    1    3    3    0    0  0.36316088941E+01 -0.50821908080E+01  0.91714694305E+01  0.11096535409E+02  0.00000000000E+00 0. -1.
</event>
<event>
 7    1  0.8300060E-011  0.4778727E+02  0.7816164E-02  0.1312668E+00
        -11   -1    0    0    0    0  0.00000000000E+00  0.00000000000E+00  0.45593999997E+02  0.45594000000E+02  0.51100000000E-03 0. -1.
         11   -1    0    0    0    0 -0.00000000000E+00 -0.00000000000E+00 -0.45593999997E+02  0.45594000000E+02  0.51100000000E-03 0.  1.
    9900012    2    1    2    0    0  0.13807596081E+02  0.16919471949E+01 -0.41110961374E+02  0.47787267979E+02  0.19999986025E+02 0.  0.
         12    1    1    2    0    0 -0.13807596081E+02 -0.16919471949E+01  0.41110961374E+02  0.43400732021E+02  0.00000000000E+00 0. -1.
         11    1    3    3    0    0  0.14597135537E+02 -0.26149782150E+01 -0.15408832350E+02  0.21385663226E+02  0.51100000000E-03 0. -1.
        -11    1    3    3    0    0 -0.18111401873E+01  0.46208320735E+01 -0.21550862470E+02  0.22114972107E+02  0.51100000000E-03 0.  1.
         12    1    3    3    0    0  0.10216007312E+01 -0.31390666361E+00 -0.41512665535E+01  0.42866326464E+01  0.00000000000E+00 0. -1.
</event>
<event>
 7    1  0.1181507E-010  0.4778727E+02  0.7816164E-02  0.1312668E+00
        -11   -1    0    0    0    0  0.00000000000E+00  0.00000000000E+00  0.45593999997E+02  0.45594000000E+02  0.51100000000E-03 0. -1.
         11   -1    0    0    0    0 -0.00000000000E+00 -0.00000000000E+00 -0.45593999997E+02  0.45594000000E+02  0.51100000000E-03 0.  1.
    9900012    2    1    2    0    0 -0.17280333692E+02  0.41330956981E+01 -0.39597107246E+02  0.47787270572E+02  0.19999997848E+02 0.  0.
         12    1    1    2    0    0  0.17280333692E+02 -0.41330956981E+01  0.39597107246E+02  0.43400729428E+02  0.00000000000E+00 0. -1.
         11    1    3    3    0    0 -0.20188680020E+01  0.53939732857E+01 -0.40748858926E+01  0.70551733583E+01  0.51100000000E-03 0. -1.
        -11    1    3    3    0    0 -0.72911660733E+01 -0.69952699985E+01 -0.18619155010E+02  0.21184141205E+02  0.51100000000E-03 0.  1.
        -12    1    3    3    0    0 -0.79702996170E+01  0.57343924109E+01 -0.16903066344E+02  0.19547956009E+02  0.00000000000E+00 0.  1.
</event>
<event>
 7    1  0.8300060E-011  0.4778727E+02  0.7816164E-02  0.1312668E+00
        -11   -1    0    0    0    0  0.00000000000E+00  0.00000000000E+00  0.45593999997E+02  0.45594000000E+02  0.51100000000E-03 0. -1.
         11   -1    0    0    0    0 -0.00000000000E+00 -0.00000000000E+00 -0.45593999997E+02  0.45594000000E+02  0.51100000000E-03 0.  1.
    9900012    2    1    2    0    0 -0.35599013421E+02  0.98738559790E+01  0.22778077911E+02  0.47787267037E+02  0.19999981726E+02 0.  0.
        -12    1    1    2    0    0  0.35599013421E+02 -0.98738559790E+01 -0.22778077911E+02  0.43400732963E+02  0.00000000000E+00 0.  1.
         11    1    3    3    0    0 -0.97744338398E+01  0.44829789863E+00 -0.77474883335E-01  0.97850156113E+01  0.51100000000E-03 0. -1.
        -11    1    3    3    0    0 -0.25659799419E+02  0.11614077750E+02  0.21143062246E+02  0.35218477957E+02  0.51100000000E-03 0.  1.
        -12    1    3    3    0    0 -0.16478016249E+00 -0.21885196695E+01  0.17124905487E+01  0.27837734687E+01  0.00000000000E+00 0.  1.
</event>
<event>
 7    1  0.8300060E-011  0.4778727E+02  0.7816164E-02  0.1312668E+00
        -11   -1    0    0    0    0  0.00000000000E+00  0.00000000000E+00  0.45593999997E+02  0.45594000000E+02  0.51100000000E-03 0. -1.
         11   -1    0    0    0    0 -0.00000000000E+00 -0.00000000000E+00 -0.45593999997E+02  0.45594000000E+02  0.51100000000E-03 0.  1.
    9900012    2    1    2    0    0 -0.20770191470E+02  0.28902865759E+02 -0.24836399997E+02  0.47787271117E+02  0.20000000330E+02 0.  0.
         12    1    1    2    0    0  0.20770191470E+02 -0.28902865759E+02  0.24836399997E+02  0.43400728883E+02  0.00000000000E+00 0. -1.
         11    1    3    3    0    0 -0.96306388800E+00  0.56684041971E+01 -0.10939587618E+02  0.12358514300E+02  0.51100000000E-03 0. -1.
        -11    1    3    3    0    0 -0.17181995910E+02  0.12601530107E+02 -0.67513196263E+01  0.22351730614E+02  0.51100000000E-03 0.  1.
         12    1    3    3    0    0 -0.26251316718E+01  0.10632931455E+02 -0.71454927524E+01  0.13077026202E+02  0.00000000000E+00 0. -1.
</event>
<event>
 7    1  0.8300060E-011  0.4778728E+02  0.7816164E-02  0.1312668E+00
        -11   -1    0    0    0    0  0.00000000000E+00  0.00000000000E+00  0.45593999997E+02  0.45594000000E+02  0.51100000000E-03 0. -1.
         11   -1    0    0    0    0 -0.00000000000E+00 -0.00000000000E+00 -0.45593999997E+02  0.45594000000E+02  0.51100000000E-03 0.  1.
    9900012    2    1    2    0    0  0.26241926935E+02  0.29391333125E+01 -0.34443364978E+02  0.47787278521E+02  0.20000034088E+02 0.  0.
         12    1    1    2    0    0 -0.26241926935E+02 -0.29391333125E+01  0.34443364978E+02  0.43400721479E+02  0.00000000000E+00 0. -1.
         11    1    3    3    0    0 -0.17061518507E+01 -0.33408487419E+01 -0.30190725647E+01  0.48152906315E+01  0.51100000000E-03 0. -1.
        -11    1    3    3    0    0  0.17506210905E+02  0.64199209147E+01 -0.22607234885E+02  0.29304775621E+02  0.51100000000E-03 0.  1.
         12    1    3    3    0    0  0.10441867881E+02 -0.13993886041E+00 -0.88170575284E+01  0.13667212268E+02  0.00000000000E+00 0. -1.
</event>
<event>
 7    1  0.8300060E-011  0.4778726E+02  0.7816164E-02  0.1312668E+00
        -11   -1    0    0    0    0  0.00000000000E+00  0.00000000000E+00  0.45593999997E+02  0.45594000000E+02  0.51100000000E-03 0. -1.
         11   -1    0    0    0    0 -0.00000000000E+00 -0.00000000000E+00 -0.45593999997E+02  0.45594000000E+02  0.51100000000E-03 0.  1.
    9900012    2    1    2    0    0  0.12331631859E+02  0.20554806057E+02 -0.36180867088E+02  0.47787258767E+02  0.19999944023E+02 0.  0.
         12    1    1    2    0    0 -0.12331631859E+02 -0.20554806057E+02  0.36180867088E+02  0.43400741233E+02  0.00000000000E+00 0. -1.
         11    1    3    3    0    0 -0.53574227254E-02  0.95144310461E+00 -0.67135963806E+00  0.11644727167E+01  0.51100000000E-03 0. -1.
        -11    1    3    3    0    0 -0.17380781390E+01  0.98870918156E+01 -0.40700757571E+01  0.10832405879E+02  0.51100000000E-03 0.  1.
        -12    1    3    3    0    0  0.14075067421E+02  0.97162711363E+01 -0.31439431693E+02  0.35790380172E+02  0.00000000000E+00 0.  1.
</event>
<event>
 7    1  0.8300060E-011  0.4778727E+02  0.7816164E-02  0.1312668E+00
        -11   -1    0    0    0    0  0.00000000000E+00  0.00000000000E+00  0.45593999997E+02  0.45594000000E+02  0.51100000000E-03 0. -1.
         11   -1    0    0    0    0 -0.00000000000E+00 -0.00000000000E+00 -0.45593999997E+02  0.45594000000E+02  0.51100000000E-03 0.  1.
    9900012    2    1    2    0    0 -0.31291953508E+02 -0.97117688636E+01  0.28462577741E+02  0.47787272582E+02  0.20000007009E+02 0.  0.
        -12    1    1    2    0    0  0.31291953508E+02  0.97117688636E+01 -0.28462577741E+02  0.43400727418E+02  0.00000000000E+00 0.  1.
         11    1    3    3    0    0 -0.21494240368E+02 -0.69378267039E+01  0.15167843313E+02  0.27206603599E+02  0.51100000000E-03 0. -1.
        -11    1    3    3    0    0  0.50170370323E+00  0.20589859877E+01 -0.97330496386E+00  0.23320490384E+01  0.51100000000E-03 0.  1.
        -12    1    3    3    0    0 -0.10299416843E+02 -0.48329281475E+01  0.14268039392E+02  0.18248619944E+02  0.00000000000E+00 0.  1.
</event>
<event>
 7    1  0.8300060E-011  0.4778727E+02  0.7816164E-02  0.1312668E+00
        -11   -1    0    0    0    0  0.00000000000E+00  0.00000000000E+00  0.45593999997E+02  0.45594000000E+02  0.51100000000E-03 0. -1.
         11   -1    0    0    0    0 -0.00000000000E+00 -0.00000000000E+00 -0.45593999997E+02  0.45594000000E+02  0.51100000000E-03 0.  1.
    9900012    2    1    2    0    0  0.32509826210E+02  0.18810851016E+02  0.21745948861E+02  0.47787271803E+02  0.20000003458E+02 0.  0.
        -12    1    1    2    0    0 -0.32509826210E+02 -0.18810851016E+02 -0.21745948861E+02  0.43400728197E+02  0.00000000000E+00 0.  1.
         11    1    3    3    0    0  0.24969781117E+02  0.20896645919E+02  0.19284797429E+02  0.37842610795E+02  0.51100000000E-03 0. -1.
        -11    1    3    3    0    0  0.15396772993E+00 -0.19670971776E+01  0.15348315497E+01  0.24997770930E+01  0.51100000000E-03 0.  1.
         12    1    3    3    0    0  0.73860773638E+01 -0.11869772548E+00  0.92631988235E+00  0.74448839144E+01  0.00000000000E+00 0. -1.
</event>
<event>
 7    1  0.8300060E-011  0.4778727E+02  0.7816164E-02  0.1312668E+00
        -11   -1    0    0    0    0  0.00000000000E+00  0.00000000000E+00  0.45593999997E+02  0.45594000000E+02  0.51100000000E-03 0. -1.
         11   -1    0    0    0    0 -0.00000000000E+00 -0.00000000000E+00 -0.45593999997E+02  0.45594000000E+02  0.51100000000E-03 0.  1.
    9900012    2    1    2    0    0  0.10431767389E+02 -0.89213327824E+01 -0.41172944941E+02  0.47787270229E+02  0.19999996284E+02 0.  0.
         12    1    1    2    0    0 -0.10431767389E+02  0.89213327824E+01  0.41172944941E+02  0.43400729771E+02  0.00000000000E+00 0. -1.
         11    1    3    3    0    0  0.13883911604E+01 -0.29007920611E-01  0.16527203737E+01  0.21586932085E+01  0.51100000000E-03 0. -1.
        -11    1    3    3    0    0  0.56665289156E+01 -0.33503086332E+01 -0.34234855665E+02  0.34862005975E+02  0.51100000000E-03 0.  1.
        -12    1    3    3    0    0  0.33768473131E+01 -0.55420162286E+01 -0.85908096497E+01  0.10766571046E+02  0.00000000000E+00 0.  1.
</event>
<event>
 7    1  0.8300060E-011  0.4778726E+02  0.7816164E-02  0.1312668E+00
        -11   -1    0    0    0    0  0.00000000000E+00  0.00000000000E+00  0.45593999997E+02  0.45594000000E+02  0.51100000000E-03 0. -1.
         11   -1    0    0    0    0 -0.00000000000E+00 -0.00000000000E+00 -0.45593999997E+02  0.45594000000E+02  0.51100000000E-03 0.  1.
    9900012    2    1    2    0    0  0.62657028068E+01  0.16762417370E+02  0.39539680302E+02  0.47787262839E+02  0.19999962590E+02 0.  0.
        -12    1    1    2    0    0 -0.62657028068E+01 -0.16762417370E+02 -0.39539680302E+02  0.43400737161E+02  0.00000000000E+00 0.  1.
         11    1    3    3    0    0  0.84165919546E+01  0.44415466991E+01  0.22735381010E+02  0.24646782897E+02  0.51100000000E-03 0. -1.
        -11    1    3    3    0    0 -0.54069359776E+01  0.82671850057E+01  0.14271987917E+02  0.17357158291E+02  0.51100000000E-03 0.  1.
         12    1    3    3    0    0  0.32560468297E+01  0.40536856648E+01  0.25323113742E+01  0.57833216513E+01  0.00000000000E+00 0. -1.
</event>
<event>
 7    1  0.8300060E-011  0.4778727E+02  0.7816164E-02  0.1312668E+00
        -11   -1    0    0    0    0  0.00000000000E+00  0.00000000000E+00  0.45593999997E+02  0.45594000000E+02  0.51100000000E-03 0. -1.
         11   -1    0    0    0    0 -0.00000000000E+00 -0.00000000000E+00 -0.45593999997E+02  0.45594000000E+02  0.51100000000E-03 0.  1.
    9900012    2    1    2    0    0 -0.94117060994E+00 -0.27427555334E+02 -0.33622410180E+02  0.47787273508E+02  0.20000011231E+02 0.  0.
         12    1    1    2    0    0  0.94117060994E+00  0.27427555334E+02  0.33622410180E+02  0.43400726492E+02  0.00000000000E+00 0. -1.
         11    1    3    3    0    0  0.11174808551E+01 -0.15444218963E+02 -0.69924434021E+01  0.16990200936E+02  0.51100000000E-03 0. -1.
        -11    1    3    3    0    0 -0.55975972968E+01 -0.56318293557E+01 -0.11082933015E+02  0.13633854989E+02  0.51100000000E-03 0.  1.
         12    1    3    3    0    0  0.35389458317E+01 -0.63515070154E+01 -0.15547033763E+02  0.17163217583E+02  0.00000000000E+00 0. -1.
</event>
<event>
 7    1  0.8300060E-011  0.4778728E+02  0.7816164E-02  0.1312668E+00
        -11   -1    0    0    0    0  0.00000000000E+00  0.00000000000E+00  0.45593999997E+02  0.45594000000E+02  0.51100000000E-03 0. -1.
         11   -1    0    0    0    0 -0.00000000000E+00 -0.00000000000E+00 -0.45593999997E+02  0.45594000000E+02  0.51100000000E-03 0.  1.
    9900012    2    1    2    0    0  0.35952974888E+02 -0.21058675165E+02  0.12146539533E+02  0.47787278513E+02  0.20000034051E+02 0.  0.
        -12    1    1    2    0    0 -0.35952974888E+02  0.21058675165E+02 -0.12146539533E+02  0.43400721487E+02  0.00000000000E+00 0.  1.
         11    1    3    3    0    0  0.22918153064E+02 -0.22009336647E+02  0.84750896212E+01  0.32885859938E+02  0.51100000000E-03 0. -1.
        -11    1    3    3    0    0  0.12852087240E+02 -0.47239493186E+00  0.39208520113E+01  0.13445162109E+02  0.51100000000E-03 0.  1.
         12    1    3    3    0    0  0.18273458390E+00  0.14230564142E+01 -0.24940209905E+00  0.14562564654E+01  0.00000000000E+00 0. -1.
</event>
<event>
 7    1  0.8300060E-011  0.4778727E+02  0.7816164E-02  0.1312668E+00
        -11   -1    0    0    0    0  0.00000000000E+00  0.00000000000E+00  0.45593999997E+02  0.45594000000E+02  0.51100000000E-03 0. -1.
         11   -1    0    0    0    0 -0.00000000000E+00 -0.00000000000E+00 -0.45593999997E+02  0.45594000000E+02  0.51100000000E-03 0.  1.
    9900012    2    1    2    0    0 -0.29334251659E+02 -0.21326069579E+02  0.23839540368E+02  0.47787271330E+02  0.20000001304E+02 0.  0.
         12    1    1    2    0    0  0.29334251659E+02  0.21326069579E+02 -0.23839540368E+02  0.43400728670E+02  0.00000000000E+00 0. -1.
         11    1    3    3    0    0  0.52894664652E+00 -0.16717519273E+01 -0.97714888984E+00  0.20073263998E+01  0.51100000000E-03 0. -1.
        -11    1    3    3    0    0 -0.25820119114E+02 -0.16194729728E+02  0.13620575775E+02  0.33383647295E+02  0.51100000000E-03 0.  1.
        -12    1    3    3    0    0 -0.40430791917E+01 -0.34595879236E+01  0.11196113482E+02  0.12396297635E+02  0.00000000000E+00 0.  1.
</event>
<event>
 7    1  0.8300060E-011  0.4778726E+02  0.7816164E-02  0.1312668E+00
        -11   -1    0    0    0    0  0.00000000000E+00  0.00000000000E+00  0.45593999997E+02  0.45594000000E+02  0.51100000000E-03 0. -1.
         11   -1    0    0    0    0 -0.00000000000E+00 -0.00000000000E+00 -0.45593999997E+02  0.45594000000E+02  0.51100000000E-03 0.  1.
    9900012    2    1    2    0    0 -0.15450118157E+02 -0.18600889375E+02 -0.36040606100E+02  0.47787256635E+02  0.19999934301E+02 0.  0.
         12    1    1    2    0    0  0.15450118157E+02  0.18600889375E+02  0.36040606100E+02  0.43400743365E+02  0.00000000000E+00 0. -1.
         11    1    3    3    0    0  0.38970330159E+01 -0.16047000630E+01 -0.63703637330E+01  0.76382892699E+01  0.51100000000E-03 0. -1.
        -11    1    3    3    0    0 -0.11818260253E+02 -0.71138285862E+01 -0.10633199854E+02  0.17416738270E+02  0.51100000000E-03 0.  1.
         12    1    3    3    0    0 -0.75288909202E+01 -0.98823607260E+01 -0.19037042513E+02  0.22732229095E+02  0.00000000000E+00 0. -1.
</event>
<event>
 7    1  0.8300060E-011  0.4778727E+02  0.7816164E-02  0.1312668E+00
        -11   -1    0    0    0    0  0.00000000000E+00  0.00000000000E+00  0.45593999997E+02  0.45594000000E+02  0.51100000000E-03 0. -1.
         11   -1    0    0    0    0 -0.00000000000E+00 -0.00000000000E+00 -0.45593999997E+02  0.45594000000E+02  0.51100000000E-03 0.  1.
    9900012    2    1    2    0    0  0.13998530165E+02  0.17614112318E+02 -0.37113443704E+02  0.47787268404E+02  0.19999987959E+02 0.  0.
         12    1    1    2    0    0 -0.13998530165E+02 -0.17614112318E+02  0.37113443704E+02  0.43400731596E+02  0.00000000000E+00 0. -1.
         11    1    3    3    0    0  0.43393901240E+01 -0.11991048649E+01 -0.15094387676E+00  0.45045469739E+01  0.51100000000E-03 0. -1.
        -11    1    3    3    0    0  0.53542382615E+01  0.15949599073E+02 -0.23843842073E+02  0.29181953037E+02  0.51100000000E-03 0.  1.
         12    1    3    3    0    0  0.43049017797E+01  0.28636181099E+01 -0.13118657754E+02  0.14100768393E+02  0.00000000000E+00 0. -1.
</event>
<event>
 7    1  0.8300060E-011  0.4778727E+02  0.7816164E-02  0.1312668E+00
        -11   -1    0    0    0    0  0.00000000000E+00  0.00000000000E+00  0.45593999997E+02  0.45594000000E+02  0.51100000000E-03 0.  1.
         11   -1    0    0    0    0 -0.00000000000E+00 -0.00000000000E+00 -0.45593999997E+02  0.45594000000E+02  0.51100000000E-03 0. -1.
    9900012    2    1    2    0    0 -0.27310433935E+02  0.19275241956E+02  0.27680834897E+02  0.47787269882E+02  0.19999994700E+02 0.  0.
        -12    1    1    2    0    0  0.27310433935E+02 -0.19275241956E+02 -0.27680834897E+02  0.43400730118E+02  0.00000000000E+00 0.  1.
         11    1    3    3    0    0 -0.62310399405E+01  0.52516436826E+01  0.14867184653E+01  0.82834746432E+01  0.51100000000E-03 0. -1.
        -11    1    3    3    0    0  0.17392676332E+01 -0.10829143301E+01  0.29889281327E+01  0.36237338464E+01  0.51100000000E-03 0.  1.
        -12    1    3    3    0    0 -0.22818661628E+02  0.15106512603E+02  0.23205188299E+02  0.35880061392E+02  0.00000000000E+00 0.  1.
</event>
<event>
 7    1  0.8300060E-011  0.4778727E+02  0.7816164E-02  0.1312668E+00
        -11   -1    0    0    0    0  0.00000000000E+00  0.00000000000E+00  0.45593999997E+02  0.45594000000E+02  0.51100000000E-03 0. -1.
         11   -1    0    0    0    0 -0.00000000000E+00 -0.00000000000E+00 -0.45593999997E+02  0.45594000000E+02  0.51100000000E-03 0.  1.
    9900012    2    1    2    0    0 -0.23092446353E+02  0.35561678769E+02  0.92590139288E+01  0.47787269426E+02  0.19999992620E+02 0.  0.
        -12    1    1    2    0    0  0.23092446353E+02 -0.35561678769E+02 -0.92590139288E+01  0.43400730574E+02  0.00000000000E+00 0.  1.
         11    1    3    3    0    0 -0.15239935843E+02  0.12934151454E+02  0.75840549709E+01  0.21379097464E+02  0.51100000000E-03 0. -1.
        -11    1    3    3    0    0 -0.71582708135E+01  0.17954215966E+02 -0.32313914026E+01  0.19596851855E+02  0.51100000000E-03 0.  1.
         12    1    3    3    0    0 -0.69423969652E+00  0.46733113494E+01  0.49063503605E+01  0.68113201059E+01  0.00000000000E+00 0. -1.
</event>
<event>
 7    1  0.8300060E-011  0.4778727E+02  0.7816164E-02  0.1312668E+00
        -11   -1    0    0    0    0  0.00000000000E+00  0.00000000000E+00  0.45593999997E+02  0.45594000000E+02  0.51100000000E-03 0. -1.
         11   -1    0    0    0    0 -0.00000000000E+00 -0.00000000000E+00 -0.45593999997E+02  0.45594000000E+02  0.51100000000E-03 0.  1.
    9900012    2    1    2    0    0 -0.31521884787E+00  0.34761011339E+02 -0.25984531404E+02  0.47787272534E+02  0.20000006793E+02 0.  0.
         12    1    1    2    0    0  0.31521884787E+00 -0.34761011339E+02  0.25984531404E+02  0.43400727466E+02  0.00000000000E+00 0. -1.
         11    1    3    3    0    0 -0.29103458632E+00  0.11096786910E+02  0.11881490193E+01  0.11164008205E+02  0.51100000000E-03 0. -1.
        -11    1    3    3    0    0 -0.19987228000E+01  0.12344645443E+02 -0.18014469029E+02  0.21929574976E+02  0.51100000000E-03 0.  1.
         12    1    3    3    0    0  0.19745385384E+01  0.11319578986E+02 -0.91582113944E+01  0.14693689353E+02  0.00000000000E+00 0. -1.
</event>
<event>
 7    1  0.8300060E-011  0.4778728E+02  0.7816164E-02  0.1312668E+00
        -11   -1    0    0    0    0  0.00000000000E+00  0.00000000000E+00  0.45593999997E+02  0.45594000000E+02  0.51100000000E-03 0. -1.
         11   -1    0    0    0    0 -0.00000000000E+00 -0.00000000000E+00 -0.45593999997E+02  0.45594000000E+02  0.51100000000E-03 0.  1.
    9900012    2    1    2    0    0 -0.33098945621E+02 -0.15838034785E+02  0.23178424815E+02  0.47787275075E+02  0.20000018377E+02 0.  0.
        -12    1    1    2    0    0  0.33098945621E+02  0.15838034785E+02 -0.23178424815E+02  0.43400724925E+02  0.00000000000E+00 0.  1.
         11    1    3    3    0    0 -0.12820463584E+02 -0.32554792176E+01  0.15897022144E+02  0.20680371002E+02  0.51100000000E-03 0. -1.
        -11    1    3    3    0    0 -0.12763914515E+02 -0.12906495932E+02  0.28425259574E+01  0.18373217058E+02  0.51100000000E-03 0.  1.
         12    1    3    3    0    0 -0.75145675220E+01  0.32394036438E+00  0.44388767141E+01  0.87336870155E+01  0.00000000000E+00 0. -1.
</event>
<event>
 7    1  0.8300060E-011  0.4778727E+02  0.7816164E-02  0.1312668E+00
        -11   -1    0    0    0    0  0.00000000000E+00  0.00000000000E+00  0.45593999997E+02  0.45594000000E+02  0.51100000000E-03 0. -1.
         11   -1    0    0    0    0 -0.00000000000E+00 -0.00000000000E+00 -0.45593999997E+02  0.45594000000E+02  0.51100000000E-03 0.  1.
    9900012    2    1    2    0    0 -0.23830185308E+01  0.34149860344E+02  0.26678296867E+02  0.47787271175E+02  0.20000000594E+02 0.  0.
        -12    1    1    2    0    0  0.23830185308E+01 -0.34149860344E+02 -0.26678296867E+02  0.43400728825E+02  0.00000000000E+00 0.  1.
         11    1    3    3    0    0  0.51696456667E+01  0.13304196733E+02  0.13982125045E+02  0.19980658349E+02  0.51100000000E-03 0. -1.
        -11    1    3    3    0    0  0.55899787003E-01  0.62670197717E+01 -0.10731765907E+01  0.63584880169E+01  0.51100000000E-03 0.  1.
         12    1    3    3    0    0 -0.76085639845E+01  0.14578643839E+02  0.13769348412E+02  0.21448124808E+02  0.00000000000E+00 0. -1.
</event>
<event>
 7    1  0.8300060E-011  0.4778727E+02  0.7816164E-02  0.1312668E+00
        -11   -1    0    0    0    0  0.00000000000E+00  0.00000000000E+00  0.45593999997E+02  0.45594000000E+02  0.51100000000E-03 0. -1.
         11   -1    0    0    0    0 -0.00000000000E+00 -0.00000000000E+00 -0.45593999997E+02  0.45594000000E+02  0.51100000000E-03 0.  1.
    9900012    2    1    2    0    0  0.23253310775E+02  0.14279111473E+02  0.33749275996E+02  0.47787272855E+02  0.20000008255E+02 0.  0.
        -12    1    1    2    0    0 -0.23253310775E+02 -0.14279111473E+02 -0.33749275996E+02  0.43400727145E+02  0.00000000000E+00 0.  1.
         11    1    3    3    0    0  0.67971961809E+01  0.18229374367E+01  0.12183050466E+02  0.14069530757E+02  0.51100000000E-03 0. -1.
        -11    1    3    3    0    0  0.12001806076E+02  0.15297556057E+02  0.20635805558E+02  0.28353042900E+02  0.51100000000E-03 0.  1.
        -12    1    3    3    0    0  0.44543085183E+01 -0.28413820200E+01  0.93041997232E+00  0.53646991980E+01  0.00000000000E+00 0.  1.
</event>
<event>
 7    1  0.8300060E-011  0.4778727E+02  0.7816164E-02  0.1312668E+00
        -11   -1    0    0    0    0  0.00000000000E+00  0.00000000000E+00  0.45593999997E+02  0.45594000000E+02  0.51100000000E-03 0. -1.
         11   -1    0    0    0    0 -0.00000000000E+00 -0.00000000000E+00 -0.45593999997E+02  0.45594000000E+02  0.51100000000E-03 0.  1.
    9900012    2    1    2    0    0  0.16578962230E+02  0.10203937997E+01  0.40096384516E+02  0.47787271396E+02  0.20000001601E+02 0.  0.
        -12    1    1    2    0    0 -0.16578962230E+02 -0.10203937997E+01 -0.40096384516E+02  0.43400728604E+02  0.00000000000E+00 0.  1.
         11    1    3    3    0    0  0.15395410146E+01  0.22426546332E+01  0.21582420475E+02  0.21753173565E+02  0.51100000000E-03 0. -1.
        -11    1    3    3    0    0  0.10092338788E+02  0.27598143709E+01  0.61551375695E+01  0.12139093720E+02  0.51100000000E-03 0.  1.
         12    1    3    3    0    0  0.49470824273E+01 -0.39820752044E+01  0.12358826472E+02  0.13895004111E+02  0.00000000000E+00 0. -1.
</event>
<event>
 7    1  0.8300060E-011  0.4778727E+02  0.7816164E-02  0.1312668E+00
        -11   -1    0    0    0    0  0.00000000000E+00  0.00000000000E+00  0.45593999997E+02  0.45594000000E+02  0.51100000000E-03 0. -1.
         11   -1    0    0    0    0 -0.00000000000E+00 -0.00000000000E+00 -0.45593999997E+02  0.45594000000E+02  0.51100000000E-03 0.  1.
    9900012    2    1    2    0    0  0.24653051107E+02 -0.14500687796E+02  0.32643230756E+02  0.47787269711E+02  0.19999993920E+02 0.  0.
        -12    1    1    2    0    0 -0.24653051107E+02  0.14500687796E+02 -0.32643230756E+02  0.43400730289E+02  0.00000000000E+00 0.  1.
         11    1    3    3    0    0 -0.21442228649E+01 -0.19288274077E+01 -0.39695700055E+00  0.29112955852E+01  0.51100000000E-03 0. -1.
        -11    1    3    3    0    0  0.13212011850E+02 -0.43713423026E+01  0.11112470954E+02  0.17808787202E+02  0.51100000000E-03 0.  1.
         12    1    3    3    0    0  0.13585262122E+02 -0.82005180855E+01  0.21927716803E+02  0.27067186924E+02  0.00000000000E+00 0. -1.
</event>
<event>
 7    1  0.8300060E-011  0.4778728E+02  0.7816164E-02  0.1312668E+00
        -11   -1    0    0    0    0  0.00000000000E+00  0.00000000000E+00  0.45593999997E+02  0.45594000000E+02  0.51100000000E-03 0. -1.
         11   -1    0    0    0    0 -0.00000000000E+00 -0.00000000000E+00 -0.45593999997E+02  0.45594000000E+02  0.51100000000E-03 0.  1.
    9900012    2    1    2    0    0  0.10223099316E+02 -0.14532621094E+02  0.39596892473E+02  0.47787277322E+02  0.20000028622E+02 0.  0.
        -12    1    1    2    0    0 -0.10223099316E+02  0.14532621094E+02 -0.39596892473E+02  0.43400722678E+02  0.00000000000E+00 0.  1.
         11    1    3    3    0    0  0.12893964693E+02 -0.15650260189E+02  0.35210932376E+02  0.40632434440E+02  0.51100000000E-03 0. -1.
        -11    1    3    3    0    0 -0.35133326262E+01  0.95972864111E+00  0.49376170503E+01  0.61355234172E+01  0.51100000000E-03 0.  1.
         12    1    3    3    0    0  0.84246724942E+00  0.15791045370E+00 -0.55165695338E+00  0.10193194651E+01  0.00000000000E+00 0. -1.
</event>
<event>
 7    1  0.8300060E-011  0.4778727E+02  0.7816164E-02  0.1312668E+00
        -11   -1    0    0    0    0  0.00000000000E+00  0.00000000000E+00  0.45593999997E+02  0.45594000000E+02  0.51100000000E-03 0. -1.
         11   -1    0    0    0    0 -0.00000000000E+00 -0.00000000000E+00 -0.45593999997E+02  0.45594000000E+02  0.51100000000E-03 0.  1.
    9900012    2    1    2    0    0  0.35049376374E+02  0.24896431740E+02  0.59440905194E+01  0.47787270632E+02  0.19999998118E+02 0.  0.
         12    1    1    2    0    0 -0.35049376374E+02 -0.24896431740E+02 -0.59440905194E+01  0.43400729368E+02  0.00000000000E+00 0. -1.
         11    1    3    3    0    0  0.20205925514E+02  0.10601253826E+02  0.24670304316E+01  0.22951083808E+02  0.51100000000E-03 0. -1.
        -11    1    3    3    0    0  0.14123459859E+02  0.87113254788E+01  0.71977492800E+01  0.18087755664E+02  0.51100000000E-03 0.  1.
         12    1    3    3    0    0  0.71999100190E+00  0.55838524352E+01 -0.37206891922E+01  0.67484311603E+01  0.00000000000E+00 0. -1.
</event>
<event>
 7    1  0.8300060E-011  0.4778727E+02  0.7816164E-02  0.1312668E+00
        -11   -1    0    0    0    0  0.00000000000E+00  0.00000000000E+00  0.45593999997E+02  0.45594000000E+02  0.51100000000E-03 0. -1.
         11   -1    0    0    0    0 -0.00000000000E+00 -0.00000000000E+00 -0.45593999997E+02  0.45594000000E+02  0.51100000000E-03 0.  1.
    9900012    2    1    2    0    0 -0.14213929760E+02 -0.19022017985E+02 -0.36328371340E+02  0.47787268075E+02  0.19999986459E+02 0.  0.
         12    1    1    2    0    0  0.14213929760E+02  0.19022017985E+02  0.36328371340E+02  0.43400731925E+02  0.00000000000E+00 0. -1.
         11    1    3    3    0    0 -0.10917237270E+02 -0.19940171917E+02 -0.21036872201E+02  0.30973319453E+02  0.51100000000E-03 0. -1.
        -11    1    3    3    0    0 -0.26791572851E+01  0.34820634638E+00 -0.15663608428E+02  0.15894897316E+02  0.51100000000E-03 0.  1.
        -12    1    3    3    0    0 -0.61753520453E+00  0.56994758587E+00  0.37210928893E+00  0.91905130563E+00  0.00000000000E+00 0.  1.
</event>
<event>
 7    1  0.8300060E-011  0.4778728E+02  0.7816164E-02  0.1312668E+00
        -11   -1    0    0    0    0  0.00000000000E+00  0.00000000000E+00  0.45593999997E+02  0.45594000000E+02  0.51100000000E-03 0. -1.
         11   -1    0    0    0    0 -0.00000000000E+00 -0.00000000000E+00 -0.45593999997E+02  0.45594000000E+02  0.51100000000E-03 0.  1.
    9900012    2    1    2    0    0  0.23537654147E+02  0.76559560080E+01 -0.35650918335E+02  0.47787276466E+02  0.20000024719E+02 0.  0.
         12    1    1    2    0    0 -0.23537654147E+02 -0.76559560080E+01  0.35650918335E+02  0.43400723534E+02  0.00000000000E+00 0. -1.
         11    1    3    3    0    0 -0.97311489432E+00  0.34564592341E+01 -0.87867838514E+01  0.94921880379E+01  0.51100000000E-03 0. -1.
        -11    1    3    3    0    0  0.23722674275E+02  0.37628993620E+01 -0.19672539327E+02  0.31047278306E+02  0.51100000000E-03 0.  1.
        -12    1    3    3    0    0  0.78809476559E+00  0.43659741187E+00 -0.71915951571E+01  0.72478101219E+01  0.00000000000E+00 0.  1.
</event>
<event>
 7    1  0.8300060E-011  0.4778727E+02  0.7816164E-02  0.1312668E+00
        -11   -1    0    0    0    0  0.00000000000E+00  0.00000000000E+00  0.45593999997E+02  0.45594000000E+02  0.51100000000E-03 0. -1.
         11   -1    0    0    0    0 -0.00000000000E+00 -0.00000000000E+00 -0.45593999997E+02  0.45594000000E+02  0.51100000000E-03 0.  1.
    9900012    2    1    2    0    0  0.35015430327E+02  0.14151002652E+02 -0.21384390372E+02  0.47787269722E+02  0.19999993972E+02 0.  0.
         12    1    1    2    0    0 -0.35015430327E+02 -0.14151002652E+02  0.21384390372E+02  0.43400730278E+02  0.00000000000E+00 0. -1.
         11    1    3    3    0    0  0.91320132804E+01 -0.36196588081E+01 -0.31734828426E+01  0.10323109515E+02  0.51100000000E-03 0. -1.
        -11    1    3    3    0    0  0.22744286688E+02  0.12633268992E+02 -0.11491653591E+02  0.28442225034E+02  0.51100000000E-03 0.  1.
         12    1    3    3    0    0  0.31391303585E+01  0.51373924687E+01 -0.67192539385E+01  0.90219351735E+01  0.00000000000E+00 0. -1.
</event>
<event>
 7    1  0.8300060E-011  0.4778727E+02  0.7816164E-02  0.1312668E+00
        -11   -1    0    0    0    0  0.00000000000E+00  0.00000000000E+00  0.45593999997E+02  0.45594000000E+02  0.51100000000E-03 0. -1.
         11   -1    0    0    0    0 -0.00000000000E+00 -0.00000000000E+00 -0.45593999997E+02  0.45594000000E+02  0.51100000000E-03 0.  1.
    9900012    2    1    2    0    0  0.35431388259E+02 -0.21211748649E+02 -0.13352974446E+02  0.47787268655E+02  0.19999989106E+02 0.  0.
         12    1    1    2    0    0 -0.35431388259E+02  0.21211748649E+02  0.13352974446E+02  0.43400731345E+02  0.00000000000E+00 0. -1.
         11    1    3    3    0    0  0.55054382182E+01 -0.32984236032E+01  0.27676894861E+01  0.69892455668E+01  0.51100000000E-03 0. -1.
        -11    1    3    3    0    0  0.25331686201E+02 -0.81188009440E+01 -0.12483619452E+02  0.29384519894E+02  0.51100000000E-03 0.  1.
        -12    1    3    3    0    0  0.45942638405E+01 -0.97945241014E+01 -0.36370444799E+01  0.11413503194E+02  0.00000000000E+00 0.  1.
</event>
<event>
 7    1  0.8300060E-011  0.4778727E+02  0.7816164E-02  0.1312668E+00
        -11   -1    0    0    0    0  0.00000000000E+00  0.00000000000E+00  0.45593999997E+02  0.45594000000E+02  0.51100000000E-03 0.  1.
         11   -1    0    0    0    0 -0.00000000000E+00 -0.00000000000E+00 -0.45593999997E+02  0.45594000000E+02  0.51100000000E-03 0. -1.
    9900012    2    1    2    0    0 -0.37455524229E+02 -0.20309839133E+02  0.82593927851E+01  0.47787269245E+02  0.19999991798E+02 0.  0.
        -12    1    1    2    0    0  0.37455524229E+02  0.20309839133E+02 -0.82593927851E+01  0.43400730755E+02  0.00000000000E+00 0.  1.
         11    1    3    3    0    0 -0.16142722134E+02 -0.24648526886E+01  0.57307622526E+01  0.17306201575E+02  0.51100000000E-03 0. -1.
        -11    1    3    3    0    0 -0.70166489320E+01 -0.12567337595E+02 -0.21197012046E+01  0.14548693066E+02  0.51100000000E-03 0.  1.
        -12    1    3    3    0    0 -0.14296153162E+02 -0.52776488490E+01  0.46483317371E+01  0.15932374605E+02  0.00000000000E+00 0.  1.
</event>
<event>
 7    1  0.8300060E-011  0.4778727E+02  0.7816164E-02  0.1312668E+00
        -11   -1    0    0    0    0  0.00000000000E+00  0.00000000000E+00  0.45593999997E+02  0.45594000000E+02  0.51100000000E-03 0. -1.
         11   -1    0    0    0    0 -0.00000000000E+00 -0.00000000000E+00 -0.45593999997E+02  0.45594000000E+02  0.51100000000E-03 0.  1.
    9900012    2    1    2    0    0  0.10967026496E+02 -0.12582091784E+02  0.40062933851E+02  0.47787269907E+02  0.19999994814E+02 0.  0.
        -12    1    1    2    0    0 -0.10967026496E+02  0.12582091784E+02 -0.40062933851E+02  0.43400730093E+02  0.00000000000E+00 0.  1.
         11    1    3    3    0    0  0.96115240314E+00 -0.16999605032E+01  0.19238625282E+02  0.19337486462E+02  0.51100000000E-03 0. -1.
        -11    1    3    3    0    0  0.12986597885E+02 -0.81264785713E+01  0.16721527242E+02  0.22678202137E+02  0.51100000000E-03 0.  1.
        -12    1    3    3    0    0 -0.29807237919E+01 -0.27556527100E+01  0.41027813264E+01  0.57715813079E+01  0.00000000000E+00 0.  1.
</event>
<event>
 7    1  0.8300060E-011  0.4778727E+02  0.7816164E-02  0.1312668E+00
        -11   -1    0    0    0    0  0.00000000000E+00  0.00000000000E+00  0.45593999997E+02  0.45594000000E+02  0.51100000000E-03 0. -1.
         11   -1    0    0    0    0 -0.00000000000E+00 -0.00000000000E+00 -0.45593999997E+02  0.45594000000E+02  0.51100000000E-03 0.  1.
    9900012    2    1    2    0    0  0.83964977898E+01  0.20837065535E+02 -0.37134067361E+02  0.47787269199E+02  0.19999991588E+02 0.  0.
         12    1    1    2    0    0 -0.83964977898E+01 -0.20837065535E+02  0.37134067361E+02  0.43400730801E+02  0.00000000000E+00 0. -1.
         11    1    3    3    0    0 -0.23758032272E+01  0.15971425530E+01 -0.15304432168E+01  0.32461611189E+01  0.51100000000E-03 0. -1.
        -11    1    3    3    0    0  0.14285397949E+02  0.17055763489E+02 -0.26928411308E+02  0.34930087297E+02  0.51100000000E-03 0.  1.
        -12    1    3    3    0    0 -0.35130969316E+01  0.21841594924E+01 -0.86752128367E+01  0.96110207835E+01  0.00000000000E+00 0.  1.
</event>
<event>
 7    1  0.8300060E-011  0.4778727E+02  0.7816164E-02  0.1312668E+00
        -11   -1    0    0    0    0  0.00000000000E+00  0.00000000000E+00  0.45593999997E+02  0.45594000000E+02  0.51100000000E-03 0. -1.
         11   -1    0    0    0    0 -0.00000000000E+00 -0.00000000000E+00 -0.45593999997E+02  0.45594000000E+02  0.51100000000E-03 0.  1.
    9900012    2    1    2    0    0 -0.11063456144E+02  0.35629988704E+02 -0.22174925797E+02  0.47787268542E+02  0.19999988593E+02 0.  0.
         12    1    1    2    0    0  0.11063456144E+02 -0.35629988704E+02  0.22174925797E+02  0.43400731458E+02  0.00000000000E+00 0. -1.
         11    1    3    3    0    0 -0.71642464987E+01  0.24676147401E+02 -0.52600950003E+01  0.26227986543E+02  0.51100000000E-03 0. -1.
        -11    1    3    3    0    0 -0.14222438069E+01  0.10193830165E+02 -0.15503137002E+02  0.18608713229E+02  0.51100000000E-03 0.  1.
        -12    1    3    3    0    0 -0.24769658384E+01  0.76001113849E+00 -0.14116937953E+01  0.29505687701E+01  0.00000000000E+00 0.  1.
</event>
<event>
 7    1  0.8300060E-011  0.4778727E+02  0.7816164E-02  0.1312668E+00
        -11   -1    0    0    0    0  0.00000000000E+00  0.00000000000E+00  0.45593999997E+02  0.45594000000E+02  0.51100000000E-03 0.  1.
         11   -1    0    0    0    0 -0.00000000000E+00 -0.00000000000E+00 -0.45593999997E+02  0.45594000000E+02  0.51100000000E-03 0. -1.
    9900012    2    1    2    0    0  0.37993949437E+02  0.16493803907E+02  0.12962922504E+02  0.47787272806E+02  0.20000008031E+02 0.  0.
        -12    1    1    2    0    0 -0.37993949437E+02 -0.16493803907E+02 -0.12962922504E+02  0.43400727194E+02  0.00000000000E+00 0.  1.
         11    1    3    3    0    0  0.35153270420E+02  0.19985362872E+02  0.14538814016E+02  0.42971435438E+02  0.51100000000E-03 0. -1.
        -11    1    3    3    0    0  0.22699904307E+01 -0.23113575935E+01 -0.11057140725E+01  0.34231322428E+01  0.51100000000E-03 0.  1.
         12    1    3    3    0    0  0.57068858582E+00 -0.11802013716E+01 -0.47017743965E+00  0.13927051246E+01  0.00000000000E+00 0. -1.
</event>
<event>
 7    1  0.8300060E-011  0.4778726E+02  0.7816164E-02  0.1312668E+00
        -11   -1    0    0    0    0  0.00000000000E+00  0.00000000000E+00  0.45593999997E+02  0.45594000000E+02  0.51100000000E-03 0. -1.
         11   -1    0    0    0    0 -0.00000000000E+00 -0.00000000000E+00 -0.45593999997E+02  0.45594000000E+02  0.51100000000E-03 0.  1.
    9900012    2    1    2    0    0 -0.10677537726E+02 -0.15807271661E+02 -0.38983896507E+02  0.47787264567E+02  0.19999970466E+02 0.  0.
         12    1    1    2    0    0  0.10677537726E+02  0.15807271661E+02  0.38983896507E+02  0.43400735433E+02  0.00000000000E+00 0. -1.
         11    1    3    3    0    0 -0.90233511404E+01 -0.47505165417E+01 -0.19421391248E+02  0.21935786092E+02  0.51100000000E-03 0. -1.
        -11    1    3    3    0    0  0.51172432509E+01 -0.26547298018E+01 -0.94088086046E+01  0.11034466386E+02  0.51100000000E-03 0.  1.
        -12    1    3    3    0    0 -0.67714298364E+01 -0.84020253180E+01 -0.10153696655E+02  0.14817012089E+02  0.00000000000E+00 0.  1.
</event>
<event>
 7    1  0.8300060E-011  0.4778727E+02  0.7816164E-02  0.1312668E+00
        -11   -1    0    0    0    0  0.00000000000E+00  0.00000000000E+00  0.45593999997E+02  0.45594000000E+02  0.51100000000E-03 0. -1.
         11   -1    0    0    0    0 -0.00000000000E+00 -0.00000000000E+00 -0.45593999997E+02  0.45594000000E+02  0.51100000000E-03 0.  1.
    9900012    2    1    2    0    0  0.27970180766E+02  0.27605396922E+02  0.18418320124E+02  0.47787268814E+02  0.19999989831E+02 0.  0.
        -12    1    1    2    0    0 -0.27970180766E+02 -0.27605396922E+02 -0.18418320124E+02  0.43400731186E+02  0.00000000000E+00 0.  1.
         11    1    3    3    0    0  0.11959588433E+02  0.21175732485E+02  0.12879491953E+02  0.27519533335E+02  0.51100000000E-03 0. -1.
        -11    1    3    3    0    0  0.90330764639E+01  0.67770954537E+01 -0.94763501466E-01  0.11293116203E+02  0.51100000000E-03 0.  1.
         12    1    3    3    0    0  0.69775158692E+01 -0.34743101695E+00  0.56335916723E+01  0.89746192759E+01  0.00000000000E+00 0. -1.
</event>
<event>
 7    1  0.8300060E-011  0.4778724E+02  0.7816164E-02  0.1312668E+00
        -11   -1    0    0    0    0  0.00000000000E+00  0.00000000000E+00  0.45593999997E+02  0.45594000000E+02  0.51100000000E-03 0. -1.
         11   -1    0    0    0    0 -0.00000000000E+00 -0.00000000000E+00 -0.45593999997E+02  0.45594000000E+02  0.51100000000E-03 0.  1.
    9900012    2    1    2    0    0  0.25814871209E+02  0.90408007048E+01  0.33696918175E+02  0.47787240244E+02  0.19999859569E+02 0.  0.
        -12    1    1    2    0    0 -0.25814871209E+02 -0.90408007048E+01 -0.33696918175E+02  0.43400759756E+02  0.00000000000E+00 0.  1.
         11    1    3    3    0    0  0.64681963165E+01  0.36902284438E+01  0.35076790718E+01  0.82315953671E+01  0.51100000000E-03 0. -1.
        -11    1    3    3    0    0 -0.23550522608E+01  0.11094524094E+01  0.72084440181E+01  0.76641256007E+01  0.51100000000E-03 0.  1.
        -12    1    3    3    0    0  0.21701727153E+02  0.42411198516E+01  0.22980795085E+02  0.31891519276E+02  0.00000000000E+00 0.  1.
</event>
<event>
 7    1  0.8300060E-011  0.4778727E+02  0.7816164E-02  0.1312668E+00
        -11   -1    0    0    0    0  0.00000000000E+00  0.00000000000E+00  0.45593999997E+02  0.45594000000E+02  0.51100000000E-03 0.  1.
         11   -1    0    0    0    0 -0.00000000000E+00 -0.00000000000E+00 -0.45593999997E+02  0.45594000000E+02  0.51100000000E-03 0. -1.
    9900012    2    1    2    0    0  0.41116897997E+02  0.13655742725E+02 -0.25582055335E+01  0.47787273902E+02  0.20000013029E+02 0.  0.
         12    1    1    2    0    0 -0.41116897997E+02 -0.13655742725E+02  0.25582055335E+01  0.43400726098E+02  0.00000000000E+00 0. -1.
         11    1    3    3    0    0  0.14412614158E+02  0.77145022842E+01 -0.14171173477E+00  0.16347999108E+02  0.51100000000E-03 0. -1.
        -11    1    3    3    0    0  0.22900143341E+02  0.71691931735E+01  0.35501725791E+01  0.24257320985E+02  0.51100000000E-03 0.  1.
        -12    1    3    3    0    0  0.38041404982E+01 -0.12279527326E+01 -0.59666663779E+01  0.71819538086E+01  0.00000000000E+00 0.  1.
</event>
<event>
 7    1  0.8300060E-011  0.4778727E+02  0.7816164E-02  0.1312668E+00
        -11   -1    0    0    0    0  0.00000000000E+00  0.00000000000E+00  0.45593999997E+02  0.45594000000E+02  0.51100000000E-03 0. -1.
         11   -1    0    0    0    0 -0.00000000000E+00 -0.00000000000E+00 -0.45593999997E+02  0.45594000000E+02  0.51100000000E-03 0.  1.
    9900012    2    1    2    0    0  0.10692463278E+02 -0.57882952637E+01  0.41662810957E+02  0.47787274777E+02  0.20000017018E+02 0.  0.
        -12    1    1    2    0    0 -0.10692463278E+02  0.57882952637E+01 -0.41662810957E+02  0.43400725223E+02  0.00000000000E+00 0.  1.
         11    1    3    3    0    0  0.32838396303E+01 -0.12095826807E+01  0.18593112732E+02  0.18919580712E+02  0.51100000000E-03 0. -1.
        -11    1    3    3    0    0  0.39002092633E+01  0.54619270236E+01  0.85659533529E+01  0.10882087861E+02  0.51100000000E-03 0.  1.
        -12    1    3    3    0    0  0.35084143846E+01 -0.10040639607E+02  0.14503744872E+02  0.17985606204E+02  0.00000000000E+00 0.  1.
</event>
<event>
 7    1  0.8300060E-011  0.4778727E+02  0.7816164E-02  0.1312668E+00
        -11   -1    0    0    0    0  0.00000000000E+00  0.00000000000E+00  0.45593999997E+02  0.45594000000E+02  0.51100000000E-03 0. -1.
         11   -1    0    0    0    0 -0.00000000000E+00 -0.00000000000E+00 -0.45593999997E+02  0.45594000000E+02  0.51100000000E-03 0.  1.
    9900012    2    1    2    0    0 -0.39650117789E+01  0.32247200257E+02 -0.28775340070E+02  0.47787269142E+02  0.19999991327E+02 0.  0.
         12    1    1    2    0    0  0.39650117789E+01 -0.32247200257E+02  0.28775340070E+02  0.43400730858E+02  0.00000000000E+00 0. -1.
         11    1    3    3    0    0 -0.14866547123E+01  0.22728588339E+02 -0.10020199142E+02  0.24883795153E+02  0.51100000000E-03 0. -1.
        -11    1    3    3    0    0 -0.47424025659E+01  0.18083547469E+01 -0.64625175678E+01  0.82173391413E+01  0.51100000000E-03 0.  1.
         12    1    3    3    0    0  0.22640454994E+01  0.77102571709E+01 -0.12292623361E+02  0.14686134847E+02  0.00000000000E+00 0. -1.
</event>
<event>
 7    1  0.8300060E-011  0.4778726E+02  0.7816164E-02  0.1312668E+00
        -11   -1    0    0    0    0  0.00000000000E+00  0.00000000000E+00  0.45593999997E+02  0.45594000000E+02  0.51100000000E-03 0. -1.
         11   -1    0    0    0    0 -0.00000000000E+00 -0.00000000000E+00 -0.45593999997E+02  0.45594000000E+02  0.51100000000E-03 0.  1.
    9900012    2    1    2    0    0 -0.19144638434E+02 -0.21472350400E+02 -0.32496854599E+02  0.47787256097E+02  0.19999931850E+02 0.  0.
         12    1    1    2    0    0  0.19144638434E+02  0.21472350400E+02  0.32496854599E+02  0.43400743903E+02  0.00000000000E+00 0. -1.
         11    1    3    3    0    0  0.23283276879E+01 -0.39284669600E+00 -0.58241816265E+01  0.62846264987E+01  0.51100000000E-03 0. -1.
        -11    1    3    3    0    0 -0.12573704265E+02 -0.15713817642E+02 -0.11705845030E+02  0.23281943904E+02  0.51100000000E-03 0.  1.
        -12    1    3    3    0    0 -0.88992618571E+01 -0.53656860623E+01 -0.14966827942E+02  0.18220685694E+02  0.00000000000E+00 0.  1.
</event>
<event>
 7    1  0.8300060E-011  0.4778727E+02  0.7816164E-02  0.1312668E+00
        -11   -1    0    0    0    0  0.00000000000E+00  0.00000000000E+00  0.45593999997E+02  0.45594000000E+02  0.51100000000E-03 0. -1.
         11   -1    0    0    0    0 -0.00000000000E+00 -0.00000000000E+00 -0.45593999997E+02  0.45594000000E+02  0.51100000000E-03 0.  1.
    9900012    2    1    2    0    0 -0.38743154267E+02 -0.13790465190E+01  0.19511259259E+02  0.47787274088E+02  0.20000013876E+02 0.  0.
        -12    1    1    2    0    0  0.38743154267E+02  0.13790465190E+01 -0.19511259259E+02  0.43400725912E+02  0.00000000000E+00 0.  1.
         11    1    3    3    0    0 -0.24975503984E+02 -0.22563860243E+01  0.49620555101E+01  0.25563432326E+02  0.51100000000E-03 0. -1.
        -11    1    3    3    0    0 -0.54591311981E+01  0.38418715937E+01  0.10671989797E+02  0.12587829728E+02  0.51100000000E-03 0.  1.
        -12    1    3    3    0    0 -0.83085190846E+01 -0.29645320884E+01  0.38772139526E+01  0.96360120339E+01  0.00000000000E+00 0.  1.
</event>
<event>
 7    1  0.8300060E-011  0.4778727E+02  0.7816164E-02  0.1312668E+00
        -11   -1    0    0    0    0  0.00000000000E+00  0.00000000000E+00  0.45593999997E+02  0.45594000000E+02  0.51100000000E-03 0. -1.
         11   -1    0    0    0    0 -0.00000000000E+00 -0.00000000000E+00 -0.45593999997E+02  0.45594000000E+02  0.51100000000E-03 0.  1.
    9900012    2    1    2    0    0  0.43743131916E+01 -0.26605281608E+02  0.34009523263E+02  0.47787270768E+02  0.19999998738E+02 0.  0.
        -12    1    1    2    0    0 -0.43743131916E+01  0.26605281608E+02 -0.34009523263E+02  0.43400729232E+02  0.00000000000E+00 0.  1.
         11    1    3    3    0    0  0.19827077572E+01 -0.24698049819E+02  0.25516791550E+02  0.35567280557E+02  0.51100000000E-03 0. -1.
        -11    1    3    3    0    0  0.28190155324E+01 -0.38333015575E+01  0.15530320484E+01  0.50052930191E+01  0.51100000000E-03 0.  1.
         12    1    3    3    0    0 -0.42741009799E+00  0.19260697683E+01  0.69396996639E+01  0.72146971918E+01  0.00000000000E+00 0. -1.
</event>
<event>
 7    1  0.8300060E-011  0.4778727E+02  0.7816164E-02  0.1312668E+00
        -11   -1    0    0    0    0  0.00000000000E+00  0.00000000000E+00  0.45593999997E+02  0.45594000000E+02  0.51100000000E-03 0.  1.
         11   -1    0    0    0    0 -0.00000000000E+00 -0.00000000000E+00 -0.45593999997E+02  0.45594000000E+02  0.51100000000E-03 0. -1.
    9900012    2    1    2    0    0 -0.38595152194E+02 -0.27809605903E+01  0.19654606215E+02  0.47787273506E+02  0.20000011224E+02 0.  0.
        -12    1    1    2    0    0  0.38595152194E+02  0.27809605903E+01 -0.19654606215E+02  0.43400726494E+02  0.00000000000E+00 0.  1.
         11    1    3    3    0    0 -0.98777898249E+01  0.57827313093E+00  0.14681283023E+02  0.17704383725E+02  0.51100000000E-03 0. -1.
        -11    1    3    3    0    0 -0.10741939225E+02 -0.14457002949E+01 -0.13704871808E+01  0.10925087782E+02  0.51100000000E-03 0.  1.
         12    1    3    3    0    0 -0.17975423144E+02 -0.19135334263E+01  0.63438103734E+01  0.19157801999E+02  0.00000000000E+00 0. -1.
</event>
<event>
 7    1  0.8300060E-011  0.4778726E+02  0.7816164E-02  0.1312668E+00
        -11   -1    0    0    0    0  0.00000000000E+00  0.00000000000E+00  0.45593999997E+02  0.45594000000E+02  0.51100000000E-03 0. -1.
         11   -1    0    0    0    0 -0.00000000000E+00 -0.00000000000E+00 -0.45593999997E+02  0.45594000000E+02  0.51100000000E-03 0.  1.
    9900012    2    1    2    0    0 -0.28104373573E+02 -0.20032097047E+02 -0.26315078032E+02  0.47787262013E+02  0.19999958820E+02 0.  0.
         12    1    1    2    0    0  0.28104373573E+02  0.20032097047E+02  0.26315078032E+02  0.43400737987E+02  0.00000000000E+00 0. -1.
         11    1    3    3    0    0 -0.80380755946E+01 -0.14124719227E+02 -0.45410996605E+01  0.16874238913E+02  0.51100000000E-03 0. -1.
        -11    1    3    3    0    0 -0.68464698111E+01 -0.27415671324E+01 -0.35699576281E+01  0.81935912116E+01  0.51100000000E-03 0.  1.
         12    1    3    3    0    0 -0.13219828167E+02 -0.31658106874E+01 -0.18204020743E+02  0.22719431888E+02  0.00000000000E+00 0. -1.
</event>
<event>
 7    1  0.8300060E-011  0.4778728E+02  0.7816164E-02  0.1312668E+00
        -11   -1    0    0    0    0  0.00000000000E+00  0.00000000000E+00  0.45593999997E+02  0.45594000000E+02  0.51100000000E-03 0. -1.
         11   -1    0    0    0    0 -0.00000000000E+00 -0.00000000000E+00 -0.45593999997E+02  0.45594000000E+02  0.51100000000E-03 0.  1.
    9900012    2    1    2    0    0  0.29880995656E+02  0.19358214746E+02 -0.24819518016E+02  0.47787275881E+02  0.20000022050E+02 0.  0.
         12    1    1    2    0    0 -0.29880995656E+02 -0.19358214746E+02  0.24819518016E+02  0.43400724119E+02  0.00000000000E+00 0. -1.
         11    1    3    3    0    0  0.27412409161E+01  0.94773697494E+01 -0.38486176518E+00  0.98733508985E+01  0.51100000000E-03 0. -1.
        -11    1    3    3    0    0  0.11705155020E+02  0.30460168912E+01 -0.96069354972E+01  0.15446102513E+02  0.51100000000E-03 0.  1.
         12    1    3    3    0    0  0.15434599719E+02  0.68348281052E+01 -0.14827720754E+02  0.22467822469E+02  0.00000000000E+00 0. -1.
</event>
<event>
 7    1  0.8798304E-011  0.4778727E+02  0.7816164E-02  0.1312668E+00
        -11   -1    0    0    0    0  0.00000000000E+00  0.00000000000E+00  0.45593999997E+02  0.45594000000E+02  0.51100000000E-03 0. -1.
         11   -1    0    0    0    0 -0.00000000000E+00 -0.00000000000E+00 -0.45593999997E+02  0.45594000000E+02  0.51100000000E-03 0.  1.
    9900012    2    1    2    0    0 -0.50922473556E+01 -0.11995961842E+02 -0.41397941433E+02  0.47787266843E+02  0.19999980845E+02 0.  0.
         12    1    1    2    0    0  0.50922473556E+01  0.11995961842E+02  0.41397941433E+02  0.43400733157E+02  0.00000000000E+00 0. -1.
         11    1    3    3    0    0  0.73890635761E+00 -0.12757949456E+01 -0.17224376479E+00  0.14843528975E+01  0.51100000000E-03 0. -1.
        -11    1    3    3    0    0  0.18998686929E+01 -0.99453370425E+01 -0.10406719552E+02  0.14519608880E+02  0.51100000000E-03 0.  1.
        -12    1    3    3    0    0 -0.77310224060E+01 -0.77482985386E+00 -0.30818978117E+02  0.31783305066E+02  0.00000000000E+00 0.  1.
</event>
<event>
 7    1  0.8300060E-011  0.4778728E+02  0.7816164E-02  0.1312668E+00
        -11   -1    0    0    0    0  0.00000000000E+00  0.00000000000E+00  0.45593999997E+02  0.45594000000E+02  0.51100000000E-03 0. -1.
         11   -1    0    0    0    0 -0.00000000000E+00 -0.00000000000E+00 -0.45593999997E+02  0.45594000000E+02  0.51100000000E-03 0.  1.
    9900012    2    1    2    0    0 -0.77679640631E+01 -0.19284809557E+02  0.38096941365E+02  0.47787284722E+02  0.20000062359E+02 0.  0.
        -12    1    1    2    0    0  0.77679640631E+01  0.19284809557E+02 -0.38096941365E+02  0.43400715278E+02  0.00000000000E+00 0.  1.
         11    1    3    3    0    0  0.18363830781E+00 -0.11733470268E+02  0.15187602314E+02  0.19193001638E+02  0.51100000000E-03 0. -1.
        -11    1    3    3    0    0  0.27478102314E+01 -0.43875103100E+01  0.36423972153E+01  0.63299103882E+01  0.51100000000E-03 0.  1.
         12    1    3    3    0    0 -0.10699412602E+02 -0.31638289793E+01  0.19266941835E+02  0.22264372695E+02  0.00000000000E+00 0. -1.
</event>
<event>
 7    1  0.8300060E-011  0.4778727E+02  0.7816164E-02  0.1312668E+00
        -11   -1    0    0    0    0  0.00000000000E+00  0.00000000000E+00  0.45593999997E+02  0.45594000000E+02  0.51100000000E-03 0. -1.
         11   -1    0    0    0    0 -0.00000000000E+00 -0.00000000000E+00 -0.45593999997E+02  0.45594000000E+02  0.51100000000E-03 0.  1.
    9900012    2    1    2    0    0  0.34023342621E+01  0.12442451045E+02  0.41439507021E+02  0.47787271797E+02  0.20000003429E+02 0.  0.
        -12    1    1    2    0    0 -0.34023342621E+01 -0.12442451045E+02 -0.41439507021E+02  0.43400728203E+02  0.00000000000E+00 0.  1.
         11    1    3    3    0    0  0.39584301612E+01  0.15645653608E+02  0.22752054937E+02  0.27894652719E+02  0.51100000000E-03 0. -1.
        -11    1    3    3    0    0  0.27105451176E+01 -0.16757450718E+01  0.96360126438E+01  0.10149281566E+02  0.51100000000E-03 0.  1.
         12    1    3    3    0    0 -0.32666410168E+01 -0.15274574919E+01  0.90514394404E+01  0.97433375116E+01  0.00000000000E+00 0. -1.
</event>
<event>
 7    1  0.8300060E-011  0.4778727E+02  0.7816164E-02  0.1312668E+00
        -11   -1    0    0    0    0  0.00000000000E+00  0.00000000000E+00  0.45593999997E+02  0.45594000000E+02  0.51100000000E-03 0. -1.
         11   -1    0    0    0    0 -0.00000000000E+00 -0.00000000000E+00 -0.45593999997E+02  0.45594000000E+02  0.51100000000E-03 0.  1.
    9900012    2    1    2    0    0 -0.31049662807E+02  0.49202837186E+01 -0.29922112877E+02  0.47787267387E+02  0.19999983325E+02 0.  0.
         12    1    1    2    0    0  0.31049662807E+02 -0.49202837186E+01  0.29922112877E+02  0.43400732613E+02  0.00000000000E+00 0. -1.
         11    1    3    3    0    0 -0.18591511786E+02  0.15551541610E+00 -0.11021140224E+02  0.21613283592E+02  0.51100000000E-03 0. -1.
        -11    1    3    3    0    0 -0.90925081337E+01  0.60021852664E+01 -0.19689126022E+02  0.22502480217E+02  0.51100000000E-03 0.  1.
        -12    1    3    3    0    0 -0.33656428879E+01 -0.12374169639E+01  0.78815336970E+00  0.36715035783E+01  0.00000000000E+00 0.  1.
</event>
<event>
 7    1  0.8300060E-011  0.4778725E+02  0.7816164E-02  0.1312668E+00
        -11   -1    0    0    0    0  0.00000000000E+00  0.00000000000E+00  0.45593999997E+02  0.45594000000E+02  0.51100000000E-03 0. -1.
         11   -1    0    0    0    0 -0.00000000000E+00 -0.00000000000E+00 -0.45593999997E+02  0.45594000000E+02  0.51100000000E-03 0.  1.
    9900012    2    1    2    0    0  0.39447361316E+02 -0.49590176241E+01 -0.17405129753E+02  0.47787254473E+02  0.19999924443E+02 0.  0.
         12    1    1    2    0    0 -0.39447361316E+02  0.49590176241E+01  0.17405129753E+02  0.43400745527E+02  0.00000000000E+00 0. -1.
         11    1    3    3    0    0  0.17087153477E+02  0.36941883459E+00 -0.63619427024E+00  0.17102983004E+02  0.51100000000E-03 0. -1.
        -11    1    3    3    0    0  0.23221012684E+01 -0.51450631234E+01 -0.40957942421E+01  0.69741923962E+01  0.51100000000E-03 0.  1.
        -12    1    3    3    0    0  0.20038106571E+02 -0.18337333534E+00 -0.12673141241E+02  0.23710079073E+02  0.00000000000E+00 0.  1.
</event>
<event>
 7    1  0.8300060E-011  0.4778727E+02  0.7816164E-02  0.1312668E+00
        -11   -1    0    0    0    0  0.00000000000E+00  0.00000000000E+00  0.45593999997E+02  0.45594000000E+02  0.51100000000E-03 0. -1.
         11   -1    0    0    0    0 -0.00000000000E+00 -0.00000000000E+00 -0.45593999997E+02  0.45594000000E+02  0.51100000000E-03 0.  1.
    9900012    2    1    2    0    0  0.30085946618E+02 -0.14212935716E+02 -0.27864880595E+02  0.47787270788E+02  0.19999998831E+02 0.  0.
         12    1    1    2    0    0 -0.30085946618E+02  0.14212935716E+02  0.27864880595E+02  0.43400729212E+02  0.00000000000E+00 0. -1.
         11    1    3    3    0    0  0.12322254242E+02 -0.35709182249E+01 -0.15345986442E+02  0.20002217545E+02  0.51100000000E-03 0. -1.
        -11    1    3    3    0    0  0.50872771088E+01 -0.93646383251E+01 -0.11672643111E+01  0.10720976895E+02  0.51100000000E-03 0.  1.
        -12    1    3    3    0    0  0.12676415267E+02 -0.12773791655E+01 -0.11351629842E+02  0.17064076348E+02  0.00000000000E+00 0.  1.
</event>
<event>
 7    1  0.8300060E-011  0.4778727E+02  0.7816164E-02  0.1312668E+00
        -11   -1    0    0    0    0  0.00000000000E+00  0.00000000000E+00  0.45593999997E+02  0.45594000000E+02  0.51100000000E-03 0.  1.
         11   -1    0    0    0    0 -0.00000000000E+00 -0.00000000000E+00 -0.45593999997E+02  0.45594000000E+02  0.51100000000E-03 0. -1.
    9900012    2    1    2    0    0  0.17431029562E+02 -0.39063042014E+02  0.73390439400E+01  0.47787267184E+02  0.19999982398E+02 0.  0.
        -12    1    1    2    0    0 -0.17431029562E+02  0.39063042014E+02 -0.73390439400E+01  0.43400732816E+02  0.00000000000E+00 0.  1.
         11    1    3    3    0    0  0.32735193706E+01 -0.10500929765E+02  0.48135621657E+01  0.12006491410E+02  0.51100000000E-03 0. -1.
        -11    1    3    3    0    0  0.15529271837E+02 -0.29916409277E+02  0.19249435518E+01  0.33761742191E+02  0.51100000000E-03 0.  1.
        -12    1    3    3    0    0 -0.13717616451E+01  0.13542970280E+01  0.60053822247E+00  0.20190335826E+01  0.00000000000E+00 0.  1.
</event>
<event>
 7    1  0.8300060E-011  0.4778727E+02  0.7816164E-02  0.1312668E+00
        -11   -1    0    0    0    0  0.00000000000E+00  0.00000000000E+00  0.45593999997E+02  0.45594000000E+02  0.51100000000E-03 0.  1.
         11   -1    0    0    0    0 -0.00000000000E+00 -0.00000000000E+00 -0.45593999997E+02  0.45594000000E+02  0.51100000000E-03 0. -1.
    9900012    2    1    2    0    0  0.13783778510E+02  0.36396137884E+02 -0.19208120646E+02  0.47787270725E+02  0.19999998544E+02 0.  0.
         12    1    1    2    0    0 -0.13783778510E+02 -0.36396137884E+02  0.19208120646E+02  0.43400729275E+02  0.00000000000E+00 0. -1.
         11    1    3    3    0    0 -0.26894447814E+01  0.60630894547E+01 -0.28176812267E+01  0.72064897644E+01  0.51100000000E-03 0. -1.
        -11    1    3    3    0    0  0.10301210167E+02  0.10788790523E+02 -0.13040192699E+02  0.19813115801E+02  0.51100000000E-03 0.  1.
        -12    1    3    3    0    0  0.61720131241E+01  0.19544257905E+02 -0.33502467201E+01  0.20767665159E+02  0.00000000000E+00 0.  1.
</event>
<event>
 7    1  0.8300060E-011  0.4778727E+02  0.7816164E-02  0.1312668E+00
        -11   -1    0    0    0    0  0.00000000000E+00  0.00000000000E+00  0.45593999997E+02  0.45594000000E+02  0.51100000000E-03 0.  1.
         11   -1    0    0    0    0 -0.00000000000E+00 -0.00000000000E+00 -0.45593999997E+02  0.45594000000E+02  0.51100000000E-03 0. -1.
    9900012    2    1    2    0    0 -0.49498996478E+01 -0.43033967438E+02  0.26831298035E+01  0.47787273675E+02  0.20000011993E+02 0.  0.
        -12    1    1    2    0    0  0.49498996478E+01  0.43033967438E+02 -0.26831298035E+01  0.43400726325E+02  0.00000000000E+00 0.  1.
         11    1    3    3    0    0 -0.38099799489E-01 -0.34733262049E+02  0.10483061280E+01  0.34749099127E+02  0.51100000000E-03 0. -1.
        -11    1    3    3    0    0  0.94149390288E-01 -0.22892633113E+01 -0.31296020066E+01  0.38786595103E+01  0.51100000000E-03 0.  1.
         12    1    3    3    0    0 -0.50059492386E+01 -0.60114420779E+01  0.47644256821E+01  0.91595150371E+01  0.00000000000E+00 0. -1.
</event>
<event>
 7    1  0.8300060E-011  0.4778727E+02  0.7816164E-02  0.1312668E+00
        -11   -1    0    0    0    0  0.00000000000E+00  0.00000000000E+00  0.45593999997E+02  0.45594000000E+02  0.51100000000E-03 0. -1.
         11   -1    0    0    0    0 -0.00000000000E+00 -0.00000000000E+00 -0.45593999997E+02  0.45594000000E+02  0.51100000000E-03 0.  1.
    9900012    2    1    2    0    0 -0.33750581020E+02 -0.55141473160E+01  0.26722945905E+02  0.47787269849E+02  0.19999994550E+02 0.  0.
        -12    1    1    2    0    0  0.33750581020E+02  0.55141473160E+01 -0.26722945905E+02  0.43400730151E+02  0.00000000000E+00 0.  1.
         11    1    3    3    0    0 -0.12078136762E+02 -0.20491012647E+01  0.13187374954E+02  0.17999640609E+02  0.51100000000E-03 0. -1.
        -11    1    3    3    0    0 -0.15447684950E+02 -0.84937057052E+01  0.55480787370E+01  0.18481211672E+02  0.51100000000E-03 0.  1.
        -12    1    3    3    0    0 -0.62247593080E+01  0.50286596540E+01  0.79874922142E+01  0.11306417568E+02  0.00000000000E+00 0.  1.
</event>
<event>
 7    1  0.8300060E-011  0.4778726E+02  0.7816164E-02  0.1312668E+00
        -11   -1    0    0    0    0  0.00000000000E+00  0.00000000000E+00  0.45593999997E+02  0.45594000000E+02  0.51100000000E-03 0. -1.
         11   -1    0    0    0    0 -0.00000000000E+00 -0.00000000000E+00 -0.45593999997E+02  0.45594000000E+02  0.51100000000E-03 0.  1.
    9900012    2    1    2    0    0 -0.27121082494E+02  0.27724614461E+02 -0.19478615747E+02  0.47787264591E+02  0.19999970575E+02 0.  0.
         12    1    1    2    0    0  0.27121082494E+02 -0.27724614461E+02  0.19478615747E+02  0.43400735409E+02  0.00000000000E+00 0. -1.
         11    1    3    3    0    0 -0.15931622461E+02  0.33468071070E+01 -0.53761399975E+01  0.17144112505E+02  0.51100000000E-03 0. -1.
        -11    1    3    3    0    0 -0.86942058835E+01  0.17177356380E+02 -0.12187584219E+02  0.22785697213E+02  0.51100000000E-03 0.  1.
         12    1    3    3    0    0 -0.24952541498E+01  0.72004509742E+01 -0.19148915311E+01  0.78574548729E+01  0.00000000000E+00 0. -1.
</event>
<event>
 7    1  0.8300060E-011  0.4778727E+02  0.7816164E-02  0.1312668E+00
        -11   -1    0    0    0    0  0.00000000000E+00  0.00000000000E+00  0.45593999997E+02  0.45594000000E+02  0.51100000000E-03 0. -1.
         11   -1    0    0    0    0 -0.00000000000E+00 -0.00000000000E+00 -0.45593999997E+02  0.45594000000E+02  0.51100000000E-03 0.  1.
    9900012    2    1    2    0    0 -0.15558127599E+02 -0.14060161770E+02  0.37998416767E+02  0.47787272354E+02  0.20000005972E+02 0.  0.
        -12    1    1    2    0    0  0.15558127599E+02  0.14060161770E+02 -0.37998416767E+02  0.43400727646E+02  0.00000000000E+00 0.  1.
         11    1    3    3    0    0 -0.21451830072E+01 -0.27458792953E+01  0.30772054989E+01  0.46487479155E+01  0.51100000000E-03 0. -1.
        -11    1    3    3    0    0 -0.13970195238E+02 -0.15461373488E+02  0.26292060025E+02  0.33548365768E+02  0.51100000000E-03 0.  1.
        -12    1    3    3    0    0  0.55725064526E+00  0.41470910128E+01  0.86291512430E+01  0.95901586705E+01  0.00000000000E+00 0.  1.
</event>
<event>
 7    1  0.8300060E-011  0.4778726E+02  0.7816164E-02  0.1312668E+00
        -11   -1    0    0    0    0  0.00000000000E+00  0.00000000000E+00  0.45593999997E+02  0.45594000000E+02  0.51100000000E-03 0.  1.
         11   -1    0    0    0    0 -0.00000000000E+00 -0.00000000000E+00 -0.45593999997E+02  0.45594000000E+02  0.51100000000E-03 0. -1.
    9900012    2    1    2    0    0 -0.14318674713E+02  0.29616247953E+02 -0.28310380618E+02  0.47787259925E+02  0.19999949301E+02 0.  0.
         12    1    1    2    0    0  0.14318674713E+02 -0.29616247953E+02  0.28310380618E+02  0.43400740075E+02  0.00000000000E+00 0. -1.
         11    1    3    3    0    0 -0.88786288742E+01  0.14930910619E+02 -0.16706191588E+02  0.24101016166E+02  0.51100000000E-03 0. -1.
        -11    1    3    3    0    0  0.25119641163E+01  0.11993135902E+02 -0.68305806276E+01  0.14028617340E+02  0.51100000000E-03 0.  1.
        -12    1    3    3    0    0 -0.79520099549E+01  0.26922014318E+01 -0.47736084028E+01  0.96576264193E+01  0.00000000000E+00 0.  1.
</event>
<event>
 7    1  0.8300060E-011  0.4778728E+02  0.7816164E-02  0.1312668E+00
        -11   -1    0    0    0    0  0.00000000000E+00  0.00000000000E+00  0.45593999997E+02  0.45594000000E+02  0.51100000000E-03 0. -1.
         11   -1    0    0    0    0 -0.00000000000E+00 -0.00000000000E+00 -0.45593999997E+02  0.45594000000E+02  0.51100000000E-03 0.  1.
    9900012    2    1    2    0    0 -0.17349669005E+02  0.18512234407E+02 -0.35212333066E+02  0.47787282986E+02  0.20000054448E+02 0.  0.
         12    1    1    2    0    0  0.17349669005E+02 -0.18512234407E+02  0.35212333066E+02  0.43400717014E+02  0.00000000000E+00 0. -1.
         11    1    3    3    0    0 -0.30960397618E+01  0.12855955194E+01 -0.18493639614E+02  0.18795023929E+02  0.51100000000E-03 0. -1.
        -11    1    3    3    0    0 -0.58950850674E+01  0.39824187626E+01 -0.17459798187E+01  0.73253077028E+01  0.51100000000E-03 0.  1.
         12    1    3    3    0    0 -0.83585441756E+01  0.13244220125E+02 -0.14972713633E+02  0.21666951355E+02  0.00000000000E+00 0. -1.
</event>
<event>
 7    1  0.8300060E-011  0.4778727E+02  0.7816164E-02  0.1312668E+00
        -11   -1    0    0    0    0  0.00000000000E+00  0.00000000000E+00  0.45593999997E+02  0.45594000000E+02  0.51100000000E-03 0. -1.
         11   -1    0    0    0    0 -0.00000000000E+00 -0.00000000000E+00 -0.45593999997E+02  0.45594000000E+02  0.51100000000E-03 0.  1.
    9900012    2    1    2    0    0 -0.16146306939E+02 -0.11295345550E+02 -0.38669562862E+02  0.47787272462E+02  0.20000006465E+02 0.  0.
         12    1    1    2    0    0  0.16146306939E+02  0.11295345550E+02  0.38669562862E+02  0.43400727538E+02  0.00000000000E+00 0. -1.
         11    1    3    3    0    0 -0.28898614971E+01  0.35662465987E+01 -0.76275492058E+00  0.46530860303E+01  0.51100000000E-03 0. -1.
        -11    1    3    3    0    0 -0.75612208318E+01 -0.92105941138E+01 -0.27677411538E+02  0.30133805171E+02  0.51100000000E-03 0.  1.
         12    1    3    3    0    0 -0.56952246103E+01 -0.56509980353E+01 -0.10229396404E+02  0.13000381261E+02  0.00000000000E+00 0. -1.
</event>
<event>
 7    1  0.8300060E-011  0.4778727E+02  0.7816164E-02  0.1312668E+00
        -11   -1    0    0    0    0  0.00000000000E+00  0.00000000000E+00  0.45593999997E+02  0.45594000000E+02  0.51100000000E-03 0. -1.
         11   -1    0    0    0    0 -0.00000000000E+00 -0.00000000000E+00 -0.45593999997E+02  0.45594000000E+02  0.51100000000E-03 0.  1.
    9900012    2    1    2    0    0  0.38875593448E+02 -0.18952659750E+02 -0.36204954623E+01  0.47787273451E+02  0.20000010974E+02 0.  0.
         12    1    1    2    0    0 -0.38875593448E+02  0.18952659750E+02  0.36204954623E+01  0.43400726549E+02  0.00000000000E+00 0. -1.
         11    1    3    3    0    0  0.96061577892E+01 -0.15237962387E+01  0.67992020846E+01  0.11867155164E+02  0.51100000000E-03 0. -1.
        -11    1    3    3    0    0  0.22050210837E+02 -0.14309863012E+02 -0.97152220272E+01  0.28024444984E+02  0.51100000000E-03 0.  1.
        -12    1    3    3    0    0  0.72192248217E+01 -0.31190004997E+01 -0.70447551976E+00  0.78956733025E+01  0.00000000000E+00 0.  1.
</event>
<event>
 7    1  0.8300060E-011  0.4778727E+02  0.7816164E-02  0.1312668E+00
        -11   -1    0    0    0    0  0.00000000000E+00  0.00000000000E+00  0.45593999997E+02  0.45594000000E+02  0.51100000000E-03 0. -1.
         11   -1    0    0    0    0 -0.00000000000E+00 -0.00000000000E+00 -0.45593999997E+02  0.45594000000E+02  0.51100000000E-03 0.  1.
    9900012    2    1    2    0    0 -0.23348914840E+02  0.32813625293E+02 -0.16177696567E+02  0.47787266189E+02  0.19999977863E+02 0.  0.
         12    1    1    2    0    0  0.23348914840E+02 -0.32813625293E+02  0.16177696567E+02  0.43400733811E+02  0.00000000000E+00 0. -1.
         11    1    3    3    0    0 -0.68980945283E+01  0.78520401419E+01 -0.32165395655E+01  0.10935463847E+02  0.51100000000E-03 0. -1.
        -11    1    3    3    0    0 -0.13252691091E+02  0.16297987718E+02 -0.85079493747E-01  0.21006319611E+02  0.51100000000E-03 0.  1.
        -12    1    3    3    0    0 -0.31981292209E+01  0.86635974336E+01 -0.12876077508E+02  0.15845482732E+02  0.00000000000E+00 0.  1.
</event>
<event>
 7    1  0.8300060E-011  0.4778727E+02  0.7816164E-02  0.1312668E+00
        -11   -1    0    0    0    0  0.00000000000E+00  0.00000000000E+00  0.45593999997E+02  0.45594000000E+02  0.51100000000E-03 0. -1.
         11   -1    0    0    0    0 -0.00000000000E+00 -0.00000000000E+00 -0.45593999997E+02  0.45594000000E+02  0.51100000000E-03 0.  1.
    9900012    2    1    2    0    0 -0.19763002689E+02  0.98860243278E+01  0.37353894562E+02  0.47787271996E+02  0.20000004339E+02 0.  0.
        -12    1    1    2    0    0  0.19763002689E+02 -0.98860243278E+01 -0.37353894562E+02  0.43400728004E+02  0.00000000000E+00 0.  1.
         11    1    3    3    0    0 -0.64998335624E+01  0.70931215969E+01  0.23138096376E+02  0.25058565691E+02  0.51100000000E-03 0. -1.
        -11    1    3    3    0    0 -0.14453300670E+02 -0.15826785388E+00  0.10679624172E+02  0.17971569817E+02  0.51100000000E-03 0.  1.
        -12    1    3    3    0    0  0.11901315430E+01  0.29511705848E+01  0.35361740145E+01  0.47571364886E+01  0.00000000000E+00 0.  1.
</event>
<event>
 7    1  0.8300060E-011  0.4778723E+02  0.7816164E-02  0.1312668E+00
        -11   -1    0    0    0    0  0.00000000000E+00  0.00000000000E+00  0.45593999997E+02  0.45594000000E+02  0.51100000000E-03 0.  1.
         11   -1    0    0    0    0 -0.00000000000E+00 -0.00000000000E+00 -0.45593999997E+02  0.45594000000E+02  0.51100000000E-03 0. -1.
    9900012    2    1    2    0    0 -0.18857965161E+02 -0.34561951762E+02 -0.18261302619E+02  0.47787233498E+02  0.19999828810E+02 0.  0.
        -12    1    1    2    0    0  0.18857965161E+02  0.34561951762E+02  0.18261302619E+02  0.43400766502E+02  0.00000000000E+00 0.  1.
         11    1    3    3    0    0 -0.64237174765E+00 -0.11269189971E+02 -0.10526106735E+02  0.15433930392E+02  0.51100000000E-03 0.  1.
        -11    1    3    3    0    0 -0.13003718179E+02 -0.81770389578E+01 -0.48301727438E+01  0.16102522212E+02  0.51100000000E-03 0. -1.
        -12    1    3    3    0    0 -0.52118752338E+01 -0.15115722833E+02 -0.29050231404E+01  0.16250780894E+02  0.00000000000E+00 0.  1.
</event>
<event>
 7    1  0.8300060E-011  0.4778727E+02  0.7816164E-02  0.1312668E+00
        -11   -1    0    0    0    0  0.00000000000E+00  0.00000000000E+00  0.45593999997E+02  0.45594000000E+02  0.51100000000E-03 0. -1.
         11   -1    0    0    0    0 -0.00000000000E+00 -0.00000000000E+00 -0.45593999997E+02  0.45594000000E+02  0.51100000000E-03 0.  1.
    9900012    2    1    2    0    0 -0.32365965287E+02 -0.18680557481E+01 -0.28854425154E+02  0.47787271985E+02  0.20000004289E+02 0.  0.
         12    1    1    2    0    0  0.32365965287E+02  0.18680557481E+01  0.28854425154E+02  0.43400728015E+02  0.00000000000E+00 0. -1.
         11    1    3    3    0    0 -0.12116745588E+01 -0.13253494840E+01 -0.21935745301E+00  0.18090949241E+01  0.51100000000E-03 0. -1.
        -11    1    3    3    0    0 -0.30152509318E+02 -0.72759095077E+00 -0.17650130345E+02  0.34946105766E+02  0.51100000000E-03 0.  1.
        -12    1    3    3    0    0 -0.10017814107E+01  0.18488468667E+00 -0.10984937356E+02  0.11032071295E+02  0.00000000000E+00 0.  1.
</event>
<event>
 7    1  0.8300060E-011  0.4778727E+02  0.7816164E-02  0.1312668E+00
        -11   -1    0    0    0    0  0.00000000000E+00  0.00000000000E+00  0.45593999997E+02  0.45594000000E+02  0.51100000000E-03 0. -1.
         11   -1    0    0    0    0 -0.00000000000E+00 -0.00000000000E+00 -0.45593999997E+02  0.45594000000E+02  0.51100000000E-03 0.  1.
    9900012    2    1    2    0    0  0.83847512600E+01 -0.25315143614E+02  0.34241245578E+02  0.47787269031E+02  0.19999990821E+02 0.  0.
        -12    1    1    2    0    0 -0.83847512600E+01  0.25315143614E+02 -0.34241245578E+02  0.43400730969E+02  0.00000000000E+00 0.  1.
         11    1    3    3    0    0 -0.22504563643E+01 -0.89979294727E+00  0.12132868091E+02  0.12372577321E+02  0.51100000000E-03 0. -1.
        -11    1    3    3    0    0  0.34102757625E+01 -0.11165093071E+02  0.52878253595E+01  0.12816020496E+02  0.51100000000E-03 0.  1.
         12    1    3    3    0    0  0.72249318618E+01 -0.13250257596E+02  0.16820552127E+02  0.22598671214E+02  0.00000000000E+00 0. -1.
</event>
<event>
 7    1  0.8300060E-011  0.4778727E+02  0.7816164E-02  0.1312668E+00
        -11   -1    0    0    0    0  0.00000000000E+00  0.00000000000E+00  0.45593999997E+02  0.45594000000E+02  0.51100000000E-03 0. -1.
         11   -1    0    0    0    0 -0.00000000000E+00 -0.00000000000E+00 -0.45593999997E+02  0.45594000000E+02  0.51100000000E-03 0.  1.
    9900012    2    1    2    0    0 -0.35621328359E+02 -0.21774607927E+02  0.11857944340E+02  0.47787269264E+02  0.19999991881E+02 0.  0.
        -12    1    1    2    0    0  0.35621328359E+02  0.21774607927E+02 -0.11857944340E+02  0.43400730736E+02  0.00000000000E+00 0.  1.
         11    1    3    3    0    0 -0.65091744079E+01 -0.10513177805E+02  0.89498384278E+01  0.15264202147E+02  0.51100000000E-03 0. -1.
        -11    1    3    3    0    0 -0.53463185469E+00  0.76472661483E+00  0.11324980342E+01  0.14673752329E+01  0.51100000000E-03 0.  1.
         12    1    3    3    0    0 -0.28577522097E+02 -0.12026156738E+02  0.17756078776E+01  0.31055691884E+02  0.00000000000E+00 0. -1.
</event>
<event>
 7    1  0.8300060E-011  0.4778728E+02  0.7816164E-02  0.1312668E+00
        -11   -1    0    0    0    0  0.00000000000E+00  0.00000000000E+00  0.45593999997E+02  0.45594000000E+02  0.51100000000E-03 0. -1.
         11   -1    0    0    0    0 -0.00000000000E+00 -0.00000000000E+00 -0.45593999997E+02  0.45594000000E+02  0.51100000000E-03 0.  1.
    9900012    2    1    2    0    0 -0.31961443466E+02 -0.26028565271E+02 -0.13586859213E+02  0.47787276252E+02  0.20000023746E+02 0.  0.
         12    1    1    2    0    0  0.31961443466E+02  0.26028565271E+02  0.13586859213E+02  0.43400723748E+02  0.00000000000E+00 0. -1.
         11    1    3    3    0    0 -0.14863483930E+02 -0.21536757378E+01 -0.47024534238E+01  0.15737679060E+02  0.51100000000E-03 0.  1.
        -11    1    3    3    0    0 -0.14920205375E+02 -0.19960625860E+02 -0.10822237247E+02  0.27169098853E+02  0.51100000000E-03 0. -1.
         12    1    3    3    0    0 -0.21777541616E+01 -0.39142636729E+01  0.19378314578E+01  0.48804983401E+01  0.00000000000E+00 0. -1.
</event>
<event>
 7    1  0.8300060E-011  0.4778726E+02  0.7816164E-02  0.1312668E+00
        -11   -1    0    0    0    0  0.00000000000E+00  0.00000000000E+00  0.45593999997E+02  0.45594000000E+02  0.51100000000E-03 0. -1.
         11   -1    0    0    0    0 -0.00000000000E+00 -0.00000000000E+00 -0.45593999997E+02  0.45594000000E+02  0.51100000000E-03 0.  1.
    9900012    2    1    2    0    0  0.25288605352E+02 -0.31347390506E+02 -0.16169458656E+02  0.47787264461E+02  0.19999969981E+02 0.  0.
         12    1    1    2    0    0 -0.25288605352E+02  0.31347390506E+02  0.16169458656E+02  0.43400735539E+02  0.00000000000E+00 0. -1.
         11    1    3    3    0    0  0.14488062900E+02 -0.23515556287E+02 -0.13977726170E+02  0.30955810169E+02  0.51100000000E-03 0.  1.
        -11    1    3    3    0    0  0.54395181765E+00  0.22224146027E+01  0.84405205944E-01  0.22895708650E+01  0.51100000000E-03 0. -1.
         12    1    3    3    0    0  0.10256590634E+02 -0.10054248821E+02 -0.22761376917E+01  0.14541883426E+02  0.00000000000E+00 0. -1.
</event>
<event>
 7    1  0.8478868E-011  0.4778727E+02  0.7816164E-02  0.1312668E+00
        -11   -1    0    0    0    0  0.00000000000E+00  0.00000000000E+00  0.45593999997E+02  0.45594000000E+02  0.51100000000E-03 0. -1.
         11   -1    0    0    0    0 -0.00000000000E+00 -0.00000000000E+00 -0.45593999997E+02  0.45594000000E+02  0.51100000000E-03 0.  1.
    9900012    2    1    2    0    0 -0.29044902971E+02  0.21172426728E+02 -0.24325807752E+02  0.47787274603E+02  0.20000016225E+02 0.  0.
         12    1    1    2    0    0  0.29044902971E+02 -0.21172426728E+02  0.24325807752E+02  0.43400725397E+02  0.00000000000E+00 0. -1.
         11    1    3    3    0    0  0.92007498446E+00 -0.47628201935E+00 -0.34703044383E+01  0.36216564849E+01  0.51100000000E-03 0. -1.
        -11    1    3    3    0    0 -0.14231342158E+02  0.14953407837E+02 -0.59538849818E+01  0.21484511915E+02  0.51100000000E-03 0.  1.
        -12    1    3    3    0    0 -0.15733635798E+02  0.66953009104E+01 -0.14901618332E+02  0.22681106204E+02  0.00000000000E+00 0.  1.
</event>
<event>
 7    1  0.8300060E-011  0.4778727E+02  0.7816164E-02  0.1312668E+00
        -11   -1    0    0    0    0  0.00000000000E+00  0.00000000000E+00  0.45593999997E+02  0.45594000000E+02  0.51100000000E-03 0. -1.
         11   -1    0    0    0    0 -0.00000000000E+00 -0.00000000000E+00 -0.45593999997E+02  0.45594000000E+02  0.51100000000E-03 0.  1.
    9900012    2    1    2    0    0  0.87268987331E+01 -0.44366804204E+01 -0.42282151449E+02  0.47787271599E+02  0.20000002527E+02 0.  0.
         12    1    1    2    0    0 -0.87268987331E+01  0.44366804204E+01  0.42282151449E+02  0.43400728401E+02  0.00000000000E+00 0. -1.
         11    1    3    3    0    0  0.79346358750E+01 -0.87965636948E+01 -0.17918960791E+02  0.21480855090E+02  0.51100000000E-03 0. -1.
        -11    1    3    3    0    0  0.45694613461E+01  0.62695508945E+00 -0.11317616889E+02  0.12221354343E+02  0.51100000000E-03 0.  1.
         12    1    3    3    0    0 -0.37771984881E+01  0.37329281850E+01 -0.13045573769E+02  0.14085062166E+02  0.00000000000E+00 0. -1.
</event>
<event>
 7    1  0.8300060E-011  0.4778728E+02  0.7816164E-02  0.1312668E+00
        -11   -1    0    0    0    0  0.00000000000E+00  0.00000000000E+00  0.45593999997E+02  0.45594000000E+02  0.51100000000E-03 0. -1.
         11   -1    0    0    0    0 -0.00000000000E+00 -0.00000000000E+00 -0.45593999997E+02  0.45594000000E+02  0.51100000000E-03 0.  1.
    9900012    2    1    2    0    0 -0.35163581818E+02  0.17584375555E+02 -0.18383003605E+02  0.47787279136E+02  0.20000036895E+02 0.  0.
         12    1    1    2    0    0  0.35163581818E+02 -0.17584375555E+02  0.18383003605E+02  0.43400720864E+02  0.00000000000E+00 0. -1.
         11    1    3    3    0    0  0.21860516919E+00  0.15660769272E+01  0.16289330817E+00  0.15896287783E+01  0.51100000000E-03 0. -1.
        -11    1    3    3    0    0 -0.88379513882E+01  0.11941194326E+02 -0.10397694220E+02  0.18133216814E+02  0.51100000000E-03 0.  1.
        -12    1    3    3    0    0 -0.26544235599E+02  0.40771043018E+01 -0.81482026934E+01  0.28064433544E+02  0.00000000000E+00 0.  1.
</event>
<event>
 7    1  0.8300060E-011  0.4778727E+02  0.7816164E-02  0.1312668E+00
        -11   -1    0    0    0    0  0.00000000000E+00  0.00000000000E+00  0.45593999997E+02  0.45594000000E+02  0.51100000000E-03 0. -1.
         11   -1    0    0    0    0 -0.00000000000E+00 -0.00000000000E+00 -0.45593999997E+02  0.45594000000E+02  0.51100000000E-03 0.  1.
    9900012    2    1    2    0    0  0.35767888793E+02 -0.23340398544E+02  0.77140867780E+01  0.47787271807E+02  0.20000003476E+02 0.  0.
         12    1    1    2    0    0 -0.35767888793E+02  0.23340398544E+02 -0.77140867780E+01  0.43400728193E+02  0.00000000000E+00 0. -1.
         11    1    3    3    0    0  0.65595982319E+00  0.51954270509E+00  0.45823872386E+00  0.95403925560E+00  0.51100000000E-03 0. -1.
        -11    1    3    3    0    0  0.40230968902E+01 -0.11437086449E+02  0.54860980502E+01  0.13307498905E+02  0.51100000000E-03 0.  1.
        -12    1    3    3    0    0  0.31088832079E+02 -0.12422854800E+02  0.17697500039E+01  0.33525733646E+02  0.00000000000E+00 0.  1.
</event>
<event>
 7    1  0.8300060E-011  0.4778727E+02  0.7816164E-02  0.1312668E+00
        -11   -1    0    0    0    0  0.00000000000E+00  0.00000000000E+00  0.45593999997E+02  0.45594000000E+02  0.51100000000E-03 0. -1.
         11   -1    0    0    0    0 -0.00000000000E+00 -0.00000000000E+00 -0.45593999997E+02  0.45594000000E+02  0.51100000000E-03 0.  1.
    9900012    2    1    2    0    0  0.25612229783E+02 -0.17588802907E+02 -0.30302984659E+02  0.47787272109E+02  0.20000004855E+02 0.  0.
         12    1    1    2    0    0 -0.25612229783E+02  0.17588802907E+02  0.30302984659E+02  0.43400727891E+02  0.00000000000E+00 0. -1.
         11    1    3    3    0    0  0.12401886923E+01  0.18476840428E+01  0.15699512942E+01  0.27233713742E+01  0.51100000000E-03 0. -1.
        -11    1    3    3    0    0  0.12807737464E+02 -0.72353824167E+01 -0.18154320444E+02  0.23365963466E+02  0.51100000000E-03 0.  1.
         12    1    3    3    0    0  0.11564303627E+02 -0.12201104534E+02 -0.13718615510E+02  0.21697937269E+02  0.00000000000E+00 0. -1.
</event>
<event>
 7    1  0.8300060E-011  0.4778727E+02  0.7816164E-02  0.1312668E+00
        -11   -1    0    0    0    0  0.00000000000E+00  0.00000000000E+00  0.45593999997E+02  0.45594000000E+02  0.51100000000E-03 0. -1.
         11   -1    0    0    0    0 -0.00000000000E+00 -0.00000000000E+00 -0.45593999997E+02  0.45594000000E+02  0.51100000000E-03 0.  1.
    9900012    2    1    2    0    0 -0.54202790160E+01  0.27979411982E+02 -0.32732190722E+02  0.47787271562E+02  0.20000002361E+02 0.  0.
         12    1    1    2    0    0  0.54202790160E+01 -0.27979411982E+02  0.32732190722E+02  0.43400728438E+02  0.00000000000E+00 0. -1.
         11    1    3    3    0    0  0.29432726055E+01  0.75450508339E+01 -0.18799869990E+02  0.20470118652E+02  0.51100000000E-03 0. -1.
        -11    1    3    3    0    0 -0.63752439734E+01  0.13338221707E+02 -0.13359373170E+02  0.19925479813E+02  0.51100000000E-03 0.  1.
         12    1    3    3    0    0 -0.19883076481E+01  0.70961394408E+01 -0.57294756192E+00  0.73916730972E+01  0.00000000000E+00 0. -1.
</event>
<event>
 7    1  0.8300060E-011  0.4778727E+02  0.7816164E-02  0.1312668E+00
        -11   -1    0    0    0    0  0.00000000000E+00  0.00000000000E+00  0.45593999997E+02  0.45594000000E+02  0.51100000000E-03 0. -1.
         11   -1    0    0    0    0 -0.00000000000E+00 -0.00000000000E+00 -0.45593999997E+02  0.45594000000E+02  0.51100000000E-03 0.  1.
    9900012    2    1    2    0    0  0.50495358773E+01 -0.12742960229E+01  0.43087138179E+02  0.47787272825E+02  0.20000008117E+02 0.  0.
        -12    1    1    2    0    0 -0.50495358773E+01  0.12742960229E+01 -0.43087138179E+02  0.43400727175E+02  0.00000000000E+00 0.  1.
         11    1    3    3    0    0  0.91966856298E+01  0.47760435631E+01  0.26746126716E+02  0.28683530349E+02  0.51100000000E-03 0. -1.
        -11    1    3    3    0    0 -0.55886744420E+01 -0.50737660636E+01  0.10006027998E+02  0.12533833438E+02  0.51100000000E-03 0.  1.
        -12    1    3    3    0    0  0.14415246895E+01 -0.97657352253E+00  0.63349834644E+01  0.65699090381E+01  0.00000000000E+00 0.  1.
</event>
<event>
 7    1  0.8300060E-011  0.4778727E+02  0.7816164E-02  0.1312668E+00
        -11   -1    0    0    0    0  0.00000000000E+00  0.00000000000E+00  0.45593999997E+02  0.45594000000E+02  0.51100000000E-03 0. -1.
         11   -1    0    0    0    0 -0.00000000000E+00 -0.00000000000E+00 -0.45593999997E+02  0.45594000000E+02  0.51100000000E-03 0.  1.
    9900012    2    1    2    0    0 -0.25355156349E+02 -0.23615920311E+02  0.26134794818E+02  0.47787272520E+02  0.20000006727E+02 0.  0.
        -12    1    1    2    0    0  0.25355156349E+02  0.23615920311E+02 -0.26134794818E+02  0.43400727480E+02  0.00000000000E+00 0.  1.
         11    1    3    3    0    0 -0.94609816399E+01  0.19139383436E-01  0.10912813341E+02  0.14442992598E+02  0.51100000000E-03 0.  1.
        -11    1    3    3    0    0 -0.10012281374E+02 -0.17941704861E+02  0.14456555197E+02  0.25122550429E+02  0.51100000000E-03 0. -1.
        -12    1    3    3    0    0 -0.58818933353E+01 -0.56933548335E+01  0.76542628006E+00  0.82217294932E+01  0.00000000000E+00 0.  1.
</event>
<event>
 7    1  0.8300060E-011  0.4778727E+02  0.7816164E-02  0.1312668E+00
        -11   -1    0    0    0    0  0.00000000000E+00  0.00000000000E+00  0.45593999997E+02  0.45594000000E+02  0.51100000000E-03 0. -1.
         11   -1    0    0    0    0 -0.00000000000E+00 -0.00000000000E+00 -0.45593999997E+02  0.45594000000E+02  0.51100000000E-03 0.  1.
    9900012    2    1    2    0    0  0.20956050634E+02  0.28485303153E+01 -0.37899251892E+02  0.47787268703E+02  0.19999989324E+02 0.  0.
         12    1    1    2    0    0 -0.20956050634E+02 -0.28485303153E+01  0.37899251892E+02  0.43400731297E+02  0.00000000000E+00 0. -1.
         11    1    3    3    0    0 -0.77198503101E+00 -0.41007957466E+01 -0.12366549649E+02  0.13051591364E+02  0.51100000000E-03 0. -1.
        -11    1    3    3    0    0  0.99332129968E+01  0.49527005498E+01 -0.87900841228E+01  0.14158514835E+02  0.51100000000E-03 0.  1.
        -12    1    3    3    0    0  0.11794822668E+02  0.19966255121E+01 -0.16742618120E+02  0.20577162505E+02  0.00000000000E+00 0.  1.
</event>
<event>
 7    1  0.8300060E-011  0.4778727E+02  0.7816164E-02  0.1312668E+00
        -11   -1    0    0    0    0  0.00000000000E+00  0.00000000000E+00  0.45593999997E+02  0.45594000000E+02  0.51100000000E-03 0. -1.
         11   -1    0    0    0    0 -0.00000000000E+00 -0.00000000000E+00 -0.45593999997E+02  0.45594000000E+02  0.51100000000E-03 0.  1.
    9900012    2    1    2    0    0 -0.26796672774E+01  0.12569636966E+02  0.41454157457E+02  0.47787267741E+02  0.19999984938E+02 0.  0.
        -12    1    1    2    0    0  0.26796672774E+01 -0.12569636966E+02 -0.41454157457E+02  0.43400732259E+02  0.00000000000E+00 0.  1.
         11    1    3    3    0    0 -0.60601557790E+00  0.61434508440E+00  0.23655925745E+02  0.23671660227E+02  0.51100000000E-03 0. -1.
        -11    1    3    3    0    0  0.19491394201E+01  0.55116900363E+01  0.13529541845E+01  0.60006963614E+01  0.51100000000E-03 0.  1.
         12    1    3    3    0    0 -0.40227911196E+01  0.64436018454E+01  0.16445277527E+02  0.18114911153E+02  0.00000000000E+00 0. -1.
</event>
<event>
 7    1  0.8300060E-011  0.4778727E+02  0.7816164E-02  0.1312668E+00
        -11   -1    0    0    0    0  0.00000000000E+00  0.00000000000E+00  0.45593999997E+02  0.45594000000E+02  0.51100000000E-03 0. -1.
         11   -1    0    0    0    0 -0.00000000000E+00 -0.00000000000E+00 -0.45593999997E+02  0.45594000000E+02  0.51100000000E-03 0.  1.
    9900012    2    1    2    0    0  0.26784813153E+02 -0.11500609396E+02 -0.32154828853E+02  0.47787271311E+02  0.20000001218E+02 0.  0.
         12    1    1    2    0    0 -0.26784813153E+02  0.11500609396E+02  0.32154828853E+02  0.43400728689E+02  0.00000000000E+00 0. -1.
         11    1    3    3    0    0  0.71118182627E+00 -0.17413262769E+01  0.39705628902E+00  0.19224075401E+01  0.51100000000E-03 0. -1.
        -11    1    3    3    0    0  0.86585207934E+01  0.40829904859E+01 -0.63245771206E+01  0.11473494222E+02  0.51100000000E-03 0.  1.
        -12    1    3    3    0    0  0.17415110533E+02 -0.13842273605E+02 -0.26227308022E+02  0.34391369550E+02  0.00000000000E+00 0.  1.
</event>
<event>
 7    1  0.8300060E-011  0.4778722E+02  0.7816164E-02  0.1312668E+00
        -11   -1    0    0    0    0  0.00000000000E+00  0.00000000000E+00  0.45593999997E+02  0.45594000000E+02  0.51100000000E-03 0. -1.
         11   -1    0    0    0    0 -0.00000000000E+00 -0.00000000000E+00 -0.45593999997E+02  0.45594000000E+02  0.51100000000E-03 0.  1.
    9900012    2    1    2    0    0  0.10449314892E+02 -0.17480225417E+02  0.38325986646E+02  0.47787219883E+02  0.19999766735E+02 0.  0.
        -12    1    1    2    0    0 -0.10449314892E+02  0.17480225417E+02 -0.38325986646E+02  0.43400780117E+02  0.00000000000E+00 0.  1.
         11    1    3    3    0    0  0.74339580726E+01 -0.15724983576E+02  0.36212049166E+02  0.40172768714E+02  0.51100000000E-03 0. -1.
        -11    1    3    3    0    0  0.40784261309E+01 -0.31062801861E+01  0.27050429855E+01  0.57965329391E+01  0.51100000000E-03 0.  1.
         12    1    3    3    0    0 -0.10630693118E+01  0.13510383459E+01 -0.59110550506E+00  0.18179182303E+01  0.00000000000E+00 0. -1.
</event>
<event>
 7    1  0.8300060E-011  0.4778727E+02  0.7816164E-02  0.1312668E+00
        -11   -1    0    0    0    0  0.00000000000E+00  0.00000000000E+00  0.45593999997E+02  0.45594000000E+02  0.51100000000E-03 0. -1.
         11   -1    0    0    0    0 -0.00000000000E+00 -0.00000000000E+00 -0.45593999997E+02  0.45594000000E+02  0.51100000000E-03 0.  1.
    9900012    2    1    2    0    0  0.17950476150E+02 -0.47379846319E+01 -0.39229518239E+02  0.47787271968E+02  0.20000004213E+02 0.  0.
         12    1    1    2    0    0 -0.17950476150E+02  0.47379846319E+01  0.39229518239E+02  0.43400728032E+02  0.00000000000E+00 0. -1.
         11    1    3    3    0    0  0.51601231646E+01 -0.82707657918E+01 -0.26053930936E+02  0.27817975400E+02  0.51100000000E-03 0. -1.
        -11    1    3    3    0    0  0.11401354535E+02  0.37488488745E+01 -0.13919193326E+02  0.18379028707E+02  0.51100000000E-03 0.  1.
         12    1    3    3    0    0  0.13889984505E+01 -0.21606771462E+00  0.74360602293E+00  0.15902678611E+01  0.00000000000E+00 0. -1.
</event>
<event>
 7    1  0.8300060E-011  0.4778727E+02  0.7816164E-02  0.1312668E+00
        -11   -1    0    0    0    0  0.00000000000E+00  0.00000000000E+00  0.45593999997E+02  0.45594000000E+02  0.51100000000E-03 0. -1.
         11   -1    0    0    0    0 -0.00000000000E+00 -0.00000000000E+00 -0.45593999997E+02  0.45594000000E+02  0.51100000000E-03 0.  1.
    9900012    2    1    2    0    0  0.22863083062E+02 -0.23201943229E+02  0.28680522618E+02  0.47787272883E+02  0.20000008382E+02 0.  0.
        -12    1    1    2    0    0 -0.22863083062E+02  0.23201943229E+02 -0.28680522618E+02  0.43400727117E+02  0.00000000000E+00 0.  1.
         11    1    3    3    0    0  0.75494741416E+01 -0.47575174134E+01  0.18193135223E+02  0.20263728711E+02  0.51100000000E-03 0. -1.
        -11    1    3    3    0    0  0.82489072116E+01 -0.59471586940E+01  0.80332163401E+01  0.12959387784E+02  0.51100000000E-03 0.  1.
         12    1    3    3    0    0  0.70647017084E+01 -0.12497267121E+02  0.24541710546E+01  0.14564156388E+02  0.00000000000E+00 0. -1.
</event>
<event>
 7    1  0.8300060E-011  0.4778727E+02  0.7816164E-02  0.1312668E+00
        -11   -1    0    0    0    0  0.00000000000E+00  0.00000000000E+00  0.45593999997E+02  0.45594000000E+02  0.51100000000E-03 0. -1.
         11   -1    0    0    0    0 -0.00000000000E+00 -0.00000000000E+00 -0.45593999997E+02  0.45594000000E+02  0.51100000000E-03 0.  1.
    9900012    2    1    2    0    0 -0.27379823780E+02 -0.12172361869E+02 -0.31397485778E+02  0.47787271240E+02  0.20000000893E+02 0.  0.
         12    1    1    2    0    0  0.27379823780E+02  0.12172361869E+02  0.31397485778E+02  0.43400728760E+02  0.00000000000E+00 0. -1.
         11    1    3    3    0    0 -0.50308133995E+01 -0.49399803941E+01 -0.52575551541E+01  0.87951336667E+01  0.51100000000E-03 0. -1.
        -11    1    3    3    0    0 -0.13880702040E+02 -0.12731210222E+02 -0.16906412601E+02  0.25309768670E+02  0.51100000000E-03 0.  1.
        -12    1    3    3    0    0 -0.84683083405E+01  0.54988287466E+01 -0.92335180228E+01  0.13682368904E+02  0.00000000000E+00 0.  1.
</event>
<event>
 7    1  0.8300060E-011  0.4778730E+02  0.7816164E-02  0.1312668E+00
        -11   -1    0    0    0    0  0.00000000000E+00  0.00000000000E+00  0.45593999997E+02  0.45594000000E+02  0.51100000000E-03 0. -1.
         11   -1    0    0    0    0 -0.00000000000E+00 -0.00000000000E+00 -0.45593999997E+02  0.45594000000E+02  0.51100000000E-03 0.  1.
    9900012    2    1    2    0    0  0.15414557926E+02 -0.16916564055E+02  0.36876035061E+02  0.47787300728E+02  0.20000135338E+02 0.  0.
        -12    1    1    2    0    0 -0.15414557926E+02  0.16916564055E+02 -0.36876035061E+02  0.43400699272E+02  0.00000000000E+00 0.  1.
         11    1    3    3    0    0  0.27285610064E+01 -0.64411575376E+01  0.59124382633E+00  0.70201940937E+01  0.51100000000E-03 0. -1.
        -11    1    3    3    0    0  0.70767164858E+01 -0.44058001033E+01  0.90421740027E+01  0.12298451192E+02  0.51100000000E-03 0.  1.
         12    1    3    3    0    0  0.56092804344E+01 -0.60696064137E+01  0.27242617232E+02  0.28468655442E+02  0.00000000000E+00 0. -1.
</event>
<event>
 7    1  0.8300060E-011  0.4778725E+02  0.7816164E-02  0.1312668E+00
        -11   -1    0    0    0    0  0.00000000000E+00  0.00000000000E+00  0.45593999997E+02  0.45594000000E+02  0.51100000000E-03 0.  1.
         11   -1    0    0    0    0 -0.00000000000E+00 -0.00000000000E+00 -0.45593999997E+02  0.45594000000E+02  0.51100000000E-03 0. -1.
    9900012    2    1    2    0    0  0.50585961801E+01  0.42073797191E+02  0.93718497735E+01  0.47787246855E+02  0.19999889711E+02 0.  0.
         12    1    1    2    0    0 -0.50585961801E+01 -0.42073797191E+02 -0.93718497735E+01  0.43400753145E+02  0.00000000000E+00 0. -1.
         11    1    3    3    0    0  0.10335599656E+01  0.98745680917E+01 -0.11949914624E+01  0.10000167301E+02  0.51100000000E-03 0. -1.
        -11    1    3    3    0    0 -0.21006030026E+01 -0.54150667394E-02 -0.17836392514E+01  0.27557088994E+01  0.51100000000E-03 0.  1.
        -12    1    3    3    0    0  0.61256392171E+01  0.32204644166E+02  0.12350480487E+02  0.35031370654E+02  0.00000000000E+00 0.  1.
</event>
<event>
 7    1  0.8300060E-011  0.4778727E+02  0.7816164E-02  0.1312668E+00
        -11   -1    0    0    0    0  0.00000000000E+00  0.00000000000E+00  0.45593999997E+02  0.45594000000E+02  0.51100000000E-03 0. -1.
         11   -1    0    0    0    0 -0.00000000000E+00 -0.00000000000E+00 -0.45593999997E+02  0.45594000000E+02  0.51100000000E-03 0.  1.
    9900012    2    1    2    0    0  0.16065464127E+02 -0.40227603263E+02  0.26952058307E+01  0.47787270325E+02  0.19999996719E+02 0.  0.
         12    1    1    2    0    0 -0.16065464127E+02  0.40227603263E+02 -0.26952058307E+01  0.43400729675E+02  0.00000000000E+00 0. -1.
         11    1    3    3    0    0  0.19646045077E+01 -0.31190914384E+01 -0.46615815491E+01  0.59429576032E+01  0.51100000000E-03 0. -1.
        -11    1    3    3    0    0  0.52284246867E+01 -0.18508609208E+02 -0.17535193863E+01  0.19312686763E+02  0.51100000000E-03 0.  1.
         12    1    3    3    0    0  0.88724349324E+01 -0.18599902616E+02  0.91103067661E+01  0.22531625959E+02  0.00000000000E+00 0. -1.
</event>
<event>
 7    1  0.8300060E-011  0.4778727E+02  0.7816164E-02  0.1312668E+00
        -11   -1    0    0    0    0  0.00000000000E+00  0.00000000000E+00  0.45593999997E+02  0.45594000000E+02  0.51100000000E-03 0. -1.
         11   -1    0    0    0    0 -0.00000000000E+00 -0.00000000000E+00 -0.45593999997E+02  0.45594000000E+02  0.51100000000E-03 0.  1.
    9900012    2    1    2    0    0 -0.33285630762E+02 -0.21386188668E+02 -0.17841547686E+02  0.47787272992E+02  0.20000008881E+02 0.  0.
         12    1    1    2    0    0  0.33285630762E+02  0.21386188668E+02  0.17841547686E+02  0.43400727008E+02  0.00000000000E+00 0. -1.
         11    1    3    3    0    0 -0.57920537385E+01 -0.14095137376E+02 -0.76464258359E+01  0.17049592736E+02  0.51100000000E-03 0. -1.
        -11    1    3    3    0    0 -0.17245052821E+02 -0.42331054428E+01 -0.34375615800E+01  0.18086676266E+02  0.51100000000E-03 0.  1.
         12    1    3    3    0    0 -0.10248524202E+02 -0.30579458499E+01 -0.67575602702E+01  0.12651003990E+02  0.00000000000E+00 0. -1.
</event>
<event>
 7    1  0.8300060E-011  0.4778727E+02  0.7816164E-02  0.1312668E+00
        -11   -1    0    0    0    0  0.00000000000E+00  0.00000000000E+00  0.45593999997E+02  0.45594000000E+02  0.51100000000E-03 0. -1.
         11   -1    0    0    0    0 -0.00000000000E+00 -0.00000000000E+00 -0.45593999997E+02  0.45594000000E+02  0.51100000000E-03 0.  1.
    9900012    2    1    2    0    0 -0.14240331179E+02 -0.33436480785E+02  0.23724206288E+02  0.47787271396E+02  0.20000001603E+02 0.  0.
        -12    1    1    2    0    0  0.14240331179E+02  0.33436480785E+02 -0.23724206288E+02  0.43400728604E+02  0.00000000000E+00 0.  1.
         11    1    3    3    0    0 -0.81742085255E+01 -0.15288767841E+02  0.13786130989E+02  0.22149977766E+02  0.51100000000E-03 0. -1.
        -11    1    3    3    0    0 -0.10123767070E+01  0.22220439012E+01  0.21439452320E+01  0.32494441240E+01  0.51100000000E-03 0.  1.
        -12    1    3    3    0    0 -0.50537459460E+01 -0.20369756845E+02  0.77941300667E+01  0.22387849506E+02  0.00000000000E+00 0.  1.
</event>
<event>
 7    1  0.8300060E-011  0.4778730E+02  0.7816164E-02  0.1312668E+00
        -11   -1    0    0    0    0  0.00000000000E+00  0.00000000000E+00  0.45593999997E+02  0.45594000000E+02  0.51100000000E-03 0. -1.
         11   -1    0    0    0    0 -0.00000000000E+00 -0.00000000000E+00 -0.45593999997E+02  0.45594000000E+02  0.51100000000E-03 0.  1.
    9900012    2    1    2    0    0  0.15777873696E+02  0.64181151174E+01  0.39918508029E+02  0.47787299737E+02  0.20000130822E+02 0.  0.
        -12    1    1    2    0    0 -0.15777873696E+02 -0.64181151174E+01 -0.39918508029E+02  0.43400700263E+02  0.00000000000E+00 0.  1.
         11    1    3    3    0    0  0.87330430769E+01  0.45207050619E+01  0.37688292785E+02  0.38950099216E+02  0.51100000000E-03 0. -1.
        -11    1    3    3    0    0  0.18993550148E+01 -0.11163828807E+01 -0.53034995452E+00  0.22660828634E+01  0.51100000000E-03 0.  1.
         12    1    3    3    0    0  0.51454756041E+01  0.30137929362E+01  0.27605651986E+01  0.65711176577E+01  0.00000000000E+00 0. -1.
</event>
<event>
 7    1  0.8300060E-011  0.4778727E+02  0.7816164E-02  0.1312668E+00
        -11   -1    0    0    0    0  0.00000000000E+00  0.00000000000E+00  0.45593999997E+02  0.45594000000E+02  0.51100000000E-03 0. -1.
         11   -1    0    0    0    0 -0.00000000000E+00 -0.00000000000E+00 -0.45593999997E+02  0.45594000000E+02  0.51100000000E-03 0.  1.
    9900012    2    1    2    0    0 -0.14930954458E+02 -0.32121663108E+02  0.25077655014E+02  0.47787269327E+02  0.19999992171E+02 0.  0.
        -12    1    1    2    0    0  0.14930954458E+02  0.32121663108E+02 -0.25077655014E+02  0.43400730673E+02  0.00000000000E+00 0.  1.
         11    1    3    3    0    0 -0.67862816176E+01 -0.23050864480E+02  0.26160562537E+02  0.35521416132E+02  0.51100000000E-03 0. -1.
        -11    1    3    3    0    0 -0.58753411466E+01 -0.60230634690E+01 -0.59956644989E+00  0.84354257349E+01  0.51100000000E-03 0.  1.
         12    1    3    3    0    0 -0.22693316942E+01 -0.30477351591E+01 -0.48334107300E+00  0.38304274607E+01  0.00000000000E+00 0. -1.
</event>
<event>
 7    1  0.8300060E-011  0.4778727E+02  0.7816164E-02  0.1312668E+00
        -11   -1    0    0    0    0  0.00000000000E+00  0.00000000000E+00  0.45593999997E+02  0.45594000000E+02  0.51100000000E-03 0. -1.
         11   -1    0    0    0    0 -0.00000000000E+00 -0.00000000000E+00 -0.45593999997E+02  0.45594000000E+02  0.51100000000E-03 0.  1.
    9900012    2    1    2    0    0  0.92921526965E+00 -0.26263669499E+02  0.34539534097E+02  0.47787271985E+02  0.20000004289E+02 0.  0.
        -12    1    1    2    0    0 -0.92921526965E+00  0.26263669499E+02 -0.34539534097E+02  0.43400728015E+02  0.00000000000E+00 0.  1.
         11    1    3    3    0    0  0.38765203228E+01 -0.17020948250E+02  0.16209679201E+02  0.23822128141E+02  0.51100000000E-03 0. -1.
        -11    1    3    3    0    0 -0.10922576835E+00  0.27552461592E+01  0.56082850636E+01  0.62494938421E+01  0.51100000000E-03 0.  1.
        -12    1    3    3    0    0 -0.28380792848E+01 -0.11997967409E+02  0.12721569833E+02  0.17715650002E+02  0.00000000000E+00 0.  1.
</event>
<event>
 7    1  0.8300060E-011  0.4778727E+02  0.7816164E-02  0.1312668E+00
        -11   -1    0    0    0    0  0.00000000000E+00  0.00000000000E+00  0.45593999997E+02  0.45594000000E+02  0.51100000000E-03 0. -1.
         11   -1    0    0    0    0 -0.00000000000E+00 -0.00000000000E+00 -0.45593999997E+02  0.45594000000E+02  0.51100000000E-03 0.  1.
    9900012    2    1    2    0    0 -0.23183811207E+02  0.26450754750E+02 -0.25426201857E+02  0.47787271092E+02  0.20000000215E+02 0.  0.
         12    1    1    2    0    0  0.23183811207E+02 -0.26450754750E+02  0.25426201857E+02  0.43400728908E+02  0.00000000000E+00 0. -1.
         11    1    3    3    0    0 -0.10145313858E+02  0.60047819659E+01 -0.76203166245E+01  0.14037593293E+02  0.51100000000E-03 0. -1.
        -11    1    3    3    0    0 -0.11068234409E+02  0.22860426787E+02 -0.14681690190E+02  0.29336955414E+02  0.51100000000E-03 0.  1.
        -12    1    3    3    0    0 -0.19702629401E+01 -0.24144540036E+01 -0.31241950423E+01  0.44127223855E+01  0.00000000000E+00 0.  1.
</event>
<event>
 7    1  0.8300060E-011  0.4778727E+02  0.7816164E-02  0.1312668E+00
        -11   -1    0    0    0    0  0.00000000000E+00  0.00000000000E+00  0.45593999997E+02  0.45594000000E+02  0.51100000000E-03 0.  1.
         11   -1    0    0    0    0 -0.00000000000E+00 -0.00000000000E+00 -0.45593999997E+02  0.45594000000E+02  0.51100000000E-03 0. -1.
    9900012    2    1    2    0    0 -0.57637564113E+01 -0.18683767104E+02 -0.38746865316E+02  0.47787267138E+02  0.19999982187E+02 0.  0.
         12    1    1    2    0    0  0.57637564113E+01  0.18683767104E+02  0.38746865316E+02  0.43400732862E+02  0.00000000000E+00 0. -1.
         11    1    3    3    0    0  0.44308600928E+01 -0.82080622400E+01 -0.18606537096E+02  0.20813650085E+02  0.51100000000E-03 0. -1.
        -11    1    3    3    0    0 -0.73420978799E+01 -0.37928900296E+00 -0.69230423331E+01  0.10098454180E+02  0.51100000000E-03 0.  1.
        -12    1    3    3    0    0 -0.28525186241E+01 -0.10096415861E+02 -0.13217285887E+02  0.16875162872E+02  0.00000000000E+00 0.  1.
</event>
<event>
 7    1  0.8300060E-011  0.4778728E+02  0.7816164E-02  0.1312668E+00
        -11   -1    0    0    0    0  0.00000000000E+00  0.00000000000E+00  0.45593999997E+02  0.45594000000E+02  0.51100000000E-03 0. -1.
         11   -1    0    0    0    0 -0.00000000000E+00 -0.00000000000E+00 -0.45593999997E+02  0.45594000000E+02  0.51100000000E-03 0.  1.
    9900012    2    1    2    0    0 -0.33646266450E+02  0.13785540375E+02  0.23696210059E+02  0.47787277187E+02  0.20000028009E+02 0.  0.
        -12    1    1    2    0    0  0.33646266450E+02 -0.13785540375E+02 -0.23696210059E+02  0.43400722813E+02  0.00000000000E+00 0.  1.
         11    1    3    3    0    0 -0.57852723574E+01  0.89082980098E+01  0.12687293837E+02  0.16546739100E+02  0.51100000000E-03 0. -1.
        -11    1    3    3    0    0 -0.20617929892E+02  0.51173529162E+01  0.49941952262E+01  0.21822656120E+02  0.51100000000E-03 0.  1.
        -12    1    3    3    0    0 -0.72430642010E+01 -0.24011055135E+00  0.60147209967E+01  0.94178819681E+01  0.00000000000E+00 0.  1.
</event>
<event>
 7    1  0.8300060E-011  0.4778726E+02  0.7816164E-02  0.1312668E+00
        -11   -1    0    0    0    0  0.00000000000E+00  0.00000000000E+00  0.45593999997E+02  0.45594000000E+02  0.51100000000E-03 0. -1.
         11   -1    0    0    0    0 -0.00000000000E+00 -0.00000000000E+00 -0.45593999997E+02  0.45594000000E+02  0.51100000000E-03 0.  1.
    9900012    2    1    2    0    0 -0.88352881042E+01 -0.20744566857E+02 -0.37084029580E+02  0.47787255538E+02  0.19999929299E+02 0.  0.
         12    1    1    2    0    0  0.88352881042E+01  0.20744566857E+02  0.37084029580E+02  0.43400744462E+02  0.00000000000E+00 0. -1.
         11    1    3    3    0    0 -0.47991469690E+01  0.16533516154E+01 -0.40943062096E+01  0.65214052775E+01  0.51100000000E-03 0. -1.
        -11    1    3    3    0    0 -0.59905892881E+00 -0.18763255210E+02 -0.30141064313E+02  0.35509187203E+02  0.51100000000E-03 0.  1.
        -12    1    3    3    0    0 -0.34370822064E+01 -0.36346632622E+01 -0.28486590577E+01  0.57566630569E+01  0.00000000000E+00 0.  1.
</event>
<event>
 7    1  0.8300060E-011  0.4778727E+02  0.7816164E-02  0.1312668E+00
        -11   -1    0    0    0    0  0.00000000000E+00  0.00000000000E+00  0.45593999997E+02  0.45594000000E+02  0.51100000000E-03 0. -1.
         11   -1    0    0    0    0 -0.00000000000E+00 -0.00000000000E+00 -0.45593999997E+02  0.45594000000E+02  0.51100000000E-03 0.  1.
    9900012    2    1    2    0    0 -0.23211062042E+02  0.36048296253E+02 -0.67372251244E+01  0.47787271132E+02  0.20000000399E+02 0.  0.
         12    1    1    2    0    0  0.23211062042E+02 -0.36048296253E+02  0.67372251244E+01  0.43400728868E+02  0.00000000000E+00 0. -1.
         11    1    3    3    0    0  0.32710816893E+01  0.41955203509E+01 -0.45635120680E+00  0.53395339795E+01  0.51100000000E-03 0. -1.
        -11    1    3    3    0    0 -0.25250852079E+02  0.27444052753E+02 -0.65429640985E+01  0.37862804198E+02  0.51100000000E-03 0.  1.
        -12    1    3    3    0    0 -0.12312916526E+01  0.44087231490E+01  0.26209018085E+00  0.45849329550E+01  0.00000000000E+00 0.  1.
</event>
<event>
 7    1  0.8300060E-011  0.4778727E+02  0.7816164E-02  0.1312668E+00
        -11   -1    0    0    0    0  0.00000000000E+00  0.00000000000E+00  0.45593999997E+02  0.45594000000E+02  0.51100000000E-03 0. -1.
         11   -1    0    0    0    0 -0.00000000000E+00 -0.00000000000E+00 -0.45593999997E+02  0.45594000000E+02  0.51100000000E-03 0.  1.
    9900012    2    1    2    0    0 -0.26124609411E+02 -0.16862781856E+02 -0.30278285318E+02  0.47787272004E+02  0.20000004374E+02 0.  0.
         12    1    1    2    0    0  0.26124609411E+02  0.16862781856E+02  0.30278285318E+02  0.43400727996E+02  0.00000000000E+00 0. -1.
         11    1    3    3    0    0 -0.16514334138E+02 -0.46634401889E+01 -0.85799243494E+01  0.19185567714E+02  0.51100000000E-03 0. -1.
        -11    1    3    3    0    0 -0.72053827664E+01 -0.76460087035E+01 -0.60405414244E+01  0.12118874983E+02  0.51100000000E-03 0.  1.
         12    1    3    3    0    0 -0.24048925062E+01 -0.45533329640E+01 -0.15657819544E+02  0.16482829306E+02  0.00000000000E+00 0. -1.
</event>
<event>
 7    1  0.8300060E-011  0.4778722E+02  0.7816164E-02  0.1312668E+00
        -11   -1    0    0    0    0  0.00000000000E+00  0.00000000000E+00  0.45593999997E+02  0.45594000000E+02  0.51100000000E-03 0. -1.
         11   -1    0    0    0    0 -0.00000000000E+00 -0.00000000000E+00 -0.45593999997E+02  0.45594000000E+02  0.51100000000E-03 0.  1.
    9900012    2    1    2    0    0  0.14839345976E+02 -0.28017865812E+02 -0.29638167374E+02  0.47787217070E+02  0.19999753908E+02 0.  0.
         12    1    1    2    0    0 -0.14839345976E+02  0.28017865812E+02  0.29638167374E+02  0.43400782930E+02  0.00000000000E+00 0. -1.
         11    1    3    3    0    0  0.11724691423E+02 -0.39962739878E+01 -0.55407589550E+01  0.13569768046E+02  0.51100000000E-03 0. -1.
        -11    1    3    3    0    0  0.32401799125E+01 -0.19332434519E+02 -0.19472603954E+02  0.27630130208E+02  0.51100000000E-03 0.  1.
         12    1    3    3    0    0 -0.12552536013E+00 -0.46891573055E+01 -0.46248044646E+01  0.65873188163E+01  0.00000000000E+00 0. -1.
</event>
<event>
 7    1  0.8300060E-011  0.4778727E+02  0.7816164E-02  0.1312668E+00
        -11   -1    0    0    0    0  0.00000000000E+00  0.00000000000E+00  0.45593999997E+02  0.45594000000E+02  0.51100000000E-03 0. -1.
         11   -1    0    0    0    0 -0.00000000000E+00 -0.00000000000E+00 -0.45593999997E+02  0.45594000000E+02  0.51100000000E-03 0.  1.
    9900012    2    1    2    0    0  0.23659931994E+02 -0.33456669515E+02 -0.14299736190E+02  0.47787267609E+02  0.19999984334E+02 0.  0.
         12    1    1    2    0    0 -0.23659931994E+02  0.33456669515E+02  0.14299736190E+02  0.43400732391E+02  0.00000000000E+00 0. -1.
         11    1    3    3    0    0  0.84668622654E+01 -0.28142593137E+02 -0.96472524390E+01  0.30931582322E+02  0.51100000000E-03 0.  1.
        -11    1    3    3    0    0  0.13092332447E+02 -0.43240193464E+01 -0.45922569192E+01  0.14532554355E+02  0.51100000000E-03 0. -1.
        -12    1    3    3    0    0  0.21007372812E+01 -0.99005703240E+00 -0.60226832136E-01  0.23231309312E+01  0.00000000000E+00 0.  1.
</event>
<event>
 7    1  0.8300060E-011  0.4778727E+02  0.7816164E-02  0.1312668E+00
        -11   -1    0    0    0    0  0.00000000000E+00  0.00000000000E+00  0.45593999997E+02  0.45594000000E+02  0.51100000000E-03 0. -1.
         11   -1    0    0    0    0 -0.00000000000E+00 -0.00000000000E+00 -0.45593999997E+02  0.45594000000E+02  0.51100000000E-03 0.  1.
    9900012    2    1    2    0    0  0.31988796761E+02 -0.84979282086E+01 -0.28073575732E+02  0.47787267789E+02  0.19999985158E+02 0.  0.
         12    1    1    2    0    0 -0.31988796761E+02  0.84979282086E+01  0.28073575732E+02  0.43400732211E+02  0.00000000000E+00 0. -1.
         11    1    3    3    0    0  0.44338324037E+01 -0.94691696265E+00 -0.12309105821E+02  0.13117530557E+02  0.51100000000E-03 0. -1.
        -11    1    3    3    0    0  0.17918959135E+02  0.79572699547E+00 -0.72889153194E+01  0.19361057944E+02  0.51100000000E-03 0.  1.
        -12    1    3    3    0    0  0.96360052223E+01 -0.83467382414E+01 -0.84755545913E+01  0.15308679288E+02  0.00000000000E+00 0.  1.
</event>
<event>
 7    1  0.8300060E-011  0.4778727E+02  0.7816164E-02  0.1312668E+00
        -11   -1    0    0    0    0  0.00000000000E+00  0.00000000000E+00  0.45593999997E+02  0.45594000000E+02  0.51100000000E-03 0. -1.
         11   -1    0    0    0    0 -0.00000000000E+00 -0.00000000000E+00 -0.45593999997E+02  0.45594000000E+02  0.51100000000E-03 0.  1.
    9900012    2    1    2    0    0  0.26645567463E+02  0.12525414831E+02  0.31886535804E+02  0.47787269042E+02  0.19999990870E+02 0.  0.
        -12    1    1    2    0    0 -0.26645567463E+02 -0.12525414831E+02 -0.31886535804E+02  0.43400730958E+02  0.00000000000E+00 0.  1.
         11    1    3    3    0    0  0.10155120485E+02  0.20091050263E+01  0.22121661240E+02  0.24423981481E+02  0.51100000000E-03 0. -1.
        -11    1    3    3    0    0  0.40995866878E+01  0.52405586791E+01 -0.12493409154E+00  0.66547483099E+01  0.51100000000E-03 0.  1.
        -12    1    3    3    0    0  0.12390860291E+02  0.52757511260E+01  0.98898086549E+01  0.16708539251E+02  0.00000000000E+00 0.  1.
</event>
<event>
 7    1  0.8300060E-011  0.4778726E+02  0.7816164E-02  0.1312668E+00
        -11   -1    0    0    0    0  0.00000000000E+00  0.00000000000E+00  0.45593999997E+02  0.45594000000E+02  0.51100000000E-03 0. -1.
         11   -1    0    0    0    0 -0.00000000000E+00 -0.00000000000E+00 -0.45593999997E+02  0.45594000000E+02  0.51100000000E-03 0.  1.
    9900012    2    1    2    0    0  0.26452803745E+02 -0.45088528526E+01 -0.34110750869E+02  0.47787263775E+02  0.19999966856E+02 0.  0.
         12    1    1    2    0    0 -0.26452803745E+02  0.45088528526E+01  0.34110750869E+02  0.43400736225E+02  0.00000000000E+00 0. -1.
         11    1    3    3    0    0  0.13935501520E+02 -0.13148413229E+01 -0.38097450758E+01  0.14506590507E+02  0.51100000000E-03 0. -1.
        -11    1    3    3    0    0  0.40985316398E+01 -0.26203945847E+01 -0.15473985855E+02  0.16220624768E+02  0.51100000000E-03 0.  1.
         12    1    3    3    0    0  0.84187705851E+01 -0.57361694499E+00 -0.14827019938E+02  0.17060048500E+02  0.00000000000E+00 0. -1.
</event>
<event>
 7    1  0.8300060E-011  0.4778727E+02  0.7816164E-02  0.1312668E+00
        -11   -1    0    0    0    0  0.00000000000E+00  0.00000000000E+00  0.45593999997E+02  0.45594000000E+02  0.51100000000E-03 0. -1.
         11   -1    0    0    0    0 -0.00000000000E+00 -0.00000000000E+00 -0.45593999997E+02  0.45594000000E+02  0.51100000000E-03 0.  1.
    9900012    2    1    2    0    0 -0.11974293949E+02  0.29069588412E+02  0.29919875008E+02  0.47787267212E+02  0.19999982527E+02 0.  0.
        -12    1    1    2    0    0  0.11974293949E+02 -0.29069588412E+02 -0.29919875008E+02  0.43400732788E+02  0.00000000000E+00 0.  1.
         11    1    3    3    0    0 -0.38868683279E+01  0.14604966845E+02  0.25701746370E+02  0.29815978412E+02  0.51100000000E-03 0. -1.
        -11    1    3    3    0    0 -0.27969443636E+01  0.98817672182E+01  0.11680039955E+01  0.10336172150E+02  0.51100000000E-03 0.  1.
         12    1    3    3    0    0 -0.52904812573E+01  0.45828543491E+01  0.30501246428E+01  0.76351166497E+01  0.00000000000E+00 0. -1.
</event>
<event>
 7    1  0.8300060E-011  0.4778727E+02  0.7816164E-02  0.1312668E+00
        -11   -1    0    0    0    0  0.00000000000E+00  0.00000000000E+00  0.45593999997E+02  0.45594000000E+02  0.51100000000E-03 0. -1.
         11   -1    0    0    0    0 -0.00000000000E+00 -0.00000000000E+00 -0.45593999997E+02  0.45594000000E+02  0.51100000000E-03 0.  1.
    9900012    2    1    2    0    0 -0.21863602213E+02  0.15146028679E+02 -0.34295829055E+02  0.47787272160E+02  0.20000005084E+02 0.  0.
         12    1    1    2    0    0  0.21863602213E+02 -0.15146028679E+02  0.34295829055E+02  0.43400727840E+02  0.00000000000E+00 0. -1.
         11    1    3    3    0    0 -0.27873802023E+01 -0.28016874384E+01  0.10893412914E+00  0.39535816420E+01  0.51100000000E-03 0. -1.
        -11    1    3    3    0    0 -0.79862065066E+01  0.11287934110E+02 -0.21491543409E+02  0.25555496262E+02  0.51100000000E-03 0.  1.
         12    1    3    3    0    0 -0.11090015504E+02  0.66597820078E+01 -0.12913219776E+02  0.18278194256E+02  0.00000000000E+00 0. -1.
</event>
<event>
 7    1  0.8300060E-011  0.4778727E+02  0.7816164E-02  0.1312668E+00
        -11   -1    0    0    0    0  0.00000000000E+00  0.00000000000E+00  0.45593999997E+02  0.45594000000E+02  0.51100000000E-03 0. -1.
         11   -1    0    0    0    0 -0.00000000000E+00 -0.00000000000E+00 -0.45593999997E+02  0.45594000000E+02  0.51100000000E-03 0.  1.
    9900012    2    1    2    0    0  0.36667995498E+02 -0.22151756605E+02 -0.69556432364E+01  0.47787272041E+02  0.20000004542E+02 0.  0.
         12    1    1    2    0    0 -0.36667995498E+02  0.22151756605E+02  0.69556432364E+01  0.43400727959E+02  0.00000000000E+00 0. -1.
         11    1    3    3    0    0  0.67050978027E+01  0.83975096122E+00 -0.65696104060E+01  0.94246113643E+01  0.51100000000E-03 0. -1.
        -11    1    3    3    0    0  0.20428136560E+02 -0.19352940174E+02  0.19944292918E+00  0.28140448370E+02  0.51100000000E-03 0.  1.
         12    1    3    3    0    0  0.95347611353E+01 -0.36385673929E+01 -0.58547575959E+00  0.10222212307E+02  0.00000000000E+00 0. -1.
</event>
<event>
 7    1  0.8300060E-011  0.4778733E+02  0.7816164E-02  0.1312668E+00
        -11   -1    0    0    0    0  0.00000000000E+00  0.00000000000E+00  0.45593999997E+02  0.45594000000E+02  0.51100000000E-03 0.  1.
         11   -1    0    0    0    0 -0.00000000000E+00 -0.00000000000E+00 -0.45593999997E+02  0.45594000000E+02  0.51100000000E-03 0. -1.
    9900012    2    1    2    0    0  0.18902210944E+02 -0.36976707051E+02  0.12611416128E+02  0.47787328811E+02  0.20000263378E+02 0.  0.
        -12    1    1    2    0    0 -0.18902210944E+02  0.36976707051E+02 -0.12611416128E+02  0.43400671189E+02  0.00000000000E+00 0.  1.
         11    1    3    3    0    0  0.50818898964E+01 -0.21739204513E+02  0.11949973606E+02  0.25322331789E+02  0.51100000000E-03 0. -1.
        -11    1    3    3    0    0  0.75796968415E+01 -0.39638046081E+01 -0.30078888219E+01  0.90670252347E+01  0.51100000000E-03 0.  1.
         12    1    3    3    0    0  0.62406242061E+01 -0.11273697930E+02  0.36693313430E+01  0.13397971787E+02  0.00000000000E+00 0. -1.
</event>
<event>
 7    1  0.8300060E-011  0.4778727E+02  0.7816164E-02  0.1312668E+00
        -11   -1    0    0    0    0  0.00000000000E+00  0.00000000000E+00  0.45593999997E+02  0.45594000000E+02  0.51100000000E-03 0. -1.
         11   -1    0    0    0    0 -0.00000000000E+00 -0.00000000000E+00 -0.45593999997E+02  0.45594000000E+02  0.51100000000E-03 0.  1.
    9900012    2    1    2    0    0 -0.29874370578E+02  0.25924796992E+02  0.17861978785E+02  0.47787269561E+02  0.19999993236E+02 0.  0.
        -12    1    1    2    0    0  0.29874370578E+02 -0.25924796992E+02 -0.17861978785E+02  0.43400730439E+02  0.00000000000E+00 0.  1.
         11    1    3    3    0    0 -0.45189305076E+01  0.32535679302E+01  0.30231217469E+01  0.63360636491E+01  0.51100000000E-03 0. -1.
        -11    1    3    3    0    0  0.16361795566E+01  0.72628847291E+01  0.13318346774E+01  0.75630920924E+01  0.51100000000E-03 0.  1.
        -12    1    3    3    0    0 -0.26991619627E+02  0.15408344333E+02  0.13507022361E+02  0.33888113819E+02  0.00000000000E+00 0.  1.
</event>
<event>
 7    1  0.8300060E-011  0.4778727E+02  0.7816164E-02  0.1312668E+00
        -11   -1    0    0    0    0  0.00000000000E+00  0.00000000000E+00  0.45593999997E+02  0.45594000000E+02  0.51100000000E-03 0. -1.
         11   -1    0    0    0    0 -0.00000000000E+00 -0.00000000000E+00 -0.45593999997E+02  0.45594000000E+02  0.51100000000E-03 0.  1.
    9900012    2    1    2    0    0 -0.31873225142E+02 -0.12033467482E+02 -0.26887103355E+02  0.47787272501E+02  0.20000006642E+02 0.  0.
         12    1    1    2    0    0  0.31873225142E+02  0.12033467482E+02  0.26887103355E+02  0.43400727499E+02  0.00000000000E+00 0. -1.
         11    1    3    3    0    0  0.20067661410E+01  0.24382054677E-01 -0.44920606068E+00  0.20565726768E+01  0.51100000000E-03 0. -1.
        -11    1    3    3    0    0 -0.30816028333E+02 -0.73228785440E+01 -0.22444815646E+02  0.38820379983E+02  0.51100000000E-03 0.  1.
        -12    1    3    3    0    0 -0.30639629503E+01 -0.47349709927E+01 -0.39930816483E+01  0.69103198416E+01  0.00000000000E+00 0.  1.
</event>
<event>
 7    1  0.8300060E-011  0.4778727E+02  0.7816164E-02  0.1312668E+00
        -11   -1    0    0    0    0  0.00000000000E+00  0.00000000000E+00  0.45593999997E+02  0.45594000000E+02  0.51100000000E-03 0. -1.
         11   -1    0    0    0    0 -0.00000000000E+00 -0.00000000000E+00 -0.45593999997E+02  0.45594000000E+02  0.51100000000E-03 0.  1.
    9900012    2    1    2    0    0  0.18075682614E+02  0.10576884509E+02  0.38013449790E+02  0.47787272439E+02  0.20000006360E+02 0.  0.
        -12    1    1    2    0    0 -0.18075682614E+02 -0.10576884509E+02 -0.38013449790E+02  0.43400727561E+02  0.00000000000E+00 0.  1.
         11    1    3    3    0    0  0.10778054109E+02  0.15019004574E+02  0.20577930175E+02  0.27662034620E+02  0.51100000000E-03 0. -1.
        -11    1    3    3    0    0 -0.23041472834E+00 -0.21773185473E+01  0.37209684162E+01  0.43173386732E+01  0.51100000000E-03 0.  1.
         12    1    3    3    0    0  0.75280432337E+01 -0.22648015182E+01  0.13714551198E+02  0.15807899146E+02  0.00000000000E+00 0. -1.
</event>
<event>
 7    1  0.8300060E-011  0.4778726E+02  0.7816164E-02  0.1312668E+00
        -11   -1    0    0    0    0  0.00000000000E+00  0.00000000000E+00  0.45593999997E+02  0.45594000000E+02  0.51100000000E-03 0. -1.
         11   -1    0    0    0    0 -0.00000000000E+00 -0.00000000000E+00 -0.45593999997E+02  0.45594000000E+02  0.51100000000E-03 0.  1.
    9900012    2    1    2    0    0  0.20060114387E+02  0.25276053392E+02 -0.29023039430E+02  0.47787264037E+02  0.19999968052E+02 0.  0.
         12    1    1    2    0    0 -0.20060114387E+02 -0.25276053392E+02  0.29023039430E+02  0.43400735963E+02  0.00000000000E+00 0. -1.
         11    1    3    3    0    0  0.10489719782E+02  0.20016351725E+02 -0.21630869857E+02  0.31282312710E+02  0.51100000000E-03 0. -1.
        -11    1    3    3    0    0  0.15681819379E+01  0.59281807861E+01 -0.55400067585E+01  0.82640303223E+01  0.51100000000E-03 0.  1.
         12    1    3    3    0    0  0.80022126678E+01 -0.66847911930E+00 -0.18521628151E+01  0.82409210048E+01  0.00000000000E+00 0. -1.
</event>
<event>
 7    1  0.8300060E-011  0.4778727E+02  0.7816164E-02  0.1312668E+00
        -11   -1    0    0    0    0  0.00000000000E+00  0.00000000000E+00  0.45593999997E+02  0.45594000000E+02  0.51100000000E-03 0. -1.
         11   -1    0    0    0    0 -0.00000000000E+00 -0.00000000000E+00 -0.45593999997E+02  0.45594000000E+02  0.51100000000E-03 0.  1.
    9900012    2    1    2    0    0 -0.10279968223E+02  0.27111613099E+02  0.32294056426E+02  0.47787269684E+02  0.19999993798E+02 0.  0.
        -12    1    1    2    0    0  0.10279968223E+02 -0.27111613099E+02 -0.32294056426E+02  0.43400730316E+02  0.00000000000E+00 0.  1.
         11    1    3    3    0    0 -0.18751693614E+00  0.43513362323E+01  0.72188176067E+01  0.84309321850E+01  0.51100000000E-03 0. -1.
        -11    1    3    3    0    0 -0.10186684178E+02  0.24558861554E+02  0.26122286856E+02  0.37273047719E+02  0.51100000000E-03 0.  1.
        -12    1    3    3    0    0  0.94232891712E-01 -0.17985846877E+01 -0.10470480368E+01  0.20832897801E+01  0.00000000000E+00 0.  1.
</event>
<event>
 7    1  0.8300060E-011  0.4778727E+02  0.7816164E-02  0.1312668E+00
        -11   -1    0    0    0    0  0.00000000000E+00  0.00000000000E+00  0.45593999997E+02  0.45594000000E+02  0.51100000000E-03 0. -1.
         11   -1    0    0    0    0 -0.00000000000E+00 -0.00000000000E+00 -0.45593999997E+02  0.45594000000E+02  0.51100000000E-03 0.  1.
    9900012    2    1    2    0    0  0.27686395858E+02 -0.30668174867E+02  0.13287200032E+02  0.47787272472E+02  0.20000006509E+02 0.  0.
        -12    1    1    2    0    0 -0.27686395858E+02  0.30668174867E+02 -0.13287200032E+02  0.43400727528E+02  0.00000000000E+00 0.  1.
         11    1    3    3    0    0  0.59534837684E+01 -0.82310661991E+01  0.92616003866E+01  0.13746696394E+02  0.51100000000E-03 0. -1.
        -11    1    3    3    0    0  0.80355314093E+00 -0.82229514971E+01  0.27532653533E+01  0.87087943678E+01  0.51100000000E-03 0.  1.
         12    1    3    3    0    0  0.20929358949E+02 -0.14214157171E+02  0.12723342916E+01  0.25331781711E+02  0.00000000000E+00 0. -1.
</event>
<event>
 7    1  0.8300060E-011  0.4778728E+02  0.7816164E-02  0.1312668E+00
        -11   -1    0    0    0    0  0.00000000000E+00  0.00000000000E+00  0.45593999997E+02  0.45594000000E+02  0.51100000000E-03 0. -1.
         11   -1    0    0    0    0 -0.00000000000E+00 -0.00000000000E+00 -0.45593999997E+02  0.45594000000E+02  0.51100000000E-03 0.  1.
    9900012    2    1    2    0    0 -0.30493017551E+02  0.11509471960E+02  0.28658868443E+02  0.47787276451E+02  0.20000024650E+02 0.  0.
        -12    1    1    2    0    0  0.30493017551E+02 -0.11509471960E+02 -0.28658868443E+02  0.43400723549E+02  0.00000000000E+00 0.  1.
         11    1    3    3    0    0 -0.24574382107E+02  0.15331496056E+02  0.24873078888E+02  0.38178856464E+02  0.51100000000E-03 0. -1.
        -11    1    3    3    0    0 -0.68698245452E+01 -0.28878994912E+01  0.35501776799E+01  0.82545874866E+01  0.51100000000E-03 0.  1.
        -12    1    3    3    0    0  0.95118910102E+00 -0.93412460505E+00  0.23561187475E+00  0.13538325004E+01  0.00000000000E+00 0.  1.
</event>
<event>
 7    1  0.8300060E-011  0.4778727E+02  0.7816164E-02  0.1312668E+00
        -11   -1    0    0    0    0  0.00000000000E+00  0.00000000000E+00  0.45593999997E+02  0.45594000000E+02  0.51100000000E-03 0. -1.
         11   -1    0    0    0    0 -0.00000000000E+00 -0.00000000000E+00 -0.45593999997E+02  0.45594000000E+02  0.51100000000E-03 0.  1.
    9900012    2    1    2    0    0 -0.31041607030E+02  0.24605267682E+02 -0.17737608557E+02  0.47787270490E+02  0.19999997471E+02 0.  0.
         12    1    1    2    0    0  0.31041607030E+02 -0.24605267682E+02  0.17737608557E+02  0.43400729510E+02  0.00000000000E+00 0. -1.
         11    1    3    3    0    0 -0.66910033077E+01  0.30269008220E+01 -0.23139315711E+01  0.76997359323E+01  0.51100000000E-03 0. -1.
        -11    1    3    3    0    0 -0.23057985324E+02  0.14932170900E+02 -0.54079503326E+01  0.27997970320E+02  0.51100000000E-03 0.  1.
        -12    1    3    3    0    0 -0.12926183982E+01  0.66461959602E+01 -0.10015726653E+02  0.12089564237E+02  0.00000000000E+00 0.  1.
</event>
<event>
 7    1  0.8300060E-011  0.4778727E+02  0.7816164E-02  0.1312668E+00
        -11   -1    0    0    0    0  0.00000000000E+00  0.00000000000E+00  0.45593999997E+02  0.45594000000E+02  0.51100000000E-03 0. -1.
         11   -1    0    0    0    0 -0.00000000000E+00 -0.00000000000E+00 -0.45593999997E+02  0.45594000000E+02  0.51100000000E-03 0.  1.
    9900012    2    1    2    0    0 -0.54545595311E+00 -0.20899669103E+02  0.38033268899E+02  0.47787271504E+02  0.20000002097E+02 0.  0.
        -12    1    1    2    0    0  0.54545595311E+00  0.20899669103E+02 -0.38033268899E+02  0.43400728496E+02  0.00000000000E+00 0.  1.
         11    1    3    3    0    0 -0.29580971242E+01 -0.41154495594E+01  0.23334765136E+02  0.23878830119E+02  0.51100000000E-03 0. -1.
        -11    1    3    3    0    0 -0.23845709043E+00 -0.16122206343E+02  0.12582046905E+02  0.20452146678E+02  0.51100000000E-03 0.  1.
         12    1    3    3    0    0  0.26510982615E+01 -0.66201320065E+00  0.21164568582E+01  0.34562947071E+01  0.00000000000E+00 0. -1.
</event>
<event>
 7    1  0.8300060E-011  0.4778728E+02  0.7816164E-02  0.1312668E+00
        -11   -1    0    0    0    0  0.00000000000E+00  0.00000000000E+00  0.45593999997E+02  0.45594000000E+02  0.51100000000E-03 0. -1.
         11   -1    0    0    0    0 -0.00000000000E+00 -0.00000000000E+00 -0.45593999997E+02  0.45594000000E+02  0.51100000000E-03 0.  1.
    9900012    2    1    2    0    0 -0.20559794551E+02 -0.19996857796E+02 -0.32573661874E+02  0.47787275103E+02  0.20000018504E+02 0.  0.
         12    1    1    2    0    0  0.20559794551E+02  0.19996857796E+02  0.32573661874E+02  0.43400724897E+02  0.00000000000E+00 0. -1.
         11    1    3    3    0    0  0.51071291075E+00 -0.93119418723E+00 -0.10228544798E+00  0.10669643225E+01  0.51100000000E-03 0. -1.
        -11    1    3    3    0    0 -0.98327513070E+01 -0.13538966996E+02 -0.29396422692E+02  0.33825083783E+02  0.51100000000E-03 0.  1.
        -12    1    3    3    0    0 -0.11237756155E+02 -0.55266966129E+01 -0.30749537344E+01  0.12895226997E+02  0.00000000000E+00 0.  1.
</event>
<event>
 7    1  0.8300060E-011  0.4778728E+02  0.7816164E-02  0.1312668E+00
        -11   -1    0    0    0    0  0.00000000000E+00  0.00000000000E+00  0.45593999997E+02  0.45594000000E+02  0.51100000000E-03 0.  1.
         11   -1    0    0    0    0 -0.00000000000E+00 -0.00000000000E+00 -0.45593999997E+02  0.45594000000E+02  0.51100000000E-03 0. -1.
    9900012    2    1    2    0    0 -0.21610309206E+02 -0.37442819420E+02 -0.38278467387E+01  0.47787278799E+02  0.20000035356E+02 0.  0.
        -12    1    1    2    0    0  0.21610309206E+02  0.37442819420E+02  0.38278467387E+01  0.43400721201E+02  0.00000000000E+00 0.  1.
         11    1    3    3    0    0 -0.13891311519E+02 -0.22382531496E+02 -0.62768911035E+01  0.27080354762E+02  0.51100000000E-03 0. -1.
        -11    1    3    3    0    0  0.12020555220E+01 -0.60449261135E+01  0.47947535267E+01  0.78086958475E+01  0.51100000000E-03 0.  1.
         12    1    3    3    0    0 -0.89210532093E+01 -0.90153618108E+01 -0.23457091619E+01  0.12898228189E+02  0.00000000000E+00 0. -1.
</event>
<event>
 7    1  0.8300060E-011  0.4778727E+02  0.7816164E-02  0.1312668E+00
        -11   -1    0    0    0    0  0.00000000000E+00  0.00000000000E+00  0.45593999997E+02  0.45594000000E+02  0.51100000000E-03 0. -1.
         11   -1    0    0    0    0 -0.00000000000E+00 -0.00000000000E+00 -0.45593999997E+02  0.45594000000E+02  0.51100000000E-03 0.  1.
    9900012    2    1    2    0    0  0.19581298444E+02 -0.98766067289E+01  0.37451957330E+02  0.47787265938E+02  0.19999976719E+02 0.  0.
        -12    1    1    2    0    0 -0.19581298444E+02  0.98766067289E+01 -0.37451957330E+02  0.43400734062E+02  0.00000000000E+00 0.  1.
         11    1    3    3    0    0  0.12695704359E+01 -0.46409168470E+01  0.12159212536E+02  0.13076557958E+02  0.51100000000E-03 0. -1.
        -11    1    3    3    0    0  0.17156834089E+02 -0.43232635836E+01  0.27109601104E+02  0.32372488879E+02  0.51100000000E-03 0.  1.
        -12    1    3    3    0    0  0.11548939191E+01 -0.91242629824E+00 -0.18168563097E+01  0.23382191010E+01  0.00000000000E+00 0.  1.
</event>
<event>
 7    1  0.8300060E-011  0.4778727E+02  0.7816164E-02  0.1312668E+00
        -11   -1    0    0    0    0  0.00000000000E+00  0.00000000000E+00  0.45593999997E+02  0.45594000000E+02  0.51100000000E-03 0. -1.
         11   -1    0    0    0    0 -0.00000000000E+00 -0.00000000000E+00 -0.45593999997E+02  0.45594000000E+02  0.51100000000E-03 0.  1.
    9900012    2    1    2    0    0  0.12468670443E+02 -0.12141372434E+02  0.39758552292E+02  0.47787272500E+02  0.20000006636E+02 0.  0.
        -12    1    1    2    0    0 -0.12468670443E+02  0.12141372434E+02 -0.39758552292E+02  0.43400727500E+02  0.00000000000E+00 0.  1.
         11    1    3    3    0    0  0.99327808222E+01 -0.40872839642E+01  0.15641964012E+02  0.18974642645E+02  0.51100000000E-03 0. -1.
        -11    1    3    3    0    0 -0.20613262761E+01 -0.81711183181E+01  0.66045324392E+01  0.10706824440E+02  0.51100000000E-03 0.  1.
        -12    1    3    3    0    0  0.45972158972E+01  0.11702984833E+00  0.17512055840E+02  0.18105805415E+02  0.00000000000E+00 0.  1.
</event>
<event>
 7    1  0.8300060E-011  0.4778727E+02  0.7816164E-02  0.1312668E+00
        -11   -1    0    0    0    0  0.00000000000E+00  0.00000000000E+00  0.45593999997E+02  0.45594000000E+02  0.51100000000E-03 0. -1.
         11   -1    0    0    0    0 -0.00000000000E+00 -0.00000000000E+00 -0.45593999997E+02  0.45594000000E+02  0.51100000000E-03 0.  1.
    9900012    2    1    2    0    0  0.15396379186E+02 -0.50829068630E+01 -0.40258402127E+02  0.47787269868E+02  0.19999994635E+02 0.  0.
         12    1    1    2    0    0 -0.15396379186E+02  0.50829068630E+01  0.40258402127E+02  0.43400730132E+02  0.00000000000E+00 0. -1.
         11    1    3    3    0    0  0.10638065342E+02  0.31364681165E+01 -0.91366488708E+01  0.14369558772E+02  0.51100000000E-03 0. -1.
        -11    1    3    3    0    0  0.37729504559E+01 -0.29845170874E+01 -0.57698460997E+01  0.75122314702E+01  0.51100000000E-03 0.  1.
         12    1    3    3    0    0  0.98536338831E+00 -0.52348578921E+01 -0.25351907156E+02  0.25905479625E+02  0.00000000000E+00 0. -1.
</event>
<event>
 7    1  0.8300060E-011  0.4778727E+02  0.7816164E-02  0.1312668E+00
        -11   -1    0    0    0    0  0.00000000000E+00  0.00000000000E+00  0.45593999997E+02  0.45594000000E+02  0.51100000000E-03 0. -1.
         11   -1    0    0    0    0 -0.00000000000E+00 -0.00000000000E+00 -0.45593999997E+02  0.45594000000E+02  0.51100000000E-03 0.  1.
    9900012    2    1    2    0    0  0.23565934261E+02  0.37142947559E+01 -0.36255679836E+02  0.47787267708E+02  0.19999984788E+02 0.  0.
         12    1    1    2    0    0 -0.23565934261E+02 -0.37142947559E+01  0.36255679836E+02  0.43400732292E+02  0.00000000000E+00 0. -1.
         11    1    3    3    0    0  0.20492403960E+02  0.50660788125E+01 -0.34791927359E+02  0.40694987212E+02  0.51100000000E-03 0.  1.
        -11    1    3    3    0    0  0.45997070440E+01 -0.20772429252E+01 -0.33085482753E+00  0.50578363199E+01  0.51100000000E-03 0. -1.
        -12    1    3    3    0    0 -0.15261767431E+01  0.72545886856E+00 -0.11328976490E+01  0.20344441757E+01  0.00000000000E+00 0.  1.
</event>
<event>
 7    1  0.8300060E-011  0.4778727E+02  0.7816164E-02  0.1312668E+00
        -11   -1    0    0    0    0  0.00000000000E+00  0.00000000000E+00  0.45593999997E+02  0.45594000000E+02  0.51100000000E-03 0.  1.
         11   -1    0    0    0    0 -0.00000000000E+00 -0.00000000000E+00 -0.45593999997E+02  0.45594000000E+02  0.51100000000E-03 0. -1.
    9900012    2    1    2    0    0 -0.35700464691E+02  0.18146242563E+02 -0.16727646631E+02  0.47787268899E+02  0.19999990216E+02 0.  0.
         12    1    1    2    0    0  0.35700464691E+02 -0.18146242563E+02  0.16727646631E+02  0.43400731101E+02  0.00000000000E+00 0. -1.
         11    1    3    3    0    0 -0.20273590902E+02  0.13373063071E+02 -0.12226824559E+02  0.27191037918E+02  0.51100000000E-03 0. -1.
        -11    1    3    3    0    0 -0.76283980223E+01 -0.12746850790E+01  0.29007678126E+01  0.82602501536E+01  0.51100000000E-03 0.  1.
        -12    1    3    3    0    0 -0.77984757664E+01  0.60478645715E+01 -0.74015898842E+01  0.12335980827E+02  0.00000000000E+00 0.  1.
</event>
<event>
 7    1  0.8300060E-011  0.4778727E+02  0.7816164E-02  0.1312668E+00
        -11   -1    0    0    0    0  0.00000000000E+00  0.00000000000E+00  0.45593999997E+02  0.45594000000E+02  0.51100000000E-03 0.  1.
         11   -1    0    0    0    0 -0.00000000000E+00 -0.00000000000E+00 -0.45593999997E+02  0.45594000000E+02  0.51100000000E-03 0. -1.
    9900012    2    1    2    0    0  0.34729984697E+02 -0.21524085834E+02 -0.14634385090E+02  0.47787270341E+02  0.19999996791E+02 0.  0.
         12    1    1    2    0    0 -0.34729984697E+02  0.21524085834E+02  0.14634385090E+02  0.43400729659E+02  0.00000000000E+00 0. -1.
         11    1    3    3    0    0  0.17502492972E+01 -0.25777226705E+01 -0.73974353541E+01  0.80268347964E+01  0.51100000000E-03 0. -1.
        -11    1    3    3    0    0  0.24683968045E+02 -0.12254649726E+02 -0.13665511292E+01  0.27592429770E+02  0.51100000000E-03 0.  1.
        -12    1    3    3    0    0  0.82957673539E+01 -0.66917134374E+01 -0.58703986067E+01  0.12168005774E+02  0.00000000000E+00 0.  1.
</event>
<event>
 7    1  0.8300060E-011  0.4778727E+02  0.7816164E-02  0.1312668E+00
        -11   -1    0    0    0    0  0.00000000000E+00  0.00000000000E+00  0.45593999997E+02  0.45594000000E+02  0.51100000000E-03 0. -1.
         11   -1    0    0    0    0 -0.00000000000E+00 -0.00000000000E+00 -0.45593999997E+02  0.45594000000E+02  0.51100000000E-03 0.  1.
    9900012    2    1    2    0    0 -0.21542119921E+02 -0.28295812407E+02 -0.24877849012E+02  0.47787270721E+02  0.19999998527E+02 0.  0.
         12    1    1    2    0    0  0.21542119921E+02  0.28295812407E+02  0.24877849012E+02  0.43400729279E+02  0.00000000000E+00 0. -1.
         11    1    3    3    0    0 -0.37317692876E+01 -0.20210588054E+02 -0.85304237152E+01  0.22252238102E+02  0.51100000000E-03 0. -1.
        -11    1    3    3    0    0 -0.12083121247E+02 -0.57185828355E+01 -0.10294706075E+02  0.16872610413E+02  0.51100000000E-03 0.  1.
         12    1    3    3    0    0 -0.57272293860E+01 -0.23666415176E+01 -0.60527192214E+01  0.86624222066E+01  0.00000000000E+00 0. -1.
</event>
<event>
 7    1  0.8300060E-011  0.4778727E+02  0.7816164E-02  0.1312668E+00
        -11   -1    0    0    0    0  0.00000000000E+00  0.00000000000E+00  0.45593999997E+02  0.45594000000E+02  0.51100000000E-03 0. -1.
         11   -1    0    0    0    0 -0.00000000000E+00 -0.00000000000E+00 -0.45593999997E+02  0.45594000000E+02  0.51100000000E-03 0.  1.
    9900012    2    1    2    0    0 -0.39571466473E+02  0.14101587509E+02 -0.10902646361E+02  0.47787269284E+02  0.19999991971E+02 0.  0.
         12    1    1    2    0    0  0.39571466473E+02 -0.14101587509E+02  0.10902646361E+02  0.43400730716E+02  0.00000000000E+00 0. -1.
         11    1    3    3    0    0 -0.38118166485E+01  0.61499784550E+01 -0.58746066729E+00  0.72592900105E+01  0.51100000000E-03 0. -1.
        -11    1    3    3    0    0 -0.31908824940E+02  0.83950867055E+01 -0.13361940094E+02  0.35597640838E+02  0.51100000000E-03 0.  1.
        -12    1    3    3    0    0 -0.38508248836E+01 -0.44347765207E+00  0.30467544002E+01  0.49303384354E+01  0.00000000000E+00 0.  1.
</event>
<event>
 7    1  0.8300060E-011  0.4778727E+02  0.7816164E-02  0.1312668E+00
        -11   -1    0    0    0    0  0.00000000000E+00  0.00000000000E+00  0.45593999997E+02  0.45594000000E+02  0.51100000000E-03 0.  1.
         11   -1    0    0    0    0 -0.00000000000E+00 -0.00000000000E+00 -0.45593999997E+02  0.45594000000E+02  0.51100000000E-03 0. -1.
    9900012    2    1    2    0    0  0.33554036970E+02  0.26959819098E+02 -0.55604116430E+01  0.47787269356E+02  0.19999992303E+02 0.  0.
         12    1    1    2    0    0 -0.33554036970E+02 -0.26959819098E+02  0.55604116430E+01  0.43400730644E+02  0.00000000000E+00 0. -1.
         11    1    3    3    0    0  0.13988836668E+02  0.96954579200E+01  0.39786347478E+01  0.17479101531E+02  0.51100000000E-03 0.  1.
        -11    1    3    3    0    0  0.52886297585E+01  0.13411369291E+01 -0.68442915834E+01  0.87528612765E+01  0.51100000000E-03 0. -1.
         12    1    3    3    0    0  0.14276570543E+02  0.15923224249E+02 -0.26947548075E+01  0.21555306549E+02  0.00000000000E+00 0. -1.
</event>
<event>
 7    1  0.8300060E-011  0.4778728E+02  0.7816164E-02  0.1312668E+00
        -11   -1    0    0    0    0  0.00000000000E+00  0.00000000000E+00  0.45593999997E+02  0.45594000000E+02  0.51100000000E-03 0. -1.
         11   -1    0    0    0    0 -0.00000000000E+00 -0.00000000000E+00 -0.45593999997E+02  0.45594000000E+02  0.51100000000E-03 0.  1.
    9900012    2    1    2    0    0  0.38130252443E+02 -0.19868429978E+02  0.59120166929E+01  0.47787278779E+02  0.20000035265E+02 0.  0.
        -12    1    1    2    0    0 -0.38130252443E+02  0.19868429978E+02 -0.59120166929E+01  0.43400721221E+02  0.00000000000E+00 0.  1.
         11    1    3    3    0    0  0.20235451626E+02 -0.19083321601E+02  0.75999921568E+01  0.28834121226E+02  0.51100000000E-03 0. -1.
        -11    1    3    3    0    0  0.12947812372E+00  0.15030565604E+00  0.94840962044E+00  0.96893624352E+00  0.51100000000E-03 0.  1.
         12    1    3    3    0    0  0.17765322693E+02 -0.93541403365E+00 -0.26363850843E+01  0.17984221310E+02  0.00000000000E+00 0. -1.
</event>
<event>
 7    1  0.8300060E-011  0.4778727E+02  0.7816164E-02  0.1312668E+00
        -11   -1    0    0    0    0  0.00000000000E+00  0.00000000000E+00  0.45593999997E+02  0.45594000000E+02  0.51100000000E-03 0. -1.
         11   -1    0    0    0    0 -0.00000000000E+00 -0.00000000000E+00 -0.45593999997E+02  0.45594000000E+02  0.51100000000E-03 0.  1.
    9900012    2    1    2    0    0 -0.22084800532E+02 -0.15237746521E+02  0.34112989369E+02  0.47787269854E+02  0.19999994571E+02 0.  0.
        -12    1    1    2    0    0  0.22084800532E+02  0.15237746521E+02 -0.34112989369E+02  0.43400730146E+02  0.00000000000E+00 0.  1.
         11    1    3    3    0    0 -0.15301989369E+02 -0.12676398715E+02  0.10677711637E+02  0.22557825451E+02  0.51100000000E-03 0. -1.
        -11    1    3    3    0    0  0.35326036424E+00 -0.16435682787E+01  0.83330629991E+01  0.85009439934E+01  0.51100000000E-03 0.  1.
         12    1    3    3    0    0 -0.71360715271E+01 -0.91777952709E+00  0.15102214733E+02  0.16728500409E+02  0.00000000000E+00 0. -1.
</event>
<event>
 7    1  0.9763436E-011  0.4778728E+02  0.7816164E-02  0.1312668E+00
        -11   -1    0    0    0    0  0.00000000000E+00  0.00000000000E+00  0.45593999997E+02  0.45594000000E+02  0.51100000000E-03 0. -1.
         11   -1    0    0    0    0 -0.00000000000E+00 -0.00000000000E+00 -0.45593999997E+02  0.45594000000E+02  0.51100000000E-03 0.  1.
    9900012    2    1    2    0    0 -0.22404900646E+02  0.54868405496E+01 -0.36763268308E+02  0.47787275480E+02  0.20000020224E+02 0.  0.
         12    1    1    2    0    0  0.22404900646E+02 -0.54868405496E+01  0.36763268308E+02  0.43400724520E+02  0.00000000000E+00 0. -1.
         11    1    3    3    0    0 -0.60150536555E+01 -0.27778064475E+01 -0.28318512742E+01  0.72053078379E+01  0.51100000000E-03 0. -1.
        -11    1    3    3    0    0 -0.11113557578E+02  0.11547169187E+02 -0.25219493608E+02  0.29880949389E+02  0.51100000000E-03 0.  1.
        -12    1    3    3    0    0 -0.52762894128E+01 -0.32825221895E+01 -0.87119234257E+01  0.10701018254E+02  0.00000000000E+00 0.  1.
</event>
<event>
 7    1  0.8300060E-011  0.4778727E+02  0.7816164E-02  0.1312668E+00
        -11   -1    0    0    0    0  0.00000000000E+00  0.00000000000E+00  0.45593999997E+02  0.45594000000E+02  0.51100000000E-03 0. -1.
         11   -1    0    0    0    0 -0.00000000000E+00 -0.00000000000E+00 -0.45593999997E+02  0.45594000000E+02  0.51100000000E-03 0.  1.
    9900012    2    1    2    0    0  0.92755907032E+01 -0.27640862351E+02 -0.32149175325E+02  0.47787270415E+02  0.19999997132E+02 0.  0.
         12    1    1    2    0    0 -0.92755907032E+01  0.27640862351E+02  0.32149175325E+02  0.43400729585E+02  0.00000000000E+00 0. -1.
         11    1    3    3    0    0  0.48542749344E+01 -0.57118194357E+01 -0.23860919192E+00  0.74997200623E+01  0.51100000000E-03 0. -1.
        -11    1    3    3    0    0  0.32611907658E+01 -0.77636972062E+00 -0.53475651081E+01  0.63114632218E+01  0.51100000000E-03 0.  1.
         12    1    3    3    0    0  0.11601250030E+01 -0.21152673194E+02 -0.26563001025E+02  0.33976087131E+02  0.00000000000E+00 0. -1.
</event>
<event>
 7    1  0.8300060E-011  0.4778727E+02  0.7816164E-02  0.1312668E+00
        -11   -1    0    0    0    0  0.00000000000E+00  0.00000000000E+00  0.45593999997E+02  0.45594000000E+02  0.51100000000E-03 0. -1.
         11   -1    0    0    0    0 -0.00000000000E+00 -0.00000000000E+00 -0.45593999997E+02  0.45594000000E+02  0.51100000000E-03 0.  1.
    9900012    2    1    2    0    0  0.18861255759E+02  0.33432879114E+01 -0.38944814715E+02  0.47787272632E+02  0.20000007240E+02 0.  0.
         12    1    1    2    0    0 -0.18861255759E+02 -0.33432879114E+01  0.38944814715E+02  0.43400727368E+02  0.00000000000E+00 0. -1.
         11    1    3    3    0    0 -0.19909761625E+01 -0.32718263669E+01 -0.49831127173E+01  0.62849221530E+01  0.51100000000E-03 0. -1.
        -11    1    3    3    0    0  0.19244142180E+02  0.60227293593E+01 -0.34268821334E+02  0.39761317799E+02  0.51100000000E-03 0.  1.
        -12    1    3    3    0    0  0.16080897413E+01  0.59238491896E+00  0.30711933669E+00  0.17410326807E+01  0.00000000000E+00 0.  1.
</event>
<event>
 7    1  0.8300060E-011  0.4778727E+02  0.7816164E-02  0.1312668E+00
        -11   -1    0    0    0    0  0.00000000000E+00  0.00000000000E+00  0.45593999997E+02  0.45594000000E+02  0.51100000000E-03 0. -1.
         11   -1    0    0    0    0 -0.00000000000E+00 -0.00000000000E+00 -0.45593999997E+02  0.45594000000E+02  0.51100000000E-03 0.  1.
    9900012    2    1    2    0    0  0.15570781835E+02 -0.40047002914E+02  0.61164839647E+01  0.47787273446E+02  0.20000010949E+02 0.  0.
        -12    1    1    2    0    0 -0.15570781835E+02  0.40047002914E+02 -0.61164839647E+01  0.43400726554E+02  0.00000000000E+00 0.  1.
         11    1    3    3    0    0  0.18024167399E+01 -0.17423658800E+02  0.79865981230E+01  0.19251450385E+02  0.51100000000E-03 0. -1.
        -11    1    3    3    0    0  0.55619465405E+01 -0.25411098747E+01 -0.30019169178E+01  0.68120477213E+01  0.51100000000E-03 0.  1.
        -12    1    3    3    0    0  0.82064185546E+01 -0.20082234239E+02  0.11318027595E+01  0.21723775340E+02  0.00000000000E+00 0.  1.
</event>
<event>
 7    1  0.8300060E-011  0.4778727E+02  0.7816164E-02  0.1312668E+00
        -11   -1    0    0    0    0  0.00000000000E+00  0.00000000000E+00  0.45593999997E+02  0.45594000000E+02  0.51100000000E-03 0. -1.
         11   -1    0    0    0    0 -0.00000000000E+00 -0.00000000000E+00 -0.45593999997E+02  0.45594000000E+02  0.51100000000E-03 0.  1.
    9900012    2    1    2    0    0 -0.43258813515E+02 -0.26104449278E+01 -0.23417632077E+01  0.47787271615E+02  0.20000002601E+02 0.  0.
         12    1    1    2    0    0  0.43258813515E+02  0.26104449278E+01  0.23417632077E+01  0.43400728385E+02  0.00000000000E+00 0. -1.
         11    1    3    3    0    0 -0.31055315768E+02  0.68052882279E+01 -0.27610373378E+01  0.31911877299E+02  0.51100000000E-03 0. -1.
        -11    1    3    3    0    0 -0.26418576500E+01 -0.67979128939E+00 -0.86147707825E+00  0.28607116348E+01  0.51100000000E-03 0.  1.
         12    1    3    3    0    0 -0.95616400971E+01 -0.87359418663E+01  0.12807512084E+01  0.13014682681E+02  0.00000000000E+00 0. -1.
</event>
<event>
 7    1  0.8300060E-011  0.4778727E+02  0.7816164E-02  0.1312668E+00
        -11   -1    0    0    0    0  0.00000000000E+00  0.00000000000E+00  0.45593999997E+02  0.45594000000E+02  0.51100000000E-03 0. -1.
         11   -1    0    0    0    0 -0.00000000000E+00 -0.00000000000E+00 -0.45593999997E+02  0.45594000000E+02  0.51100000000E-03 0.  1.
    9900012    2    1    2    0    0  0.37787110855E+02  0.16521940677E+02 -0.13519732817E+02  0.47787269062E+02  0.19999990961E+02 0.  0.
         12    1    1    2    0    0 -0.37787110855E+02 -0.16521940677E+02  0.13519732817E+02  0.43400730938E+02  0.00000000000E+00 0. -1.
         11    1    3    3    0    0  0.91042866191E+01  0.99419219059E+01 -0.94745300964E+01  0.16477152874E+02  0.51100000000E-03 0. -1.
        -11    1    3    3    0    0  0.22044380816E+02  0.91746901973E+01 -0.38042582474E+01  0.24178545176E+02  0.51100000000E-03 0.  1.
         12    1    3    3    0    0  0.66384434205E+01 -0.25946714262E+01 -0.24094447291E+00  0.71315710118E+01  0.00000000000E+00 0. -1.
</event>
<event>
 7    1  0.8300060E-011  0.4778727E+02  0.7816164E-02  0.1312668E+00
        -11   -1    0    0    0    0  0.00000000000E+00  0.00000000000E+00  0.45593999997E+02  0.45594000000E+02  0.51100000000E-03 0. -1.
         11   -1    0    0    0    0 -0.00000000000E+00 -0.00000000000E+00 -0.45593999997E+02  0.45594000000E+02  0.51100000000E-03 0.  1.
    9900012    2    1    2    0    0 -0.28315242784E+02 -0.10084222416E+01 -0.32876341148E+02  0.47787266174E+02  0.19999977794E+02 0.  0.
         12    1    1    2    0    0  0.28315242784E+02  0.10084222416E+01  0.32876341148E+02  0.43400733826E+02  0.00000000000E+00 0. -1.
         11    1    3    3    0    0 -0.18475986784E+02 -0.15715787011E+00 -0.18668243645E+02  0.26265759218E+02  0.51100000000E-03 0.  1.
        -11    1    3    3    0    0 -0.55840848857E-01  0.33161727300E+01 -0.91759020121E+01  0.97569102575E+01  0.51100000000E-03 0. -1.
        -12    1    3    3    0    0 -0.97834151517E+01 -0.41674371016E+01 -0.50321954907E+01  0.11764596699E+02  0.00000000000E+00 0.  1.
</event>
<event>
 7    1  0.8300060E-011  0.4778727E+02  0.7816164E-02  0.1312668E+00
        -11   -1    0    0    0    0  0.00000000000E+00  0.00000000000E+00  0.45593999997E+02  0.45594000000E+02  0.51100000000E-03 0. -1.
         11   -1    0    0    0    0 -0.00000000000E+00 -0.00000000000E+00 -0.45593999997E+02  0.45594000000E+02  0.51100000000E-03 0.  1.
    9900012    2    1    2    0    0  0.14110987112E+02  0.20605112693E+02 -0.35495534061E+02  0.47787267694E+02  0.19999984726E+02 0.  0.
         12    1    1    2    0    0 -0.14110987112E+02 -0.20605112693E+02  0.35495534061E+02  0.43400732306E+02  0.00000000000E+00 0. -1.
         11    1    3    3    0    0  0.11086065033E+01  0.42130714881E+01 -0.30548041675E+01  0.53207902144E+01  0.51100000000E-03 0. -1.
        -11    1    3    3    0    0  0.46465385757E+01  0.15843027602E+02 -0.29086684533E+02  0.33445882583E+02  0.51100000000E-03 0.  1.
        -12    1    3    3    0    0  0.83558420334E+01  0.54901360283E+00 -0.33540453603E+01  0.90205948973E+01  0.00000000000E+00 0.  1.
</event>
<event>
 7    1  0.8300060E-011  0.4778727E+02  0.7816164E-02  0.1312668E+00
        -11   -1    0    0    0    0  0.00000000000E+00  0.00000000000E+00  0.45593999997E+02  0.45594000000E+02  0.51100000000E-03 0. -1.
         11   -1    0    0    0    0 -0.00000000000E+00 -0.00000000000E+00 -0.45593999997E+02  0.45594000000E+02  0.51100000000E-03 0.  1.
    9900012    2    1    2    0    0  0.57508289760E+01 -0.11623067966E+02  0.41418063223E+02  0.47787266089E+02  0.19999977408E+02 0.  0.
        -12    1    1    2    0    0 -0.57508289760E+01  0.11623067966E+02 -0.41418063223E+02  0.43400733911E+02  0.00000000000E+00 0.  1.
         11    1    3    3    0    0  0.53032378852E+01  0.31791225480E+01  0.57087097974E+01  0.84154928587E+01  0.51100000000E-03 0. -1.
        -11    1    3    3    0    0 -0.19766751722E+01 -0.13483488331E+02  0.31693040698E+02  0.34498703327E+02  0.51100000000E-03 0.  1.
        -12    1    3    3    0    0  0.24242662630E+01 -0.13187021824E+01  0.40163127279E+01  0.48730699039E+01  0.00000000000E+00 0.  1.
</event>
<event>
 7    1  0.8300060E-011  0.4778727E+02  0.7816164E-02  0.1312668E+00
        -11   -1    0    0    0    0  0.00000000000E+00  0.00000000000E+00  0.45593999997E+02  0.45594000000E+02  0.51100000000E-03 0. -1.
         11   -1    0    0    0    0 -0.00000000000E+00 -0.00000000000E+00 -0.45593999997E+02  0.45594000000E+02  0.51100000000E-03 0.  1.
    9900012    2    1    2    0    0  0.17278267770E+02  0.74062421559E+00 -0.39806231157E+02  0.47787273044E+02  0.20000009119E+02 0.  0.
         12    1    1    2    0    0 -0.17278267770E+02 -0.74062421559E+00  0.39806231157E+02  0.43400726956E+02  0.00000000000E+00 0. -1.
         11    1    3    3    0    0  0.51833419971E+01 -0.50453535507E+01 -0.23326516883E+02  0.24422305724E+02  0.51100000000E-03 0. -1.
        -11    1    3    3    0    0  0.53784790733E+01  0.26359747883E+01 -0.14497751224E+02  0.15686337719E+02  0.51100000000E-03 0.  1.
         12    1    3    3    0    0  0.67164466996E+01  0.31500029780E+01 -0.19819630503E+01  0.76786296018E+01  0.00000000000E+00 0. -1.
</event>
<event>
 7    1  0.9502962E-011  0.4778727E+02  0.7816164E-02  0.1312668E+00
        -11   -1    0    0    0    0  0.00000000000E+00  0.00000000000E+00  0.45593999997E+02  0.45594000000E+02  0.51100000000E-03 0. -1.
         11   -1    0    0    0    0 -0.00000000000E+00 -0.00000000000E+00 -0.45593999997E+02  0.45594000000E+02  0.51100000000E-03 0.  1.
    9900012    2    1    2    0    0 -0.25055351801E+02 -0.10350923623E+02 -0.33892640641E+02  0.47787270014E+02  0.19999995300E+02 0.  0.
         12    1    1    2    0    0  0.25055351801E+02  0.10350923623E+02  0.33892640641E+02  0.43400729986E+02  0.00000000000E+00 0. -1.
         11    1    3    3    0    0  0.14927298354E+01 -0.26796414871E+01 -0.38797332946E+01  0.49458115167E+01  0.51100000000E-03 0. -1.
        -11    1    3    3    0    0 -0.17289735008E+02 -0.99673172560E+00 -0.24911238280E+02  0.30339713309E+02  0.51100000000E-03 0.  1.
        -12    1    3    3    0    0 -0.92583466284E+01 -0.66745504103E+01 -0.51016690669E+01  0.12501745188E+02  0.00000000000E+00 0.  1.
</event>
<event>
 7    1  0.8300060E-011  0.4778726E+02  0.7816164E-02  0.1312668E+00
        -11   -1    0    0    0    0  0.00000000000E+00  0.00000000000E+00  0.45593999997E+02  0.45594000000E+02  0.51100000000E-03 0.  1.
         11   -1    0    0    0    0 -0.00000000000E+00 -0.00000000000E+00 -0.45593999997E+02  0.45594000000E+02  0.51100000000E-03 0. -1.
    9900012    2    1    2    0    0  0.15539879773E+02 -0.40280907375E+02  0.44254456806E+01  0.47787263465E+02  0.19999965440E+02 0.  0.
        -12    1    1    2    0    0 -0.15539879773E+02  0.40280907375E+02 -0.44254456806E+01  0.43400736535E+02  0.00000000000E+00 0.  1.
         11    1    3    3    0    0  0.16414743487E+02 -0.26185717035E+02  0.81079771892E+01  0.31951132605E+02  0.51100000000E-03 0. -1.
        -11    1    3    3    0    0  0.47791293569E+00 -0.49455350840E+01 -0.42937878981E+01  0.65668358298E+01  0.51100000000E-03 0.  1.
        -12    1    3    3    0    0 -0.13527766496E+01 -0.91496552569E+01  0.61125638955E+00  0.92692950302E+01  0.00000000000E+00 0.  1.
</event>
<event>
 7    1  0.8820805E-011  0.4778727E+02  0.7816164E-02  0.1312668E+00
        -11   -1    0    0    0    0  0.00000000000E+00  0.00000000000E+00  0.45593999997E+02  0.45594000000E+02  0.51100000000E-03 0. -1.
         11   -1    0    0    0    0 -0.00000000000E+00 -0.00000000000E+00 -0.45593999997E+02  0.45594000000E+02  0.51100000000E-03 0.  1.
    9900012    2    1    2    0    0 -0.16468783574E+02  0.18066136063E+02 -0.35861082086E+02  0.47787270594E+02  0.19999997945E+02 0.  0.
         12    1    1    2    0    0  0.16468783574E+02 -0.18066136063E+02  0.35861082086E+02  0.43400729406E+02  0.00000000000E+00 0. -1.
         11    1    3    3    0    0  0.26777520790E+00  0.46425174917E+01  0.50401219455E+00  0.46774673463E+01  0.51100000000E-03 0. -1.
        -11    1    3    3    0    0 -0.70830510901E+01  0.16882720459E+01 -0.17005084333E+02  0.18498453143E+02  0.51100000000E-03 0.  1.
         12    1    3    3    0    0 -0.96535076919E+01  0.11735346525E+02 -0.19360009947E+02  0.24611350105E+02  0.00000000000E+00 0. -1.
</event>
<event>
 7    1  0.8300060E-011  0.4778724E+02  0.7816164E-02  0.1312668E+00
        -11   -1    0    0    0    0  0.00000000000E+00  0.00000000000E+00  0.45593999997E+02  0.45594000000E+02  0.51100000000E-03 0.  1.
         11   -1    0    0    0    0 -0.00000000000E+00 -0.00000000000E+00 -0.45593999997E+02  0.45594000000E+02  0.51100000000E-03 0. -1.
    9900012    2    1    2    0    0  0.24209840646E+02  0.27893363403E+02 -0.22791877253E+02  0.47787242233E+02  0.19999868637E+02 0.  0.
         12    1    1    2    0    0 -0.24209840646E+02 -0.27893363403E+02  0.22791877253E+02  0.43400757767E+02  0.00000000000E+00 0. -1.
         11    1    3    3    0    0  0.18149771878E+02  0.21249299914E+02 -0.23716958046E+02  0.36652981669E+02  0.51100000000E-03 0. -1.
        -11    1    3    3    0    0  0.72878826610E+01  0.66033088802E+01  0.10902195337E+01  0.98947208521E+01  0.51100000000E-03 0.  1.
         12    1    3    3    0    0 -0.12278138926E+01  0.40754608515E-01 -0.16513874123E+00  0.12395397116E+01  0.00000000000E+00 0. -1.
</event>
<event>
 7    1  0.8300060E-011  0.4778727E+02  0.7816164E-02  0.1312668E+00
        -11   -1    0    0    0    0  0.00000000000E+00  0.00000000000E+00  0.45593999997E+02  0.45594000000E+02  0.51100000000E-03 0. -1.
         11   -1    0    0    0    0 -0.00000000000E+00 -0.00000000000E+00 -0.45593999997E+02  0.45594000000E+02  0.51100000000E-03 0.  1.
    9900012    2    1    2    0    0  0.10809895118E+01 -0.12648399053E+02  0.41502685408E+02  0.47787269211E+02  0.19999991643E+02 0.  0.
        -12    1    1    2    0    0 -0.10809895118E+01  0.12648399053E+02 -0.41502685408E+02  0.43400730789E+02  0.00000000000E+00 0.  1.
         11    1    3    3    0    0 -0.49822470134E+01 -0.41584817302E+00  0.16484864719E+02  0.17226331010E+02  0.51100000000E-03 0. -1.
        -11    1    3    3    0    0  0.57236498654E+01 -0.56902959768E+01  0.49900204226E+01  0.94889377785E+01  0.51100000000E-03 0.  1.
         12    1    3    3    0    0  0.33958665981E+00 -0.65422549031E+01  0.20027800267E+02  0.21072000423E+02  0.00000000000E+00 0. -1.
</event>
<event>
 7    1  0.8300060E-011  0.4778727E+02  0.7816164E-02  0.1312668E+00
        -11   -1    0    0    0    0  0.00000000000E+00  0.00000000000E+00  0.45593999997E+02  0.45594000000E+02  0.51100000000E-03 0. -1.
         11   -1    0    0    0    0 -0.00000000000E+00 -0.00000000000E+00 -0.45593999997E+02  0.45594000000E+02  0.51100000000E-03 0.  1.
    9900012    2    1    2    0    0 -0.31052165045E+02  0.26749375313E+02  0.14277857639E+02  0.47787271292E+02  0.20000001128E+02 0.  0.
        -12    1    1    2    0    0  0.31052165045E+02 -0.26749375313E+02 -0.14277857639E+02  0.43400728708E+02  0.00000000000E+00 0.  1.
         11    1    3    3    0    0 -0.25886902656E+01 -0.25125845861E+01  0.28332592687E+01  0.45871294879E+01  0.51100000000E-03 0. -1.
        -11    1    3    3    0    0 -0.25200895250E+01  0.53195854807E+01 -0.55778280064E+00  0.59126950550E+01  0.51100000000E-03 0.  1.
         12    1    3    3    0    0 -0.25943385254E+02  0.23942374419E+02  0.12002381171E+02  0.37287446749E+02  0.00000000000E+00 0. -1.
</event>
<event>
 7    1  0.8300060E-011  0.4778727E+02  0.7816164E-02  0.1312668E+00
        -11   -1    0    0    0    0  0.00000000000E+00  0.00000000000E+00  0.45593999997E+02  0.45594000000E+02  0.51100000000E-03 0.  1.
         11   -1    0    0    0    0 -0.00000000000E+00 -0.00000000000E+00 -0.45593999997E+02  0.45594000000E+02  0.51100000000E-03 0. -1.
    9900012    2    1    2    0    0 -0.28961837346E+02 -0.23942085587E+02  0.21716623079E+02  0.47787271865E+02  0.20000003741E+02 0.  0.
        -12    1    1    2    0    0  0.28961837346E+02  0.23942085587E+02 -0.21716623079E+02  0.43400728135E+02  0.00000000000E+00 0.  1.
         11    1    3    3    0    0 -0.31484807693E+02 -0.23784492734E+02  0.19856577281E+02  0.44173282328E+02  0.51100000000E-03 0. -1.
        -11    1    3    3    0    0  0.16975099140E+01 -0.85022194929E+00  0.16517593566E+01  0.25164909109E+01  0.51100000000E-03 0.  1.
         12    1    3    3    0    0  0.82546043334E+00  0.69262909626E+00  0.20828644158E+00  0.10974986258E+01  0.00000000000E+00 0. -1.
</event>
<event>
 7    1  0.8300060E-011  0.4778727E+02  0.7816164E-02  0.1312668E+00
        -11   -1    0    0    0    0  0.00000000000E+00  0.00000000000E+00  0.45593999997E+02  0.45594000000E+02  0.51100000000E-03 0. -1.
         11   -1    0    0    0    0 -0.00000000000E+00 -0.00000000000E+00 -0.45593999997E+02  0.45594000000E+02  0.51100000000E-03 0.  1.
    9900012    2    1    2    0    0 -0.25598653411E+02 -0.28837953200E+01  0.34928728633E+02  0.47787269409E+02  0.19999992545E+02 0.  0.
        -12    1    1    2    0    0  0.25598653411E+02  0.28837953200E+01 -0.34928728633E+02  0.43400730591E+02  0.00000000000E+00 0.  1.
         11    1    3    3    0    0 -0.20103095215E+02 -0.30559151974E+01  0.27432570373E+02  0.34147019965E+02  0.51100000000E-03 0. -1.
        -11    1    3    3    0    0 -0.10999785280E+01 -0.33449292221E+01 -0.80337863963E+00  0.36116369921E+01  0.51100000000E-03 0.  1.
        -12    1    3    3    0    0 -0.43955796677E+01  0.35170490995E+01  0.82995368990E+01  0.10028612452E+02  0.00000000000E+00 0.  1.
</event>
<event>
 7    1  0.8300060E-011  0.4778727E+02  0.7816164E-02  0.1312668E+00
        -11   -1    0    0    0    0  0.00000000000E+00  0.00000000000E+00  0.45593999997E+02  0.45594000000E+02  0.51100000000E-03 0. -1.
         11   -1    0    0    0    0 -0.00000000000E+00 -0.00000000000E+00 -0.45593999997E+02  0.45594000000E+02  0.51100000000E-03 0.  1.
    9900012    2    1    2    0    0  0.22047363598E+02 -0.34025147726E+01  0.37228487549E+02  0.47787266900E+02  0.19999981106E+02 0.  0.
        -12    1    1    2    0    0 -0.22047363598E+02  0.34025147726E+01 -0.37228487549E+02  0.43400733100E+02  0.00000000000E+00 0.  1.
         11    1    3    3    0    0  0.98452849881E+01 -0.33469489133E+01  0.22969566422E+02  0.25213740012E+02  0.51100000000E-03 0. -1.
        -11    1    3    3    0    0  0.15023027387E+01  0.13164792916E+01 -0.21510173647E+01  0.29354568994E+01  0.51100000000E-03 0.  1.
        -12    1    3    3    0    0  0.10699775871E+02 -0.13720451510E+01  0.16409938492E+02  0.19638069989E+02  0.00000000000E+00 0.  1.
</event>
<event>
 7    1  0.8300060E-011  0.4778727E+02  0.7816164E-02  0.1312668E+00
        -11   -1    0    0    0    0  0.00000000000E+00  0.00000000000E+00  0.45593999997E+02  0.45594000000E+02  0.51100000000E-03 0. -1.
         11   -1    0    0    0    0 -0.00000000000E+00 -0.00000000000E+00 -0.45593999997E+02  0.45594000000E+02  0.51100000000E-03 0.  1.
    9900012    2    1    2    0    0 -0.65116575297E+01 -0.27051160689E+02 -0.33308501418E+02  0.47787271375E+02  0.20000001508E+02 0.  0.
         12    1    1    2    0    0  0.65116575297E+01  0.27051160689E+02  0.33308501418E+02  0.43400728625E+02  0.00000000000E+00 0. -1.
         11    1    3    3    0    0  0.34271530362E+01 -0.21474287483E+01  0.76072109646E+00  0.41152794571E+01  0.51100000000E-03 0. -1.
        -11    1    3    3    0    0 -0.11175969695E+01 -0.95297696661E+01 -0.11671937618E+02  0.15109588376E+02  0.51100000000E-03 0.  1.
         12    1    3    3    0    0 -0.88212135964E+01 -0.15373962275E+02 -0.22397284897E+02  0.28562403542E+02  0.00000000000E+00 0. -1.
</event>
<event>
 7    1  0.8300060E-011  0.4778728E+02  0.7816164E-02  0.1312668E+00
        -11   -1    0    0    0    0  0.00000000000E+00  0.00000000000E+00  0.45593999997E+02  0.45594000000E+02  0.51100000000E-03 0.  1.
         11   -1    0    0    0    0 -0.00000000000E+00 -0.00000000000E+00 -0.45593999997E+02  0.45594000000E+02  0.51100000000E-03 0. -1.
    9900012    2    1    2    0    0  0.29779130567E+02 -0.24190417712E+02  0.20289153032E+02  0.47787278149E+02  0.20000032394E+02 0.  0.
        -12    1    1    2    0    0 -0.29779130567E+02  0.24190417712E+02 -0.20289153032E+02  0.43400721851E+02  0.00000000000E+00 0.  1.
         11    1    3    3    0    0  0.17862427764E+02 -0.17617351210E+02  0.13765539553E+02  0.28616908791E+02  0.51100000000E-03 0. -1.
        -11    1    3    3    0    0 -0.15575668252E+01 -0.68246919881E+00  0.38701577786E+01  0.42272804632E+01  0.51100000000E-03 0.  1.
         12    1    3    3    0    0  0.13474269627E+02 -0.58905973028E+01  0.26534557009E+01  0.14943088895E+02  0.00000000000E+00 0. -1.
</event>
<event>
 7    1  0.8300060E-011  0.4778727E+02  0.7816164E-02  0.1312668E+00
        -11   -1    0    0    0    0  0.00000000000E+00  0.00000000000E+00  0.45593999997E+02  0.45594000000E+02  0.51100000000E-03 0. -1.
         11   -1    0    0    0    0 -0.00000000000E+00 -0.00000000000E+00 -0.45593999997E+02  0.45594000000E+02  0.51100000000E-03 0.  1.
    9900012    2    1    2    0    0 -0.13617930610E+02 -0.34850429976E+01  0.41061294680E+02  0.47787268675E+02  0.19999989195E+02 0.  0.
        -12    1    1    2    0    0  0.13617930610E+02  0.34850429976E+01 -0.41061294680E+02  0.43400731325E+02  0.00000000000E+00 0.  1.
         11    1    3    3    0    0 -0.14567807425E+02 -0.13379791155E+01  0.27640900425E+02  0.31273480425E+02  0.51100000000E-03 0. -1.
        -11    1    3    3    0    0  0.62368812671E+00  0.26815018593E+01  0.61018436763E+00  0.28198872893E+01  0.51100000000E-03 0.  1.
         12    1    3    3    0    0  0.32618868809E+00 -0.48285657414E+01  0.12810209887E+02  0.13693900961E+02  0.00000000000E+00 0. -1.
</event>
<event>
 7    1  0.8300060E-011  0.4778726E+02  0.7816164E-02  0.1312668E+00
        -11   -1    0    0    0    0  0.00000000000E+00  0.00000000000E+00  0.45593999997E+02  0.45594000000E+02  0.51100000000E-03 0. -1.
         11   -1    0    0    0    0 -0.00000000000E+00 -0.00000000000E+00 -0.45593999997E+02  0.45594000000E+02  0.51100000000E-03 0.  1.
    9900012    2    1    2    0    0  0.28754417634E+02  0.64555726459E+01  0.31861160221E+02  0.47787257123E+02  0.19999936527E+02 0.  0.
        -12    1    1    2    0    0 -0.28754417634E+02 -0.64555726459E+01 -0.31861160221E+02  0.43400742877E+02  0.00000000000E+00 0.  1.
         11    1    3    3    0    0  0.27975984577E+02  0.84697312469E+01  0.31359598420E+02  0.42869761765E+02  0.51100000000E-03 0. -1.
        -11    1    3    3    0    0 -0.16425027725E+01 -0.12403160116E+01  0.10602058395E+01  0.23152183157E+01  0.51100000000E-03 0.  1.
         12    1    3    3    0    0  0.24209358295E+01 -0.77384258934E+00 -0.55864403877E+00  0.26022770424E+01  0.00000000000E+00 0. -1.
</event>
<event>
 7    1  0.8300060E-011  0.4778727E+02  0.7816164E-02  0.1312668E+00
        -11   -1    0    0    0    0  0.00000000000E+00  0.00000000000E+00  0.45593999997E+02  0.45594000000E+02  0.51100000000E-03 0.  1.
         11   -1    0    0    0    0 -0.00000000000E+00 -0.00000000000E+00 -0.45593999997E+02  0.45594000000E+02  0.51100000000E-03 0. -1.
    9900012    2    1    2    0    0 -0.26498546922E+02  0.31495749283E+02  0.13764740125E+02  0.47787270944E+02  0.19999999541E+02 0.  0.
        -12    1    1    2    0    0  0.26498546922E+02 -0.31495749283E+02 -0.13764740125E+02  0.43400729056E+02  0.00000000000E+00 0.  1.
         11    1    3    3    0    0 -0.31375425465E+01  0.14041852730E+02  0.62548107668E+01  0.15688864182E+02  0.51100000000E-03 0. -1.
        -11    1    3    3    0    0 -0.21267132150E+02  0.13266272661E+02  0.24192587497E+01  0.25182091124E+02  0.51100000000E-03 0.  1.
        -12    1    3    3    0    0 -0.20938722257E+01  0.41876238928E+01  0.50906706086E+01  0.69163156385E+01  0.00000000000E+00 0.  1.
</event>
<event>
 7    1  0.8300060E-011  0.4778727E+02  0.7816164E-02  0.1312668E+00
        -11   -1    0    0    0    0  0.00000000000E+00  0.00000000000E+00  0.45593999997E+02  0.45594000000E+02  0.51100000000E-03 0. -1.
         11   -1    0    0    0    0 -0.00000000000E+00 -0.00000000000E+00 -0.45593999997E+02  0.45594000000E+02  0.51100000000E-03 0.  1.
    9900012    2    1    2    0    0 -0.41516214758E+02  0.12415979220E+02  0.24229907687E+01  0.47787268301E+02  0.19999987490E+02 0.  0.
         12    1    1    2    0    0  0.41516214758E+02 -0.12415979220E+02 -0.24229907687E+01  0.43400731699E+02  0.00000000000E+00 0. -1.
         11    1    3    3    0    0 -0.15056206855E+02  0.19634731331E+01 -0.59222904743E+01  0.16297794831E+02  0.51100000000E-03 0. -1.
        -11    1    3    3    0    0 -0.24367410426E+02  0.90610965551E+01  0.10636003795E+02  0.28089121357E+02  0.51100000000E-03 0.  1.
        -12    1    3    3    0    0 -0.20925974766E+01  0.13914095315E+01 -0.22907225517E+01  0.34003521130E+01  0.00000000000E+00 0.  1.
</event>
<event>
 7    1  0.8300060E-011  0.4778727E+02  0.7816164E-02  0.1312668E+00
        -11   -1    0    0    0    0  0.00000000000E+00  0.00000000000E+00  0.45593999997E+02  0.45594000000E+02  0.51100000000E-03 0. -1.
         11   -1    0    0    0    0 -0.00000000000E+00 -0.00000000000E+00 -0.45593999997E+02  0.45594000000E+02  0.51100000000E-03 0.  1.
    9900012    2    1    2    0    0  0.13724820276E+02  0.94656044756E+01  0.40070621576E+02  0.47787273357E+02  0.20000010542E+02 0.  0.
        -12    1    1    2    0    0 -0.13724820276E+02 -0.94656044756E+01 -0.40070621576E+02  0.43400726643E+02  0.00000000000E+00 0.  1.
         11    1    3    3    0    0  0.21284069881E+01 -0.19590902802E+00  0.12104682812E+02  0.12291942193E+02  0.51100000000E-03 0. -1.
        -11    1    3    3    0    0  0.40281378798E+01 -0.22725655605E+01  0.55773121362E+00  0.46584883141E+01  0.51100000000E-03 0.  1.
        -12    1    3    3    0    0  0.75682754083E+01  0.11934079064E+02  0.27408207551E+02  0.30836842849E+02  0.00000000000E+00 0.  1.
</event>
<event>
 7    1  0.8300060E-011  0.4778727E+02  0.7816164E-02  0.1312668E+00
        -11   -1    0    0    0    0  0.00000000000E+00  0.00000000000E+00  0.45593999997E+02  0.45594000000E+02  0.51100000000E-03 0. -1.
         11   -1    0    0    0    0 -0.00000000000E+00 -0.00000000000E+00 -0.45593999997E+02  0.45594000000E+02  0.51100000000E-03 0.  1.
    9900012    2    1    2    0    0 -0.76796791305E+01  0.14811206464E+02  0.40065873060E+02  0.47787268526E+02  0.19999988517E+02 0.  0.
        -12    1    1    2    0    0  0.76796791305E+01 -0.14811206464E+02 -0.40065873060E+02  0.43400731474E+02  0.00000000000E+00 0.  1.
         11    1    3    3    0    0 -0.18026243292E+01  0.13323794986E+02  0.31073694808E+02  0.33857753567E+02  0.51100000000E-03 0. -1.
        -11    1    3    3    0    0 -0.11768935775E+01  0.17897784342E+01 -0.13730916158E+01  0.25443596803E+01  0.51100000000E-03 0.  1.
        -12    1    3    3    0    0 -0.47001612238E+01 -0.30236695625E+00  0.10365269867E+02  0.11385155279E+02  0.00000000000E+00 0.  1.
</event>
<event>
 7    1  0.8300060E-011  0.4778727E+02  0.7816164E-02  0.1312668E+00
        -11   -1    0    0    0    0  0.00000000000E+00  0.00000000000E+00  0.45593999997E+02  0.45594000000E+02  0.51100000000E-03 0. -1.
         11   -1    0    0    0    0 -0.00000000000E+00 -0.00000000000E+00 -0.45593999997E+02  0.45594000000E+02  0.51100000000E-03 0.  1.
    9900012    2    1    2    0    0  0.22846975583E+02  0.17193400967E+02  0.32650051277E+02  0.47787272143E+02  0.20000005011E+02 0.  0.
        -12    1    1    2    0    0 -0.22846975583E+02 -0.17193400967E+02 -0.32650051277E+02  0.43400727857E+02  0.00000000000E+00 0.  1.
         11    1    3    3    0    0  0.17550734338E+02  0.13475064152E+02  0.26716672489E+02  0.34689857579E+02  0.51100000000E-03 0. -1.
        -11    1    3    3    0    0  0.71489738468E+01  0.95932704093E+00  0.11974664253E+01  0.73117755392E+01  0.51100000000E-03 0.  1.
        -12    1    3    3    0    0 -0.18527326019E+01  0.27590097738E+01  0.47359123626E+01  0.57856390254E+01  0.00000000000E+00 0.  1.
</event>
<event>
 7    1  0.8300060E-011  0.4778727E+02  0.7816164E-02  0.1312668E+00
        -11   -1    0    0    0    0  0.00000000000E+00  0.00000000000E+00  0.45593999997E+02  0.45594000000E+02  0.51100000000E-03 0. -1.
         11   -1    0    0    0    0 -0.00000000000E+00 -0.00000000000E+00 -0.45593999997E+02  0.45594000000E+02  0.51100000000E-03 0.  1.
    9900012    2    1    2    0    0  0.32504557918E+02  0.15811749191E+02  0.24022198136E+02  0.47787266121E+02  0.19999977553E+02 0.  0.
        -12    1    1    2    0    0 -0.32504557918E+02 -0.15811749191E+02 -0.24022198136E+02  0.43400733879E+02  0.00000000000E+00 0.  1.
         11    1    3    3    0    0  0.71601734160E+01 -0.33655259640E+01  0.10396340449E+02  0.13064407501E+02  0.51100000000E-03 0. -1.
        -11    1    3    3    0    0  0.10273160113E+02  0.91954199032E+01  0.47361354181E+01  0.14578221595E+02  0.51100000000E-03 0.  1.
         12    1    3    3    0    0  0.15071224389E+02  0.99818552520E+01  0.88897222686E+01  0.20144637025E+02  0.00000000000E+00 0. -1.
</event>
<event>
 7    1  0.8300060E-011  0.4778728E+02  0.7816164E-02  0.1312668E+00
        -11   -1    0    0    0    0  0.00000000000E+00  0.00000000000E+00  0.45593999997E+02  0.45594000000E+02  0.51100000000E-03 0. -1.
         11   -1    0    0    0    0 -0.00000000000E+00 -0.00000000000E+00 -0.45593999997E+02  0.45594000000E+02  0.51100000000E-03 0.  1.
    9900012    2    1    2    0    0  0.16084270832E+01  0.10094107890E+02  0.42179903613E+02  0.47787282027E+02  0.20000050074E+02 0.  0.
        -12    1    1    2    0    0 -0.16084270832E+01 -0.10094107890E+02 -0.42179903613E+02  0.43400717973E+02  0.00000000000E+00 0.  1.
         11    1    3    3    0    0  0.89649740565E+01  0.35848918265E+01  0.17762663721E+02  0.20217181603E+02  0.51100000000E-03 0. -1.
        -11    1    3    3    0    0 -0.22411673789E+01 -0.82924679410E+00  0.11690491949E+01  0.26602927935E+01  0.51100000000E-03 0.  1.
         12    1    3    3    0    0 -0.51153795944E+01  0.73384628578E+01  0.23248190697E+02  0.24909807631E+02  0.00000000000E+00 0. -1.
</event>
<event>
 7    1  0.8300060E-011  0.4778727E+02  0.7816164E-02  0.1312668E+00
        -11   -1    0    0    0    0  0.00000000000E+00  0.00000000000E+00  0.45593999997E+02  0.45594000000E+02  0.51100000000E-03 0. -1.
         11   -1    0    0    0    0 -0.00000000000E+00 -0.00000000000E+00 -0.45593999997E+02  0.45594000000E+02  0.51100000000E-03 0.  1.
    9900012    2    1    2    0    0 -0.61896916620E+01 -0.20387331572E+02 -0.37810951749E+02  0.47787266784E+02  0.19999980576E+02 0.  0.
         12    1    1    2    0    0  0.61896916620E+01  0.20387331572E+02  0.37810951749E+02  0.43400733216E+02  0.00000000000E+00 0. -1.
         11    1    3    3    0    0 -0.68351237467E+01 -0.24656240424E+01 -0.25213206534E+01  0.76912467552E+01  0.51100000000E-03 0. -1.
        -11    1    3    3    0    0  0.18819018202E+01 -0.43771525276E+01 -0.14410350209E+02  0.15177589140E+02  0.51100000000E-03 0.  1.
         12    1    3    3    0    0 -0.12364697355E+01 -0.13544555002E+02 -0.20879280887E+02  0.24918430889E+02  0.00000000000E+00 0. -1.
</event>
<event>
 7    1  0.8300060E-011  0.4778727E+02  0.7816164E-02  0.1312668E+00
        -11   -1    0    0    0    0  0.00000000000E+00  0.00000000000E+00  0.45593999997E+02  0.45594000000E+02  0.51100000000E-03 0.  1.
         11   -1    0    0    0    0 -0.00000000000E+00 -0.00000000000E+00 -0.45593999997E+02  0.45594000000E+02  0.51100000000E-03 0. -1.
    9900012    2    1    2    0    0 -0.23370889716E+02  0.36208293862E+02  0.51365689443E+01  0.47787269925E+02  0.19999994897E+02 0.  0.
        -12    1    1    2    0    0  0.23370889716E+02 -0.36208293862E+02 -0.51365689443E+01  0.43400730075E+02  0.00000000000E+00 0.  1.
         11    1    3    3    0    0 -0.71466948887E+01  0.20982246797E+02  0.95308155709E+00  0.22186443906E+02  0.51100000000E-03 0. -1.
        -11    1    3    3    0    0 -0.85176594818E+01  0.29376200762E+01  0.62271694953E+01  0.10952523679E+02  0.51100000000E-03 0.  1.
        -12    1    3    3    0    0 -0.77065353456E+01  0.12288426988E+02 -0.20436821081E+01  0.14648302340E+02  0.00000000000E+00 0.  1.
</event>
<event>
 7    1  0.8300060E-011  0.4778727E+02  0.7816164E-02  0.1312668E+00
        -11   -1    0    0    0    0  0.00000000000E+00  0.00000000000E+00  0.45593999997E+02  0.45594000000E+02  0.51100000000E-03 0. -1.
         11   -1    0    0    0    0 -0.00000000000E+00 -0.00000000000E+00 -0.45593999997E+02  0.45594000000E+02  0.51100000000E-03 0.  1.
    9900012    2    1    2    0    0  0.27004567760E+02 -0.24222252591E+02  0.23825596527E+02  0.47787271316E+02  0.20000001238E+02 0.  0.
        -12    1    1    2    0    0 -0.27004567760E+02  0.24222252591E+02 -0.23825596527E+02  0.43400728684E+02  0.00000000000E+00 0.  1.
         11    1    3    3    0    0  0.10651332423E+02 -0.18524634718E+02  0.64747812273E+01  0.22327914502E+02  0.51100000000E-03 0. -1.
        -11    1    3    3    0    0  0.16620850435E+02 -0.45798290771E+01  0.17100973315E+02  0.24283138020E+02  0.51100000000E-03 0.  1.
        -12    1    3    3    0    0 -0.26761509804E+00 -0.11177887957E+01  0.24984198475E+00  0.11762187933E+01  0.00000000000E+00 0.  1.
</event>
<event>
 7    1  0.8300060E-011  0.4778727E+02  0.7816164E-02  0.1312668E+00
        -11   -1    0    0    0    0  0.00000000000E+00  0.00000000000E+00  0.45593999997E+02  0.45594000000E+02  0.51100000000E-03 0. -1.
         11   -1    0    0    0    0 -0.00000000000E+00 -0.00000000000E+00 -0.45593999997E+02  0.45594000000E+02  0.51100000000E-03 0.  1.
    9900012    2    1    2    0    0 -0.36195822479E+02 -0.86213374592E+01  0.22341846247E+02  0.47787272837E+02  0.20000008173E+02 0.  0.
        -12    1    1    2    0    0  0.36195822479E+02  0.86213374592E+01 -0.22341846247E+02  0.43400727163E+02  0.00000000000E+00 0.  1.
         11    1    3    3    0    0 -0.16864892237E+02  0.87845740254E+00  0.57132600927E+01  0.17828000974E+02  0.51100000000E-03 0. -1.
        -11    1    3    3    0    0 -0.34377049915E+01 -0.40378584747E+01  0.11042103207E+02  0.12249496323E+02  0.51100000000E-03 0.  1.
        -12    1    3    3    0    0 -0.15893225250E+02 -0.54619363870E+01  0.55864829479E+01  0.17709775540E+02  0.00000000000E+00 0.  1.
</event>
<event>
 7    1  0.8518742E-011  0.4778727E+02  0.7816164E-02  0.1312668E+00
        -11   -1    0    0    0    0  0.00000000000E+00  0.00000000000E+00  0.45593999997E+02  0.45594000000E+02  0.51100000000E-03 0. -1.
         11   -1    0    0    0    0 -0.00000000000E+00 -0.00000000000E+00 -0.45593999997E+02  0.45594000000E+02  0.51100000000E-03 0.  1.
    9900012    2    1    2    0    0  0.17580710352E+02  0.41767065385E+01 -0.39460068675E+02  0.47787271044E+02  0.20000000000E+02 0.  0.
         12    1    1    2    0    0 -0.17580710352E+02 -0.41767065385E+01  0.39460068675E+02  0.43400728956E+02  0.00000000000E+00 0. -1.
         11    1    3    3    0    0 -0.12431939572E+01 -0.35998709766E+00  0.16736078837E+01  0.21156761414E+01  0.51100000000E-03 0. -1.
        -11    1    3    3    0    0  0.90481530788E+01  0.62187160811E+00 -0.22655742079E+02  0.24403656444E+02  0.51100000000E-03 0.  1.
         12    1    3    3    0    0  0.97757512307E+01  0.39148220281E+01 -0.18477934480E+02  0.21267938459E+02  0.00000000000E+00 0. -1.
</event>
<event>
 7    1  0.8300060E-011  0.4778728E+02  0.7816164E-02  0.1312668E+00
        -11   -1    0    0    0    0  0.00000000000E+00  0.00000000000E+00  0.45593999997E+02  0.45594000000E+02  0.51100000000E-03 0. -1.
         11   -1    0    0    0    0 -0.00000000000E+00 -0.00000000000E+00 -0.45593999997E+02  0.45594000000E+02  0.51100000000E-03 0.  1.
    9900012    2    1    2    0    0  0.19102481799E+02 -0.81600320240E+01  0.38106843932E+02  0.47787280099E+02  0.20000041282E+02 0.  0.
        -12    1    1    2    0    0 -0.19102481799E+02  0.81600320240E+01 -0.38106843932E+02  0.43400719901E+02  0.00000000000E+00 0.  1.
         11    1    3    3    0    0  0.16417832029E+02 -0.93868828199E+01  0.36020787945E+02  0.40683607781E+02  0.51100000000E-03 0. -1.
        -11    1    3    3    0    0  0.19198882076E+01 -0.14321033732E+01 -0.13046049953E+01  0.27274319893E+01  0.51100000000E-03 0.  1.
         12    1    3    3    0    0  0.76476156166E+00  0.26589541691E+01  0.33906609823E+01  0.43762403289E+01  0.00000000000E+00 0. -1.
</event>
<event>
 7    1  0.8300060E-011  0.4778727E+02  0.7816164E-02  0.1312668E+00
        -11   -1    0    0    0    0  0.00000000000E+00  0.00000000000E+00  0.45593999997E+02  0.45594000000E+02  0.51100000000E-03 0. -1.
         11   -1    0    0    0    0 -0.00000000000E+00 -0.00000000000E+00 -0.45593999997E+02  0.45594000000E+02  0.51100000000E-03 0.  1.
    9900012    2    1    2    0    0  0.82976243037E+00 -0.23368654017E+02  0.36562831106E+02  0.47787272878E+02  0.20000008359E+02 0.  0.
        -12    1    1    2    0    0 -0.82976243037E+00  0.23368654017E+02 -0.36562831106E+02  0.43400727122E+02  0.00000000000E+00 0.  1.
         11    1    3    3    0    0 -0.28720852600E+01 -0.16943183758E+02  0.15030748557E+02  0.22830763282E+02  0.51100000000E-03 0. -1.
        -11    1    3    3    0    0  0.72679676218E+01 -0.43680267592E+01  0.13812177848E+02  0.16207383141E+02  0.51100000000E-03 0.  1.
         12    1    3    3    0    0 -0.35661199314E+01 -0.20574434996E+01  0.77199047012E+01  0.87491264544E+01  0.00000000000E+00 0. -1.
</event>
<event>
 7    1  0.8300060E-011  0.4778725E+02  0.7816164E-02  0.1312668E+00
        -11   -1    0    0    0    0  0.00000000000E+00  0.00000000000E+00  0.45593999997E+02  0.45594000000E+02  0.51100000000E-03 0. -1.
         11   -1    0    0    0    0 -0.00000000000E+00 -0.00000000000E+00 -0.45593999997E+02  0.45594000000E+02  0.51100000000E-03 0.  1.
    9900012    2    1    2    0    0  0.71217154184E+01  0.28634824999E+02 -0.31826919901E+02  0.47787252730E+02  0.19999916497E+02 0.  0.
         12    1    1    2    0    0 -0.71217154184E+01 -0.28634824999E+02  0.31826919901E+02  0.43400747270E+02  0.00000000000E+00 0. -1.
         11    1    3    3    0    0  0.23966164133E+01  0.36626749532E+01  0.16064271849E+01  0.46625708151E+01  0.51100000000E-03 0. -1.
        -11    1    3    3    0    0  0.26101631948E+01  0.11334738280E+02 -0.23171883112E+02  0.25927310138E+02  0.51100000000E-03 0.  1.
        -12    1    3    3    0    0  0.21149358103E+01  0.13637411766E+02 -0.10261463974E+02  0.17197371777E+02  0.00000000000E+00 0.  1.
</event>
<event>
 7    1  0.8300060E-011  0.4778726E+02  0.7816164E-02  0.1312668E+00
        -11   -1    0    0    0    0  0.00000000000E+00  0.00000000000E+00  0.45593999997E+02  0.45594000000E+02  0.51100000000E-03 0. -1.
         11   -1    0    0    0    0 -0.00000000000E+00 -0.00000000000E+00 -0.45593999997E+02  0.45594000000E+02  0.51100000000E-03 0.  1.
    9900012    2    1    2    0    0  0.25376733592E+01  0.92771366271E+00  0.43316551270E+02  0.47787262073E+02  0.19999959094E+02 0.  0.
        -12    1    1    2    0    0 -0.25376733592E+01 -0.92771366271E+00 -0.43316551270E+02  0.43400737927E+02  0.00000000000E+00 0.  1.
         11    1    3    3    0    0  0.75456965189E+01 -0.27985011252E+01  0.17848715714E+02  0.19579218508E+02  0.51100000000E-03 0. -1.
        -11    1    3    3    0    0 -0.66760283682E+00 -0.12024422305E+01 -0.46865638904E+00  0.14529968815E+01  0.51100000000E-03 0.  1.
         12    1    3    3    0    0 -0.43404203228E+01  0.49286570184E+01  0.25936491945E+02  0.26755046683E+02  0.00000000000E+00 0. -1.
</event>
<event>
 7    1  0.9340100E-011  0.4778727E+02  0.7816164E-02  0.1312668E+00
        -11   -1    0    0    0    0  0.00000000000E+00  0.00000000000E+00  0.45593999997E+02  0.45594000000E+02  0.51100000000E-03 0. -1.
         11   -1    0    0    0    0 -0.00000000000E+00 -0.00000000000E+00 -0.45593999997E+02  0.45594000000E+02  0.51100000000E-03 0.  1.
    9900012    2    1    2    0    0 -0.21659369769E+02 -0.13100367735E+02 -0.35254434789E+02  0.47787272980E+02  0.20000008823E+02 0.  0.
         12    1    1    2    0    0  0.21659369769E+02  0.13100367735E+02  0.35254434789E+02  0.43400727020E+02  0.00000000000E+00 0. -1.
         11    1    3    3    0    0 -0.81285474025E+00  0.14221269460E+01  0.10745797481E+01  0.19590558378E+01  0.51100000000E-03 0. -1.
        -11    1    3    3    0    0 -0.22123321066E+02 -0.12202860650E+02 -0.32316720683E+02  0.41020989493E+02  0.51100000000E-03 0.  1.
        -12    1    3    3    0    0  0.12768060372E+01 -0.23196340304E+01 -0.40122938541E+01  0.48072276484E+01  0.00000000000E+00 0.  1.
</event>
<event>
 7    1  0.8300060E-011  0.4778727E+02  0.7816164E-02  0.1312668E+00
        -11   -1    0    0    0    0  0.00000000000E+00  0.00000000000E+00  0.45593999997E+02  0.45594000000E+02  0.51100000000E-03 0. -1.
         11   -1    0    0    0    0 -0.00000000000E+00 -0.00000000000E+00 -0.45593999997E+02  0.45594000000E+02  0.51100000000E-03 0.  1.
    9900012    2    1    2    0    0  0.34574715044E+02 -0.24788219672E+02  0.85881850420E+01  0.47787266398E+02  0.19999978816E+02 0.  0.
        -12    1    1    2    0    0 -0.34574715044E+02  0.24788219672E+02 -0.85881850420E+01  0.43400733602E+02  0.00000000000E+00 0.  1.
         11    1    3    3    0    0  0.19522715658E+02 -0.97407137909E+01  0.10333117466E+02  0.24141069749E+02  0.51100000000E-03 0. -1.
        -11    1    3    3    0    0 -0.19207681619E+00 -0.42495367272E+00  0.21211865492E+01  0.21718452442E+01  0.51100000000E-03 0.  1.
         12    1    3    3    0    0  0.15244076202E+02 -0.14622552208E+02 -0.38661189729E+01  0.21474351404E+02  0.00000000000E+00 0. -1.
</event>
<event>
 7    1  0.8300060E-011  0.4778727E+02  0.7816164E-02  0.1312668E+00
        -11   -1    0    0    0    0  0.00000000000E+00  0.00000000000E+00  0.45593999997E+02  0.45594000000E+02  0.51100000000E-03 0. -1.
         11   -1    0    0    0    0 -0.00000000000E+00 -0.00000000000E+00 -0.45593999997E+02  0.45594000000E+02  0.51100000000E-03 0.  1.
    9900012    2    1    2    0    0 -0.91691329719E+01  0.30677428372E+02 -0.29299238997E+02  0.47787274007E+02  0.20000013506E+02 0.  0.
         12    1    1    2    0    0  0.91691329719E+01 -0.30677428372E+02  0.29299238997E+02  0.43400725993E+02  0.00000000000E+00 0. -1.
         11    1    3    3    0    0 -0.12220876355E+02  0.14136467380E+02 -0.15276822775E+02  0.24136504370E+02  0.51100000000E-03 0. -1.
        -11    1    3    3    0    0  0.25616878027E+01  0.13665245639E+02 -0.60521669141E+01  0.15163439827E+02  0.51100000000E-03 0.  1.
         12    1    3    3    0    0  0.49005558041E+00  0.28757153530E+01 -0.79702493080E+01  0.84873298094E+01  0.00000000000E+00 0. -1.
</event>
<event>
 7    1  0.8300060E-011  0.4778727E+02  0.7816164E-02  0.1312668E+00
        -11   -1    0    0    0    0  0.00000000000E+00  0.00000000000E+00  0.45593999997E+02  0.45594000000E+02  0.51100000000E-03 0. -1.
         11   -1    0    0    0    0 -0.00000000000E+00 -0.00000000000E+00 -0.45593999997E+02  0.45594000000E+02  0.51100000000E-03 0.  1.
    9900012    2    1    2    0    0  0.64905533952E+01 -0.16413026130E+02 -0.39649823204E+02  0.47787272008E+02  0.20000004394E+02 0.  0.
         12    1    1    2    0    0 -0.64905533952E+01  0.16413026130E+02  0.39649823204E+02  0.43400727992E+02  0.00000000000E+00 0. -1.
         11    1    3    3    0    0 -0.63783962001E+00 -0.17519113782E+02 -0.27516947242E+02  0.32626807580E+02  0.51100000000E-03 0. -1.
        -11    1    3    3    0    0  0.18235187492E+01  0.26186137199E+01 -0.66847180972E+01  0.74072811977E+01  0.51100000000E-03 0.  1.
        -12    1    3    3    0    0  0.53048742660E+01 -0.15125260684E+01 -0.54481578649E+01  0.77531832306E+01  0.00000000000E+00 0.  1.
</event>
<event>
 7    1  0.8300060E-011  0.4778727E+02  0.7816164E-02  0.1312668E+00
        -11   -1    0    0    0    0  0.00000000000E+00  0.00000000000E+00  0.45593999997E+02  0.45594000000E+02  0.51100000000E-03 0. -1.
         11   -1    0    0    0    0 -0.00000000000E+00 -0.00000000000E+00 -0.45593999997E+02  0.45594000000E+02  0.51100000000E-03 0.  1.
    9900012    2    1    2    0    0  0.44527459060E+01  0.30981089737E+00  0.43170601079E+02  0.47787265831E+02  0.19999976229E+02 0.  0.
        -12    1    1    2    0    0 -0.44527459060E+01 -0.30981089737E+00 -0.43170601079E+02  0.43400734169E+02  0.00000000000E+00 0.  1.
         11    1    3    3    0    0 -0.20505940962E+01 -0.70912810457E+01  0.72022724948E+01  0.10313289115E+02  0.51100000000E-03 0. -1.
        -11    1    3    3    0    0  0.18233618458E+01  0.45375308723E+01  0.13947262647E+02  0.14779714830E+02  0.51100000000E-03 0.  1.
         12    1    3    3    0    0  0.46799781565E+01  0.28635610707E+01  0.22021065937E+02  0.22694261886E+02  0.00000000000E+00 0. -1.
</event>
<event>
 7    1  0.8300060E-011  0.4778730E+02  0.7816164E-02  0.1312668E+00
        -11   -1    0    0    0    0  0.00000000000E+00  0.00000000000E+00  0.45593999997E+02  0.45594000000E+02  0.51100000000E-03 0. -1.
         11   -1    0    0    0    0 -0.00000000000E+00 -0.00000000000E+00 -0.45593999997E+02  0.45594000000E+02  0.51100000000E-03 0.  1.
    9900012    2    1    2    0    0 -0.12212229227E+02 -0.83290202966E+01  0.40805754112E+02  0.47787300807E+02  0.20000135698E+02 0.  0.
        -12    1    1    2    0    0  0.12212229227E+02  0.83290202966E+01 -0.40805754112E+02  0.43400699193E+02  0.00000000000E+00 0.  1.
         11    1    3    3    0    0  0.41120732604E+00 -0.79599056307E+01  0.85872106233E+01  0.11716201418E+02  0.51100000000E-03 0.  1.
        -11    1    3    3    0    0  0.12065406987E+01 -0.67422638825E+00  0.85134847088E+01  0.86249489174E+01  0.51100000000E-03 0. -1.
         12    1    3    3    0    0 -0.13829977251E+02  0.30511172237E+00  0.23705058780E+02  0.27446150472E+02  0.00000000000E+00 0. -1.
</event>
<event>
 7    1  0.8300060E-011  0.4778727E+02  0.7816164E-02  0.1312668E+00
        -11   -1    0    0    0    0  0.00000000000E+00  0.00000000000E+00  0.45593999997E+02  0.45594000000E+02  0.51100000000E-03 0. -1.
         11   -1    0    0    0    0 -0.00000000000E+00 -0.00000000000E+00 -0.45593999997E+02  0.45594000000E+02  0.51100000000E-03 0.  1.
    9900012    2    1    2    0    0 -0.14541203590E+02  0.39306965622E+02 -0.11275619428E+02  0.47787265655E+02  0.19999975426E+02 0.  0.
         12    1    1    2    0    0  0.14541203590E+02 -0.39306965622E+02  0.11275619428E+02  0.43400734345E+02  0.00000000000E+00 0. -1.
         11    1    3    3    0    0 -0.12745121909E+02  0.38969577141E+02 -0.10826951301E+02  0.42406237157E+02  0.51100000000E-03 0.  1.
        -11    1    3    3    0    0 -0.61122167274E-01 -0.19044309733E+01 -0.14288032273E+01  0.23816112561E+01  0.51100000000E-03 0. -1.
        -12    1    3    3    0    0 -0.17349595132E+01  0.22418194539E+01  0.98013510045E+00  0.29994172420E+01  0.00000000000E+00 0.  1.
</event>
<event>
 7    1  0.8300060E-011  0.4778727E+02  0.7816164E-02  0.1312668E+00
        -11   -1    0    0    0    0  0.00000000000E+00  0.00000000000E+00  0.45593999997E+02  0.45594000000E+02  0.51100000000E-03 0. -1.
         11   -1    0    0    0    0 -0.00000000000E+00 -0.00000000000E+00 -0.45593999997E+02  0.45594000000E+02  0.51100000000E-03 0.  1.
    9900012    2    1    2    0    0  0.24322735968E+02  0.45204744804E+01  0.35659404569E+02  0.47787270643E+02  0.19999998168E+02 0.  0.
        -12    1    1    2    0    0 -0.24322735968E+02 -0.45204744804E+01 -0.35659404569E+02  0.43400729357E+02  0.00000000000E+00 0.  1.
         11    1    3    3    0    0  0.26060163617E+02  0.73909828474E+01  0.30264833488E+02  0.40616731793E+02  0.51100000000E-03 0. -1.
        -11    1    3    3    0    0 -0.40313463308E-01 -0.27557884261E+01  0.44235998747E+01  0.52119316129E+01  0.51100000000E-03 0.  1.
         12    1    3    3    0    0 -0.16971141856E+01 -0.11471994088E+00  0.97097120646E+00  0.19586072367E+01  0.00000000000E+00 0. -1.
</event>
<event>
 7    1  0.8502175E-011  0.4778727E+02  0.7816164E-02  0.1312668E+00
        -11   -1    0    0    0    0  0.00000000000E+00  0.00000000000E+00  0.45593999997E+02  0.45594000000E+02  0.51100000000E-03 0. -1.
         11   -1    0    0    0    0 -0.00000000000E+00 -0.00000000000E+00 -0.45593999997E+02  0.45594000000E+02  0.51100000000E-03 0.  1.
    9900012    2    1    2    0    0 -0.10947322903E+02  0.21713603183E+02  0.35948562576E+02  0.47787267366E+02  0.19999983227E+02 0.  0.
        -12    1    1    2    0    0  0.10947322903E+02 -0.21713603183E+02 -0.35948562576E+02  0.43400732634E+02  0.00000000000E+00 0.  1.
         11    1    3    3    0    0  0.43233851136E+01  0.42594818513E+01  0.12892678316E+02  0.14249771890E+02  0.51100000000E-03 0. -1.
        -11    1    3    3    0    0 -0.63901806133E+01  0.39014250623E+01  0.38801066414E+01  0.84327192291E+01  0.51100000000E-03 0.  1.
         12    1    3    3    0    0 -0.88805274031E+01  0.13552696269E+02  0.19175777618E+02  0.25104776247E+02  0.00000000000E+00 0. -1.
</event>
<event>
 7    1  0.8300060E-011  0.4778730E+02  0.7816164E-02  0.1312668E+00
        -11   -1    0    0    0    0  0.00000000000E+00  0.00000000000E+00  0.45593999997E+02  0.45594000000E+02  0.51100000000E-03 0. -1.
         11   -1    0    0    0    0 -0.00000000000E+00 -0.00000000000E+00 -0.45593999997E+02  0.45594000000E+02  0.51100000000E-03 0.  1.
    9900012    2    1    2    0    0  0.18105679271E+02  0.28520579067E+01  0.39340446048E+02  0.47787302409E+02  0.20000143001E+02 0.  0.
        -12    1    1    2    0    0 -0.18105679271E+02 -0.28520579067E+01 -0.39340446048E+02  0.43400697591E+02  0.00000000000E+00 0.  1.
         11    1    3    3    0    0  0.89475203160E+01  0.70343274744E+01  0.15768570210E+02  0.19447048350E+02  0.51100000000E-03 0. -1.
        -11    1    3    3    0    0  0.11218856282E+02 -0.48021196288E+01  0.14194595633E+02  0.18719231679E+02  0.51100000000E-03 0.  1.
        -12    1    3    3    0    0 -0.20606973271E+01  0.61985006105E+00  0.93772802052E+01  0.96210223791E+01  0.00000000000E+00 0.  1.
</event>
<event>
 7    1  0.8300060E-011  0.4778727E+02  0.7816164E-02  0.1312668E+00
        -11   -1    0    0    0    0  0.00000000000E+00  0.00000000000E+00  0.45593999997E+02  0.45594000000E+02  0.51100000000E-03 0. -1.
         11   -1    0    0    0    0 -0.00000000000E+00 -0.00000000000E+00 -0.45593999997E+02  0.45594000000E+02  0.51100000000E-03 0.  1.
    9900012    2    1    2    0    0  0.66308591110E+01  0.17499208751E+02  0.39159067852E+02  0.47787271959E+02  0.20000004171E+02 0.  0.
        -12    1    1    2    0    0 -0.66308591110E+01 -0.17499208751E+02 -0.39159067852E+02  0.43400728041E+02  0.00000000000E+00 0.  1.
         11    1    3    3    0    0 -0.16306748751E+01  0.17044927644E+02  0.27344839202E+02  0.32263429610E+02  0.51100000000E-03 0. -1.
        -11    1    3    3    0    0  0.70878488325E+01  0.26572609159E+01  0.90869971403E+01  0.11826755850E+02  0.51100000000E-03 0.  1.
         12    1    3    3    0    0  0.11736851536E+01 -0.22029798090E+01  0.27272315091E+01  0.36970864992E+01  0.00000000000E+00 0. -1.
</event>
<event>
 7    1  0.8300060E-011  0.4778727E+02  0.7816164E-02  0.1312668E+00
        -11   -1    0    0    0    0  0.00000000000E+00  0.00000000000E+00  0.45593999997E+02  0.45594000000E+02  0.51100000000E-03 0. -1.
         11   -1    0    0    0    0 -0.00000000000E+00 -0.00000000000E+00 -0.45593999997E+02  0.45594000000E+02  0.51100000000E-03 0.  1.
    9900012    2    1    2    0    0 -0.13333713088E+02 -0.62353867018E+01  0.40828361761E+02  0.47787273323E+02  0.20000010388E+02 0.  0.
        -12    1    1    2    0    0  0.13333713088E+02  0.62353867018E+01 -0.40828361761E+02  0.43400726677E+02  0.00000000000E+00 0.  1.
         11    1    3    3    0    0 -0.70113841729E+01  0.10881027020E+01  0.28838487084E+02  0.29698515335E+02  0.51100000000E-03 0. -1.
        -11    1    3    3    0    0  0.16673381439E+01  0.30292671806E+00 -0.11932705513E+00  0.16988290938E+01  0.51100000000E-03 0.  1.
         12    1    3    3    0    0 -0.79896670591E+01 -0.76264161219E+01  0.12109201732E+02  0.16389928894E+02  0.00000000000E+00 0. -1.
</event>
<event>
 7    1  0.8300060E-011  0.4778727E+02  0.7816164E-02  0.1312668E+00
        -11   -1    0    0    0    0  0.00000000000E+00  0.00000000000E+00  0.45593999997E+02  0.45594000000E+02  0.51100000000E-03 0. -1.
         11   -1    0    0    0    0 -0.00000000000E+00 -0.00000000000E+00 -0.45593999997E+02  0.45594000000E+02  0.51100000000E-03 0.  1.
    9900012    2    1    2    0    0  0.80575764249E+01  0.19336307671E+02 -0.38010602302E+02  0.47787271670E+02  0.20000002854E+02 0.  0.
         12    1    1    2    0    0 -0.80575764249E+01 -0.19336307671E+02  0.38010602302E+02  0.43400728330E+02  0.00000000000E+00 0. -1.
         11    1    3    3    0    0  0.75394790312E+01  0.64043209688E+01 -0.46465260478E+01  0.10929285233E+02  0.51100000000E-03 0. -1.
        -11    1    3    3    0    0 -0.17897425764E+00  0.41534125153E+01 -0.22462349874E+02  0.22843818188E+02  0.51100000000E-03 0.  1.
        -12    1    3    3    0    0  0.69707165138E+00  0.87785741873E+01 -0.10901726380E+02  0.14014168249E+02  0.00000000000E+00 0.  1.
</event>
<event>
 7    1  0.8300060E-011  0.4778727E+02  0.7816164E-02  0.1312668E+00
        -11   -1    0    0    0    0  0.00000000000E+00  0.00000000000E+00  0.45593999997E+02  0.45594000000E+02  0.51100000000E-03 0.  1.
         11   -1    0    0    0    0 -0.00000000000E+00 -0.00000000000E+00 -0.45593999997E+02  0.45594000000E+02  0.51100000000E-03 0. -1.
    9900012    2    1    2    0    0  0.37691003709E+02  0.21355593443E+02  0.26362814910E+01  0.47787272909E+02  0.20000008504E+02 0.  0.
         12    1    1    2    0    0 -0.37691003709E+02 -0.21355593443E+02 -0.26362814910E+01  0.43400727091E+02  0.00000000000E+00 0. -1.
         11    1    3    3    0    0  0.28423248675E+02  0.95375112244E+01  0.72382351243E+01  0.30842134063E+02  0.51100000000E-03 0.  1.
        -11    1    3    3    0    0  0.12447549117E+01  0.66351612649E+01 -0.21297201721E+01  0.70788761872E+01  0.51100000000E-03 0. -1.
        -12    1    3    3    0    0  0.80230001226E+01  0.51829209533E+01 -0.24722334611E+01  0.98662626592E+01  0.00000000000E+00 0.  1.
</event>
<event>
 7    1  0.8300060E-011  0.4778727E+02  0.7816164E-02  0.1312668E+00
        -11   -1    0    0    0    0  0.00000000000E+00  0.00000000000E+00  0.45593999997E+02  0.45594000000E+02  0.51100000000E-03 0.  1.
         11   -1    0    0    0    0 -0.00000000000E+00 -0.00000000000E+00 -0.45593999997E+02  0.45594000000E+02  0.51100000000E-03 0. -1.
    9900012    2    1    2    0    0  0.21803087259E+02 -0.33319146157E+02  0.17265086411E+02  0.47787270473E+02  0.19999997397E+02 0.  0.
        -12    1    1    2    0    0 -0.21803087259E+02  0.33319146157E+02 -0.17265086411E+02  0.43400729527E+02  0.00000000000E+00 0.  1.
         11    1    3    3    0    0 -0.28165452249E+01 -0.34520820978E+01  0.94391660258E+00  0.45542042803E+01  0.51100000000E-03 0. -1.
        -11    1    3    3    0    0  0.17148850159E+02 -0.23382118989E+02  0.16453246773E+02  0.33339404311E+02  0.51100000000E-03 0.  1.
         12    1    3    3    0    0  0.74707823249E+01 -0.64849450705E+01 -0.13207696469E+00  0.98936618821E+01  0.00000000000E+00 0. -1.
</event>
<event>
 7    1  0.8300060E-011  0.4778727E+02  0.7816164E-02  0.1312668E+00
        -11   -1    0    0    0    0  0.00000000000E+00  0.00000000000E+00  0.45593999997E+02  0.45594000000E+02  0.51100000000E-03 0. -1.
         11   -1    0    0    0    0 -0.00000000000E+00 -0.00000000000E+00 -0.45593999997E+02  0.45594000000E+02  0.51100000000E-03 0.  1.
    9900012    2    1    2    0    0  0.16769438308E+02  0.68410954545E+00 -0.40024260044E+02  0.47787268911E+02  0.19999990271E+02 0.  0.
         12    1    1    2    0    0 -0.16769438308E+02 -0.68410954545E+00  0.40024260044E+02  0.43400731089E+02  0.00000000000E+00 0. -1.
         11    1    3    3    0    0 -0.11418223949E+01 -0.53534520173E+01 -0.50649600802E+01  0.74576824656E+01  0.51100000000E-03 0. -1.
        -11    1    3    3    0    0  0.16784883518E+02  0.52400839385E+01 -0.26794471321E+02  0.32048938953E+02  0.51100000000E-03 0.  1.
        -12    1    3    3    0    0  0.11263771853E+01  0.79747762430E+00 -0.81648286426E+01  0.82806474920E+01  0.00000000000E+00 0.  1.
</event>
<event>
 7    1  0.8300060E-011  0.4778727E+02  0.7816164E-02  0.1312668E+00
        -11   -1    0    0    0    0  0.00000000000E+00  0.00000000000E+00  0.45593999997E+02  0.45594000000E+02  0.51100000000E-03 0. -1.
         11   -1    0    0    0    0 -0.00000000000E+00 -0.00000000000E+00 -0.45593999997E+02  0.45594000000E+02  0.51100000000E-03 0.  1.
    9900012    2    1    2    0    0 -0.23221055609E+02  0.35600354754E+02 -0.87761353692E+01  0.47787271501E+02  0.20000002082E+02 0.  0.
         12    1    1    2    0    0  0.23221055609E+02 -0.35600354754E+02  0.87761353692E+01  0.43400728499E+02  0.00000000000E+00 0. -1.
         11    1    3    3    0    0 -0.60676794460E+01  0.18240823145E+02  0.15511308575E+01  0.19286014883E+02  0.51100000000E-03 0. -1.
        -11    1    3    3    0    0 -0.16083578152E+02  0.12599782718E+02 -0.45354128233E+01  0.20928592415E+02  0.51100000000E-03 0.  1.
         12    1    3    3    0    0 -0.10697980106E+01  0.47597488917E+01 -0.57918534034E+01  0.75726642037E+01  0.00000000000E+00 0. -1.
</event>
<event>
 7    1  0.8300060E-011  0.4778728E+02  0.7816164E-02  0.1312668E+00
        -11   -1    0    0    0    0  0.00000000000E+00  0.00000000000E+00  0.45593999997E+02  0.45594000000E+02  0.51100000000E-03 0. -1.
         11   -1    0    0    0    0 -0.00000000000E+00 -0.00000000000E+00 -0.45593999997E+02  0.45594000000E+02  0.51100000000E-03 0.  1.
    9900012    2    1    2    0    0  0.23987465695E+02 -0.35598422368E+01  0.35993776082E+02  0.47787275307E+02  0.20000019433E+02 0.  0.
        -12    1    1    2    0    0 -0.23987465695E+02  0.35598422368E+01 -0.35993776082E+02  0.43400724693E+02  0.00000000000E+00 0.  1.
         11    1    3    3    0    0  0.29250128445E+00 -0.20624957902E-02  0.24575483716E+01  0.24748950513E+01  0.51100000000E-03 0. -1.
        -11    1    3    3    0    0  0.21789601931E+02  0.37205016549E+01  0.19921985022E+02  0.29757593524E+02  0.51100000000E-03 0.  1.
        -12    1    3    3    0    0  0.19053624797E+01 -0.72782813959E+01  0.13614242689E+02  0.15554786731E+02  0.00000000000E+00 0.  1.
</event>
<event>
 7    1  0.8300060E-011  0.4778727E+02  0.7816164E-02  0.1312668E+00
        -11   -1    0    0    0    0  0.00000000000E+00  0.00000000000E+00  0.45593999997E+02  0.45594000000E+02  0.51100000000E-03 0. -1.
         11   -1    0    0    0    0 -0.00000000000E+00 -0.00000000000E+00 -0.45593999997E+02  0.45594000000E+02  0.51100000000E-03 0.  1.
    9900012    2    1    2    0    0  0.37717156347E+02  0.78772414628E+01  0.19974705114E+02  0.47787266592E+02  0.19999979698E+02 0.  0.
        -12    1    1    2    0    0 -0.37717156347E+02 -0.78772414628E+01 -0.19974705114E+02  0.43400733408E+02  0.00000000000E+00 0.  1.
         11    1    3    3    0    0  0.96566215820E+01  0.56965237188E+01  0.13761867931E+02  0.17750767084E+02  0.51100000000E-03 0. -1.
        -11    1    3    3    0    0  0.56982966280E+01 -0.27204968840E+01 -0.37695749650E-02  0.63144043446E+01  0.51100000000E-03 0.  1.
         12    1    3    3    0    0  0.22362238137E+02  0.49012146279E+01  0.62166067580E+01  0.23722095163E+02  0.00000000000E+00 0. -1.
</event>
<event>
 7    1  0.8300060E-011  0.4778727E+02  0.7816164E-02  0.1312668E+00
        -11   -1    0    0    0    0  0.00000000000E+00  0.00000000000E+00  0.45593999997E+02  0.45594000000E+02  0.51100000000E-03 0. -1.
         11   -1    0    0    0    0 -0.00000000000E+00 -0.00000000000E+00 -0.45593999997E+02  0.45594000000E+02  0.51100000000E-03 0.  1.
    9900012    2    1    2    0    0 -0.73878103978E+01 -0.12301371245E+02  0.40959977882E+02  0.47787271146E+02  0.20000000463E+02 0.  0.
        -12    1    1    2    0    0  0.73878103978E+01  0.12301371245E+02 -0.40959977882E+02  0.43400728854E+02  0.00000000000E+00 0.  1.
         11    1    3    3    0    0 -0.68863720587E+01 -0.11211307565E+02  0.31945801781E+02  0.34549237172E+02  0.51100000000E-03 0. -1.
        -11    1    3    3    0    0 -0.22306772732E+01  0.24048420477E+01  0.87328918474E+01  0.93285897461E+01  0.51100000000E-03 0.  1.
         12    1    3    3    0    0  0.17292389342E+01 -0.34949057285E+01  0.28128425287E+00  0.39094442282E+01  0.00000000000E+00 0. -1.
</event>
<event>
 7    1  0.8300060E-011  0.4778728E+02  0.7816164E-02  0.1312668E+00
        -11   -1    0    0    0    0  0.00000000000E+00  0.00000000000E+00  0.45593999997E+02  0.45594000000E+02  0.51100000000E-03 0. -1.
         11   -1    0    0    0    0 -0.00000000000E+00 -0.00000000000E+00 -0.45593999997E+02  0.45594000000E+02  0.51100000000E-03 0.  1.
    9900012    2    1    2    0    0  0.85438106298E+00  0.11935619494E+02 -0.41718506439E+02  0.47787276973E+02  0.20000027033E+02 0.  0.
         12    1    1    2    0    0 -0.85438106298E+00 -0.11935619494E+02  0.41718506439E+02  0.43400723027E+02  0.00000000000E+00 0. -1.
         11    1    3    3    0    0 -0.25133202869E+01 -0.32629085886E+01 -0.20626445452E+01  0.46062841969E+01  0.51100000000E-03 0. -1.
        -11    1    3    3    0    0 -0.59078897375E+00  0.11505645659E+02 -0.29550795628E+02  0.31717163117E+02  0.51100000000E-03 0.  1.
        -12    1    3    3    0    0  0.39584903236E+01  0.36928824240E+01 -0.10105066266E+02  0.11463829660E+02  0.00000000000E+00 0.  1.
</event>
<event>
 7    1  0.8300060E-011  0.4778727E+02  0.7816164E-02  0.1312668E+00
        -11   -1    0    0    0    0  0.00000000000E+00  0.00000000000E+00  0.45593999997E+02  0.45594000000E+02  0.51100000000E-03 0. -1.
         11   -1    0    0    0    0 -0.00000000000E+00 -0.00000000000E+00 -0.45593999997E+02  0.45594000000E+02  0.51100000000E-03 0.  1.
    9900012    2    1    2    0    0  0.86815017870E+01 -0.17374843339E+02  0.38811979300E+02  0.47787269689E+02  0.19999993818E+02 0.  0.
        -12    1    1    2    0    0 -0.86815017870E+01  0.17374843339E+02 -0.38811979300E+02  0.43400730311E+02  0.00000000000E+00 0.  1.
         11    1    3    3    0    0  0.71445689601E+01 -0.60293531650E+01  0.23280059142E+02  0.25087030895E+02  0.51100000000E-03 0. -1.
        -11    1    3    3    0    0 -0.19115909596E+01 -0.12657304745E+02  0.12858056923E+02  0.18143626195E+02  0.51100000000E-03 0.  1.
        -12    1    3    3    0    0  0.34485237865E+01  0.13118145705E+01  0.26738632357E+01  0.45566125989E+01  0.00000000000E+00 0.  1.
</event>
<event>
 7    1  0.8300060E-011  0.4778727E+02  0.7816164E-02  0.1312668E+00
        -11   -1    0    0    0    0  0.00000000000E+00  0.00000000000E+00  0.45593999997E+02  0.45594000000E+02  0.51100000000E-03 0.  1.
         11   -1    0    0    0    0 -0.00000000000E+00 -0.00000000000E+00 -0.45593999997E+02  0.45594000000E+02  0.51100000000E-03 0. -1.
    9900012    2    1    2    0    0 -0.38140451329E+02 -0.15359159971E+02 -0.13893364373E+02  0.47787269635E+02  0.19999993574E+02 0.  0.
        -12    1    1    2    0    0  0.38140451329E+02  0.15359159971E+02  0.13893364373E+02  0.43400730365E+02  0.00000000000E+00 0.  1.
         11    1    3    3    0    0 -0.16696317081E+02 -0.42141964223E+01 -0.54658734876E+01  0.18066605348E+02  0.51100000000E-03 0. -1.
        -11    1    3    3    0    0 -0.11918385148E+02 -0.10742402692E+02 -0.11458065907E+02  0.19716348413E+02  0.51100000000E-03 0.  1.
        -12    1    3    3    0    0 -0.95257490996E+01 -0.40256085650E+00  0.30305750214E+01  0.10004315874E+02  0.00000000000E+00 0.  1.
</event>
<event>
 7    1  0.8300060E-011  0.4778727E+02  0.7816164E-02  0.1312668E+00
        -11   -1    0    0    0    0  0.00000000000E+00  0.00000000000E+00  0.45593999997E+02  0.45594000000E+02  0.51100000000E-03 0. -1.
         11   -1    0    0    0    0 -0.00000000000E+00 -0.00000000000E+00 -0.45593999997E+02  0.45594000000E+02  0.51100000000E-03 0.  1.
    9900012    2    1    2    0    0  0.13467200371E+02  0.29892215532E+02  0.28437884880E+02  0.47787270378E+02  0.19999996963E+02 0.  0.
        -12    1    1    2    0    0 -0.13467200371E+02 -0.29892215532E+02 -0.28437884880E+02  0.43400729622E+02  0.00000000000E+00 0.  1.
         11    1    3    3    0    0  0.12814797174E+01  0.99302408175E+01  0.11528288051E+02  0.15269358159E+02  0.51100000000E-03 0. -1.
        -11    1    3    3    0    0  0.63294068660E+01  0.54348759010E+01 -0.13604782784E+01  0.84528201650E+01  0.51100000000E-03 0.  1.
        -12    1    3    3    0    0  0.58563137881E+01  0.14527098813E+02  0.18270075108E+02  0.24065092054E+02  0.00000000000E+00 0.  1.
</event>
<event>
 7    1  0.8300060E-011  0.4778728E+02  0.7816164E-02  0.1312668E+00
        -11   -1    0    0    0    0  0.00000000000E+00  0.00000000000E+00  0.45593999997E+02  0.45594000000E+02  0.51100000000E-03 0. -1.
         11   -1    0    0    0    0 -0.00000000000E+00 -0.00000000000E+00 -0.45593999997E+02  0.45594000000E+02  0.51100000000E-03 0.  1.
    9900012    2    1    2    0    0  0.30493196846E+01 -0.78157921577E+00  0.43286413537E+02  0.47787276348E+02  0.20000024181E+02 0.  0.
        -12    1    1    2    0    0 -0.30493196846E+01  0.78157921577E+00 -0.43286413537E+02  0.43400723652E+02  0.00000000000E+00 0.  1.
         11    1    3    3    0    0  0.97715314827E+01 -0.21224791469E+01  0.23814852017E+02  0.25828955110E+02  0.51100000000E-03 0. -1.
        -11    1    3    3    0    0  0.10119907315E+01  0.74567046005E+00  0.32248423249E+00  0.12977465149E+01  0.51100000000E-03 0.  1.
         12    1    3    3    0    0 -0.77342025296E+01  0.59522947104E+00  0.19149077288E+02  0.20660574723E+02  0.00000000000E+00 0. -1.
</event>
<event>
 7    1  0.8300060E-011  0.4778727E+02  0.7816164E-02  0.1312668E+00
        -11   -1    0    0    0    0  0.00000000000E+00  0.00000000000E+00  0.45593999997E+02  0.45594000000E+02  0.51100000000E-03 0. -1.
         11   -1    0    0    0    0 -0.00000000000E+00 -0.00000000000E+00 -0.45593999997E+02  0.45594000000E+02  0.51100000000E-03 0.  1.
    9900012    2    1    2    0    0 -0.22768013776E+02  0.25677066209E+02  0.26569326536E+02  0.47787270824E+02  0.19999998994E+02 0.  0.
        -12    1    1    2    0    0  0.22768013776E+02 -0.25677066209E+02 -0.26569326536E+02  0.43400729176E+02  0.00000000000E+00 0.  1.
         11    1    3    3    0    0 -0.17517516758E+02  0.19767646450E+02  0.22357986049E+02  0.34604953113E+02  0.51100000000E-03 0. -1.
        -11    1    3    3    0    0 -0.49744067361E+01  0.92148206620E+00  0.60253618635E+01  0.78675814214E+01  0.51100000000E-03 0.  1.
         12    1    3    3    0    0 -0.27609028259E+00  0.49879376926E+01 -0.18140213764E+01  0.53147362892E+01  0.00000000000E+00 0. -1.
</event>
<event>
 7    1  0.8300060E-011  0.4778728E+02  0.7816164E-02  0.1312668E+00
        -11   -1    0    0    0    0  0.00000000000E+00  0.00000000000E+00  0.45593999997E+02  0.45594000000E+02  0.51100000000E-03 0. -1.
         11   -1    0    0    0    0 -0.00000000000E+00 -0.00000000000E+00 -0.45593999997E+02  0.45594000000E+02  0.51100000000E-03 0.  1.
    9900012    2    1    2    0    0  0.19326965170E+02 -0.14888899301E+01 -0.38831360405E+02  0.47787275043E+02  0.20000018230E+02 0.  0.
         12    1    1    2    0    0 -0.19326965170E+02  0.14888899301E+01  0.38831360405E+02  0.43400724957E+02  0.00000000000E+00 0. -1.
         11    1    3    3    0    0  0.84372274646E+00 -0.15219762885E+01 -0.35856737234E+01  0.39856412542E+01  0.51100000000E-03 0. -1.
        -11    1    3    3    0    0 -0.26239273283E+01 -0.24007308630E+00  0.95118293558E-01  0.26366033949E+01  0.51100000000E-03 0.  1.
        -12    1    3    3    0    0  0.21107169752E+02  0.27315944475E+00 -0.35340804975E+02  0.41165030394E+02  0.00000000000E+00 0.  1.
</event>
<event>
 7    1  0.8300060E-011  0.4778727E+02  0.7816164E-02  0.1312668E+00
        -11   -1    0    0    0    0  0.00000000000E+00  0.00000000000E+00  0.45593999997E+02  0.45594000000E+02  0.51100000000E-03 0. -1.
         11   -1    0    0    0    0 -0.00000000000E+00 -0.00000000000E+00 -0.45593999997E+02  0.45594000000E+02  0.51100000000E-03 0.  1.
    9900012    2    1    2    0    0  0.11959999568E+02  0.24676221461E+02  0.33640237415E+02  0.47787273410E+02  0.20000010785E+02 0.  0.
        -12    1    1    2    0    0 -0.11959999568E+02 -0.24676221461E+02 -0.33640237415E+02  0.43400726590E+02  0.00000000000E+00 0.  1.
         11    1    3    3    0    0 -0.25563143214E+01  0.80101993278E+01  0.70683302291E+01  0.10984504025E+02  0.51100000000E-03 0. -1.
        -11    1    3    3    0    0  0.14328489455E+02  0.94225305544E+01  0.13377420357E+02  0.21749599256E+02  0.51100000000E-03 0.  1.
        -12    1    3    3    0    0  0.18782443368E+00  0.72434915783E+01  0.13194486829E+02  0.15053170129E+02  0.00000000000E+00 0.  1.
</event>
<event>
 7    1  0.8300060E-011  0.4778727E+02  0.7816164E-02  0.1312668E+00
        -11   -1    0    0    0    0  0.00000000000E+00  0.00000000000E+00  0.45593999997E+02  0.45594000000E+02  0.51100000000E-03 0. -1.
         11   -1    0    0    0    0 -0.00000000000E+00 -0.00000000000E+00 -0.45593999997E+02  0.45594000000E+02  0.51100000000E-03 0.  1.
    9900012    2    1    2    0    0  0.92197596536E+01  0.57745556996E+01  0.42015162072E+02  0.47787270680E+02  0.19999998339E+02 0.  0.
        -12    1    1    2    0    0 -0.92197596536E+01 -0.57745556996E+01 -0.42015162072E+02  0.43400729320E+02  0.00000000000E+00 0.  1.
         11    1    3    3    0    0  0.41923827701E+01 -0.42238686705E+01  0.13253207918E+02  0.14528064572E+02  0.51100000000E-03 0. -1.
        -11    1    3    3    0    0 -0.39782027835E+01  0.36610010048E+01  0.67658308371E+01  0.86605711660E+01  0.51100000000E-03 0.  1.
        -12    1    3    3    0    0  0.90055796670E+01  0.63374233653E+01  0.21996123317E+02  0.24598634942E+02  0.00000000000E+00 0.  1.
</event>
<event>
 7    1  0.8300060E-011  0.4778727E+02  0.7816164E-02  0.1312668E+00
        -11   -1    0    0    0    0  0.00000000000E+00  0.00000000000E+00  0.45593999997E+02  0.45594000000E+02  0.51100000000E-03 0. -1.
         11   -1    0    0    0    0 -0.00000000000E+00 -0.00000000000E+00 -0.45593999997E+02  0.45594000000E+02  0.51100000000E-03 0.  1.
    9900012    2    1    2    0    0  0.30846439650E+02  0.30514712524E+02 -0.98630692567E+00  0.47787270504E+02  0.19999997535E+02 0.  0.
         12    1    1    2    0    0 -0.30846439650E+02 -0.30514712524E+02  0.98630692567E+00  0.43400729496E+02  0.00000000000E+00 0. -1.
         11    1    3    3    0    0  0.15922804654E+01  0.61619176550E+00 -0.34511112938E+01  0.38503530741E+01  0.51100000000E-03 0. -1.
        -11    1    3    3    0    0  0.24164064711E+02  0.28772382260E+02 -0.11536852059E+01  0.37590996184E+02  0.51100000000E-03 0.  1.
        -12    1    3    3    0    0  0.50900944729E+01  0.11261384984E+01  0.36184895740E+01  0.63459212458E+01  0.00000000000E+00 0.  1.
</event>
<event>
 7    1  0.8300060E-011  0.4778727E+02  0.7816164E-02  0.1312668E+00
        -11   -1    0    0    0    0  0.00000000000E+00  0.00000000000E+00  0.45593999997E+02  0.45594000000E+02  0.51100000000E-03 0. -1.
         11   -1    0    0    0    0 -0.00000000000E+00 -0.00000000000E+00 -0.45593999997E+02  0.45594000000E+02  0.51100000000E-03 0.  1.
    9900012    2    1    2    0    0  0.38966969893E+02  0.91341015599E+01  0.16785918851E+02  0.47787266992E+02  0.19999981525E+02 0.  0.
        -12    1    1    2    0    0 -0.38966969893E+02 -0.91341015599E+01 -0.16785918851E+02  0.43400733008E+02  0.00000000000E+00 0.  1.
         11    1    3    3    0    0  0.24567377078E+02 -0.37483898905E+01  0.12881723164E+02  0.27991878022E+02  0.51100000000E-03 0. -1.
        -11    1    3    3    0    0  0.71452503887E+01  0.72140962885E+01  0.27314256615E+01  0.10514679015E+02  0.51100000000E-03 0.  1.
         12    1    3    3    0    0  0.72543424257E+01  0.56683951619E+01  0.11727700256E+01  0.92807099553E+01  0.00000000000E+00 0. -1.
</event>
<event>
 7    1  0.8300060E-011  0.4778730E+02  0.7816164E-02  0.1312668E+00
        -11   -1    0    0    0    0  0.00000000000E+00  0.00000000000E+00  0.45593999997E+02  0.45594000000E+02  0.51100000000E-03 0. -1.
         11   -1    0    0    0    0 -0.00000000000E+00 -0.00000000000E+00 -0.45593999997E+02  0.45594000000E+02  0.51100000000E-03 0.  1.
    9900012    2    1    2    0    0 -0.25595148585E+02 -0.25135453491E+02  0.24427808254E+02  0.47787303353E+02  0.20000147309E+02 0.  0.
        -12    1    1    2    0    0  0.25595148585E+02  0.25135453491E+02 -0.24427808254E+02  0.43400696647E+02  0.00000000000E+00 0.  1.
         11    1    3    3    0    0 -0.14614613248E+02 -0.90921942895E+01  0.99124554402E+01  0.19862318356E+02  0.51100000000E-03 0. -1.
        -11    1    3    3    0    0 -0.82990527037E+01 -0.17750131015E+02  0.90072953078E+01  0.21565546500E+02  0.51100000000E-03 0.  1.
        -12    1    3    3    0    0 -0.26814826337E+01  0.17068718133E+01  0.55080575061E+01  0.63594384967E+01  0.00000000000E+00 0.  1.
</event>
<event>
 7    1  0.8300060E-011  0.4778728E+02  0.7816164E-02  0.1312668E+00
        -11   -1    0    0    0    0  0.00000000000E+00  0.00000000000E+00  0.45593999997E+02  0.45594000000E+02  0.51100000000E-03 0.  1.
         11   -1    0    0    0    0 -0.00000000000E+00 -0.00000000000E+00 -0.45593999997E+02  0.45594000000E+02  0.51100000000E-03 0. -1.
    9900012    2    1    2    0    0  0.95778586837E+01  0.36525825389E+02 -0.21395129636E+02  0.47787275704E+02  0.20000021244E+02 0.  0.
         12    1    1    2    0    0 -0.95778586837E+01 -0.36525825389E+02  0.21395129636E+02  0.43400724296E+02  0.00000000000E+00 0. -1.
         11    1    3    3    0    0  0.72281517587E+01  0.18164775361E+02 -0.15019684312E+01  0.19607680923E+02  0.51100000000E-03 0.  1.
        -11    1    3    3    0    0  0.29387328072E+01  0.18587153791E+02 -0.17475477591E+02  0.25680941452E+02  0.51100000000E-03 0. -1.
        -12    1    3    3    0    0 -0.58902588218E+00 -0.22610376288E+00 -0.24176836141E+01  0.24986533292E+01  0.00000000000E+00 0.  1.
</event>
<event>
 7    1  0.8300060E-011  0.4778724E+02  0.7816164E-02  0.1312668E+00
        -11   -1    0    0    0    0  0.00000000000E+00  0.00000000000E+00  0.45593999997E+02  0.45594000000E+02  0.51100000000E-03 0.  1.
         11   -1    0    0    0    0 -0.00000000000E+00 -0.00000000000E+00 -0.45593999997E+02  0.45594000000E+02  0.51100000000E-03 0. -1.
    9900012    2    1    2    0    0  0.19620486174E+02 -0.34827962299E+02  0.16901935257E+02  0.47787241354E+02  0.19999864629E+02 0.  0.
        -12    1    1    2    0    0 -0.19620486174E+02  0.34827962299E+02 -0.16901935257E+02  0.43400758646E+02  0.00000000000E+00 0.  1.
         11    1    3    3    0    0  0.40141859676E+01 -0.11723161786E+02  0.30142018164E+01  0.12752710461E+02  0.51100000000E-03 0. -1.
        -11    1    3    3    0    0  0.11753061981E+02 -0.19121017766E+02  0.17464137999E+02  0.28438422998E+02  0.51100000000E-03 0.  1.
        -12    1    3    3    0    0  0.38532382257E+01 -0.39837827477E+01 -0.35764045583E+01  0.65961078956E+01  0.00000000000E+00 0.  1.
</event>
<event>
 7    1  0.8300060E-011  0.4778726E+02  0.7816164E-02  0.1312668E+00
        -11   -1    0    0    0    0  0.00000000000E+00  0.00000000000E+00  0.45593999997E+02  0.45594000000E+02  0.51100000000E-03 0.  1.
         11   -1    0    0    0    0 -0.00000000000E+00 -0.00000000000E+00 -0.45593999997E+02  0.45594000000E+02  0.51100000000E-03 0. -1.
    9900012    2    1    2    0    0  0.41655333085E+02 -0.69866484796E+01 -0.99821962747E+01  0.47787259524E+02  0.19999947474E+02 0.  0.
         12    1    1    2    0    0 -0.41655333085E+02  0.69866484796E+01  0.99821962747E+01  0.43400740476E+02  0.00000000000E+00 0. -1.
         11    1    3    3    0    0  0.21823388987E+02 -0.13290162074E+02 -0.61085156743E+01  0.26271708715E+02  0.51100000000E-03 0.  1.
        -11    1    3    3    0    0  0.14515329292E+02  0.56938154999E+01 -0.42193674998E+01  0.16152937249E+02  0.51100000000E-03 0. -1.
        -12    1    3    3    0    0  0.53166148056E+01  0.60969809413E+00  0.34568689945E+00  0.53626135596E+01  0.00000000000E+00 0.  1.
</event>
<event>
 7    1  0.8300060E-011  0.4778726E+02  0.7816164E-02  0.1312668E+00
        -11   -1    0    0    0    0  0.00000000000E+00  0.00000000000E+00  0.45593999997E+02  0.45594000000E+02  0.51100000000E-03 0.  1.
         11   -1    0    0    0    0 -0.00000000000E+00 -0.00000000000E+00 -0.45593999997E+02  0.45594000000E+02  0.51100000000E-03 0. -1.
    9900012    2    1    2    0    0 -0.21933313951E+02 -0.32071841975E+02 -0.19337809049E+02  0.47787260752E+02  0.19999953071E+02 0.  0.
        -12    1    1    2    0    0  0.21933313951E+02  0.32071841975E+02  0.19337809049E+02  0.43400739248E+02  0.00000000000E+00 0.  1.
         11    1    3    3    0    0 -0.16992013376E+02 -0.14312119740E+02 -0.89507090163E+01  0.23951627965E+02  0.51100000000E-03 0. -1.
        -11    1    3    3    0    0  0.27540461359E+01 -0.46446253601E+01 -0.58633101927E+01  0.79709297784E+01  0.51100000000E-03 0.  1.
        -12    1    3    3    0    0 -0.76953467109E+01 -0.13115096875E+02 -0.45237898397E+01  0.15864703008E+02  0.00000000000E+00 0.  1.
</event>
<event>
 7    1  0.9666383E-011  0.4778732E+02  0.7816164E-02  0.1312668E+00
        -11   -1    0    0    0    0  0.00000000000E+00  0.00000000000E+00  0.45593999997E+02  0.45594000000E+02  0.51100000000E-03 0. -1.
         11   -1    0    0    0    0 -0.00000000000E+00 -0.00000000000E+00 -0.45593999997E+02  0.45594000000E+02  0.51100000000E-03 0.  1.
    9900012    2    1    2    0    0 -0.43221634272E+01  0.35712475070E+02 -0.24280797403E+02  0.47787319189E+02  0.20000219510E+02 0.  0.
         12    1    1    2    0    0  0.43221634272E+01 -0.35712475070E+02  0.24280797403E+02  0.43400680811E+02  0.00000000000E+00 0. -1.
         11    1    3    3    0    0  0.78645802541E+00 -0.94120643963E+00 -0.40684744160E+00  0.12922503200E+01  0.51100000000E-03 0. -1.
        -11    1    3    3    0    0 -0.16165403073E+01  0.22473467998E+02 -0.58144387925E+01  0.23269672648E+02  0.51100000000E-03 0.  1.
        -12    1    3    3    0    0 -0.34920811453E+01  0.14180213512E+02 -0.18059511169E+02  0.23225396221E+02  0.00000000000E+00 0.  1.
</event>
<event>
 7    1  0.8300060E-011  0.4778728E+02  0.7816164E-02  0.1312668E+00
        -11   -1    0    0    0    0  0.00000000000E+00  0.00000000000E+00  0.45593999997E+02  0.45594000000E+02  0.51100000000E-03 0. -1.
         11   -1    0    0    0    0 -0.00000000000E+00 -0.00000000000E+00 -0.45593999997E+02  0.45594000000E+02  0.51100000000E-03 0.  1.
    9900012    2    1    2    0    0 -0.19976190899E+02 -0.17526938512E+02 -0.34312983311E+02  0.47787278806E+02  0.20000035389E+02 0.  0.
         12    1    1    2    0    0  0.19976190899E+02  0.17526938512E+02  0.34312983311E+02  0.43400721194E+02  0.00000000000E+00 0. -1.
         11    1    3    3    0    0 -0.19483016599E+02 -0.13751696470E+02 -0.19572913650E+02  0.30851191883E+02  0.51100000000E-03 0. -1.
        -11    1    3    3    0    0 -0.23857832187E+01 -0.42443650398E+01 -0.14046655922E+02  0.14866577919E+02  0.51100000000E-03 0.  1.
         12    1    3    3    0    0  0.18926089187E+01  0.46912299781E+00 -0.69341373903E+00  0.20695090045E+01  0.00000000000E+00 0. -1.
</event>
<event>
 7    1  0.8300060E-011  0.4778728E+02  0.7816164E-02  0.1312668E+00
        -11   -1    0    0    0    0  0.00000000000E+00  0.00000000000E+00  0.45593999997E+02  0.45594000000E+02  0.51100000000E-03 0. -1.
         11   -1    0    0    0    0 -0.00000000000E+00 -0.00000000000E+00 -0.45593999997E+02  0.45594000000E+02  0.51100000000E-03 0.  1.
    9900012    2    1    2    0    0 -0.14237467431E+02 -0.14509761119E+02  0.38345589442E+02  0.47787275625E+02  0.20000020885E+02 0.  0.
        -12    1    1    2    0    0  0.14237467431E+02  0.14509761119E+02 -0.38345589442E+02  0.43400724375E+02  0.00000000000E+00 0.  1.
         11    1    3    3    0    0 -0.98631617960E+01 -0.14286079278E+02  0.31418802101E+02  0.35895893183E+02  0.51100000000E-03 0. -1.
        -11    1    3    3    0    0 -0.30805274834E+00  0.21400560249E+01  0.68545490562E+01  0.71874598650E+01  0.51100000000E-03 0.  1.
         12    1    3    3    0    0 -0.40662528869E+01 -0.23637378659E+01  0.72238285747E-01  0.47039225768E+01  0.00000000000E+00 0. -1.
</event>
<event>
 7    1  0.8300060E-011  0.4778727E+02  0.7816164E-02  0.1312668E+00
        -11   -1    0    0    0    0  0.00000000000E+00  0.00000000000E+00  0.45593999997E+02  0.45594000000E+02  0.51100000000E-03 0. -1.
         11   -1    0    0    0    0 -0.00000000000E+00 -0.00000000000E+00 -0.45593999997E+02  0.45594000000E+02  0.51100000000E-03 0.  1.
    9900012    2    1    2    0    0  0.27216250443E+02  0.15528156294E+02 -0.30029572480E+02  0.47787272478E+02  0.20000006538E+02 0.  0.
         12    1    1    2    0    0 -0.27216250443E+02 -0.15528156294E+02  0.30029572480E+02  0.43400727522E+02  0.00000000000E+00 0. -1.
         11    1    3    3    0    0 -0.22189447701E+01  0.16491203483E+01 -0.37412745485E+00  0.27898540159E+01  0.51100000000E-03 0. -1.
        -11    1    3    3    0    0  0.28300377036E+02  0.15176676214E+02 -0.27957024305E+02  0.42577435920E+02  0.51100000000E-03 0.  1.
         12    1    3    3    0    0  0.11348181772E+01 -0.12976402687E+01 -0.16984207211E+01  0.24199825429E+01  0.00000000000E+00 0. -1.
</event>
<event>
 7    1  0.8300060E-011  0.4778727E+02  0.7816164E-02  0.1312668E+00
        -11   -1    0    0    0    0  0.00000000000E+00  0.00000000000E+00  0.45593999997E+02  0.45594000000E+02  0.51100000000E-03 0. -1.
         11   -1    0    0    0    0 -0.00000000000E+00 -0.00000000000E+00 -0.45593999997E+02  0.45594000000E+02  0.51100000000E-03 0.  1.
    9900012    2    1    2    0    0  0.10873164747E+02  0.37974178840E+02 -0.17982196708E+02  0.47787269953E+02  0.19999995023E+02 0.  0.
         12    1    1    2    0    0 -0.10873164747E+02 -0.37974178840E+02  0.17982196708E+02  0.43400730047E+02  0.00000000000E+00 0. -1.
         11    1    3    3    0    0 -0.22561166595E+01  0.82434994328E+00  0.25960482314E-01  0.24021426723E+01  0.51100000000E-03 0. -1.
        -11    1    3    3    0    0  0.14991125380E+02  0.28561016767E+02 -0.17211160874E+02  0.36560765553E+02  0.51100000000E-03 0.  1.
        -12    1    3    3    0    0 -0.18618439733E+01  0.85888121290E+01 -0.79699631671E+00  0.88243617275E+01  0.00000000000E+00 0.  1.
</event>
<event>
 7    1  0.8300060E-011  0.4778727E+02  0.7816164E-02  0.1312668E+00
        -11   -1    0    0    0    0  0.00000000000E+00  0.00000000000E+00  0.45593999997E+02  0.45594000000E+02  0.51100000000E-03 0. -1.
         11   -1    0    0    0    0 -0.00000000000E+00 -0.00000000000E+00 -0.45593999997E+02  0.45594000000E+02  0.51100000000E-03 0.  1.
    9900012    2    1    2    0    0 -0.14067984491E+02  0.22664889023E+02  0.34234744123E+02  0.47787273195E+02  0.20000009804E+02 0.  0.
        -12    1    1    2    0    0  0.14067984491E+02 -0.22664889023E+02 -0.34234744123E+02  0.43400726805E+02  0.00000000000E+00 0.  1.
         11    1    3    3    0    0 -0.13076113752E+02  0.19269670528E+02  0.25132166137E+02  0.34262672518E+02  0.51100000000E-03 0. -1.
        -11    1    3    3    0    0 -0.51850678202E+01  0.17339266062E+01  0.45072656012E+01  0.70856808591E+01  0.51100000000E-03 0.  1.
         12    1    3    3    0    0  0.41931970811E+01  0.16612918887E+01  0.45953123848E+01  0.64389198174E+01  0.00000000000E+00 0. -1.
</event>
<event>
 7    1  0.8300060E-011  0.4778727E+02  0.7816164E-02  0.1312668E+00
        -11   -1    0    0    0    0  0.00000000000E+00  0.00000000000E+00  0.45593999997E+02  0.45594000000E+02  0.51100000000E-03 0. -1.
         11   -1    0    0    0    0 -0.00000000000E+00 -0.00000000000E+00 -0.45593999997E+02  0.45594000000E+02  0.51100000000E-03 0.  1.
    9900012    2    1    2    0    0  0.47344360008E+01 -0.39437219632E+02  0.17490401332E+02  0.47787270568E+02  0.19999997826E+02 0.  0.
        -12    1    1    2    0    0 -0.47344360008E+01  0.39437219632E+02 -0.17490401332E+02  0.43400729432E+02  0.00000000000E+00 0.  1.
         11    1    3    3    0    0  0.27545917294E+01 -0.20131856511E+02  0.13445929872E+01  0.20363873716E+02  0.51100000000E-03 0. -1.
        -11    1    3    3    0    0  0.56531458011E+01 -0.89174366709E+01  0.11051488189E+02  0.15284440640E+02  0.51100000000E-03 0.  1.
        -12    1    3    3    0    0 -0.36733015298E+01 -0.10387926450E+02  0.50943201560E+01  0.12138956212E+02  0.00000000000E+00 0.  1.
</event>
<event>
 7    1  0.8300060E-011  0.4778727E+02  0.7816164E-02  0.1312668E+00
        -11   -1    0    0    0    0  0.00000000000E+00  0.00000000000E+00  0.45593999997E+02  0.45594000000E+02  0.51100000000E-03 0. -1.
         11   -1    0    0    0    0 -0.00000000000E+00 -0.00000000000E+00 -0.45593999997E+02  0.45594000000E+02  0.51100000000E-03 0.  1.
    9900012    2    1    2    0    0  0.25342112916E+02 -0.23575134558E+02 -0.26184228492E+02  0.47787268691E+02  0.19999989268E+02 0.  0.
         12    1    1    2    0    0 -0.25342112916E+02  0.23575134558E+02  0.26184228492E+02  0.43400731309E+02  0.00000000000E+00 0. -1.
         11    1    3    3    0    0  0.17214992590E+02 -0.17885234230E+02 -0.12161032559E+02  0.27642870446E+02  0.51100000000E-03 0. -1.
        -11    1    3    3    0    0  0.37564844177E+01 -0.77413705978E+01 -0.51101884457E+01  0.10007698043E+02  0.51100000000E-03 0.  1.
         12    1    3    3    0    0  0.43706359081E+01  0.20514702690E+01 -0.89130074876E+01  0.10136700202E+02  0.00000000000E+00 0. -1.
</event>
<event>
 7    1  0.8300060E-011  0.4778727E+02  0.7816164E-02  0.1312668E+00
        -11   -1    0    0    0    0  0.00000000000E+00  0.00000000000E+00  0.45593999997E+02  0.45594000000E+02  0.51100000000E-03 0. -1.
         11   -1    0    0    0    0 -0.00000000000E+00 -0.00000000000E+00 -0.45593999997E+02  0.45594000000E+02  0.51100000000E-03 0.  1.
    9900012    2    1    2    0    0 -0.94313965772E+01  0.11333757383E+02  0.40819334619E+02  0.47787269862E+02  0.19999994608E+02 0.  0.
        -12    1    1    2    0    0  0.94313965772E+01 -0.11333757383E+02 -0.40819334619E+02  0.43400730138E+02  0.00000000000E+00 0.  1.
         11    1    3    3    0    0 -0.42856498474E+01  0.44521143202E+01  0.26373239874E+02  0.27087559843E+02  0.51100000000E-03 0. -1.
        -11    1    3    3    0    0  0.18101155232E+01  0.52100677706E+01  0.11990235974E+01  0.56443761595E+01  0.51100000000E-03 0.  1.
        -12    1    3    3    0    0 -0.69558622530E+01  0.16715752918E+01  0.13247071148E+02  0.15055333860E+02  0.00000000000E+00 0.  1.
</event>
<event>
 7    1  0.8300060E-011  0.4778727E+02  0.7816164E-02  0.1312668E+00
        -11   -1    0    0    0    0  0.00000000000E+00  0.00000000000E+00  0.45593999997E+02  0.45594000000E+02  0.51100000000E-03 0. -1.
         11   -1    0    0    0    0 -0.00000000000E+00 -0.00000000000E+00 -0.45593999997E+02  0.45594000000E+02  0.51100000000E-03 0.  1.
    9900012    2    1    2    0    0 -0.34616129616E+02  0.32776608886E+01 -0.25973132481E+02  0.47787273032E+02  0.20000009062E+02 0.  0.
         12    1    1    2    0    0  0.34616129616E+02 -0.32776608886E+01  0.25973132481E+02  0.43400726968E+02  0.00000000000E+00 0. -1.
         11    1    3    3    0    0 -0.10980241067E+01  0.17814750865E+01 -0.97313402620E+00  0.23078779251E+01  0.51100000000E-03 0. -1.
        -11    1    3    3    0    0 -0.12893945177E+02  0.87270909264E+01 -0.66026642186E+01  0.16911863094E+02  0.51100000000E-03 0.  1.
        -12    1    3    3    0    0 -0.20624160332E+02 -0.72309051244E+01 -0.18397334236E+02  0.28567532013E+02  0.00000000000E+00 0.  1.
</event>
<event>
 7    1  0.8300060E-011  0.4778726E+02  0.7816164E-02  0.1312668E+00
        -11   -1    0    0    0    0  0.00000000000E+00  0.00000000000E+00  0.45593999997E+02  0.45594000000E+02  0.51100000000E-03 0. -1.
         11   -1    0    0    0    0 -0.00000000000E+00 -0.00000000000E+00 -0.45593999997E+02  0.45594000000E+02  0.51100000000E-03 0.  1.
    9900012    2    1    2    0    0  0.66205671832E+01  0.67451456846E+01  0.42359119136E+02  0.47787264129E+02  0.19999968471E+02 0.  0.
        -12    1    1    2    0    0 -0.66205671832E+01 -0.67451456846E+01 -0.42359119136E+02  0.43400735871E+02  0.00000000000E+00 0.  1.
         11    1    3    3    0    0  0.64457705864E+01 -0.43210548019E+01  0.29567378515E+02  0.30568764214E+02  0.51100000000E-03 0. -1.
        -11    1    3    3    0    0  0.12981170982E+01  0.64963256396E+01  0.89987670729E+01  0.11174308207E+02  0.51100000000E-03 0.  1.
         12    1    3    3    0    0 -0.11233205014E+01  0.45698748469E+01  0.37929735477E+01  0.60441917076E+01  0.00000000000E+00 0. -1.
</event>
<event>
 7    1  0.8300060E-011  0.4778727E+02  0.7816164E-02  0.1312668E+00
        -11   -1    0    0    0    0  0.00000000000E+00  0.00000000000E+00  0.45593999997E+02  0.45594000000E+02  0.51100000000E-03 0. -1.
         11   -1    0    0    0    0 -0.00000000000E+00 -0.00000000000E+00 -0.45593999997E+02  0.45594000000E+02  0.51100000000E-03 0.  1.
    9900012    2    1    2    0    0  0.17963463088E+02 -0.37404443108E+02 -0.12721843810E+02  0.47787266362E+02  0.19999978652E+02 0.  0.
         12    1    1    2    0    0 -0.17963463088E+02  0.37404443108E+02  0.12721843810E+02  0.43400733638E+02  0.00000000000E+00 0. -1.
         11    1    3    3    0    0  0.61033898658E+00 -0.12098602820E+01 -0.55733650706E+01  0.57357365745E+01  0.51100000000E-03 0. -1.
        -11    1    3    3    0    0  0.92018493942E+01 -0.28973112552E+02 -0.68286715125E+01  0.31156797623E+02  0.51100000000E-03 0.  1.
         12    1    3    3    0    0  0.81512747076E+01 -0.72214702747E+01 -0.31980722681E+00  0.10894732165E+02  0.00000000000E+00 0. -1.
</event>
<event>
 7    1  0.8300060E-011  0.4778727E+02  0.7816164E-02  0.1312668E+00
        -11   -1    0    0    0    0  0.00000000000E+00  0.00000000000E+00  0.45593999997E+02  0.45594000000E+02  0.51100000000E-03 0.  1.
         11   -1    0    0    0    0 -0.00000000000E+00 -0.00000000000E+00 -0.45593999997E+02  0.45594000000E+02  0.51100000000E-03 0. -1.
    9900012    2    1    2    0    0 -0.37798484718E+02  0.21281172717E+02 -0.14176416866E+01  0.47787268818E+02  0.19999989850E+02 0.  0.
        -12    1    1    2    0    0  0.37798484718E+02 -0.21281172717E+02  0.14176416866E+01  0.43400731182E+02  0.00000000000E+00 0.  1.
         11    1    3    3    0    0 -0.24859967863E+02  0.85302280389E+01  0.50180011047E+01  0.26757487324E+02  0.51100000000E-03 0. -1.
        -11    1    3    3    0    0 -0.37944675385E+01  0.66829352149E+00 -0.42228252669E+01  0.57163671704E+01  0.51100000000E-03 0.  1.
         12    1    3    3    0    0 -0.91440493163E+01  0.12082651156E+02 -0.22128175244E+01  0.15313414324E+02  0.00000000000E+00 0. -1.
</event>
<event>
 7    1  0.8300060E-011  0.4778727E+02  0.7816164E-02  0.1312668E+00
        -11   -1    0    0    0    0  0.00000000000E+00  0.00000000000E+00  0.45593999997E+02  0.45594000000E+02  0.51100000000E-03 0.  1.
         11   -1    0    0    0    0 -0.00000000000E+00 -0.00000000000E+00 -0.45593999997E+02  0.45594000000E+02  0.51100000000E-03 0. -1.
    9900012    2    1    2    0    0  0.30331183040E+02  0.21883363658E+02 -0.22017295951E+02  0.47787267396E+02  0.19999983365E+02 0.  0.
         12    1    1    2    0    0 -0.30331183040E+02 -0.21883363658E+02  0.22017295951E+02  0.43400732604E+02  0.00000000000E+00 0. -1.
         11    1    3    3    0    0  0.14134396384E+02  0.45927745030E+01 -0.18236944953E+01  0.14973329645E+02  0.51100000000E-03 0. -1.
        -11    1    3    3    0    0  0.13387029962E+02  0.86415748533E+01 -0.16672429291E+02  0.23062074622E+02  0.51100000000E-03 0.  1.
         12    1    3    3    0    0  0.28097566927E+01  0.86490143017E+01 -0.35211721645E+01  0.97518631284E+01  0.00000000000E+00 0. -1.
</event>
<event>
 7    1  0.8300060E-011  0.4778727E+02  0.7816164E-02  0.1312668E+00
        -11   -1    0    0    0    0  0.00000000000E+00  0.00000000000E+00  0.45593999997E+02  0.45594000000E+02  0.51100000000E-03 0. -1.
         11   -1    0    0    0    0 -0.00000000000E+00 -0.00000000000E+00 -0.45593999997E+02  0.45594000000E+02  0.51100000000E-03 0.  1.
    9900012    2    1    2    0    0 -0.17100940922E+02  0.13262706702E+01  0.39867561452E+02  0.47787266937E+02  0.19999981273E+02 0.  0.
        -12    1    1    2    0    0  0.17100940922E+02 -0.13262706702E+01 -0.39867561452E+02  0.43400733063E+02  0.00000000000E+00 0.  1.
         11    1    3    3    0    0 -0.58540869591E+00 -0.37002884896E+01  0.98901488424E+00  0.38746598496E+01  0.51100000000E-03 0. -1.
        -11    1    3    3    0    0 -0.17084035802E+01 -0.25990331232E+01  0.11062618526E+02  0.11491524916E+02  0.51100000000E-03 0.  1.
         12    1    3    3    0    0 -0.14807128646E+02  0.76255922829E+01  0.27815928041E+02  0.32421082172E+02  0.00000000000E+00 0. -1.
</event>
<event>
 7    1  0.8300060E-011  0.4778727E+02  0.7816164E-02  0.1312668E+00
        -11   -1    0    0    0    0  0.00000000000E+00  0.00000000000E+00  0.45593999997E+02  0.45594000000E+02  0.51100000000E-03 0. -1.
         11   -1    0    0    0    0 -0.00000000000E+00 -0.00000000000E+00 -0.45593999997E+02  0.45594000000E+02  0.51100000000E-03 0.  1.
    9900012    2    1    2    0    0  0.32719617564E+02 -0.96201377960E+00  0.28497801940E+02  0.47787267755E+02  0.19999985000E+02 0.  0.
        -12    1    1    2    0    0 -0.32719617564E+02  0.96201377960E+00 -0.28497801940E+02  0.43400732245E+02  0.00000000000E+00 0.  1.
         11    1    3    3    0    0  0.99076746699E+01  0.45204937464E+01  0.19854414590E+02  0.22644969862E+02  0.51100000000E-03 0. -1.
        -11    1    3    3    0    0  0.17979074104E+02 -0.34754481352E+01  0.59334823578E+01  0.19249209296E+02  0.51100000000E-03 0.  1.
         12    1    3    3    0    0  0.48328687907E+01 -0.20070593908E+01  0.27099049916E+01  0.58930885968E+01  0.00000000000E+00 0. -1.
</event>
<event>
 7    1  0.8300060E-011  0.4778727E+02  0.7816164E-02  0.1312668E+00
        -11   -1    0    0    0    0  0.00000000000E+00  0.00000000000E+00  0.45593999997E+02  0.45594000000E+02  0.51100000000E-03 0. -1.
         11   -1    0    0    0    0 -0.00000000000E+00 -0.00000000000E+00 -0.45593999997E+02  0.45594000000E+02  0.51100000000E-03 0.  1.
    9900012    2    1    2    0    0 -0.22748046249E+01 -0.12836029111E+02 -0.41396676590E+02  0.47787271756E+02  0.20000003243E+02 0.  0.
         12    1    1    2    0    0  0.22748046249E+01  0.12836029111E+02  0.41396676590E+02  0.43400728244E+02  0.00000000000E+00 0. -1.
         11    1    3    3    0    0  0.24958808775E+01  0.21095313540E+01 -0.20183504393E+02  0.20446354045E+02  0.51100000000E-03 0. -1.
        -11    1    3    3    0    0 -0.10163159096E+00 -0.83127766833E+01 -0.65498555496E+01  0.10583628544E+02  0.51100000000E-03 0.  1.
         12    1    3    3    0    0 -0.46690539115E+01 -0.66327837818E+01 -0.14663316647E+02  0.16757289167E+02  0.00000000000E+00 0. -1.
</event>
<event>
 7    1  0.8300060E-011  0.4778728E+02  0.7816164E-02  0.1312668E+00
        -11   -1    0    0    0    0  0.00000000000E+00  0.00000000000E+00  0.45593999997E+02  0.45594000000E+02  0.51100000000E-03 0. -1.
         11   -1    0    0    0    0 -0.00000000000E+00 -0.00000000000E+00 -0.45593999997E+02  0.45594000000E+02  0.51100000000E-03 0.  1.
    9900012    2    1    2    0    0 -0.18960253587E+02  0.10115063580E+02  0.37706986444E+02  0.47787279338E+02  0.20000037813E+02 0.  0.
        -12    1    1    2    0    0  0.18960253587E+02 -0.10115063580E+02 -0.37706986444E+02  0.43400720662E+02  0.00000000000E+00 0.  1.
         11    1    3    3    0    0 -0.70943349061E+01  0.58488629556E+01  0.24442397775E+02  0.26114547572E+02  0.51100000000E-03 0. -1.
        -11    1    3    3    0    0 -0.97552067680E+01  0.24114795582E+00  0.26280567960E+01  0.10105884138E+02  0.51100000000E-03 0.  1.
        -12    1    3    3    0    0 -0.21107119129E+01  0.40250526689E+01  0.10636531873E+02  0.11566847628E+02  0.00000000000E+00 0.  1.
</event>
<event>
 7    1  0.8300060E-011  0.4778727E+02  0.7816164E-02  0.1312668E+00
        -11   -1    0    0    0    0  0.00000000000E+00  0.00000000000E+00  0.45593999997E+02  0.45594000000E+02  0.51100000000E-03 0. -1.
         11   -1    0    0    0    0 -0.00000000000E+00 -0.00000000000E+00 -0.45593999997E+02  0.45594000000E+02  0.51100000000E-03 0.  1.
    9900012    2    1    2    0    0 -0.66597152586E+00 -0.35653583300E+01  0.43248907335E+02  0.47787270930E+02  0.19999999478E+02 0.  0.
        -12    1    1    2    0    0  0.66597152586E+00  0.35653583300E+01 -0.43248907335E+02  0.43400729070E+02  0.00000000000E+00 0.  1.
         11    1    3    3    0    0 -0.57127436257E+00 -0.43657444367E+01  0.36658998807E+02  0.36922462982E+02  0.51100000000E-03 0. -1.
        -11    1    3    3    0    0  0.24369519911E+01 -0.22623344350E+01  0.59832595385E+01  0.68451652331E+01  0.51100000000E-03 0.  1.
         12    1    3    3    0    0 -0.25316491544E+01  0.30627205417E+01  0.60664899009E+00  0.40196427148E+01  0.00000000000E+00 0. -1.
</event>
<event>
 7    1  0.8300060E-011  0.4778728E+02  0.7816164E-02  0.1312668E+00
        -11   -1    0    0    0    0  0.00000000000E+00  0.00000000000E+00  0.45593999997E+02  0.45594000000E+02  0.51100000000E-03 0. -1.
         11   -1    0    0    0    0 -0.00000000000E+00 -0.00000000000E+00 -0.45593999997E+02  0.45594000000E+02  0.51100000000E-03 0.  1.
    9900012    2    1    2    0    0  0.48907829768E+01  0.15458640423E+02 -0.40258335683E+02  0.47787275193E+02  0.20000018914E+02 0.  0.
         12    1    1    2    0    0 -0.48907829768E+01 -0.15458640423E+02  0.40258335683E+02  0.43400724807E+02  0.00000000000E+00 0. -1.
         11    1    3    3    0    0  0.83120138282E+01 -0.13649668325E+01 -0.12132113102E+02  0.14769592984E+02  0.51100000000E-03 0. -1.
        -11    1    3    3    0    0 -0.18628815983E+01  0.12810886528E+02 -0.22087934934E+02  0.25602070451E+02  0.51100000000E-03 0.  1.
         12    1    3    3    0    0 -0.15583492532E+01  0.40127207282E+01 -0.60382876456E+01  0.74156117569E+01  0.00000000000E+00 0. -1.
</event>
<event>
 7    1  0.8300060E-011  0.4778727E+02  0.7816164E-02  0.1312668E+00
        -11   -1    0    0    0    0  0.00000000000E+00  0.00000000000E+00  0.45593999997E+02  0.45594000000E+02  0.51100000000E-03 0. -1.
         11   -1    0    0    0    0 -0.00000000000E+00 -0.00000000000E+00 -0.45593999997E+02  0.45594000000E+02  0.51100000000E-03 0.  1.
    9900012    2    1    2    0    0  0.77027349968E+01 -0.42298743623E+02  0.59251643479E+01  0.47787269464E+02  0.19999992794E+02 0.  0.
        -12    1    1    2    0    0 -0.77027349968E+01  0.42298743623E+02 -0.59251643479E+01  0.43400730536E+02  0.00000000000E+00 0.  1.
         11    1    3    3    0    0  0.80219021704E+01 -0.27275439943E+02  0.85799443390E+01  0.29697070287E+02  0.51100000000E-03 0. -1.
        -11    1    3    3    0    0 -0.48499038794E+01 -0.81430632910E+01 -0.26893471085E+01  0.98520878767E+01  0.51100000000E-03 0.  1.
         12    1    3    3    0    0  0.45307367058E+01 -0.68802403894E+01  0.34567117414E-01  0.82381113004E+01  0.00000000000E+00 0. -1.
</event>
<event>
 7    1  0.1012650E-010  0.4778727E+02  0.7816164E-02  0.1312668E+00
        -11   -1    0    0    0    0  0.00000000000E+00  0.00000000000E+00  0.45593999997E+02  0.45594000000E+02  0.51100000000E-03 0. -1.
         11   -1    0    0    0    0 -0.00000000000E+00 -0.00000000000E+00 -0.45593999997E+02  0.45594000000E+02  0.51100000000E-03 0.  1.
    9900012    2    1    2    0    0 -0.92262120842E+01  0.57016440573E+01 -0.42023702022E+02  0.47787271135E+02  0.20000000411E+02 0.  0.
         12    1    1    2    0    0  0.92262120842E+01 -0.57016440573E+01  0.42023702022E+02  0.43400728865E+02  0.00000000000E+00 0. -1.
         11    1    3    3    0    0  0.30002245716E+01  0.46752977133E+01 -0.78309969287E+01  0.96012639452E+01  0.51100000000E-03 0. -1.
        -11    1    3    3    0    0 -0.13114812192E+02  0.46455730579E+00 -0.19794272746E+02  0.23749259907E+02  0.51100000000E-03 0.  1.
        -12    1    3    3    0    0  0.88837553674E+00  0.56178903827E+00 -0.14398432348E+02  0.14436747283E+02  0.00000000000E+00 0.  1.
</event>
<event>
 7    1  0.8300060E-011  0.4778727E+02  0.7816164E-02  0.1312668E+00
        -11   -1    0    0    0    0  0.00000000000E+00  0.00000000000E+00  0.45593999997E+02  0.45594000000E+02  0.51100000000E-03 0. -1.
         11   -1    0    0    0    0 -0.00000000000E+00 -0.00000000000E+00 -0.45593999997E+02  0.45594000000E+02  0.51100000000E-03 0.  1.
    9900012    2    1    2    0    0 -0.44433390270E+01 -0.15794746091E+02  0.40179673365E+02  0.47787269389E+02  0.19999992454E+02 0.  0.
        -12    1    1    2    0    0  0.44433390270E+01  0.15794746091E+02 -0.40179673365E+02  0.43400730611E+02  0.00000000000E+00 0.  1.
         11    1    3    3    0    0  0.43290444506E-01 -0.12263559457E+02  0.27743688028E+02  0.30333298374E+02  0.51100000000E-03 0. -1.
        -11    1    3    3    0    0 -0.36535150152E+01  0.18613015860E+01  0.11104591539E+02  0.11837422399E+02  0.51100000000E-03 0.  1.
        -12    1    3    3    0    0 -0.83311445625E+00 -0.53924882208E+01  0.13313937990E+01  0.56165486160E+01  0.00000000000E+00 0.  1.
</event>
<event>
 7    1  0.8300060E-011  0.4778726E+02  0.7816164E-02  0.1312668E+00
        -11   -1    0    0    0    0  0.00000000000E+00  0.00000000000E+00  0.45593999997E+02  0.45594000000E+02  0.51100000000E-03 0. -1.
         11   -1    0    0    0    0 -0.00000000000E+00 -0.00000000000E+00 -0.45593999997E+02  0.45594000000E+02  0.51100000000E-03 0.  1.
    9900012    2    1    2    0    0 -0.30025375788E+00  0.23762235558E+02 -0.36316525375E+02  0.47787262606E+02  0.19999961525E+02 0.  0.
         12    1    1    2    0    0  0.30025375788E+00 -0.23762235558E+02  0.36316525375E+02  0.43400737394E+02  0.00000000000E+00 0. -1.
         11    1    3    3    0    0 -0.14761597452E+01  0.16907202253E+01  0.85394467457E+00  0.24014171320E+01  0.51100000000E-03 0. -1.
        -11    1    3    3    0    0  0.95161243573E+00  0.23735296706E+02 -0.36560230930E+02  0.43599545432E+02  0.51100000000E-03 0.  1.
        -12    1    3    3    0    0  0.22429355164E+00 -0.16637813734E+01 -0.61023911933E+00  0.17863000416E+01  0.00000000000E+00 0.  1.
</event>
<event>
 7    1  0.8300060E-011  0.4778727E+02  0.7816164E-02  0.1312668E+00
        -11   -1    0    0    0    0  0.00000000000E+00  0.00000000000E+00  0.45593999997E+02  0.45594000000E+02  0.51100000000E-03 0. -1.
         11   -1    0    0    0    0 -0.00000000000E+00 -0.00000000000E+00 -0.45593999997E+02  0.45594000000E+02  0.51100000000E-03 0.  1.
    9900012    2    1    2    0    0  0.19820407126E+02  0.19646616725E+01 -0.38560532712E+02  0.47787272850E+02  0.20000008231E+02 0.  0.
         12    1    1    2    0    0 -0.19820407126E+02 -0.19646616725E+01  0.38560532712E+02  0.43400727150E+02  0.00000000000E+00 0. -1.
         11    1    3    3    0    0  0.78460356391E+01  0.80243488350E+01 -0.98801479847E+01  0.14952182915E+02  0.51100000000E-03 0. -1.
        -11    1    3    3    0    0  0.37759026024E+01 -0.35632693914E+01 -0.19897743161E+02  0.20563912867E+02  0.51100000000E-03 0.  1.
        -12    1    3    3    0    0  0.81984688846E+01 -0.24964177711E+01 -0.87826415664E+01  0.12271177068E+02  0.00000000000E+00 0.  1.
</event>
<event>
 7    1  0.8300060E-011  0.4778727E+02  0.7816164E-02  0.1312668E+00
        -11   -1    0    0    0    0  0.00000000000E+00  0.00000000000E+00  0.45593999997E+02  0.45594000000E+02  0.51100000000E-03 0. -1.
         11   -1    0    0    0    0 -0.00000000000E+00 -0.00000000000E+00 -0.45593999997E+02  0.45594000000E+02  0.51100000000E-03 0.  1.
    9900012    2    1    2    0    0 -0.21488270005E+02 -0.22444191951E+02  0.30300753807E+02  0.47787272110E+02  0.20000004856E+02 0.  0.
        -12    1    1    2    0    0  0.21488270005E+02  0.22444191951E+02 -0.30300753807E+02  0.43400727890E+02  0.00000000000E+00 0.  1.
         11    1    3    3    0    0 -0.71090706725E+01 -0.74139664079E+01  0.15641387766E+02  0.18712530434E+02  0.51100000000E-03 0. -1.
        -11    1    3    3    0    0 -0.23161207565E+01 -0.29229969810E+01 -0.27840406120E+01  0.46539455412E+01  0.51100000000E-03 0.  1.
        -12    1    3    3    0    0 -0.12063078575E+02 -0.12107228562E+02  0.17443406653E+02  0.24420796135E+02  0.00000000000E+00 0.  1.
</event>
<event>
 7    1  0.8300060E-011  0.4778727E+02  0.7816164E-02  0.1312668E+00
        -11   -1    0    0    0    0  0.00000000000E+00  0.00000000000E+00  0.45593999997E+02  0.45594000000E+02  0.51100000000E-03 0. -1.
         11   -1    0    0    0    0 -0.00000000000E+00 -0.00000000000E+00 -0.45593999997E+02  0.45594000000E+02  0.51100000000E-03 0.  1.
    9900012    2    1    2    0    0  0.14823277059E+02  0.13439817703E+02 -0.38513178294E+02  0.47787272529E+02  0.20000006770E+02 0.  0.
         12    1    1    2    0    0 -0.14823277059E+02 -0.13439817703E+02  0.38513178294E+02  0.43400727471E+02  0.00000000000E+00 0. -1.
         11    1    3    3    0    0  0.54091887752E+00 -0.31241065583E+00 -0.33926862785E+01  0.34497121757E+01  0.51100000000E-03 0. -1.
        -11    1    3    3    0    0  0.17995332846E+02  0.75761515325E+01 -0.28533598263E+02  0.34574503704E+02  0.51100000000E-03 0.  1.
        -12    1    3    3    0    0 -0.37129746649E+01  0.61760768268E+01 -0.65868937524E+01  0.97630566493E+01  0.00000000000E+00 0.  1.
</event>
<event>
 7    1  0.8300060E-011  0.4778727E+02  0.7816164E-02  0.1312668E+00
        -11   -1    0    0    0    0  0.00000000000E+00  0.00000000000E+00  0.45593999997E+02  0.45594000000E+02  0.51100000000E-03 0. -1.
         11   -1    0    0    0    0 -0.00000000000E+00 -0.00000000000E+00 -0.45593999997E+02  0.45594000000E+02  0.51100000000E-03 0.  1.
    9900012    2    1    2    0    0 -0.69368372258E+00  0.18021743470E+02 -0.39476059184E+02  0.47787266325E+02  0.19999978481E+02 0.  0.
         12    1    1    2    0    0  0.69368372258E+00 -0.18021743470E+02  0.39476059184E+02  0.43400733675E+02  0.00000000000E+00 0. -1.
         11    1    3    3    0    0  0.10197096447E+00  0.19905584932E+02 -0.25234798419E+02  0.32140904795E+02  0.51100000000E-03 0. -1.
        -11    1    3    3    0    0 -0.89452549988E+00  0.14587193627E+00 -0.13426394693E+02  0.13456950963E+02  0.51100000000E-03 0.  1.
         12    1    3    3    0    0  0.98870812820E-01 -0.20297133978E+01 -0.81486607229E+00  0.21894105669E+01  0.00000000000E+00 0. -1.
</event>
<event>
 7    1  0.8300060E-011  0.4778727E+02  0.7816164E-02  0.1312668E+00
        -11   -1    0    0    0    0  0.00000000000E+00  0.00000000000E+00  0.45593999997E+02  0.45594000000E+02  0.51100000000E-03 0. -1.
         11   -1    0    0    0    0 -0.00000000000E+00 -0.00000000000E+00 -0.45593999997E+02  0.45594000000E+02  0.51100000000E-03 0.  1.
    9900012    2    1    2    0    0 -0.29671423376E+02 -0.31243608721E+02  0.52026065841E+01  0.47787267675E+02  0.19999984639E+02 0.  0.
        -12    1    1    2    0    0  0.29671423376E+02  0.31243608721E+02 -0.52026065841E+01  0.43400732325E+02  0.00000000000E+00 0.  1.
         11    1    3    3    0    0 -0.30627350621E+02 -0.30048803784E+02  0.37103172749E+01  0.43066595750E+02  0.51100000000E-03 0. -1.
        -11    1    3    3    0    0 -0.11395884593E+01 -0.17419257350E+01  0.14813689865E+01  0.25548818873E+01  0.51100000000E-03 0.  1.
         12    1    3    3    0    0  0.20955157048E+01  0.54712079825E+00  0.10920322673E-01  0.21657900384E+01  0.00000000000E+00 0. -1.
</event>
<event>
 7    1  0.8300060E-011  0.4778727E+02  0.7816164E-02  0.1312668E+00
        -11   -1    0    0    0    0  0.00000000000E+00  0.00000000000E+00  0.45593999997E+02  0.45594000000E+02  0.51100000000E-03 0. -1.
         11   -1    0    0    0    0 -0.00000000000E+00 -0.00000000000E+00 -0.45593999997E+02  0.45594000000E+02  0.51100000000E-03 0.  1.
    9900012    2    1    2    0    0  0.35545326531E+02 -0.17168780213E+01  0.24843616196E+02  0.47787272195E+02  0.20000005245E+02 0.  0.
        -12    1    1    2    0    0 -0.35545326531E+02  0.17168780213E+01 -0.24843616196E+02  0.43400727805E+02  0.00000000000E+00 0.  1.
         11    1    3    3    0    0  0.23658575576E+02  0.31188102045E+01  0.24322113033E+02  0.34073748811E+02  0.51100000000E-03 0. -1.
        -11    1    3    3    0    0  0.44853588364E+01 -0.41553032736E+01  0.12650532478E+01  0.62438248829E+01  0.51100000000E-03 0.  1.
         12    1    3    3    0    0  0.74013921177E+01 -0.68038495214E+00 -0.74355008428E+00  0.74696985007E+01  0.00000000000E+00 0. -1.
</event>
<event>
 7    1  0.8300060E-011  0.4778727E+02  0.7816164E-02  0.1312668E+00
        -11   -1    0    0    0    0  0.00000000000E+00  0.00000000000E+00  0.45593999997E+02  0.45594000000E+02  0.51100000000E-03 0. -1.
         11   -1    0    0    0    0 -0.00000000000E+00 -0.00000000000E+00 -0.45593999997E+02  0.45594000000E+02  0.51100000000E-03 0.  1.
    9900012    2    1    2    0    0 -0.86281781640E+01 -0.19827112956E+02 -0.37630616370E+02  0.47787272414E+02  0.20000006246E+02 0.  0.
         12    1    1    2    0    0  0.86281781640E+01  0.19827112956E+02  0.37630616370E+02  0.43400727586E+02  0.00000000000E+00 0. -1.
         11    1    3    3    0    0  0.26202025279E+01 -0.50119347809E+01 -0.22192055260E+02  0.22901359533E+02  0.51100000000E-03 0. -1.
        -11    1    3    3    0    0 -0.94910843661E+01 -0.11515161581E+02 -0.89595411716E+01  0.17405545293E+02  0.51100000000E-03 0.  1.
        -12    1    3    3    0    0 -0.17572963257E+01 -0.33000165947E+01 -0.64790199381E+01  0.74803675886E+01  0.00000000000E+00 0.  1.
</event>
<event>
 7    1  0.8300060E-011  0.4778727E+02  0.7816164E-02  0.1312668E+00
        -11   -1    0    0    0    0  0.00000000000E+00  0.00000000000E+00  0.45593999997E+02  0.45594000000E+02  0.51100000000E-03 0.  1.
         11   -1    0    0    0    0 -0.00000000000E+00 -0.00000000000E+00 -0.45593999997E+02  0.45594000000E+02  0.51100000000E-03 0. -1.
    9900012    2    1    2    0    0  0.16419337168E+02 -0.30245364314E+02  0.26443271975E+02  0.47787270418E+02  0.19999997142E+02 0.  0.
        -12    1    1    2    0    0 -0.16419337168E+02  0.30245364314E+02 -0.26443271975E+02  0.43400729582E+02  0.00000000000E+00 0.  1.
         11    1    3    3    0    0 -0.19983170610E+01 -0.55547623731E+01  0.58504678299E+01  0.83112351782E+01  0.51100000000E-03 0. -1.
        -11    1    3    3    0    0  0.16321775851E+02 -0.18825725622E+02  0.93293908641E+01  0.26605372508E+02  0.51100000000E-03 0.  1.
        -12    1    3    3    0    0  0.20958783778E+01 -0.58648763198E+01  0.11263413281E+02  0.12870662732E+02  0.00000000000E+00 0.  1.
</event>
<event>
 7    1  0.8300060E-011  0.4778727E+02  0.7816164E-02  0.1312668E+00
        -11   -1    0    0    0    0  0.00000000000E+00  0.00000000000E+00  0.45593999997E+02  0.45594000000E+02  0.51100000000E-03 0. -1.
         11   -1    0    0    0    0 -0.00000000000E+00 -0.00000000000E+00 -0.45593999997E+02  0.45594000000E+02  0.51100000000E-03 0.  1.
    9900012    2    1    2    0    0  0.36737498795E+02 -0.15232406355E+02 -0.17376806281E+02  0.47787269389E+02  0.19999992452E+02 0.  0.
         12    1    1    2    0    0 -0.36737498795E+02  0.15232406355E+02  0.17376806281E+02  0.43400730611E+02  0.00000000000E+00 0. -1.
         11    1    3    3    0    0  0.89862877284E+01 -0.70818481177E+01 -0.89769701583E+01  0.14542762234E+02  0.51100000000E-03 0. -1.
        -11    1    3    3    0    0  0.11558398473E+02 -0.55316181718E+01  0.31347721959E+01  0.13191746353E+02  0.51100000000E-03 0.  1.
        -12    1    3    3    0    0  0.16192812593E+02 -0.26189400655E+01 -0.11534608318E+02  0.20052760803E+02  0.00000000000E+00 0.  1.
</event>
<event>
 7    1  0.8300060E-011  0.4778727E+02  0.7816164E-02  0.1312668E+00
        -11   -1    0    0    0    0  0.00000000000E+00  0.00000000000E+00  0.45593999997E+02  0.45594000000E+02  0.51100000000E-03 0. -1.
         11   -1    0    0    0    0 -0.00000000000E+00 -0.00000000000E+00 -0.45593999997E+02  0.45594000000E+02  0.51100000000E-03 0.  1.
    9900012    2    1    2    0    0  0.15167658023E+02  0.15040063066E+02 -0.37780441286E+02  0.47787273155E+02  0.20000009623E+02 0.  0.
         12    1    1    2    0    0 -0.15167658023E+02 -0.15040063066E+02  0.37780441286E+02  0.43400726845E+02  0.00000000000E+00 0. -1.
         11    1    3    3    0    0  0.12819571901E+01 -0.38300799126E+01 -0.74658041463E+01  0.84882953640E+01  0.51100000000E-03 0. -1.
        -11    1    3    3    0    0  0.90407734376E+01  0.15578829582E+02 -0.17064213437E+02  0.24811749152E+02  0.51100000000E-03 0.  1.
        -12    1    3    3    0    0  0.48449273958E+01  0.32913133962E+01 -0.13250423702E+02  0.14487228639E+02  0.00000000000E+00 0.  1.
</event>
<event>
 7    1  0.8300060E-011  0.4778726E+02  0.7816164E-02  0.1312668E+00
        -11   -1    0    0    0    0  0.00000000000E+00  0.00000000000E+00  0.45593999997E+02  0.45594000000E+02  0.51100000000E-03 0. -1.
         11   -1    0    0    0    0 -0.00000000000E+00 -0.00000000000E+00 -0.45593999997E+02  0.45594000000E+02  0.51100000000E-03 0.  1.
    9900012    2    1    2    0    0  0.21562800934E+02  0.33583114578E+02  0.17054148255E+02  0.47787263352E+02  0.19999964929E+02 0.  0.
        -12    1    1    2    0    0 -0.21562800934E+02 -0.33583114578E+02 -0.17054148255E+02  0.43400736648E+02  0.00000000000E+00 0.  1.
         11    1    3    3    0    0  0.11525549604E+02  0.10334024304E+02  0.29794985179E+01  0.15764129017E+02  0.51100000000E-03 0. -1.
        -11    1    3    3    0    0  0.10554166480E+02  0.17748404199E+02  0.16052453328E+02  0.26154876024E+02  0.51100000000E-03 0.  1.
        -12    1    3    3    0    0 -0.51691515055E+00  0.55006860750E+01 -0.19778035912E+01  0.58682583118E+01  0.00000000000E+00 0.  1.
</event>
<event>
 7    1  0.8300060E-011  0.4778727E+02  0.7816164E-02  0.1312668E+00
        -11   -1    0    0    0    0  0.00000000000E+00  0.00000000000E+00  0.45593999997E+02  0.45594000000E+02  0.51100000000E-03 0. -1.
         11   -1    0    0    0    0 -0.00000000000E+00 -0.00000000000E+00 -0.45593999997E+02  0.45594000000E+02  0.51100000000E-03 0.  1.
    9900012    2    1    2    0    0  0.20847713390E+02 -0.33509402427E+02 -0.18058680285E+02  0.47787272607E+02  0.20000007124E+02 0.  0.
         12    1    1    2    0    0 -0.20847713390E+02  0.33509402427E+02  0.18058680285E+02  0.43400727393E+02  0.00000000000E+00 0. -1.
         11    1    3    3    0    0 -0.31340866592E+01 -0.22895358951E+01 -0.33343808637E+01  0.51168906386E+01  0.51100000000E-03 0. -1.
        -11    1    3    3    0    0  0.17090195576E+02 -0.26898364631E+02 -0.12548140119E+02  0.34249855844E+02  0.51100000000E-03 0.  1.
        -12    1    3    3    0    0  0.68916044735E+01 -0.43215019011E+01 -0.21761593024E+01  0.84205261243E+01  0.00000000000E+00 0.  1.
</event>
<event>
 7    1  0.8300060E-011  0.4778727E+02  0.7816164E-02  0.1312668E+00
        -11   -1    0    0    0    0  0.00000000000E+00  0.00000000000E+00  0.45593999997E+02  0.45594000000E+02  0.51100000000E-03 0. -1.
         11   -1    0    0    0    0 -0.00000000000E+00 -0.00000000000E+00 -0.45593999997E+02  0.45594000000E+02  0.51100000000E-03 0.  1.
    9900012    2    1    2    0    0  0.26414646097E+02  0.34337604744E+02 -0.26112414336E+01  0.47787271783E+02  0.20000003368E+02 0.  0.
         12    1    1    2    0    0 -0.26414646097E+02 -0.34337604744E+02  0.26112414336E+01  0.43400728217E+02  0.00000000000E+00 0. -1.
         11    1    3    3    0    0  0.21389023094E+01  0.68933880889E+01  0.40476963014E+01  0.82751161951E+01  0.51100000000E-03 0. -1.
        -11    1    3    3    0    0  0.88846296788E+01  0.12576122547E+02 -0.92397484799E+01  0.17957406692E+02  0.51100000000E-03 0.  1.
        -12    1    3    3    0    0  0.15391114108E+02  0.14868094107E+02  0.25808107449E+01  0.21554748896E+02  0.00000000000E+00 0.  1.
</event>
<event>
 7    1  0.8300060E-011  0.4778727E+02  0.7816164E-02  0.1312668E+00
        -11   -1    0    0    0    0  0.00000000000E+00  0.00000000000E+00  0.45593999997E+02  0.45594000000E+02  0.51100000000E-03 0. -1.
         11   -1    0    0    0    0 -0.00000000000E+00 -0.00000000000E+00 -0.45593999997E+02  0.45594000000E+02  0.51100000000E-03 0.  1.
    9900012    2    1    2    0    0  0.70016623169E+01 -0.40798132462E+00  0.42830289667E+02  0.47787269166E+02  0.19999991438E+02 0.  0.
        -12    1    1    2    0    0 -0.70016623169E+01  0.40798132462E+00 -0.42830289667E+02  0.43400730834E+02  0.00000000000E+00 0.  1.
         11    1    3    3    0    0 -0.34816830782E+01 -0.42096971339E+01  0.11465207570E+02  0.12700183145E+02  0.51100000000E-03 0. -1.
        -11    1    3    3    0    0  0.95223291234E+01  0.12647872893E+01  0.11264093816E+02  0.14803859246E+02  0.51100000000E-03 0.  1.
        -12    1    3    3    0    0  0.96101627165E+00  0.25369285199E+01  0.20100988280E+02  0.20283226776E+02  0.00000000000E+00 0.  1.
</event>
<event>
 7    1  0.8300060E-011  0.4778727E+02  0.7816164E-02  0.1312668E+00
        -11   -1    0    0    0    0  0.00000000000E+00  0.00000000000E+00  0.45593999997E+02  0.45594000000E+02  0.51100000000E-03 0. -1.
         11   -1    0    0    0    0 -0.00000000000E+00 -0.00000000000E+00 -0.45593999997E+02  0.45594000000E+02  0.51100000000E-03 0.  1.
    9900012    2    1    2    0    0  0.40725572749E+02 -0.11371398631E+02 -0.97848025477E+01  0.47787270243E+02  0.19999996345E+02 0.  0.
         12    1    1    2    0    0 -0.40725572749E+02  0.11371398631E+02  0.97848025477E+01  0.43400729757E+02  0.00000000000E+00 0. -1.
         11    1    3    3    0    0 -0.17167793352E+01 -0.81771479920E+00 -0.39268708919E+00  0.19416982746E+01  0.51100000000E-03 0. -1.
        -11    1    3    3    0    0  0.23336189895E+02 -0.68227462918E+01 -0.10190072741E+02  0.26362192786E+02  0.51100000000E-03 0.  1.
         12    1    3    3    0    0  0.19106162189E+02 -0.37309375396E+01  0.79795728210E+00  0.19483379182E+02  0.00000000000E+00 0. -1.
</event>
<event>
 7    1  0.8300060E-011  0.4778727E+02  0.7816164E-02  0.1312668E+00
        -11   -1    0    0    0    0  0.00000000000E+00  0.00000000000E+00  0.45593999997E+02  0.45594000000E+02  0.51100000000E-03 0. -1.
         11   -1    0    0    0    0 -0.00000000000E+00 -0.00000000000E+00 -0.45593999997E+02  0.45594000000E+02  0.51100000000E-03 0.  1.
    9900012    2    1    2    0    0  0.31908076058E+02  0.11646995891E+02 -0.27015648052E+02  0.47787273386E+02  0.20000010676E+02 0.  0.
         12    1    1    2    0    0 -0.31908076058E+02 -0.11646995891E+02  0.27015648052E+02  0.43400726614E+02  0.00000000000E+00 0. -1.
         11    1    3    3    0    0  0.30821959052E+01  0.86161381953E+01 -0.86496019952E+01  0.12591798280E+02  0.51100000000E-03 0. -1.
        -11    1    3    3    0    0  0.93545284618E+01  0.27740974424E+01 -0.10092057284E+02  0.14037536815E+02  0.51100000000E-03 0.  1.
         12    1    3    3    0    0  0.19471351691E+02  0.25676025346E+00 -0.82739887730E+01  0.21157938290E+02  0.00000000000E+00 0. -1.
</event>
<event>
 7    1  0.8300060E-011  0.4778727E+02  0.7816164E-02  0.1312668E+00
        -11   -1    0    0    0    0  0.00000000000E+00  0.00000000000E+00  0.45593999997E+02  0.45594000000E+02  0.51100000000E-03 0. -1.
         11   -1    0    0    0    0 -0.00000000000E+00 -0.00000000000E+00 -0.45593999997E+02  0.45594000000E+02  0.51100000000E-03 0.  1.
    9900012    2    1    2    0    0  0.25382195597E+02  0.13286541661E+02  0.32601151766E+02  0.47787272597E+02  0.20000007080E+02 0.  0.
        -12    1    1    2    0    0 -0.25382195597E+02 -0.13286541661E+02 -0.32601151766E+02  0.43400727403E+02  0.00000000000E+00 0.  1.
         11    1    3    3    0    0  0.96966607031E+01 -0.20656463706E+01  0.15207227623E+02  0.18153564277E+02  0.51100000000E-03 0. -1.
        -11    1    3    3    0    0  0.36919209281E+01  0.96861488024E+01  0.51190586370E+01  0.11560991322E+02  0.51100000000E-03 0.  1.
        -12    1    3    3    0    0  0.11993613966E+02  0.56660392294E+01  0.12274865506E+02  0.18072716998E+02  0.00000000000E+00 0.  1.
</event>
<event>
 7    1  0.8300060E-011  0.4778727E+02  0.7816164E-02  0.1312668E+00
        -11   -1    0    0    0    0  0.00000000000E+00  0.00000000000E+00  0.45593999997E+02  0.45594000000E+02  0.51100000000E-03 0. -1.
         11   -1    0    0    0    0 -0.00000000000E+00 -0.00000000000E+00 -0.45593999997E+02  0.45594000000E+02  0.51100000000E-03 0.  1.
    9900012    2    1    2    0    0  0.26797876899E+02  0.30735712634E+02  0.14859780584E+02  0.47787270555E+02  0.19999997767E+02 0.  0.
        -12    1    1    2    0    0 -0.26797876899E+02 -0.30735712634E+02 -0.14859780584E+02  0.43400729445E+02  0.00000000000E+00 0.  1.
         11    1    3    3    0    0  0.16938550936E+02  0.26450072879E+02  0.63097523192E+01  0.32036445460E+02  0.51100000000E-03 0. -1.
        -11    1    3    3    0    0  0.96297195251E+01  0.35384830022E+01  0.98574951769E+01  0.14227528651E+02  0.51100000000E-03 0.  1.
        -12    1    3    3    0    0  0.22960643787E+00  0.74715675223E+00 -0.13074669124E+01  0.15232964438E+01  0.00000000000E+00 0.  1.
</event>
<event>
 7    1  0.8300060E-011  0.4778727E+02  0.7816164E-02  0.1312668E+00
        -11   -1    0    0    0    0  0.00000000000E+00  0.00000000000E+00  0.45593999997E+02  0.45594000000E+02  0.51100000000E-03 0. -1.
         11   -1    0    0    0    0 -0.00000000000E+00 -0.00000000000E+00 -0.45593999997E+02  0.45594000000E+02  0.51100000000E-03 0.  1.
    9900012    2    1    2    0    0 -0.33110578371E+02 -0.27307857092E+02  0.64493050257E+01  0.47787274264E+02  0.20000014681E+02 0.  0.
        -12    1    1    2    0    0  0.33110578371E+02  0.27307857092E+02 -0.64493050257E+01  0.43400725736E+02  0.00000000000E+00 0.  1.
         11    1    3    3    0    0 -0.14653149517E+02 -0.21914343837E+02  0.32472457696E+01  0.26561209722E+02  0.51100000000E-03 0. -1.
        -11    1    3    3    0    0 -0.45962448601E+01 -0.85202502749E+00 -0.28047483396E+01  0.54514243067E+01  0.51100000000E-03 0.  1.
         12    1    3    3    0    0 -0.13861183995E+02 -0.45414882278E+01  0.60068075957E+01  0.15774640235E+02  0.00000000000E+00 0. -1.
</event>
<event>
 7    1  0.8300060E-011  0.4778727E+02  0.7816164E-02  0.1312668E+00
        -11   -1    0    0    0    0  0.00000000000E+00  0.00000000000E+00  0.45593999997E+02  0.45594000000E+02  0.51100000000E-03 0. -1.
         11   -1    0    0    0    0 -0.00000000000E+00 -0.00000000000E+00 -0.45593999997E+02  0.45594000000E+02  0.51100000000E-03 0.  1.
    9900012    2    1    2    0    0 -0.32089881756E+02 -0.10848422250E+02  0.27132536574E+02  0.47787270543E+02  0.19999997715E+02 0.  0.
        -12    1    1    2    0    0  0.32089881756E+02  0.10848422250E+02 -0.27132536574E+02  0.43400729457E+02  0.00000000000E+00 0.  1.
         11    1    3    3    0    0 -0.15928553815E+02 -0.19267164153E+01  0.21486943753E+02  0.26816409433E+02  0.51100000000E-03 0. -1.
        -11    1    3    3    0    0  0.64875132200E+00 -0.44105131696E+00 -0.75077306716E+00  0.10858475959E+01  0.51100000000E-03 0.  1.
         12    1    3    3    0    0 -0.16810079264E+02 -0.84806545174E+01  0.63963658878E+01  0.19885013514E+02  0.00000000000E+00 0. -1.
</event>
<event>
 7    1  0.8300060E-011  0.4778727E+02  0.7816164E-02  0.1312668E+00
        -11   -1    0    0    0    0  0.00000000000E+00  0.00000000000E+00  0.45593999997E+02  0.45594000000E+02  0.51100000000E-03 0. -1.
         11   -1    0    0    0    0 -0.00000000000E+00 -0.00000000000E+00 -0.45593999997E+02  0.45594000000E+02  0.51100000000E-03 0.  1.
    9900012    2    1    2    0    0 -0.19644144021E+02 -0.25476775473E+02  0.29131854680E+02  0.47787269131E+02  0.19999991277E+02 0.  0.
        -12    1    1    2    0    0  0.19644144021E+02  0.25476775473E+02 -0.29131854680E+02  0.43400730869E+02  0.00000000000E+00 0.  1.
         11    1    3    3    0    0 -0.12475354730E+02 -0.21010742957E+02  0.14501800961E+02  0.28414574194E+02  0.51100000000E-03 0. -1.
        -11    1    3    3    0    0 -0.53311672987E+01  0.10690905183E+01  0.11575730587E+02  0.12789129688E+02  0.51100000000E-03 0.  1.
        -12    1    3    3    0    0 -0.18376219917E+01 -0.55351230346E+01  0.30543231330E+01  0.65835652494E+01  0.00000000000E+00 0.  1.
</event>
<event>
 7    1  0.8300060E-011  0.4778727E+02  0.7816164E-02  0.1312668E+00
        -11   -1    0    0    0    0  0.00000000000E+00  0.00000000000E+00  0.45593999997E+02  0.45594000000E+02  0.51100000000E-03 0. -1.
         11   -1    0    0    0    0 -0.00000000000E+00 -0.00000000000E+00 -0.45593999997E+02  0.45594000000E+02  0.51100000000E-03 0.  1.
    9900012    2    1    2    0    0 -0.11337214915E+02 -0.19487123310E+02 -0.37085612525E+02  0.47787273355E+02  0.20000010535E+02 0.  0.
         12    1    1    2    0    0  0.11337214915E+02  0.19487123310E+02  0.37085612525E+02  0.43400726645E+02  0.00000000000E+00 0. -1.
         11    1    3    3    0    0 -0.78421877360E+01 -0.95593331817E+01 -0.59542310666E+01  0.13723469941E+02  0.51100000000E-03 0. -1.
        -11    1    3    3    0    0  0.12902422357E+01 -0.12761363543E+01 -0.50876061783E+00  0.18846980259E+01  0.51100000000E-03 0.  1.
        -12    1    3    3    0    0 -0.47852694148E+01 -0.86516537740E+01 -0.30622620841E+02  0.32179105388E+02  0.00000000000E+00 0.  1.
</event>
<event>
 7    1  0.8300060E-011  0.4778727E+02  0.7816164E-02  0.1312668E+00
        -11   -1    0    0    0    0  0.00000000000E+00  0.00000000000E+00  0.45593999997E+02  0.45594000000E+02  0.51100000000E-03 0. -1.
         11   -1    0    0    0    0 -0.00000000000E+00 -0.00000000000E+00 -0.45593999997E+02  0.45594000000E+02  0.51100000000E-03 0.  1.
    9900012    2    1    2    0    0 -0.35825773859E+02 -0.15874507445E+02 -0.18658436044E+02  0.47787270803E+02  0.19999998898E+02 0.  0.
         12    1    1    2    0    0  0.35825773859E+02  0.15874507445E+02  0.18658436044E+02  0.43400729197E+02  0.00000000000E+00 0. -1.
         11    1    3    3    0    0 -0.29842925364E+01 -0.71402847745E+01 -0.68119074640E+01  0.10309789143E+02  0.51100000000E-03 0.  1.
        -11    1    3    3    0    0 -0.10973668272E+02 -0.23118086879E+01  0.10953862603E+01  0.11267906908E+02  0.51100000000E-03 0. -1.
        -12    1    3    3    0    0 -0.21867813051E+02 -0.64224139826E+01 -0.12941914840E+02  0.26209574753E+02  0.00000000000E+00 0.  1.
</event>
<event>
 7    1  0.8300060E-011  0.4778727E+02  0.7816164E-02  0.1312668E+00
        -11   -1    0    0    0    0  0.00000000000E+00  0.00000000000E+00  0.45593999997E+02  0.45594000000E+02  0.51100000000E-03 0. -1.
         11   -1    0    0    0    0 -0.00000000000E+00 -0.00000000000E+00 -0.45593999997E+02  0.45594000000E+02  0.51100000000E-03 0.  1.
    9900012    2    1    2    0    0  0.16763733927E+02 -0.21698120646E+02 -0.33642117792E+02  0.47787270694E+02  0.19999998404E+02 0.  0.
         12    1    1    2    0    0 -0.16763733927E+02  0.21698120646E+02  0.33642117792E+02  0.43400729306E+02  0.00000000000E+00 0. -1.
         11    1    3    3    0    0 -0.22015285487E+01 -0.78021376750E+01 -0.13156451230E+02  0.15453552649E+02  0.51100000000E-03 0. -1.
        -11    1    3    3    0    0  0.17768718021E+02 -0.13785152609E+02 -0.15769779504E+02  0.27467138883E+02  0.51100000000E-03 0.  1.
        -12    1    3    3    0    0  0.11965444546E+01 -0.11083036227E+00 -0.47158870576E+01  0.48665791621E+01  0.00000000000E+00 0.  1.
</event>
<event>
 7    1  0.8300060E-011  0.4778727E+02  0.7816164E-02  0.1312668E+00
        -11   -1    0    0    0    0  0.00000000000E+00  0.00000000000E+00  0.45593999997E+02  0.45594000000E+02  0.51100000000E-03 0. -1.
         11   -1    0    0    0    0 -0.00000000000E+00 -0.00000000000E+00 -0.45593999997E+02  0.45594000000E+02  0.51100000000E-03 0.  1.
    9900012    2    1    2    0    0 -0.33784200536E+02 -0.19969305129E+01 -0.27171001297E+02  0.47787271333E+02  0.20000001318E+02 0.  0.
         12    1    1    2    0    0  0.33784200536E+02  0.19969305129E+01  0.27171001297E+02  0.43400728667E+02  0.00000000000E+00 0. -1.
         11    1    3    3    0    0 -0.21916496462E+02 -0.40568566983E+01 -0.22439513531E+02  0.31627878070E+02  0.51100000000E-03 0.  1.
        -11    1    3    3    0    0 -0.83364675102E+01  0.58129984852E+01 -0.41340999737E+01  0.10971710204E+02  0.51100000000E-03 0. -1.
         12    1    3    3    0    0 -0.35312365642E+01 -0.37530722998E+01 -0.59738779181E+00  0.51876830602E+01  0.00000000000E+00 0. -1.
</event>
<event>
 7    1  0.8300060E-011  0.4778727E+02  0.7816164E-02  0.1312668E+00
        -11   -1    0    0    0    0  0.00000000000E+00  0.00000000000E+00  0.45593999997E+02  0.45594000000E+02  0.51100000000E-03 0. -1.
         11   -1    0    0    0    0 -0.00000000000E+00 -0.00000000000E+00 -0.45593999997E+02  0.45594000000E+02  0.51100000000E-03 0.  1.
    9900012    2    1    2    0    0  0.20656553459E+02  0.24476259965E+02 -0.29288956122E+02  0.47787268976E+02  0.19999990570E+02 0.  0.
         12    1    1    2    0    0 -0.20656553459E+02 -0.24476259965E+02  0.29288956122E+02  0.43400731024E+02  0.00000000000E+00 0. -1.
         11    1    3    3    0    0 -0.17856186079E+00  0.69587503639E+00  0.23311519433E+01  0.24393433641E+01  0.51100000000E-03 0. -1.
        -11    1    3    3    0    0  0.11410191232E+02  0.18009058898E+02 -0.18829146688E+02  0.28443899726E+02  0.51100000000E-03 0.  1.
         12    1    3    3    0    0  0.94249240882E+01  0.57713260302E+01 -0.12790961377E+02  0.16904025886E+02  0.00000000000E+00 0. -1.
</event>
<event>
 7    1  0.8300060E-011  0.4778727E+02  0.7816164E-02  0.1312668E+00
        -11   -1    0    0    0    0  0.00000000000E+00  0.00000000000E+00  0.45593999997E+02  0.45594000000E+02  0.51100000000E-03 0. -1.
         11   -1    0    0    0    0 -0.00000000000E+00 -0.00000000000E+00 -0.45593999997E+02  0.45594000000E+02  0.51100000000E-03 0.  1.
    9900012    2    1    2    0    0  0.28037247282E+01 -0.63924646145E+01  0.42835715337E+02  0.47787274376E+02  0.20000015191E+02 0.  0.
        -12    1    1    2    0    0 -0.28037247282E+01  0.63924646145E+01 -0.42835715337E+02  0.43400725624E+02  0.00000000000E+00 0.  1.
         11    1    3    3    0    0  0.78285831330E+01 -0.71401253609E+00  0.31495338576E+02  0.32461560038E+02  0.51100000000E-03 0. -1.
        -11    1    3    3    0    0  0.96183568867E+00  0.68946576227E+00  0.30807463767E+01  0.33002256632E+01  0.51100000000E-03 0.  1.
         12    1    3    3    0    0 -0.59866940935E+01 -0.63679178407E+01  0.82596303844E+01  0.12025488675E+02  0.00000000000E+00 0. -1.
</event>
<event>
 7    1  0.8300060E-011  0.4778727E+02  0.7816164E-02  0.1312668E+00
        -11   -1    0    0    0    0  0.00000000000E+00  0.00000000000E+00  0.45593999997E+02  0.45594000000E+02  0.51100000000E-03 0. -1.
         11   -1    0    0    0    0 -0.00000000000E+00 -0.00000000000E+00 -0.45593999997E+02  0.45594000000E+02  0.51100000000E-03 0.  1.
    9900012    2    1    2    0    0  0.16170220770E+02  0.17792349134E+02 -0.36132806988E+02  0.47787268805E+02  0.19999989787E+02 0.  0.
         12    1    1    2    0    0 -0.16170220770E+02 -0.17792349134E+02  0.36132806988E+02  0.43400731195E+02  0.00000000000E+00 0. -1.
         11    1    3    3    0    0  0.29970600415E+00 -0.32495704619E+01 -0.47591233210E+01  0.57705101093E+01  0.51100000000E-03 0. -1.
        -11    1    3    3    0    0  0.31903456656E+01  0.60380466436E+00 -0.72861323720E+01  0.79768797624E+01  0.51100000000E-03 0.  1.
         12    1    3    3    0    0  0.12680169100E+02  0.20438114932E+02 -0.24087551295E+02  0.34039878933E+02  0.00000000000E+00 0. -1.
</event>
<event>
 7    1  0.8300060E-011  0.4778728E+02  0.7816164E-02  0.1312668E+00
        -11   -1    0    0    0    0  0.00000000000E+00  0.00000000000E+00  0.45593999997E+02  0.45594000000E+02  0.51100000000E-03 0. -1.
         11   -1    0    0    0    0 -0.00000000000E+00 -0.00000000000E+00 -0.45593999997E+02  0.45594000000E+02  0.51100000000E-03 0.  1.
    9900012    2    1    2    0    0 -0.30526911856E+02 -0.18745197628E+02 -0.24502000657E+02  0.47787276298E+02  0.20000023955E+02 0.  0.
         12    1    1    2    0    0  0.30526911856E+02  0.18745197628E+02  0.24502000657E+02  0.43400723702E+02  0.00000000000E+00 0. -1.
         11    1    3    3    0    0  0.22786818148E+01  0.90374658872E+00 -0.83326395296E+00  0.25891075270E+01  0.51100000000E-03 0. -1.
        -11    1    3    3    0    0 -0.29543048701E+02 -0.19123007930E+02 -0.21901311271E+02  0.41450556022E+02  0.51100000000E-03 0.  1.
        -12    1    3    3    0    0 -0.32625449700E+01 -0.52593628701E+00 -0.17674254331E+01  0.37476127496E+01  0.00000000000E+00 0.  1.
</event>
<event>
 7    1  0.8300060E-011  0.4778727E+02  0.7816164E-02  0.1312668E+00
        -11   -1    0    0    0    0  0.00000000000E+00  0.00000000000E+00  0.45593999997E+02  0.45594000000E+02  0.51100000000E-03 0. -1.
         11   -1    0    0    0    0 -0.00000000000E+00 -0.00000000000E+00 -0.45593999997E+02  0.45594000000E+02  0.51100000000E-03 0.  1.
    9900012    2    1    2    0    0 -0.41997843002E+02 -0.42003517165E+00 -0.10937449315E+02  0.47787273694E+02  0.20000012080E+02 0.  0.
         12    1    1    2    0    0  0.41997843002E+02  0.42003517165E+00  0.10937449315E+02  0.43400726306E+02  0.00000000000E+00 0. -1.
         11    1    3    3    0    0 -0.11810964642E+01  0.26547905811E+01  0.21007166293E+01  0.35855142595E+01  0.51100000000E-03 0. -1.
        -11    1    3    3    0    0 -0.38804648928E+02 -0.34107230551E+01 -0.94655801356E+01  0.40087791381E+02  0.51100000000E-03 0.  1.
        -12    1    3    3    0    0 -0.20120976094E+01  0.33589730237E+00 -0.35725858087E+01  0.41139680539E+01  0.00000000000E+00 0.  1.
</event>
<event>
 7    1  0.8300060E-011  0.4778727E+02  0.7816164E-02  0.1312668E+00
        -11   -1    0    0    0    0  0.00000000000E+00  0.00000000000E+00  0.45593999997E+02  0.45594000000E+02  0.51100000000E-03 0. -1.
         11   -1    0    0    0    0 -0.00000000000E+00 -0.00000000000E+00 -0.45593999997E+02  0.45594000000E+02  0.51100000000E-03 0.  1.
    9900012    2    1    2    0    0  0.34402020019E+02 -0.11091287657E+02 -0.24023064412E+02  0.47787271123E+02  0.20000000360E+02 0.  0.
         12    1    1    2    0    0 -0.34402020019E+02  0.11091287657E+02  0.24023064412E+02  0.43400728877E+02  0.00000000000E+00 0. -1.
         11    1    3    3    0    0  0.12627350032E+02 -0.12413843592E+02 -0.58307002269E+01  0.18642707608E+02  0.51100000000E-03 0. -1.
        -11    1    3    3    0    0  0.10013645258E+02  0.33545406091E+01 -0.63058900760E+01  0.12300011543E+02  0.51100000000E-03 0.  1.
        -12    1    3    3    0    0  0.11761024728E+02 -0.20319846738E+01 -0.11886474109E+02  0.16844551972E+02  0.00000000000E+00 0.  1.
</event>
<event>
 7    1  0.8300060E-011  0.4778727E+02  0.7816164E-02  0.1312668E+00
        -11   -1    0    0    0    0  0.00000000000E+00  0.00000000000E+00  0.45593999997E+02  0.45594000000E+02  0.51100000000E-03 0. -1.
         11   -1    0    0    0    0 -0.00000000000E+00 -0.00000000000E+00 -0.45593999997E+02  0.45594000000E+02  0.51100000000E-03 0.  1.
    9900012    2    1    2    0    0 -0.15851164760E+01  0.42415392255E+02  0.90578886678E+01  0.47787269113E+02  0.19999991195E+02 0.  0.
        -12    1    1    2    0    0  0.15851164760E+01 -0.42415392255E+02 -0.90578886678E+01  0.43400730887E+02  0.00000000000E+00 0.  1.
         11    1    3    3    0    0 -0.34658647675E+01  0.12242182609E+02 -0.30665033276E+01  0.13087654356E+02  0.51100000000E-03 0.  1.
        -11    1    3    3    0    0  0.18887764475E+01  0.31238406077E+02  0.12288905584E+02  0.33621759196E+02  0.51100000000E-03 0. -1.
        -12    1    3    3    0    0 -0.80281559543E-02 -0.10651964318E+01 -0.16451358888E+00  0.10778555611E+01  0.00000000000E+00 0.  1.
</event>
<event>
 7    1 -0.8300060E-011  0.4778727E+02  0.7816164E-02  0.1312668E+00
        -11   -1    0    0    0    0  0.00000000000E+00  0.00000000000E+00  0.45593999997E+02  0.45594000000E+02  0.51100000000E-03 0. -1.
         11   -1    0    0    0    0 -0.00000000000E+00 -0.00000000000E+00 -0.45593999997E+02  0.45594000000E+02  0.51100000000E-03 0.  1.
    9900012    2    1    2    0    0  0.40016784288E+02  0.13144559242E+02  0.10464272557E+02  0.47787268871E+02  0.19999990090E+02 0.  0.
        -12    1    1    2    0    0 -0.40016784288E+02 -0.13144559242E+02 -0.10464272557E+02  0.43400731129E+02  0.00000000000E+00 0.  1.
         11    1    3    3    0    0  0.23410082271E+02  0.12960641509E+02  0.12916438649E+01  0.26789522661E+02  0.51100000000E-03 0. -1.
        -11    1    3    3    0    0  0.31965561184E+01 -0.11902057265E+01 -0.15753045913E+01  0.37571459256E+01  0.51100000000E-03 0.  1.
         12    1    3    3    0    0  0.13410145898E+02  0.13741234588E+01  0.10747933283E+02  0.17240600284E+02  0.00000000000E+00 0. -1.
</event>
<event>
 7    1  0.8300060E-011  0.4778727E+02  0.7816164E-02  0.1312668E+00
        -11   -1    0    0    0    0  0.00000000000E+00  0.00000000000E+00  0.45593999997E+02  0.45594000000E+02  0.51100000000E-03 0. -1.
         11   -1    0    0    0    0 -0.00000000000E+00 -0.00000000000E+00 -0.45593999997E+02  0.45594000000E+02  0.51100000000E-03 0.  1.
    9900012    2    1    2    0    0  0.12160725365E+02  0.15591178600E+02  0.38634895878E+02  0.47787271077E+02  0.20000000147E+02 0.  0.
        -12    1    1    2    0    0 -0.12160725365E+02 -0.15591178600E+02 -0.38634895878E+02  0.43400728923E+02  0.00000000000E+00 0.  1.
         11    1    3    3    0    0  0.38021676589E+01  0.99547743971E+01  0.17301496188E+02  0.20319837175E+02  0.51100000000E-03 0. -1.
        -11    1    3    3    0    0 -0.37427184699E+01  0.81602750755E+00  0.25220224220E+01  0.45863318454E+01  0.51100000000E-03 0.  1.
        -12    1    3    3    0    0  0.12101276176E+02  0.48203766953E+01  0.18811377269E+02  0.22881102056E+02  0.00000000000E+00 0.  1.
</event>
<event>
 7    1  0.8300060E-011  0.4778727E+02  0.7816164E-02  0.1312668E+00
        -11   -1    0    0    0    0  0.00000000000E+00  0.00000000000E+00  0.45593999997E+02  0.45594000000E+02  0.51100000000E-03 0. -1.
         11   -1    0    0    0    0 -0.00000000000E+00 -0.00000000000E+00 -0.45593999997E+02  0.45594000000E+02  0.51100000000E-03 0.  1.
    9900012    2    1    2    0    0  0.33599398733E+02 -0.24097332669E+02  0.13191746558E+02  0.47787271731E+02  0.20000003131E+02 0.  0.
        -12    1    1    2    0    0 -0.33599398733E+02  0.24097332669E+02 -0.13191746558E+02  0.43400728269E+02  0.00000000000E+00 0.  1.
         11    1    3    3    0    0  0.29885449768E+02 -0.17352770796E+02  0.14437074690E+02  0.37452475058E+02  0.51100000000E-03 0. -1.
        -11    1    3    3    0    0  0.37624600960E+01 -0.15931991490E+01 -0.28005949336E+01  0.49535564745E+01  0.51100000000E-03 0.  1.
         12    1    3    3    0    0 -0.48511130659E-01 -0.51513627246E+01  0.15552668013E+01  0.53812401985E+01  0.00000000000E+00 0. -1.
</event>
<event>
 7    1  0.8300060E-011  0.4778727E+02  0.7816164E-02  0.1312668E+00
        -11   -1    0    0    0    0  0.00000000000E+00  0.00000000000E+00  0.45593999997E+02  0.45594000000E+02  0.51100000000E-03 0. -1.
         11   -1    0    0    0    0 -0.00000000000E+00 -0.00000000000E+00 -0.45593999997E+02  0.45594000000E+02  0.51100000000E-03 0.  1.
    9900012    2    1    2    0    0 -0.22997273705E+02 -0.19480229982E+02 -0.31229302141E+02  0.47787271086E+02  0.20000000190E+02 0.  0.
         12    1    1    2    0    0  0.22997273705E+02  0.19480229982E+02  0.31229302141E+02  0.43400728914E+02  0.00000000000E+00 0. -1.
         11    1    3    3    0    0 -0.37031976706E+01 -0.12493353340E+02 -0.55337942111E+01  0.14156992241E+02  0.51100000000E-03 0. -1.
        -11    1    3    3    0    0 -0.16971300555E+02 -0.83832489385E+01 -0.21614842299E+02  0.28731608259E+02  0.51100000000E-03 0.  1.
        -12    1    3    3    0    0 -0.23227754798E+01  0.13963722963E+01 -0.40806656306E+01  0.48986705858E+01  0.00000000000E+00 0.  1.
</event>
<event>
 7    1  0.8300060E-011  0.4778727E+02  0.7816164E-02  0.1312668E+00
        -11   -1    0    0    0    0  0.00000000000E+00  0.00000000000E+00  0.45593999997E+02  0.45594000000E+02  0.51100000000E-03 0. -1.
         11   -1    0    0    0    0 -0.00000000000E+00 -0.00000000000E+00 -0.45593999997E+02  0.45594000000E+02  0.51100000000E-03 0.  1.
    9900012    2    1    2    0    0  0.16982333278E+02 -0.11203825559E+02 -0.38336639014E+02  0.47787271416E+02  0.20000001693E+02 0.  0.
         12    1    1    2    0    0 -0.16982333278E+02  0.11203825559E+02  0.38336639014E+02  0.43400728584E+02  0.00000000000E+00 0. -1.
         11    1    3    3    0    0 -0.12583556306E+01 -0.33846427605E+00 -0.14115531838E+02  0.14175551357E+02  0.51100000000E-03 0. -1.
        -11    1    3    3    0    0  0.11397747235E+02 -0.10739293291E+02 -0.20575726566E+02  0.25857331386E+02  0.51100000000E-03 0.  1.
         12    1    3    3    0    0  0.68429416739E+01 -0.12606799189E+00 -0.36453806107E+01  0.77543886727E+01  0.00000000000E+00 0. -1.
</event>
<event>
 7    1  0.8300060E-011  0.4778727E+02  0.7816164E-02  0.1312668E+00
        -11   -1    0    0    0    0  0.00000000000E+00  0.00000000000E+00  0.45593999997E+02  0.45594000000E+02  0.51100000000E-03 0. -1.
         11   -1    0    0    0    0 -0.00000000000E+00 -0.00000000000E+00 -0.45593999997E+02  0.45594000000E+02  0.51100000000E-03 0.  1.
    9900012    2    1    2    0    0 -0.23991938444E+02  0.18657964283E+02  0.30982102749E+02  0.47787269220E+02  0.19999991683E+02 0.  0.
        -12    1    1    2    0    0  0.23991938444E+02 -0.18657964283E+02 -0.30982102749E+02  0.43400730780E+02  0.00000000000E+00 0.  1.
         11    1    3    3    0    0 -0.19133102637E+02  0.20626889663E+02  0.31413495614E+02  0.42170509845E+02  0.51100000000E-03 0. -1.
        -11    1    3    3    0    0 -0.18901202758E+01 -0.18164913042E+01 -0.33248589390E+00  0.26424879274E+01  0.51100000000E-03 0.  1.
         12    1    3    3    0    0 -0.29687155319E+01 -0.15243407584E+00 -0.98906971203E-01  0.29742714479E+01  0.00000000000E+00 0. -1.
</event>
<event>
 7    1  0.8300060E-011  0.4778727E+02  0.7816164E-02  0.1312668E+00
        -11   -1    0    0    0    0  0.00000000000E+00  0.00000000000E+00  0.45593999997E+02  0.45594000000E+02  0.51100000000E-03 0. -1.
         11   -1    0    0    0    0 -0.00000000000E+00 -0.00000000000E+00 -0.45593999997E+02  0.45594000000E+02  0.51100000000E-03 0.  1.
    9900012    2    1    2    0    0  0.55435667522E+01 -0.19247879411E+02 -0.38502091955E+02  0.47787273289E+02  0.20000010232E+02 0.  0.
         12    1    1    2    0    0 -0.55435667522E+01  0.19247879411E+02  0.38502091955E+02  0.43400726711E+02  0.00000000000E+00 0. -1.
         11    1    3    3    0    0  0.13992206129E+01 -0.92751782499E+01 -0.31001927709E+02  0.32389910031E+02  0.51100000000E-03 0.  1.
        -11    1    3    3    0    0  0.62245786174E+01 -0.56816124570E+01 -0.33275226262E+01  0.90608225987E+01  0.51100000000E-03 0. -1.
         12    1    3    3    0    0 -0.20802324782E+01 -0.42910887042E+01 -0.41726416200E+01  0.63365406587E+01  0.00000000000E+00 0. -1.
</event>
<event>
 7    1  0.8300060E-011  0.4778727E+02  0.7816164E-02  0.1312668E+00
        -11   -1    0    0    0    0  0.00000000000E+00  0.00000000000E+00  0.45593999997E+02  0.45594000000E+02  0.51100000000E-03 0. -1.
         11   -1    0    0    0    0 -0.00000000000E+00 -0.00000000000E+00 -0.45593999997E+02  0.45594000000E+02  0.51100000000E-03 0.  1.
    9900012    2    1    2    0    0  0.24412448823E+02 -0.31631140558E+02  0.16944803612E+02  0.47787273278E+02  0.20000010184E+02 0.  0.
        -12    1    1    2    0    0 -0.24412448823E+02  0.31631140558E+02 -0.16944803612E+02  0.43400726722E+02  0.00000000000E+00 0.  1.
         11    1    3    3    0    0  0.82485164404E+01 -0.77947133594E+01  0.65866586571E+00  0.11367911893E+02  0.51100000000E-03 0. -1.
        -11    1    3    3    0    0  0.14352600342E+01 -0.11413167362E+02  0.50654417680E+00  0.11514206349E+02  0.51100000000E-03 0.  1.
        -12    1    3    3    0    0  0.14728672348E+02 -0.12423259837E+02  0.15779593570E+02  0.24905155036E+02  0.00000000000E+00 0.  1.
</event>
<event>
 7    1  0.8300060E-011  0.4778727E+02  0.7816164E-02  0.1312668E+00
        -11   -1    0    0    0    0  0.00000000000E+00  0.00000000000E+00  0.45593999997E+02  0.45594000000E+02  0.51100000000E-03 0. -1.
         11   -1    0    0    0    0 -0.00000000000E+00 -0.00000000000E+00 -0.45593999997E+02  0.45594000000E+02  0.51100000000E-03 0.  1.
    9900012    2    1    2    0    0  0.94429719843E+01 -0.41706081868E+02 -0.74200044933E+01  0.47787269000E+02  0.19999990676E+02 0.  0.
         12    1    1    2    0    0 -0.94429719843E+01  0.41706081868E+02  0.74200044933E+01  0.43400731000E+02  0.00000000000E+00 0. -1.
         11    1    3    3    0    0 -0.25996972372E+01 -0.11110978539E+02  0.27421468249E+01  0.11735912375E+02  0.51100000000E-03 0. -1.
        -11    1    3    3    0    0  0.13348728524E+02 -0.28201642602E+02 -0.71920204345E+01  0.32019468403E+02  0.51100000000E-03 0.  1.
        -12    1    3    3    0    0 -0.13060593028E+01 -0.23934607278E+01 -0.29701308837E+01  0.40318882207E+01  0.00000000000E+00 0.  1.
</event>
<event>
 7    1  0.8300060E-011  0.4778726E+02  0.7816164E-02  0.1312668E+00
        -11   -1    0    0    0    0  0.00000000000E+00  0.00000000000E+00  0.45593999997E+02  0.45594000000E+02  0.51100000000E-03 0. -1.
         11   -1    0    0    0    0 -0.00000000000E+00 -0.00000000000E+00 -0.45593999997E+02  0.45594000000E+02  0.51100000000E-03 0.  1.
    9900012    2    1    2    0    0  0.26929990354E+02  0.12313738995E+02 -0.31729659549E+02  0.47787264480E+02  0.19999970072E+02 0.  0.
         12    1    1    2    0    0 -0.26929990354E+02 -0.12313738995E+02  0.31729659549E+02  0.43400735520E+02  0.00000000000E+00 0. -1.
         11    1    3    3    0    0  0.11636441267E+02  0.64498079158E+00 -0.14593952692E+01  0.11745322490E+02  0.51100000000E-03 0. -1.
        -11    1    3    3    0    0  0.13083678296E+02  0.10673713512E+02 -0.28129829874E+02  0.32808506929E+02  0.51100000000E-03 0.  1.
        -12    1    3    3    0    0  0.22098707909E+01  0.99504469133E+00 -0.21404344066E+01  0.32334350619E+01  0.00000000000E+00 0.  1.
</event>
<event>
 7    1  0.8300060E-011  0.4778724E+02  0.7816164E-02  0.1312668E+00
        -11   -1    0    0    0    0  0.00000000000E+00  0.00000000000E+00  0.45593999997E+02  0.45594000000E+02  0.51100000000E-03 0.  1.
         11   -1    0    0    0    0 -0.00000000000E+00 -0.00000000000E+00 -0.45593999997E+02  0.45594000000E+02  0.51100000000E-03 0. -1.
    9900012    2    1    2    0    0 -0.25871383675E+02  0.13832574416E+02 -0.31983705928E+02  0.47787239026E+02  0.19999854013E+02 0.  0.
         12    1    1    2    0    0  0.25871383675E+02 -0.13832574416E+02  0.31983705928E+02  0.43400760974E+02  0.00000000000E+00 0. -1.
         11    1    3    3    0    0 -0.13536268478E+02 -0.37011703516E+00 -0.15643581984E+02  0.20690316780E+02  0.51100000000E-03 0. -1.
        -11    1    3    3    0    0 -0.11337212061E+02  0.14663788239E+02 -0.10807250309E+02  0.21455901807E+02  0.51100000000E-03 0.  1.
        -12    1    3    3    0    0 -0.99790313616E+00 -0.46109678863E+00 -0.55328736357E+01  0.56410204384E+01  0.00000000000E+00 0.  1.
</event>
<event>
 7    1  0.8300060E-011  0.4778727E+02  0.7816164E-02  0.1312668E+00
        -11   -1    0    0    0    0  0.00000000000E+00  0.00000000000E+00  0.45593999997E+02  0.45594000000E+02  0.51100000000E-03 0. -1.
         11   -1    0    0    0    0 -0.00000000000E+00 -0.00000000000E+00 -0.45593999997E+02  0.45594000000E+02  0.51100000000E-03 0.  1.
    9900012    2    1    2    0    0  0.41641565664E+02 -0.11909063483E+02 -0.27888112003E+01  0.47787271298E+02  0.20000001154E+02 0.  0.
         12    1    1    2    0    0 -0.41641565664E+02  0.11909063483E+02  0.27888112003E+01  0.43400728702E+02  0.00000000000E+00 0. -1.
         11    1    3    3    0    0  0.11347058354E+02 -0.10334817590E+02 -0.57425540612E+01  0.16387224149E+02  0.51100000000E-03 0. -1.
        -11    1    3    3    0    0  0.60770888904E+01 -0.33030794753E+01  0.14999394021E+01  0.70775109942E+01  0.51100000000E-03 0.  1.
         12    1    3    3    0    0  0.24217418419E+02  0.17288335828E+01  0.14538034588E+01  0.24322536154E+02  0.00000000000E+00 0. -1.
</event>
<event>
 7    1  0.8300060E-011  0.4778727E+02  0.7816164E-02  0.1312668E+00
        -11   -1    0    0    0    0  0.00000000000E+00  0.00000000000E+00  0.45593999997E+02  0.45594000000E+02  0.51100000000E-03 0. -1.
         11   -1    0    0    0    0 -0.00000000000E+00 -0.00000000000E+00 -0.45593999997E+02  0.45594000000E+02  0.51100000000E-03 0.  1.
    9900012    2    1    2    0    0  0.22733444231E+02 -0.16851954266E+02  0.32906315924E+02  0.47787268705E+02  0.19999989334E+02 0.  0.
        -12    1    1    2    0    0 -0.22733444231E+02  0.16851954266E+02 -0.32906315924E+02  0.43400731295E+02  0.00000000000E+00 0.  1.
         11    1    3    3    0    0  0.67589862497E+01 -0.87944453478E+01  0.11573155109E+02  0.16030099299E+02  0.51100000000E-03 0. -1.
        -11    1    3    3    0    0  0.43396032133E+01 -0.43460830712E+01 -0.10769927071E+01  0.62354236154E+01  0.51100000000E-03 0.  1.
        -12    1    3    3    0    0  0.11634854768E+02 -0.37114258472E+01  0.22410153523E+02  0.25521745791E+02  0.00000000000E+00 0.  1.
</event>
<event>
 7    1  0.8300060E-011  0.4778727E+02  0.7816164E-02  0.1312668E+00
        -11   -1    0    0    0    0  0.00000000000E+00  0.00000000000E+00  0.45593999997E+02  0.45594000000E+02  0.51100000000E-03 0. -1.
         11   -1    0    0    0    0 -0.00000000000E+00 -0.00000000000E+00 -0.45593999997E+02  0.45594000000E+02  0.51100000000E-03 0.  1.
    9900012    2    1    2    0    0 -0.25769452450E+02  0.18646400356E+02  0.29527450658E+02  0.47787271110E+02  0.20000000299E+02 0.  0.
        -12    1    1    2    0    0  0.25769452450E+02 -0.18646400356E+02 -0.29527450658E+02  0.43400728890E+02  0.00000000000E+00 0.  1.
         11    1    3    3    0    0 -0.13902390922E+02  0.17551239010E+02  0.17231703745E+02  0.28253390564E+02  0.51100000000E-03 0. -1.
        -11    1    3    3    0    0 -0.18758156673E+01  0.22972269366E+00  0.86642609436E+01  0.88679690399E+01  0.51100000000E-03 0.  1.
         12    1    3    3    0    0 -0.99912458604E+01  0.86543865156E+00  0.36314859695E+01  0.10665911506E+02  0.00000000000E+00 0. -1.
</event>
<event>
 7    1  0.8300060E-011  0.4778727E+02  0.7816164E-02  0.1312668E+00
        -11   -1    0    0    0    0  0.00000000000E+00  0.00000000000E+00  0.45593999997E+02  0.45594000000E+02  0.51100000000E-03 0. -1.
         11   -1    0    0    0    0 -0.00000000000E+00 -0.00000000000E+00 -0.45593999997E+02  0.45594000000E+02  0.51100000000E-03 0.  1.
    9900012    2    1    2    0    0 -0.89589682386E+01 -0.12636793235E+02  0.40542219284E+02  0.47787271899E+02  0.20000003897E+02 0.  0.
        -12    1    1    2    0    0  0.89589682386E+01  0.12636793235E+02 -0.40542219284E+02  0.43400728101E+02  0.00000000000E+00 0.  1.
         11    1    3    3    0    0 -0.58771802448E+01 -0.15173426254E+02  0.22671494179E+02  0.27906464492E+02  0.51100000000E-03 0. -1.
        -11    1    3    3    0    0 -0.13919937841E+01 -0.16128337481E+01  0.87277971455E+00  0.23023084253E+01  0.51100000000E-03 0.  1.
         12    1    3    3    0    0 -0.16897942098E+01  0.41494667665E+01  0.16997945391E+02  0.17578498982E+02  0.00000000000E+00 0. -1.
</event>
<event>
 7    1  0.8300060E-011  0.4778727E+02  0.7816164E-02  0.1312668E+00
        -11   -1    0    0    0    0  0.00000000000E+00  0.00000000000E+00  0.45593999997E+02  0.45594000000E+02  0.51100000000E-03 0. -1.
         11   -1    0    0    0    0 -0.00000000000E+00 -0.00000000000E+00 -0.45593999997E+02  0.45594000000E+02  0.51100000000E-03 0.  1.
    9900012    2    1    2    0    0 -0.30282342726E+02  0.48283460131E+01  0.30713025825E+02  0.47787272339E+02  0.20000005900E+02 0.  0.
        -12    1    1    2    0    0  0.30282342726E+02 -0.48283460131E+01 -0.30713025825E+02  0.43400727661E+02  0.00000000000E+00 0.  1.
         11    1    3    3    0    0  0.25022910597E-01 -0.87902149918E+00  0.51092735466E+01  0.51843978799E+01  0.51100000000E-03 0. -1.
        -11    1    3    3    0    0 -0.21566022675E+02 -0.44311112527E+00  0.10216486683E+02  0.23867682793E+02  0.51100000000E-03 0.  1.
        -12    1    3    3    0    0 -0.87413429616E+01  0.61504786376E+01  0.15387265595E+02  0.18735191666E+02  0.00000000000E+00 0.  1.
</event>
<event>
 7    1  0.8300060E-011  0.4778727E+02  0.7816164E-02  0.1312668E+00
        -11   -1    0    0    0    0  0.00000000000E+00  0.00000000000E+00  0.45593999997E+02  0.45594000000E+02  0.51100000000E-03 0.  1.
         11   -1    0    0    0    0 -0.00000000000E+00 -0.00000000000E+00 -0.45593999997E+02  0.45594000000E+02  0.51100000000E-03 0. -1.
    9900012    2    1    2    0    0 -0.48797537383E+01 -0.42821124719E+02 -0.51149320922E+01  0.47787271330E+02  0.20000001303E+02 0.  0.
        -12    1    1    2    0    0  0.48797537383E+01  0.42821124719E+02  0.51149320922E+01  0.43400728670E+02  0.00000000000E+00 0.  1.
         11    1    3    3    0    0 -0.11681800177E+00 -0.68960127820E+01  0.48508964584E+01  0.84320718360E+01  0.51100000000E-03 0. -1.
        -11    1    3    3    0    0 -0.23377866630E+01 -0.17937103093E+02 -0.11007209881E+02  0.21174597599E+02  0.51100000000E-03 0.  1.
        -12    1    3    3    0    0 -0.24251490736E+01 -0.17988008844E+02  0.10413813302E+01  0.18180601895E+02  0.00000000000E+00 0.  1.
</event>
<event>
 7    1  0.8300060E-011  0.4778727E+02  0.7816164E-02  0.1312668E+00
        -11   -1    0    0    0    0  0.00000000000E+00  0.00000000000E+00  0.45593999997E+02  0.45594000000E+02  0.51100000000E-03 0. -1.
         11   -1    0    0    0    0 -0.00000000000E+00 -0.00000000000E+00 -0.45593999997E+02  0.45594000000E+02  0.51100000000E-03 0.  1.
    9900012    2    1    2    0    0 -0.15446660088E+02 -0.23294947436E+02 -0.33201954117E+02  0.47787266813E+02  0.19999980709E+02 0.  0.
         12    1    1    2    0    0  0.15446660088E+02  0.23294947436E+02  0.33201954117E+02  0.43400733187E+02  0.00000000000E+00 0. -1.
         11    1    3    3    0    0 -0.73446964975E+01 -0.18597932205E+01 -0.85139414892E+01  0.11396955620E+02  0.51100000000E-03 0. -1.
        -11    1    3    3    0    0  0.36554263416E+01 -0.83315367459E+01 -0.75820437450E+01  0.11843311779E+02  0.51100000000E-03 0.  1.
        -12    1    3    3    0    0 -0.11757389933E+02 -0.13103617469E+02 -0.17105968883E+02  0.24546999414E+02  0.00000000000E+00 0.  1.
</event>
<event>
 7    1  0.8300060E-011  0.4778727E+02  0.7816164E-02  0.1312668E+00
        -11   -1    0    0    0    0  0.00000000000E+00  0.00000000000E+00  0.45593999997E+02  0.45594000000E+02  0.51100000000E-03 0. -1.
         11   -1    0    0    0    0 -0.00000000000E+00 -0.00000000000E+00 -0.45593999997E+02  0.45594000000E+02  0.51100000000E-03 0.  1.
    9900012    2    1    2    0    0  0.11115076962E+02  0.28273095420E+01  0.41857911774E+02  0.47787269670E+02  0.19999993731E+02 0.  0.
        -12    1    1    2    0    0 -0.11115076962E+02 -0.28273095420E+01 -0.41857911774E+02  0.43400730330E+02  0.00000000000E+00 0.  1.
         11    1    3    3    0    0  0.94795945287E+01  0.84794796567E+00  0.42279490747E+02  0.43337478771E+02  0.51100000000E-03 0. -1.
        -11    1    3    3    0    0  0.21761696773E+01  0.27177897381E+01 -0.11146770843E+00  0.34834639134E+01  0.51100000000E-03 0.  1.
         12    1    3    3    0    0 -0.54068724373E+00 -0.73842816174E+00 -0.31011126422E+00  0.96632698492E+00  0.00000000000E+00 0. -1.
</event>
<event>
 7    1  0.8300060E-011  0.4778727E+02  0.7816164E-02  0.1312668E+00
        -11   -1    0    0    0    0  0.00000000000E+00  0.00000000000E+00  0.45593999997E+02  0.45594000000E+02  0.51100000000E-03 0. -1.
         11   -1    0    0    0    0 -0.00000000000E+00 -0.00000000000E+00 -0.45593999997E+02  0.45594000000E+02  0.51100000000E-03 0.  1.
    9900012    2    1    2    0    0  0.33493237105E+02  0.34048705850E+01  0.27390384131E+02  0.47787271685E+02  0.20000002920E+02 0.  0.
        -12    1    1    2    0    0 -0.33493237105E+02 -0.34048705850E+01 -0.27390384131E+02  0.43400728315E+02  0.00000000000E+00 0.  1.
         11    1    3    3    0    0  0.15842310817E+02  0.51888689232E+01  0.17827092180E+02  0.24407138066E+02  0.51100000000E-03 0. -1.
        -11    1    3    3    0    0  0.97257193807E+01 -0.59772203066E+01  0.18740838624E+01  0.11568447201E+02  0.51100000000E-03 0.  1.
         12    1    3    3    0    0  0.79252069073E+01  0.41932219685E+01  0.76892080883E+01  0.11811686417E+02  0.00000000000E+00 0. -1.
</event>
<event>
 7    1  0.8300060E-011  0.4778727E+02  0.7816164E-02  0.1312668E+00
        -11   -1    0    0    0    0  0.00000000000E+00  0.00000000000E+00  0.45593999997E+02  0.45594000000E+02  0.51100000000E-03 0. -1.
         11   -1    0    0    0    0 -0.00000000000E+00 -0.00000000000E+00 -0.45593999997E+02  0.45594000000E+02  0.51100000000E-03 0.  1.
    9900012    2    1    2    0    0 -0.17043204582E+02  0.17621468223E+02  0.35813912683E+02  0.47787270669E+02  0.19999998289E+02 0.  0.
        -12    1    1    2    0    0  0.17043204582E+02 -0.17621468223E+02 -0.35813912683E+02  0.43400729331E+02  0.00000000000E+00 0.  1.
         11    1    3    3    0    0  0.27924993279E+01  0.52061438308E+01  0.50403925017E+01  0.77657931286E+01  0.51100000000E-03 0.  1.
        -11    1    3    3    0    0 -0.15247953815E+02  0.43854519606E+01  0.22993044820E+02  0.27935862163E+02  0.51100000000E-03 0. -1.
         12    1    3    3    0    0 -0.45877500951E+01  0.80298724319E+01  0.77804753620E+01  0.12085615378E+02  0.00000000000E+00 0. -1.
</event>
<event>
 7    1  0.8300060E-011  0.4778727E+02  0.7816164E-02  0.1312668E+00
        -11   -1    0    0    0    0  0.00000000000E+00  0.00000000000E+00  0.45593999997E+02  0.45594000000E+02  0.51100000000E-03 0. -1.
         11   -1    0    0    0    0 -0.00000000000E+00 -0.00000000000E+00 -0.45593999997E+02  0.45594000000E+02  0.51100000000E-03 0.  1.
    9900012    2    1    2    0    0 -0.40548165017E+02  0.81766044576E+01  0.13138214368E+02  0.47787271625E+02  0.20000002645E+02 0.  0.
        -12    1    1    2    0    0  0.40548165017E+02 -0.81766044576E+01 -0.13138214368E+02  0.43400728375E+02  0.00000000000E+00 0.  1.
         11    1    3    3    0    0 -0.34032393016E+02  0.27334140722E+01  0.12988782244E+02  0.36529218323E+02  0.51100000000E-03 0. -1.
        -11    1    3    3    0    0  0.10071322128E+01  0.55983412892E+00 -0.17451393455E+01  0.20912295766E+01  0.51100000000E-03 0.  1.
        -12    1    3    3    0    0 -0.75229042144E+01  0.48833562565E+01  0.18945714695E+01  0.91668237247E+01  0.00000000000E+00 0.  1.
</event>
<event>
 7    1  0.8300060E-011  0.4778727E+02  0.7816164E-02  0.1312668E+00
        -11   -1    0    0    0    0  0.00000000000E+00  0.00000000000E+00  0.45593999997E+02  0.45594000000E+02  0.51100000000E-03 0. -1.
         11   -1    0    0    0    0 -0.00000000000E+00 -0.00000000000E+00 -0.45593999997E+02  0.45594000000E+02  0.51100000000E-03 0.  1.
    9900012    2    1    2    0    0  0.26108267983E+02 -0.17764683564E+02 -0.29772430956E+02  0.47787270925E+02  0.19999999456E+02 0.  0.
         12    1    1    2    0    0 -0.26108267983E+02  0.17764683564E+02  0.29772430956E+02  0.43400729075E+02  0.00000000000E+00 0. -1.
         11    1    3    3    0    0 -0.70518679282E+00 -0.37992038879E+00  0.88179652593E+00  0.11912989922E+01  0.51100000000E-03 0. -1.
        -11    1    3    3    0    0  0.23420196084E+02 -0.18383151473E+02 -0.31072495816E+02  0.43034240311E+02  0.51100000000E-03 0.  1.
        -12    1    3    3    0    0  0.33932586920E+01  0.99838829796E+00  0.41826833383E+00  0.35617316215E+01  0.00000000000E+00 0.  1.
</event>
<event>
 7    1  0.8300060E-011  0.4778727E+02  0.7816164E-02  0.1312668E+00
        -11   -1    0    0    0    0  0.00000000000E+00  0.00000000000E+00  0.45593999997E+02  0.45594000000E+02  0.51100000000E-03 0.  1.
         11   -1    0    0    0    0 -0.00000000000E+00 -0.00000000000E+00 -0.45593999997E+02  0.45594000000E+02  0.51100000000E-03 0. -1.
    9900012    2    1    2    0    0 -0.23430029640E+02  0.29943701155E+02 -0.20929209579E+02  0.47787270267E+02  0.19999996455E+02 0.  0.
         12    1    1    2    0    0  0.23430029640E+02 -0.29943701155E+02  0.20929209579E+02  0.43400729733E+02  0.00000000000E+00 0. -1.
         11    1    3    3    0    0 -0.94825489764E+01  0.25049098987E+01 -0.16447875370E+00  0.98091978374E+01  0.51100000000E-03 0. -1.
        -11    1    3    3    0    0 -0.53494296344E+01  0.14548566445E+02 -0.61433575812E+01  0.16673872545E+02  0.51100000000E-03 0.  1.
         12    1    3    3    0    0 -0.85980510292E+01  0.12890224811E+02 -0.14621373244E+02  0.21304199885E+02  0.00000000000E+00 0. -1.
</event>
<event>
 7    1  0.8300060E-011  0.4778727E+02  0.7816164E-02  0.1312668E+00
        -11   -1    0    0    0    0  0.00000000000E+00  0.00000000000E+00  0.45593999997E+02  0.45594000000E+02  0.51100000000E-03 0. -1.
         11   -1    0    0    0    0 -0.00000000000E+00 -0.00000000000E+00 -0.45593999997E+02  0.45594000000E+02  0.51100000000E-03 0.  1.
    9900012    2    1    2    0    0  0.38257492219E+01 -0.25210557445E+02  0.35120009845E+02  0.47787266650E+02  0.19999979965E+02 0.  0.
        -12    1    1    2    0    0 -0.38257492219E+01  0.25210557445E+02 -0.35120009845E+02  0.43400733350E+02  0.00000000000E+00 0.  1.
         11    1    3    3    0    0  0.20186221972E+01  0.55115975761E+00  0.10061631179E+02  0.10276917577E+02  0.51100000000E-03 0. -1.
        -11    1    3    3    0    0  0.45064837720E+01 -0.22682785445E+02  0.23895494155E+02  0.33253748551E+02  0.51100000000E-03 0.  1.
        -12    1    3    3    0    0 -0.26993567473E+01 -0.30789317572E+01  0.11628845113E+01  0.42566005217E+01  0.00000000000E+00 0.  1.
</event>
<event>
 7    1  0.8300060E-011  0.4778727E+02  0.7816164E-02  0.1312668E+00
        -11   -1    0    0    0    0  0.00000000000E+00  0.00000000000E+00  0.45593999997E+02  0.45594000000E+02  0.51100000000E-03 0.  1.
         11   -1    0    0    0    0 -0.00000000000E+00 -0.00000000000E+00 -0.45593999997E+02  0.45594000000E+02  0.51100000000E-03 0. -1.
    9900012    2    1    2    0    0 -0.19609965536E+02 -0.34161550630E+02  0.18222532391E+02  0.47787274470E+02  0.20000015618E+02 0.  0.
         12    1    1    2    0    0  0.19609965536E+02  0.34161550630E+02 -0.18222532391E+02  0.43400725530E+02  0.00000000000E+00 0. -1.
         11    1    3    3    0    0 -0.11511365000E+01 -0.12140229565E+02  0.18676712793E+00  0.12196112961E+02  0.51100000000E-03 0. -1.
        -11    1    3    3    0    0 -0.13567074008E+02 -0.79130465783E+01  0.82866847209E+01  0.17758123415E+02  0.51100000000E-03 0.  1.
         12    1    3    3    0    0 -0.48917550277E+01 -0.14108274487E+02  0.97490805424E+01  0.17833038095E+02  0.00000000000E+00 0. -1.
</event>
<event>
 7    1  0.8300060E-011  0.4778727E+02  0.7816164E-02  0.1312668E+00
        -11   -1    0    0    0    0  0.00000000000E+00  0.00000000000E+00  0.45593999997E+02  0.45594000000E+02  0.51100000000E-03 0. -1.
         11   -1    0    0    0    0 -0.00000000000E+00 -0.00000000000E+00 -0.45593999997E+02  0.45594000000E+02  0.51100000000E-03 0.  1.
    9900012    2    1    2    0    0 -0.99486735994E+01  0.38024400443E+02 -0.18406306824E+02  0.47787271131E+02  0.20000000395E+02 0.  0.
         12    1    1    2    0    0  0.99486735994E+01 -0.38024400443E+02  0.18406306824E+02  0.43400728869E+02  0.00000000000E+00 0. -1.
         11    1    3    3    0    0 -0.86023703510E+01  0.19809163174E+02 -0.19150778673E+01  0.21681126466E+02  0.51100000000E-03 0. -1.
        -11    1    3    3    0    0 -0.24865646576E+01  0.18794062616E+02 -0.15378099296E+02  0.24410770812E+02  0.51100000000E-03 0.  1.
        -12    1    3    3    0    0  0.11402614092E+01 -0.57882534637E+00 -0.11131296608E+01  0.16953738539E+01  0.00000000000E+00 0.  1.
</event>
<event>
 7    1  0.8300060E-011  0.4778727E+02  0.7816164E-02  0.1312668E+00
        -11   -1    0    0    0    0  0.00000000000E+00  0.00000000000E+00  0.45593999997E+02  0.45594000000E+02  0.51100000000E-03 0. -1.
         11   -1    0    0    0    0 -0.00000000000E+00 -0.00000000000E+00 -0.45593999997E+02  0.45594000000E+02  0.51100000000E-03 0.  1.
    9900012    2    1    2    0    0  0.14363383037E+02 -0.59572979869E+01 -0.40519470689E+02  0.47787266406E+02  0.19999978851E+02 0.  0.
         12    1    1    2    0    0 -0.14363383037E+02  0.59572979869E+01  0.40519470689E+02  0.43400733594E+02  0.00000000000E+00 0. -1.
         11    1    3    3    0    0  0.12730426372E+01  0.58668515328E+01 -0.93066910284E+01  0.11074975513E+02  0.51100000000E-03 0. -1.
        -11    1    3    3    0    0  0.84145833453E+01 -0.35566285296E+01 -0.20198108903E+02  0.22167959376E+02  0.51100000000E-03 0.  1.
         12    1    3    3    0    0  0.46757570546E+01 -0.82675209902E+01 -0.11014670758E+02  0.14544331517E+02  0.00000000000E+00 0. -1.
</event>
<event>
 7    1  0.8300060E-011  0.4778727E+02  0.7816164E-02  0.1312668E+00
        -11   -1    0    0    0    0  0.00000000000E+00  0.00000000000E+00  0.45593999997E+02  0.45594000000E+02  0.51100000000E-03 0. -1.
         11   -1    0    0    0    0 -0.00000000000E+00 -0.00000000000E+00 -0.45593999997E+02  0.45594000000E+02  0.51100000000E-03 0.  1.
    9900012    2    1    2    0    0 -0.30626820242E+02  0.14458285278E+01 -0.30716944430E+02  0.47787271742E+02  0.20000003180E+02 0.  0.
         12    1    1    2    0    0  0.30626820242E+02 -0.14458285278E+01  0.30716944430E+02  0.43400728258E+02  0.00000000000E+00 0. -1.
         11    1    3    3    0    0 -0.11818272549E+02 -0.56533269973E+01 -0.12076249573E+02  0.17817617018E+02  0.51100000000E-03 0.  1.
        -11    1    3    3    0    0 -0.11713387425E+02  0.98262937308E+01 -0.15418086302E+02  0.21713518345E+02  0.51100000000E-03 0. -1.
         12    1    3    3    0    0 -0.70951602674E+01 -0.27271382056E+01 -0.32226085553E+01  0.82561363793E+01  0.00000000000E+00 0. -1.
</event>
<event>
 7    1  0.8300060E-011  0.4778727E+02  0.7816164E-02  0.1312668E+00
        -11   -1    0    0    0    0  0.00000000000E+00  0.00000000000E+00  0.45593999997E+02  0.45594000000E+02  0.51100000000E-03 0. -1.
         11   -1    0    0    0    0 -0.00000000000E+00 -0.00000000000E+00 -0.45593999997E+02  0.45594000000E+02  0.51100000000E-03 0.  1.
    9900012    2    1    2    0    0 -0.75016591031E+01  0.23870406514E+01  0.42680795270E+02  0.47787272618E+02  0.20000007176E+02 0.  0.
        -12    1    1    2    0    0  0.75016591031E+01 -0.23870406514E+01 -0.42680795270E+02  0.43400727382E+02  0.00000000000E+00 0.  1.
         11    1    3    3    0    0 -0.39082651764E+01 -0.18871525339E+01  0.30299669887E+02  0.30608918258E+02  0.51100000000E-03 0. -1.
        -11    1    3    3    0    0 -0.81387009227E+00  0.10898171466E+00 -0.18865276413E+01  0.20574859280E+01  0.51100000000E-03 0.  1.
         12    1    3    3    0    0 -0.27795238344E+01  0.41652114706E+01  0.14267653024E+02  0.15120868432E+02  0.00000000000E+00 0. -1.
</event>
<event>
 7    1  0.8300060E-011  0.4778727E+02  0.7816164E-02  0.1312668E+00
        -11   -1    0    0    0    0  0.00000000000E+00  0.00000000000E+00  0.45593999997E+02  0.45594000000E+02  0.51100000000E-03 0. -1.
         11   -1    0    0    0    0 -0.00000000000E+00 -0.00000000000E+00 -0.45593999997E+02  0.45594000000E+02  0.51100000000E-03 0.  1.
    9900012    2    1    2    0    0 -0.23076576400E+02 -0.16778249508E+02 -0.32704515063E+02  0.47787270279E+02  0.19999996508E+02 0.  0.
         12    1    1    2    0    0  0.23076576400E+02  0.16778249508E+02  0.32704515063E+02  0.43400729721E+02  0.00000000000E+00 0. -1.
         11    1    3    3    0    0 -0.41586503231E+01 -0.11353327104E+02 -0.95112788424E+01  0.15383654778E+02  0.51100000000E-03 0. -1.
        -11    1    3    3    0    0 -0.10896024739E+02  0.67167674447E+00 -0.59512456164E+01  0.12433496267E+02  0.51100000000E-03 0.  1.
        -12    1    3    3    0    0 -0.80219013370E+01 -0.60965991482E+01 -0.17241990604E+02  0.19970119234E+02  0.00000000000E+00 0.  1.
</event>
<event>
 7    1  0.8300060E-011  0.4778727E+02  0.7816164E-02  0.1312668E+00
        -11   -1    0    0    0    0  0.00000000000E+00  0.00000000000E+00  0.45593999997E+02  0.45594000000E+02  0.51100000000E-03 0. -1.
         11   -1    0    0    0    0 -0.00000000000E+00 -0.00000000000E+00 -0.45593999997E+02  0.45594000000E+02  0.51100000000E-03 0.  1.
    9900012    2    1    2    0    0 -0.22485816952E+02 -0.22931287070E+02  0.29191900912E+02  0.47787274551E+02  0.20000015986E+02 0.  0.
        -12    1    1    2    0    0  0.22485816952E+02  0.22931287070E+02 -0.29191900912E+02  0.43400725449E+02  0.00000000000E+00 0.  1.
         11    1    3    3    0    0 -0.89802888902E+01 -0.13379083830E+02  0.22665017111E+02  0.27809143704E+02  0.51100000000E-03 0. -1.
        -11    1    3    3    0    0 -0.14289885614E+02 -0.64495942913E+01  0.52708917686E+01  0.16540265950E+02  0.51100000000E-03 0.  1.
        -12    1    3    3    0    0  0.78435755272E+00 -0.31026089488E+01  0.12559920330E+01  0.34378648965E+01  0.00000000000E+00 0.  1.
</event>
<event>
 7    1  0.8300060E-011  0.4778727E+02  0.7816164E-02  0.1312668E+00
        -11   -1    0    0    0    0  0.00000000000E+00  0.00000000000E+00  0.45593999997E+02  0.45594000000E+02  0.51100000000E-03 0.  1.
         11   -1    0    0    0    0 -0.00000000000E+00 -0.00000000000E+00 -0.45593999997E+02  0.45594000000E+02  0.51100000000E-03 0. -1.
    9900012    2    1    2    0    0 -0.85164760722E+01 -0.28110373652E+02 -0.31951528010E+02  0.47787267129E+02  0.19999982147E+02 0.  0.
        -12    1    1    2    0    0  0.85164760722E+01  0.28110373652E+02  0.31951528010E+02  0.43400732871E+02  0.00000000000E+00 0.  1.
         11    1    3    3    0    0 -0.16583248723E+01 -0.18595454731E+02 -0.26133461904E+02  0.32116955170E+02  0.51100000000E-03 0. -1.
        -11    1    3    3    0    0 -0.15637579254E+01 -0.21125100360E+01  0.22866062392E+01  0.34837631745E+01  0.51100000000E-03 0.  1.
         12    1    3    3    0    0 -0.52943932745E+01 -0.74024088852E+01 -0.81046723451E+01  0.12186548784E+02  0.00000000000E+00 0. -1.
</event>
<event>
 7    1  0.8300060E-011  0.4778727E+02  0.7816164E-02  0.1312668E+00
        -11   -1    0    0    0    0  0.00000000000E+00  0.00000000000E+00  0.45593999997E+02  0.45594000000E+02  0.51100000000E-03 0. -1.
         11   -1    0    0    0    0 -0.00000000000E+00 -0.00000000000E+00 -0.45593999997E+02  0.45594000000E+02  0.51100000000E-03 0.  1.
    9900012    2    1    2    0    0  0.26547552207E+01 -0.12274444494E+02 -0.41544113688E+02  0.47787273105E+02  0.20000009396E+02 0.  0.
         12    1    1    2    0    0 -0.26547552207E+01  0.12274444494E+02  0.41544113688E+02  0.43400726895E+02  0.00000000000E+00 0. -1.
         11    1    3    3    0    0 -0.73600612941E+00  0.38362560772E+01 -0.14266607151E+02  0.14791708677E+02  0.51100000000E-03 0. -1.
        -11    1    3    3    0    0  0.62762448114E+01 -0.10783132869E+02 -0.17479099299E+02  0.21475244259E+02  0.51100000000E-03 0.  1.
         12    1    3    3    0    0 -0.28854834613E+01 -0.53275677023E+01 -0.97984072374E+01  0.11520320170E+02  0.00000000000E+00 0. -1.
</event>
<event>
 7    1  0.8300060E-011  0.4778727E+02  0.7816164E-02  0.1312668E+00
        -11   -1    0    0    0    0  0.00000000000E+00  0.00000000000E+00  0.45593999997E+02  0.45594000000E+02  0.51100000000E-03 0. -1.
         11   -1    0    0    0    0 -0.00000000000E+00 -0.00000000000E+00 -0.45593999997E+02  0.45594000000E+02  0.51100000000E-03 0.  1.
    9900012    2    1    2    0    0 -0.16196803416E+02  0.91601565233E+01 -0.39209416916E+02  0.47787270936E+02  0.19999999506E+02 0.  0.
         12    1    1    2    0    0  0.16196803416E+02 -0.91601565233E+01  0.39209416916E+02  0.43400729064E+02  0.00000000000E+00 0. -1.
         11    1    3    3    0    0  0.14342448033E+01  0.46199091540E+01 -0.21700197971E+02  0.22232840821E+02  0.51100000000E-03 0. -1.
        -11    1    3    3    0    0 -0.14704495632E+02  0.46101089939E+01 -0.16164120975E+02  0.22332803314E+02  0.51100000000E-03 0.  1.
         12    1    3    3    0    0 -0.29265525874E+01 -0.69861624570E-01 -0.13450979697E+01  0.32216268005E+01  0.00000000000E+00 0. -1.
</event>
<event>
 7    1  0.8300060E-011  0.4778727E+02  0.7816164E-02  0.1312668E+00
        -11   -1    0    0    0    0  0.00000000000E+00  0.00000000000E+00  0.45593999997E+02  0.45594000000E+02  0.51100000000E-03 0. -1.
         11   -1    0    0    0    0 -0.00000000000E+00 -0.00000000000E+00 -0.45593999997E+02  0.45594000000E+02  0.51100000000E-03 0.  1.
    9900012    2    1    2    0    0 -0.29775808851E+02  0.21144220473E+02 -0.23450938705E+02  0.47787269841E+02  0.19999994515E+02 0.  0.
         12    1    1    2    0    0  0.29775808851E+02 -0.21144220473E+02  0.23450938705E+02  0.43400730159E+02  0.00000000000E+00 0. -1.
         11    1    3    3    0    0 -0.21439238576E+02  0.14387616748E+02 -0.19540042139E+02  0.32379896749E+02  0.51100000000E-03 0. -1.
        -11    1    3    3    0    0 -0.63266034441E+01  0.49365737747E+01 -0.74494071486E+01  0.10949399020E+02  0.51100000000E-03 0.  1.
         12    1    3    3    0    0 -0.20099668309E+01  0.18200299502E+01  0.35385105831E+01  0.44579740721E+01  0.00000000000E+00 0. -1.
</event>
<event>
 7    1  0.8300060E-011  0.4778727E+02  0.7816164E-02  0.1312668E+00
        -11   -1    0    0    0    0  0.00000000000E+00  0.00000000000E+00  0.45593999997E+02  0.45594000000E+02  0.51100000000E-03 0. -1.
         11   -1    0    0    0    0 -0.00000000000E+00 -0.00000000000E+00 -0.45593999997E+02  0.45594000000E+02  0.51100000000E-03 0.  1.
    9900012    2    1    2    0    0 -0.37117534919E+01  0.68007835074E+01  0.42703578627E+02  0.47787269616E+02  0.19999993489E+02 0.  0.
        -12    1    1    2    0    0  0.37117534919E+01 -0.68007835074E+01 -0.42703578627E+02  0.43400730384E+02  0.00000000000E+00 0.  1.
         11    1    3    3    0    0 -0.45325639752E+01 -0.34782056622E+01  0.29880644316E+02  0.30421948587E+02  0.51100000000E-03 0. -1.
        -11    1    3    3    0    0  0.64193499392E+00  0.77095906520E+01  0.12592952707E+02  0.14779456238E+02  0.51100000000E-03 0.  1.
         12    1    3    3    0    0  0.17887548933E+00  0.25693985175E+01  0.22998160421E+00  0.25858647917E+01  0.00000000000E+00 0. -1.
</event>
<event>
 7    1  0.8300060E-011  0.4778727E+02  0.7816164E-02  0.1312668E+00
        -11   -1    0    0    0    0  0.00000000000E+00  0.00000000000E+00  0.45593999997E+02  0.45594000000E+02  0.51100000000E-03 0. -1.
         11   -1    0    0    0    0 -0.00000000000E+00 -0.00000000000E+00 -0.45593999997E+02  0.45594000000E+02  0.51100000000E-03 0.  1.
    9900012    2    1    2    0    0  0.12623747767E+02 -0.25717156467E+02  0.32602025130E+02  0.47787272045E+02  0.20000004561E+02 0.  0.
        -12    1    1    2    0    0 -0.12623747767E+02  0.25717156467E+02 -0.32602025130E+02  0.43400727955E+02  0.00000000000E+00 0.  1.
         11    1    3    3    0    0  0.56963338980E+01 -0.15023965032E+02  0.27315870158E+02  0.31691079311E+02  0.51100000000E-03 0. -1.
        -11    1    3    3    0    0  0.24499801946E+01 -0.25435639533E+01  0.57921007658E+01  0.67838449334E+01  0.51100000000E-03 0.  1.
         12    1    3    3    0    0  0.44774336748E+01 -0.81496274818E+01 -0.50594579383E+00  0.93123478001E+01  0.00000000000E+00 0. -1.
</event>
<event>
 7    1  0.8300060E-011  0.4778726E+02  0.7816164E-02  0.1312668E+00
        -11   -1    0    0    0    0  0.00000000000E+00  0.00000000000E+00  0.45593999997E+02  0.45594000000E+02  0.51100000000E-03 0. -1.
         11   -1    0    0    0    0 -0.00000000000E+00 -0.00000000000E+00 -0.45593999997E+02  0.45594000000E+02  0.51100000000E-03 0.  1.
    9900012    2    1    2    0    0 -0.72282847483E+01  0.58035246686E+01  0.42399232035E+02  0.47787264106E+02  0.19999968364E+02 0.  0.
        -12    1    1    2    0    0  0.72282847483E+01 -0.58035246686E+01 -0.42399232035E+02  0.43400735894E+02  0.00000000000E+00 0.  1.
         11    1    3    3    0    0 -0.75570579280E+01 -0.41836774479E+01  0.82543988724E+01  0.11947693607E+02  0.51100000000E-03 0. -1.
        -11    1    3    3    0    0 -0.27607324939E+00  0.39590024643E+01  0.71928799306E+01  0.82150738833E+01  0.51100000000E-03 0.  1.
         12    1    3    3    0    0  0.60484642912E+00  0.60281996522E+01  0.26951953232E+02  0.27624496616E+02  0.00000000000E+00 0. -1.
</event>
<event>
 7    1  0.8300060E-011  0.4778727E+02  0.7816164E-02  0.1312668E+00
        -11   -1    0    0    0    0  0.00000000000E+00  0.00000000000E+00  0.45593999997E+02  0.45594000000E+02  0.51100000000E-03 0. -1.
         11   -1    0    0    0    0 -0.00000000000E+00 -0.00000000000E+00 -0.45593999997E+02  0.45594000000E+02  0.51100000000E-03 0.  1.
    9900012    2    1    2    0    0  0.40177584694E+02  0.11453328228E+02 -0.11756115482E+02  0.47787270852E+02  0.19999999123E+02 0.  0.
         12    1    1    2    0    0 -0.40177584694E+02 -0.11453328228E+02  0.11756115482E+02  0.43400729148E+02  0.00000000000E+00 0. -1.
         11    1    3    3    0    0  0.33997579698E+01  0.10383871940E+00 -0.66610053456E+01  0.74791797149E+01  0.51100000000E-03 0. -1.
        -11    1    3    3    0    0  0.27104705736E+02  0.34284681350E+01 -0.51692052353E+01  0.27805397853E+02  0.51100000000E-03 0.  1.
         12    1    3    3    0    0  0.96731209885E+01  0.79210213741E+01  0.74095098971E-01  0.12502693284E+02  0.00000000000E+00 0. -1.
</event>
<event>
 7    1  0.8300060E-011  0.4778729E+02  0.7816164E-02  0.1312668E+00
        -11   -1    0    0    0    0  0.00000000000E+00  0.00000000000E+00  0.45593999997E+02  0.45594000000E+02  0.51100000000E-03 0. -1.
         11   -1    0    0    0    0 -0.00000000000E+00 -0.00000000000E+00 -0.45593999997E+02  0.45594000000E+02  0.51100000000E-03 0.  1.
    9900012    2    1    2    0    0  0.16676351793E+01  0.41057626188E+01  0.43173871820E+02  0.47787291461E+02  0.20000093085E+02 0.  0.
        -12    1    1    2    0    0 -0.16676351793E+01 -0.41057626188E+01 -0.43173871820E+02  0.43400708539E+02  0.00000000000E+00 0.  1.
         11    1    3    3    0    0 -0.19495763550E+01 -0.26484681960E+00 -0.82843488557E+00  0.21347825235E+01  0.51100000000E-03 0. -1.
        -11    1    3    3    0    0  0.49329447827E+01 -0.21995906667E+01  0.21944440749E+02  0.22599350065E+02  0.51100000000E-03 0.  1.
         12    1    3    3    0    0 -0.13157332485E+01  0.65702001051E+01  0.22057865957E+02  0.23053158872E+02  0.00000000000E+00 0. -1.
</event>
<event>
 7    1  0.8300060E-011  0.4778727E+02  0.7816164E-02  0.1312668E+00
        -11   -1    0    0    0    0  0.00000000000E+00  0.00000000000E+00  0.45593999997E+02  0.45594000000E+02  0.51100000000E-03 0. -1.
         11   -1    0    0    0    0 -0.00000000000E+00 -0.00000000000E+00 -0.45593999997E+02  0.45594000000E+02  0.51100000000E-03 0.  1.
    9900012    2    1    2    0    0  0.20264515367E+02  0.17260091464E+02 -0.34279175800E+02  0.47787271504E+02  0.20000002096E+02 0.  0.
         12    1    1    2    0    0 -0.20264515367E+02 -0.17260091464E+02  0.34279175800E+02  0.43400728496E+02  0.00000000000E+00 0. -1.
         11    1    3    3    0    0 -0.21987774812E+01 -0.63692348019E+00 -0.58319716378E+01  0.62651566123E+01  0.51100000000E-03 0. -1.
        -11    1    3    3    0    0  0.12381313375E+02  0.43293764748E+01 -0.14971981526E+02  0.19904789690E+02  0.51100000000E-03 0.  1.
         12    1    3    3    0    0  0.10081979473E+02  0.13567638470E+02 -0.13475222637E+02  0.21617325201E+02  0.00000000000E+00 0. -1.
</event>
<event>
 7    1  0.8300060E-011  0.4778728E+02  0.7816164E-02  0.1312668E+00
        -11   -1    0    0    0    0  0.00000000000E+00  0.00000000000E+00  0.45593999997E+02  0.45594000000E+02  0.51100000000E-03 0. -1.
         11   -1    0    0    0    0 -0.00000000000E+00 -0.00000000000E+00 -0.45593999997E+02  0.45594000000E+02  0.51100000000E-03 0.  1.
    9900012    2    1    2    0    0  0.32913980641E+02  0.52517597924E+01 -0.27797694206E+02  0.47787275285E+02  0.20000019337E+02 0.  0.
         12    1    1    2    0    0 -0.32913980641E+02 -0.52517597924E+01  0.27797694206E+02  0.43400724715E+02  0.00000000000E+00 0. -1.
         11    1    3    3    0    0  0.89882544512E+01  0.20735976348E+01 -0.18245274310E+02  0.20444523964E+02  0.51100000000E-03 0. -1.
        -11    1    3    3    0    0  0.19161425615E+02  0.58017697753E+01 -0.87335952071E+01  0.21842537619E+02  0.51100000000E-03 0.  1.
        -12    1    3    3    0    0  0.47643005751E+01 -0.26236076177E+01 -0.81882468932E+00  0.55002137025E+01  0.00000000000E+00 0.  1.
</event>
<event>
 7    1  0.8300060E-011  0.4778727E+02  0.7816164E-02  0.1312668E+00
        -11   -1    0    0    0    0  0.00000000000E+00  0.00000000000E+00  0.45593999997E+02  0.45594000000E+02  0.51100000000E-03 0. -1.
         11   -1    0    0    0    0 -0.00000000000E+00 -0.00000000000E+00 -0.45593999997E+02  0.45594000000E+02  0.51100000000E-03 0.  1.
    9900012    2    1    2    0    0  0.69969572037E+01 -0.10636822882E+02  0.41491247000E+02  0.47787274330E+02  0.20000014979E+02 0.  0.
        -12    1    1    2    0    0 -0.69969572037E+01  0.10636822882E+02 -0.41491247000E+02  0.43400725670E+02  0.00000000000E+00 0.  1.
         11    1    3    3    0    0  0.87206488934E+01  0.12685634315E+01  0.84484823464E+01  0.12208022957E+02  0.51100000000E-03 0. -1.
        -11    1    3    3    0    0 -0.17806575036E+01 -0.85593824522E+01  0.29214048047E+02  0.30494169486E+02  0.51100000000E-03 0.  1.
        -12    1    3    3    0    0  0.56965813890E-01 -0.33460038609E+01  0.38287166066E+01  0.50850818867E+01  0.00000000000E+00 0.  1.
</event>
<event>
 7    1  0.8300060E-011  0.4778727E+02  0.7816164E-02  0.1312668E+00
        -11   -1    0    0    0    0  0.00000000000E+00  0.00000000000E+00  0.45593999997E+02  0.45594000000E+02  0.51100000000E-03 0. -1.
         11   -1    0    0    0    0 -0.00000000000E+00 -0.00000000000E+00 -0.45593999997E+02  0.45594000000E+02  0.51100000000E-03 0.  1.
    9900012    2    1    2    0    0  0.10367366220E+02 -0.32998699029E+02  0.26215015901E+02  0.47787268686E+02  0.19999989245E+02 0.  0.
        -12    1    1    2    0    0 -0.10367366220E+02  0.32998699029E+02 -0.26215015901E+02  0.43400731314E+02  0.00000000000E+00 0.  1.
         11    1    3    3    0    0 -0.14100079574E+01 -0.17307936335E+02  0.96252908820E+01  0.19854445533E+02  0.51100000000E-03 0. -1.
        -11    1    3    3    0    0 -0.76488466365E+00 -0.67811245212E+01  0.31990856866E+01  0.75367664029E+01  0.51100000000E-03 0.  1.
         12    1    3    3    0    0  0.12542258841E+02 -0.89096381731E+01  0.13390639332E+02  0.20396056750E+02  0.00000000000E+00 0. -1.
</event>
<event>
 7    1  0.8300060E-011  0.4778727E+02  0.7816164E-02  0.1312668E+00
        -11   -1    0    0    0    0  0.00000000000E+00  0.00000000000E+00  0.45593999997E+02  0.45594000000E+02  0.51100000000E-03 0.  1.
         11   -1    0    0    0    0 -0.00000000000E+00 -0.00000000000E+00 -0.45593999997E+02  0.45594000000E+02  0.51100000000E-03 0. -1.
    9900012    2    1    2    0    0  0.42199841638E+02 -0.61124298175E+01 -0.80891788627E+01  0.47787271351E+02  0.20000001400E+02 0.  0.
         12    1    1    2    0    0 -0.42199841638E+02  0.61124298175E+01  0.80891788627E+01  0.43400728649E+02  0.00000000000E+00 0. -1.
         11    1    3    3    0    0  0.18066211577E+02 -0.87300080045E+01 -0.48215967098E+01  0.20636105146E+02  0.51100000000E-03 0. -1.
        -11    1    3    3    0    0  0.60866036827E+01  0.42503010748E+01  0.29572488703E+01  0.79910653081E+01  0.51100000000E-03 0.  1.
        -12    1    3    3    0    0  0.18047026378E+02 -0.16327228879E+01 -0.62248310233E+01  0.19160100897E+02  0.00000000000E+00 0.  1.
</event>
<event>
 7    1  0.8300060E-011  0.4778727E+02  0.7816164E-02  0.1312668E+00
        -11   -1    0    0    0    0  0.00000000000E+00  0.00000000000E+00  0.45593999997E+02  0.45594000000E+02  0.51100000000E-03 0. -1.
         11   -1    0    0    0    0 -0.00000000000E+00 -0.00000000000E+00 -0.45593999997E+02  0.45594000000E+02  0.51100000000E-03 0.  1.
    9900012    2    1    2    0    0 -0.10847045982E+02  0.29945955177E+02 -0.29482282901E+02  0.47787266791E+02  0.19999980608E+02 0.  0.
         12    1    1    2    0    0  0.10847045982E+02 -0.29945955177E+02  0.29482282901E+02  0.43400733209E+02  0.00000000000E+00 0. -1.
         11    1    3    3    0    0  0.47757558388E+01  0.47202305983E+01 -0.48929829543E+01  0.83084115922E+01  0.51100000000E-03 0. -1.
        -11    1    3    3    0    0 -0.12476617333E+02  0.12308220246E+02 -0.12707701951E+02  0.21648185948E+02  0.51100000000E-03 0.  1.
         12    1    3    3    0    0 -0.31461844882E+01  0.12917504333E+02 -0.11881597996E+02  0.17830669251E+02  0.00000000000E+00 0. -1.
</event>
<event>
 7    1  0.8300060E-011  0.4778727E+02  0.7816164E-02  0.1312668E+00
        -11   -1    0    0    0    0  0.00000000000E+00  0.00000000000E+00  0.45593999997E+02  0.45594000000E+02  0.51100000000E-03 0. -1.
         11   -1    0    0    0    0 -0.00000000000E+00 -0.00000000000E+00 -0.45593999997E+02  0.45594000000E+02  0.51100000000E-03 0.  1.
    9900012    2    1    2    0    0 -0.39167266626E+01 -0.72308821690E+00 -0.43217584737E+02  0.47787271494E+02  0.20000002050E+02 0.  0.
         12    1    1    2    0    0  0.39167266626E+01  0.72308821690E+00  0.43217584737E+02  0.43400728506E+02  0.00000000000E+00 0. -1.
         11    1    3    3    0    0 -0.91950361866E+01 -0.10757697344E+01 -0.15043060979E+02  0.17663511964E+02  0.51100000000E-03 0. -1.
        -11    1    3    3    0    0 -0.35831582052E+00 -0.27909588098E+01 -0.29102002464E+01  0.40480991886E+01  0.51100000000E-03 0.  1.
         12    1    3    3    0    0  0.56366253445E+01  0.31436403273E+01 -0.25264323511E+02  0.26075660342E+02  0.00000000000E+00 0. -1.
</event>
<event>
 7    1  0.8300060E-011  0.4778727E+02  0.7816164E-02  0.1312668E+00
        -11   -1    0    0    0    0  0.00000000000E+00  0.00000000000E+00  0.45593999997E+02  0.45594000000E+02  0.51100000000E-03 0. -1.
         11   -1    0    0    0    0 -0.00000000000E+00 -0.00000000000E+00 -0.45593999997E+02  0.45594000000E+02  0.51100000000E-03 0.  1.
    9900012    2    1    2    0    0 -0.15907071983E+02 -0.19647577552E+02 -0.35278332804E+02  0.47787274106E+02  0.20000013958E+02 0.  0.
         12    1    1    2    0    0  0.15907071983E+02  0.19647577552E+02  0.35278332804E+02  0.43400725894E+02  0.00000000000E+00 0. -1.
         11    1    3    3    0    0 -0.17045078399E+00 -0.66122662869E+00 -0.10617451624E+02  0.10639386889E+02  0.51100000000E-03 0. -1.
        -11    1    3    3    0    0 -0.17719985701E+02 -0.18540082926E+02 -0.21934007101E+02  0.33746603324E+02  0.51100000000E-03 0.  1.
        -12    1    3    3    0    0  0.19833645023E+01 -0.44626799666E+00 -0.27268740789E+01  0.34012838923E+01  0.00000000000E+00 0.  1.
</event>
<event>
 7    1  0.8300060E-011  0.4778727E+02  0.7816164E-02  0.1312668E+00
        -11   -1    0    0    0    0  0.00000000000E+00  0.00000000000E+00  0.45593999997E+02  0.45594000000E+02  0.51100000000E-03 0. -1.
         11   -1    0    0    0    0 -0.00000000000E+00 -0.00000000000E+00 -0.45593999997E+02  0.45594000000E+02  0.51100000000E-03 0.  1.
    9900012    2    1    2    0    0 -0.39654559622E+02  0.38815921227E+01  0.17206752726E+02  0.47787271947E+02  0.20000004113E+02 0.  0.
        -12    1    1    2    0    0  0.39654559622E+02 -0.38815921227E+01 -0.17206752726E+02  0.43400728053E+02  0.00000000000E+00 0.  1.
         11    1    3    3    0    0 -0.20943044942E+02 -0.28117656089E+01  0.13002493389E+02  0.24810924849E+02  0.51100000000E-03 0. -1.
        -11    1    3    3    0    0 -0.14580829628E+02  0.82736834262E+01  0.65153755737E+01  0.17986232213E+02  0.51100000000E-03 0.  1.
        -12    1    3    3    0    0 -0.41306850517E+01 -0.15803256946E+01 -0.23111162373E+01  0.49901148844E+01  0.00000000000E+00 0.  1.
</event>
<event>
 7    1  0.8300060E-011  0.4778728E+02  0.7816164E-02  0.1312668E+00
        -11   -1    0    0    0    0  0.00000000000E+00  0.00000000000E+00  0.45593999997E+02  0.45594000000E+02  0.51100000000E-03 0. -1.
         11   -1    0    0    0    0 -0.00000000000E+00 -0.00000000000E+00 -0.45593999997E+02  0.45594000000E+02  0.51100000000E-03 0.  1.
    9900012    2    1    2    0    0  0.66850419821E+01 -0.46752184633E+01  0.42627165463E+02  0.47787277778E+02  0.20000030700E+02 0.  0.
        -12    1    1    2    0    0 -0.66850419821E+01  0.46752184633E+01 -0.42627165463E+02  0.43400722222E+02  0.00000000000E+00 0.  1.
         11    1    3    3    0    0 -0.16903506449E+01 -0.44040119325E+01  0.26419796633E+02  0.26837627704E+02  0.51100000000E-03 0. -1.
        -11    1    3    3    0    0  0.80147438814E+01 -0.31957617558E+01  0.64939192168E+01  0.10799074022E+02  0.51100000000E-03 0.  1.
         12    1    3    3    0    0  0.36064874560E+00  0.29245552250E+01  0.97134496133E+01  0.10150576051E+02  0.00000000000E+00 0. -1.
</event>
<event>
 7    1  0.8300060E-011  0.4778727E+02  0.7816164E-02  0.1312668E+00
        -11   -1    0    0    0    0  0.00000000000E+00  0.00000000000E+00  0.45593999997E+02  0.45594000000E+02  0.51100000000E-03 0. -1.
         11   -1    0    0    0    0 -0.00000000000E+00 -0.00000000000E+00 -0.45593999997E+02  0.45594000000E+02  0.51100000000E-03 0.  1.
    9900012    2    1    2    0    0 -0.18167914602E+02  0.35725619573E+02 -0.16650226547E+02  0.47787273521E+02  0.20000011291E+02 0.  0.
         12    1    1    2    0    0  0.18167914602E+02 -0.35725619573E+02  0.16650226547E+02  0.43400726479E+02  0.00000000000E+00 0. -1.
         11    1    3    3    0    0 -0.42051773807E+01  0.11969313095E+02  0.93992874506E+00  0.12721298640E+02  0.51100000000E-03 0. -1.
        -11    1    3    3    0    0 -0.95829351751E+01  0.19780228055E+02 -0.72334686021E+01  0.23138996018E+02  0.51100000000E-03 0.  1.
         12    1    3    3    0    0 -0.43798020460E+01  0.39760784228E+01 -0.10356686690E+02  0.11926978863E+02  0.00000000000E+00 0. -1.
</event>
<event>
 7    1  0.8300060E-011  0.4778727E+02  0.7816164E-02  0.1312668E+00
        -11   -1    0    0    0    0  0.00000000000E+00  0.00000000000E+00  0.45593999997E+02  0.45594000000E+02  0.51100000000E-03 0. -1.
         11   -1    0    0    0    0 -0.00000000000E+00 -0.00000000000E+00 -0.45593999997E+02  0.45594000000E+02  0.51100000000E-03 0.  1.
    9900012    2    1    2    0    0 -0.10221074221E+02  0.16124885597E+02 -0.38976157272E+02  0.47787272708E+02  0.20000007586E+02 0.  0.
         12    1    1    2    0    0  0.10221074221E+02 -0.16124885597E+02  0.38976157272E+02  0.43400727292E+02  0.00000000000E+00 0. -1.
         11    1    3    3    0    0 -0.37831385141E+01  0.18578709487E+02 -0.30903212024E+02  0.36255883617E+02  0.51100000000E-03 0. -1.
        -11    1    3    3    0    0 -0.26470540088E+01 -0.99964996154E+00 -0.66535620247E+01  0.72302201107E+01  0.51100000000E-03 0.  1.
         12    1    3    3    0    0 -0.37908816977E+01 -0.14541739289E+01 -0.14193832239E+01  0.43011689803E+01  0.00000000000E+00 0. -1.
</event>
<event>
 7    1  0.8300060E-011  0.4778726E+02  0.7816164E-02  0.1312668E+00
        -11   -1    0    0    0    0  0.00000000000E+00  0.00000000000E+00  0.45593999997E+02  0.45594000000E+02  0.51100000000E-03 0. -1.
         11   -1    0    0    0    0 -0.00000000000E+00 -0.00000000000E+00 -0.45593999997E+02  0.45594000000E+02  0.51100000000E-03 0.  1.
    9900012    2    1    2    0    0 -0.36308008538E+02  0.21008663193E+02  0.11135010569E+02  0.47787264136E+02  0.19999968504E+02 0.  0.
        -12    1    1    2    0    0  0.36308008538E+02 -0.21008663193E+02 -0.11135010569E+02  0.43400735864E+02  0.00000000000E+00 0.  1.
         11    1    3    3    0    0 -0.18041319168E+02  0.11079120756E+02  0.10850713977E+02  0.23790210342E+02  0.51100000000E-03 0. -1.
        -11    1    3    3    0    0  0.13261089647E+01  0.20145836778E+01 -0.14174004958E+01  0.27975233346E+01  0.51100000000E-03 0.  1.
        -12    1    3    3    0    0 -0.19592798335E+02  0.79149587595E+01  0.17016970873E+01  0.21199530460E+02  0.00000000000E+00 0.  1.
</event>
<event>
 7    1  0.8300060E-011  0.4778727E+02  0.7816164E-02  0.1312668E+00
        -11   -1    0    0    0    0  0.00000000000E+00  0.00000000000E+00  0.45593999997E+02  0.45594000000E+02  0.51100000000E-03 0. -1.
         11   -1    0    0    0    0 -0.00000000000E+00 -0.00000000000E+00 -0.45593999997E+02  0.45594000000E+02  0.51100000000E-03 0.  1.
    9900012    2    1    2    0    0 -0.30476304131E+02 -0.28526080388E+02 -0.11877749240E+02  0.47787270711E+02  0.19999998482E+02 0.  0.
         12    1    1    2    0    0  0.30476304131E+02  0.28526080388E+02  0.11877749240E+02  0.43400729289E+02  0.00000000000E+00 0. -1.
         11    1    3    3    0    0 -0.15739080278E+02 -0.11446962528E+02 -0.14620276080E+02  0.24341406533E+02  0.51100000000E-03 0. -1.
        -11    1    3    3    0    0 -0.98076653865E+01 -0.10012572943E+02 -0.10014500104E+01  0.14051505957E+02  0.51100000000E-03 0.  1.
         12    1    3    3    0    0 -0.49295584671E+01 -0.70665449163E+01  0.37439768505E+01  0.93943582214E+01  0.00000000000E+00 0. -1.
</event>
<event>
 7    1  0.8300060E-011  0.4778727E+02  0.7816164E-02  0.1312668E+00
        -11   -1    0    0    0    0  0.00000000000E+00  0.00000000000E+00  0.45593999997E+02  0.45594000000E+02  0.51100000000E-03 0. -1.
         11   -1    0    0    0    0 -0.00000000000E+00 -0.00000000000E+00 -0.45593999997E+02  0.45594000000E+02  0.51100000000E-03 0.  1.
    9900012    2    1    2    0    0  0.11000780522E+02  0.38050217649E+02 -0.17742230224E+02  0.47787274562E+02  0.20000016037E+02 0.  0.
         12    1    1    2    0    0 -0.11000780522E+02 -0.38050217649E+02  0.17742230224E+02  0.43400725438E+02  0.00000000000E+00 0. -1.
         11    1    3    3    0    0  0.85864767029E+01  0.87593844462E+01 -0.60847619073E+01  0.13692287091E+02  0.51100000000E-03 0. -1.
        -11    1    3    3    0    0 -0.27170894270E+01  0.61546226798E+00 -0.20397540079E+00  0.27933805654E+01  0.51100000000E-03 0.  1.
        -12    1    3    3    0    0  0.51313932461E+01  0.28675370935E+02 -0.11453492916E+02  0.31301606906E+02  0.00000000000E+00 0.  1.
</event>
<event>
 7    1  0.8300060E-011  0.4778726E+02  0.7816164E-02  0.1312668E+00
        -11   -1    0    0    0    0  0.00000000000E+00  0.00000000000E+00  0.45593999997E+02  0.45594000000E+02  0.51100000000E-03 0. -1.
         11   -1    0    0    0    0 -0.00000000000E+00 -0.00000000000E+00 -0.45593999997E+02  0.45594000000E+02  0.51100000000E-03 0.  1.
    9900012    2    1    2    0    0 -0.34221912138E+02  0.68247481456E+01 -0.25805182190E+02  0.47787263999E+02  0.19999967875E+02 0.  0.
         12    1    1    2    0    0  0.34221912138E+02 -0.68247481456E+01  0.25805182190E+02  0.43400736001E+02  0.00000000000E+00 0. -1.
         11    1    3    3    0    0 -0.64518841451E+00 -0.26410108644E+00 -0.79571575196E+01  0.79876387954E+01  0.51100000000E-03 0. -1.
        -11    1    3    3    0    0 -0.34188094959E+02  0.70524211754E+01 -0.17802847365E+02  0.39185505687E+02  0.51100000000E-03 0.  1.
        -12    1    3    3    0    0  0.61137123597E+00  0.36428056596E-01 -0.45177305624E-01  0.61411951640E+00  0.00000000000E+00 0.  1.
</event>
<event>
 7    1  0.8300060E-011  0.4778727E+02  0.7816164E-02  0.1312668E+00
        -11   -1    0    0    0    0  0.00000000000E+00  0.00000000000E+00  0.45593999997E+02  0.45594000000E+02  0.51100000000E-03 0. -1.
         11   -1    0    0    0    0 -0.00000000000E+00 -0.00000000000E+00 -0.45593999997E+02  0.45594000000E+02  0.51100000000E-03 0.  1.
    9900012    2    1    2    0    0  0.80889634628E+01 -0.77540236040E+01 -0.41929308120E+02  0.47787273147E+02  0.20000009586E+02 0.  0.
         12    1    1    2    0    0 -0.80889634628E+01  0.77540236040E+01  0.41929308120E+02  0.43400726853E+02  0.00000000000E+00 0. -1.
         11    1    3    3    0    0  0.10719415580E+02 -0.17591795113E+01 -0.11754077553E+02  0.16004965552E+02  0.51100000000E-03 0. -1.
        -11    1    3    3    0    0 -0.41244349256E+01 -0.48950764626E+01 -0.12829642219E+02  0.14337798184E+02  0.51100000000E-03 0.  1.
        -12    1    3    3    0    0  0.14939828084E+01 -0.10997676302E+01 -0.17345588347E+02  0.17444509411E+02  0.00000000000E+00 0.  1.
</event>
<event>
 7    1  0.8300060E-011  0.4778727E+02  0.7816164E-02  0.1312668E+00
        -11   -1    0    0    0    0  0.00000000000E+00  0.00000000000E+00  0.45593999997E+02  0.45594000000E+02  0.51100000000E-03 0. -1.
         11   -1    0    0    0    0 -0.00000000000E+00 -0.00000000000E+00 -0.45593999997E+02  0.45594000000E+02  0.51100000000E-03 0.  1.
    9900012    2    1    2    0    0  0.22865266184E+02 -0.56959247884E+01 -0.36446665503E+02  0.47787269786E+02  0.19999994261E+02 0.  0.
         12    1    1    2    0    0 -0.22865266184E+02  0.56959247884E+01  0.36446665503E+02  0.43400730214E+02  0.00000000000E+00 0. -1.
         11    1    3    3    0    0  0.22597743012E+01  0.54964156582E+01 -0.10817451713E+02  0.12342383351E+02  0.51100000000E-03 0. -1.
        -11    1    3    3    0    0  0.62583161607E+01 -0.40449636128E+00 -0.90423559307E+01  0.11004287324E+02  0.51100000000E-03 0.  1.
         12    1    3    3    0    0  0.14347175722E+02 -0.10787844085E+02 -0.16586857860E+02  0.24440599110E+02  0.00000000000E+00 0. -1.
</event>
<event>
 7    1  0.8300060E-011  0.4778727E+02  0.7816164E-02  0.1312668E+00
        -11   -1    0    0    0    0  0.00000000000E+00  0.00000000000E+00  0.45593999997E+02  0.45594000000E+02  0.51100000000E-03 0.  1.
         11   -1    0    0    0    0 -0.00000000000E+00 -0.00000000000E+00 -0.45593999997E+02  0.45594000000E+02  0.51100000000E-03 0. -1.
    9900012    2    1    2    0    0  0.42642283195E+02  0.18704652124E+01  0.78587702206E+01  0.47787271601E+02  0.20000002539E+02 0.  0.
        -12    1    1    2    0    0 -0.42642283195E+02 -0.18704652124E+01 -0.78587702206E+01  0.43400728399E+02  0.00000000000E+00 0.  1.
         11    1    3    3    0    0  0.22850747752E+02  0.84503566158E+01  0.26662464585E+01  0.24508652965E+02  0.51100000000E-03 0. -1.
        -11    1    3    3    0    0  0.12193996676E+02 -0.20768623811E+01  0.70728274039E+01  0.14248922767E+02  0.51100000000E-03 0.  1.
         12    1    3    3    0    0  0.75975387674E+01 -0.45030290223E+01 -0.18803036418E+01  0.90296958688E+01  0.00000000000E+00 0. -1.
</event>
<event>
 7    1  0.8300060E-011  0.4778727E+02  0.7816164E-02  0.1312668E+00
        -11   -1    0    0    0    0  0.00000000000E+00  0.00000000000E+00  0.45593999997E+02  0.45594000000E+02  0.51100000000E-03 0. -1.
         11   -1    0    0    0    0 -0.00000000000E+00 -0.00000000000E+00 -0.45593999997E+02  0.45594000000E+02  0.51100000000E-03 0.  1.
    9900012    2    1    2    0    0 -0.86273176827E+01  0.21464829185E+02 -0.36721299099E+02  0.47787270630E+02  0.19999998109E+02 0.  0.
         12    1    1    2    0    0  0.86273176827E+01 -0.21464829185E+02  0.36721299099E+02  0.43400729370E+02  0.00000000000E+00 0. -1.
         11    1    3    3    0    0 -0.17893577703E+00  0.51899453307E+01 -0.87438029968E+01  0.10169643143E+02  0.51100000000E-03 0. -1.
        -11    1    3    3    0    0 -0.94011071387E+01  0.10043090916E+02 -0.28127816777E+02  0.31311636295E+02  0.51100000000E-03 0.  1.
        -12    1    3    3    0    0  0.95272523299E+00  0.62317929392E+01  0.15032067481E+00  0.63059911918E+01  0.00000000000E+00 0.  1.
</event>
<event>
 7    1  0.8300060E-011  0.4778722E+02  0.7816164E-02  0.1312668E+00
        -11   -1    0    0    0    0  0.00000000000E+00  0.00000000000E+00  0.45593999997E+02  0.45594000000E+02  0.51100000000E-03 0. -1.
         11   -1    0    0    0    0 -0.00000000000E+00 -0.00000000000E+00 -0.45593999997E+02  0.45594000000E+02  0.51100000000E-03 0.  1.
    9900012    2    1    2    0    0 -0.13666710444E+02 -0.33233799221E+02 -0.24338512268E+02  0.47787221615E+02  0.19999774630E+02 0.  0.
         12    1    1    2    0    0  0.13666710444E+02  0.33233799221E+02  0.24338512268E+02  0.43400778385E+02  0.00000000000E+00 0. -1.
         11    1    3    3    0    0  0.35584524947E+01 -0.12428051125E+02 -0.48068483591E+01  0.13792201794E+02  0.51100000000E-03 0. -1.
        -11    1    3    3    0    0 -0.15267140951E+02 -0.17621498466E+02 -0.13623889165E+02  0.27003947068E+02  0.51100000000E-03 0.  1.
        -12    1    3    3    0    0 -0.19580219875E+01 -0.31842496297E+01 -0.59077747440E+01  0.69910727527E+01  0.00000000000E+00 0.  1.
</event>
<event>
 7    1  0.8300060E-011  0.4778726E+02  0.7816164E-02  0.1312668E+00
        -11   -1    0    0    0    0  0.00000000000E+00  0.00000000000E+00  0.45593999997E+02  0.45594000000E+02  0.51100000000E-03 0. -1.
         11   -1    0    0    0    0 -0.00000000000E+00 -0.00000000000E+00 -0.45593999997E+02  0.45594000000E+02  0.51100000000E-03 0.  1.
    9900012    2    1    2    0    0 -0.56117138536E+01 -0.21864899879E+02  0.37068303763E+02  0.47787258959E+02  0.19999944896E+02 0.  0.
        -12    1    1    2    0    0  0.56117138536E+01  0.21864899879E+02 -0.37068303763E+02  0.43400741041E+02  0.00000000000E+00 0.  1.
         11    1    3    3    0    0 -0.87158774108E+01 -0.10102960525E+02  0.26405536363E+02  0.29585278118E+02  0.51100000000E-03 0. -1.
        -11    1    3    3    0    0  0.41444059761E+01 -0.73614711073E+01  0.10758875896E+02  0.13679209355E+02  0.51100000000E-03 0.  1.
        -12    1    3    3    0    0 -0.10402424190E+01 -0.44004682462E+01 -0.96108496313E-01  0.45227714865E+01  0.00000000000E+00 0.  1.
</event>
<event>
 7    1  0.8300060E-011  0.4778727E+02  0.7816164E-02  0.1312668E+00
        -11   -1    0    0    0    0  0.00000000000E+00  0.00000000000E+00  0.45593999997E+02  0.45594000000E+02  0.51100000000E-03 0. -1.
         11   -1    0    0    0    0 -0.00000000000E+00 -0.00000000000E+00 -0.45593999997E+02  0.45594000000E+02  0.51100000000E-03 0.  1.
    9900012    2    1    2    0    0  0.96745035899E+01 -0.24678516179E+02  0.34365659410E+02  0.47787265822E+02  0.19999976190E+02 0.  0.
        -12    1    1    2    0    0 -0.96745035899E+01  0.24678516179E+02 -0.34365659410E+02  0.43400734178E+02  0.00000000000E+00 0.  1.
         11    1    3    3    0    0  0.71678836841E+01 -0.18616116403E+02  0.13126063992E+02  0.23879528945E+02  0.51100000000E-03 0. -1.
        -11    1    3    3    0    0 -0.93635083589E+00 -0.53645134820E+01  0.18944112915E+02  0.19711270182E+02  0.51100000000E-03 0.  1.
         12    1    3    3    0    0  0.34429707417E+01 -0.69788629457E+00  0.22954825016E+01  0.41964666951E+01  0.00000000000E+00 0. -1.
</event>
<event>
 7    1  0.8300060E-011  0.4778727E+02  0.7816164E-02  0.1312668E+00
        -11   -1    0    0    0    0  0.00000000000E+00  0.00000000000E+00  0.45593999997E+02  0.45594000000E+02  0.51100000000E-03 0. -1.
         11   -1    0    0    0    0 -0.00000000000E+00 -0.00000000000E+00 -0.45593999997E+02  0.45594000000E+02  0.51100000000E-03 0.  1.
    9900012    2    1    2    0    0  0.93640086610E+01 -0.33598203556E+02 -0.25828270044E+02  0.47787268740E+02  0.19999989495E+02 0.  0.
         12    1    1    2    0    0 -0.93640086610E+01  0.33598203556E+02  0.25828270044E+02  0.43400731260E+02  0.00000000000E+00 0. -1.
         11    1    3    3    0    0  0.43815733151E+01 -0.57851532707E+01 -0.14824625073E+02  0.16505626068E+02  0.51100000000E-03 0.  1.
        -11    1    3    3    0    0 -0.13079492498E+01 -0.11033807094E+01 -0.13943830330E+01  0.22073705022E+01  0.51100000000E-03 0. -1.
         12    1    3    3    0    0  0.62903845957E+01 -0.26709669576E+02 -0.96092619376E+01  0.29074272170E+02  0.00000000000E+00 0. -1.
</event>
<event>
 7    1  0.8300060E-011  0.4778727E+02  0.7816164E-02  0.1312668E+00
        -11   -1    0    0    0    0  0.00000000000E+00  0.00000000000E+00  0.45593999997E+02  0.45594000000E+02  0.51100000000E-03 0. -1.
         11   -1    0    0    0    0 -0.00000000000E+00 -0.00000000000E+00 -0.45593999997E+02  0.45594000000E+02  0.51100000000E-03 0.  1.
    9900012    2    1    2    0    0  0.17814592605E+02  0.21144388941E+02  0.33454121872E+02  0.47787272315E+02  0.20000005794E+02 0.  0.
        -12    1    1    2    0    0 -0.17814592605E+02 -0.21144388941E+02 -0.33454121872E+02  0.43400727685E+02  0.00000000000E+00 0.  1.
         11    1    3    3    0    0  0.17634631463E+02  0.13523477209E+02  0.18765050183E+02  0.29085937690E+02  0.51100000000E-03 0. -1.
        -11    1    3    3    0    0  0.14608497142E+01  0.57278148449E+01  0.15243360123E+02  0.16349372247E+02  0.51100000000E-03 0.  1.
        -12    1    3    3    0    0 -0.12808885727E+01  0.18930968867E+01 -0.55428843424E+00  0.23519623778E+01  0.00000000000E+00 0.  1.
</event>
<event>
 7    1  0.8300060E-011  0.4778727E+02  0.7816164E-02  0.1312668E+00
        -11   -1    0    0    0    0  0.00000000000E+00  0.00000000000E+00  0.45593999997E+02  0.45594000000E+02  0.51100000000E-03 0. -1.
         11   -1    0    0    0    0 -0.00000000000E+00 -0.00000000000E+00 -0.45593999997E+02  0.45594000000E+02  0.51100000000E-03 0.  1.
    9900012    2    1    2    0    0 -0.40127719396E+02 -0.32450138291E+01  0.16212929235E+02  0.47787273588E+02  0.20000011598E+02 0.  0.
        -12    1    1    2    0    0  0.40127719396E+02  0.32450138291E+01 -0.16212929235E+02  0.43400726412E+02  0.00000000000E+00 0.  1.
         11    1    3    3    0    0 -0.18653869531E+02 -0.47604212881E+01  0.13697168847E+02  0.23627122000E+02  0.51100000000E-03 0. -1.
        -11    1    3    3    0    0 -0.74994942972E+01 -0.11363196899E+01 -0.39315114500E+01  0.85434430819E+01  0.51100000000E-03 0.  1.
         12    1    3    3    0    0 -0.13974355568E+02  0.26517271489E+01  0.64472718381E+01  0.15616708506E+02  0.00000000000E+00 0. -1.
</event>
<event>
 7    1  0.8300060E-011  0.4778727E+02  0.7816164E-02  0.1312668E+00
        -11   -1    0    0    0    0  0.00000000000E+00  0.00000000000E+00  0.45593999997E+02  0.45594000000E+02  0.51100000000E-03 0. -1.
         11   -1    0    0    0    0 -0.00000000000E+00 -0.00000000000E+00 -0.45593999997E+02  0.45594000000E+02  0.51100000000E-03 0.  1.
    9900012    2    1    2    0    0  0.23454449141E+01  0.33946810482E+02 -0.26939490663E+02  0.47787271770E+02  0.20000003308E+02 0.  0.
         12    1    1    2    0    0 -0.23454449141E+01 -0.33946810482E+02  0.26939490663E+02  0.43400728230E+02  0.00000000000E+00 0. -1.
         11    1    3    3    0    0 -0.62055424451E+01  0.99815383431E+01 -0.48770592931E+01  0.12724997931E+02  0.51100000000E-03 0. -1.
        -11    1    3    3    0    0  0.82645081515E+01  0.15820085530E+02 -0.19685608281E+02  0.26572549272E+02  0.51100000000E-03 0.  1.
        -12    1    3    3    0    0  0.28647920776E+00  0.81451866084E+01 -0.23768230884E+01  0.84897245665E+01  0.00000000000E+00 0.  1.
</event>
<event>
 7    1  0.8300060E-011  0.4778727E+02  0.7816164E-02  0.1312668E+00
        -11   -1    0    0    0    0  0.00000000000E+00  0.00000000000E+00  0.45593999997E+02  0.45594000000E+02  0.51100000000E-03 0. -1.
         11   -1    0    0    0    0 -0.00000000000E+00 -0.00000000000E+00 -0.45593999997E+02  0.45594000000E+02  0.51100000000E-03 0.  1.
    9900012    2    1    2    0    0 -0.17177285246E+02  0.36291115466E+02 -0.16477828311E+02  0.47787274015E+02  0.20000013544E+02 0.  0.
         12    1    1    2    0    0  0.17177285246E+02 -0.36291115466E+02  0.16477828311E+02  0.43400725985E+02  0.00000000000E+00 0. -1.
         11    1    3    3    0    0 -0.33782973676E+01  0.72534210484E+01  0.10994933595E+01  0.80767503315E+01  0.51100000000E-03 0. -1.
        -11    1    3    3    0    0 -0.67774899188E+01  0.27483184858E+02 -0.15242093087E+02  0.32149358026E+02  0.51100000000E-03 0.  1.
        -12    1    3    3    0    0 -0.70214979597E+01  0.15545095597E+01 -0.23352285834E+01  0.75611656579E+01  0.00000000000E+00 0.  1.
</event>
<event>
 7    1  0.8300060E-011  0.4778727E+02  0.7816164E-02  0.1312668E+00
        -11   -1    0    0    0    0  0.00000000000E+00  0.00000000000E+00  0.45593999997E+02  0.45594000000E+02  0.51100000000E-03 0.  1.
         11   -1    0    0    0    0 -0.00000000000E+00 -0.00000000000E+00 -0.45593999997E+02  0.45594000000E+02  0.51100000000E-03 0. -1.
    9900012    2    1    2    0    0 -0.18007832135E+02 -0.36890832795E+02  0.14085742395E+02  0.47787266120E+02  0.19999977549E+02 0.  0.
        -12    1    1    2    0    0  0.18007832135E+02  0.36890832795E+02 -0.14085742395E+02  0.43400733880E+02  0.00000000000E+00 0.  1.
         11    1    3    3    0    0 -0.20834104958E+01 -0.17461329520E+01 -0.49321179140E-01  0.27188255589E+01  0.51100000000E-03 0. -1.
        -11    1    3    3    0    0 -0.13646031082E+02 -0.12231303467E+02  0.55069887294E+00  0.18333636255E+02  0.51100000000E-03 0.  1.
        -12    1    3    3    0    0 -0.22783905568E+01 -0.22913396375E+02  0.13584364701E+02  0.26734804307E+02  0.00000000000E+00 0.  1.
</event>
<event>
 7    1  0.1463077E-010  0.4778727E+02  0.7816164E-02  0.1312668E+00
        -11   -1    0    0    0    0  0.00000000000E+00  0.00000000000E+00  0.45593999997E+02  0.45594000000E+02  0.51100000000E-03 0. -1.
         11   -1    0    0    0    0 -0.00000000000E+00 -0.00000000000E+00 -0.45593999997E+02  0.45594000000E+02  0.51100000000E-03 0.  1.
    9900012    2    1    2    0    0  0.28959321160E+01  0.23506598787E+02  0.36368623094E+02  0.47787270109E+02  0.19999995733E+02 0.  0.
        -12    1    1    2    0    0 -0.28959321160E+01 -0.23506598787E+02 -0.36368623094E+02  0.43400729891E+02  0.00000000000E+00 0.  1.
         11    1    3    3    0    0 -0.12249824579E+00  0.12655092377E+02  0.19662625781E+02  0.23383439049E+02  0.51100000000E-03 0. -1.
        -11    1    3    3    0    0  0.45583525766E+01  0.10283592251E+02  0.45442320736E+01  0.12131813269E+02  0.51100000000E-03 0.  1.
        -12    1    3    3    0    0 -0.15399222148E+01  0.56791415971E+00  0.12161765239E+02  0.12272017791E+02  0.00000000000E+00 0.  1.
</event>
<event>
 7    1  0.8300060E-011  0.4778727E+02  0.7816164E-02  0.1312668E+00
        -11   -1    0    0    0    0  0.00000000000E+00  0.00000000000E+00  0.45593999997E+02  0.45594000000E+02  0.51100000000E-03 0. -1.
         11   -1    0    0    0    0 -0.00000000000E+00 -0.00000000000E+00 -0.45593999997E+02  0.45594000000E+02  0.51100000000E-03 0.  1.
    9900012    2    1    2    0    0  0.28052673950E+02  0.29273553652E+02 -0.15483207624E+02  0.47787272155E+02  0.20000005061E+02 0.  0.
         12    1    1    2    0    0 -0.28052673950E+02 -0.29273553652E+02  0.15483207624E+02  0.43400727845E+02  0.00000000000E+00 0. -1.
         11    1    3    3    0    0  0.76666554172E+01  0.15093810912E+01 -0.53592719400E+00  0.78321807170E+01  0.51100000000E-03 0. -1.
        -11    1    3    3    0    0  0.10168158532E+02  0.23853890392E+02 -0.12294063931E+02  0.28697448370E+02  0.51100000000E-03 0.  1.
        -12    1    3    3    0    0  0.10217860001E+02  0.39102821690E+01 -0.26532164995E+01  0.11257643068E+02  0.00000000000E+00 0.  1.
</event>
<event>
 7    1  0.8300060E-011  0.4778725E+02  0.7816164E-02  0.1312668E+00
        -11   -1    0    0    0    0  0.00000000000E+00  0.00000000000E+00  0.45593999997E+02  0.45594000000E+02  0.51100000000E-03 0. -1.
         11   -1    0    0    0    0 -0.00000000000E+00 -0.00000000000E+00 -0.45593999997E+02  0.45594000000E+02  0.51100000000E-03 0.  1.
    9900012    2    1    2    0    0 -0.27268707174E+02  0.88151322369E-01 -0.33764402814E+02  0.47787250479E+02  0.19999906235E+02 0.  0.
         12    1    1    2    0    0  0.27268707174E+02 -0.88151322369E-01  0.33764402814E+02  0.43400749521E+02  0.00000000000E+00 0. -1.
         11    1    3    3    0    0 -0.70730670587E+01  0.47445983536E+01 -0.27391299477E+01  0.89466375966E+01  0.51100000000E-03 0. -1.
        -11    1    3    3    0    0 -0.79603437951E+01 -0.69668812823E+01 -0.17563711825E+02  0.20503377319E+02  0.51100000000E-03 0.  1.
        -12    1    3    3    0    0 -0.12235296320E+02  0.23104342511E+01 -0.13461561041E+02  0.18337235564E+02  0.00000000000E+00 0.  1.
</event>
<event>
 7    1  0.8300060E-011  0.4778727E+02  0.7816164E-02  0.1312668E+00
        -11   -1    0    0    0    0  0.00000000000E+00  0.00000000000E+00  0.45593999997E+02  0.45594000000E+02  0.51100000000E-03 0. -1.
         11   -1    0    0    0    0 -0.00000000000E+00 -0.00000000000E+00 -0.45593999997E+02  0.45594000000E+02  0.51100000000E-03 0.  1.
    9900012    2    1    2    0    0 -0.28191239358E+02  0.12212651517E+02 -0.30654990162E+02  0.47787271257E+02  0.20000000968E+02 0.  0.
         12    1    1    2    0    0  0.28191239358E+02 -0.12212651517E+02  0.30654990162E+02  0.43400728743E+02  0.00000000000E+00 0. -1.
         11    1    3    3    0    0 -0.52335017457E+01  0.11622032259E+01 -0.55425947927E+01  0.77110708827E+01  0.51100000000E-03 0. -1.
        -11    1    3    3    0    0 -0.26363866573E+01 -0.41848089997E+01 -0.81538032304E+01  0.95366486961E+01  0.51100000000E-03 0.  1.
        -12    1    3    3    0    0 -0.20321350955E+02  0.15235257291E+02 -0.16958592139E+02  0.30539551678E+02  0.00000000000E+00 0.  1.
</event>
<event>
 7    1  0.8300060E-011  0.4778726E+02  0.7816164E-02  0.1312668E+00
        -11   -1    0    0    0    0  0.00000000000E+00  0.00000000000E+00  0.45593999997E+02  0.45594000000E+02  0.51100000000E-03 0. -1.
         11   -1    0    0    0    0 -0.00000000000E+00 -0.00000000000E+00 -0.45593999997E+02  0.45594000000E+02  0.51100000000E-03 0.  1.
    9900012    2    1    2    0    0  0.30010296901E+02 -0.18511200744E+02  0.25304972904E+02  0.47787261219E+02  0.19999955204E+02 0.  0.
        -12    1    1    2    0    0 -0.30010296901E+02  0.18511200744E+02 -0.25304972904E+02  0.43400738781E+02  0.00000000000E+00 0.  1.
         11    1    3    3    0    0  0.25228983103E+02 -0.96128140649E+01  0.14613585574E+02  0.30699587395E+02  0.51100000000E-03 0.  1.
        -11    1    3    3    0    0  0.35914273198E+01 -0.10510844641E+02  0.78117833108E+01  0.13579402196E+02  0.51100000000E-03 0. -1.
        -12    1    3    3    0    0  0.11898864784E+01  0.16124579620E+01  0.28796040192E+01  0.35082716283E+01  0.00000000000E+00 0.  1.
</event>
<event>
 7    1  0.8300060E-011  0.4778727E+02  0.7816164E-02  0.1312668E+00
        -11   -1    0    0    0    0  0.00000000000E+00  0.00000000000E+00  0.45593999997E+02  0.45594000000E+02  0.51100000000E-03 0. -1.
         11   -1    0    0    0    0 -0.00000000000E+00 -0.00000000000E+00 -0.45593999997E+02  0.45594000000E+02  0.51100000000E-03 0.  1.
    9900012    2    1    2    0    0  0.12099932151E+02 -0.21684207170E+02  0.35595084790E+02  0.47787271206E+02  0.20000000736E+02 0.  0.
        -12    1    1    2    0    0 -0.12099932151E+02  0.21684207170E+02 -0.35595084790E+02  0.43400728794E+02  0.00000000000E+00 0.  1.
         11    1    3    3    0    0  0.41857230146E+01 -0.12429383696E+02  0.16969334681E+02  0.21446868676E+02  0.51100000000E-03 0. -1.
        -11    1    3    3    0    0 -0.34445493663E+00  0.53269282638E+00  0.11821898325E+02  0.11838905824E+02  0.51100000000E-03 0.  1.
        -12    1    3    3    0    0  0.82586640734E+01 -0.97875163005E+01  0.68038517844E+01  0.14501496706E+02  0.00000000000E+00 0.  1.
</event>
<event>
 7    1  0.8300060E-011  0.4778727E+02  0.7816164E-02  0.1312668E+00
        -11   -1    0    0    0    0  0.00000000000E+00  0.00000000000E+00  0.45593999997E+02  0.45594000000E+02  0.51100000000E-03 0. -1.
         11   -1    0    0    0    0 -0.00000000000E+00 -0.00000000000E+00 -0.45593999997E+02  0.45594000000E+02  0.51100000000E-03 0.  1.
    9900012    2    1    2    0    0  0.21735290407E+02 -0.91566218292E+01  0.36432906425E+02  0.47787271400E+02  0.20000001623E+02 0.  0.
        -12    1    1    2    0    0 -0.21735290407E+02  0.91566218292E+01 -0.36432906425E+02  0.43400728600E+02  0.00000000000E+00 0.  1.
         11    1    3    3    0    0  0.16329256208E+02 -0.40754827411E+01  0.31304733393E+02  0.35542094775E+02  0.51100000000E-03 0. -1.
        -11    1    3    3    0    0  0.55786424303E+01 -0.29287220659E+01 -0.39685795089E+00  0.63131735916E+01  0.51100000000E-03 0.  1.
         12    1    3    3    0    0 -0.17260823117E+00 -0.21524170222E+01  0.55250309826E+01  0.59320030342E+01  0.00000000000E+00 0. -1.
</event>
<event>
 7    1  0.8300060E-011  0.4778727E+02  0.7816164E-02  0.1312668E+00
        -11   -1    0    0    0    0  0.00000000000E+00  0.00000000000E+00  0.45593999997E+02  0.45594000000E+02  0.51100000000E-03 0. -1.
         11   -1    0    0    0    0 -0.00000000000E+00 -0.00000000000E+00 -0.45593999997E+02  0.45594000000E+02  0.51100000000E-03 0.  1.
    9900012    2    1    2    0    0  0.27579670748E+02 -0.51864512473E+01  0.33107183983E+02  0.47787272513E+02  0.20000006695E+02 0.  0.
        -12    1    1    2    0    0 -0.27579670748E+02  0.51864512473E+01 -0.33107183983E+02  0.43400727487E+02  0.00000000000E+00 0.  1.
         11    1    3    3    0    0  0.24550254773E+02 -0.25519359020E+01  0.29715777750E+02  0.38629714389E+02  0.51100000000E-03 0. -1.
        -11    1    3    3    0    0 -0.24626271948E+01 -0.10076333355E+01  0.18006926932E+01  0.32128417446E+01  0.51100000000E-03 0.  1.
        -12    1    3    3    0    0  0.54920431707E+01 -0.16268820097E+01  0.15907135399E+01  0.59447163791E+01  0.00000000000E+00 0.  1.
</event>
<event>
 7    1  0.8300060E-011  0.4778728E+02  0.7816164E-02  0.1312668E+00
        -11   -1    0    0    0    0  0.00000000000E+00  0.00000000000E+00  0.45593999997E+02  0.45594000000E+02  0.51100000000E-03 0. -1.
         11   -1    0    0    0    0 -0.00000000000E+00 -0.00000000000E+00 -0.45593999997E+02  0.45594000000E+02  0.51100000000E-03 0.  1.
    9900012    2    1    2    0    0 -0.17331218469E+02 -0.32950464726E+02 -0.22305111370E+02  0.47787282811E+02  0.20000053650E+02 0.  0.
         12    1    1    2    0    0  0.17331218469E+02  0.32950464726E+02  0.22305111370E+02  0.43400717189E+02  0.00000000000E+00 0. -1.
         11    1    3    3    0    0 -0.40277649593E+01 -0.17638459900E+02 -0.17668959304E+02  0.25288935948E+02  0.51100000000E-03 0. -1.
        -11    1    3    3    0    0 -0.11991192138E+02 -0.85812811216E+01 -0.51568688397E+01  0.15621151400E+02  0.51100000000E-03 0.  1.
        -12    1    3    3    0    0 -0.13122613719E+01 -0.67307237038E+01  0.52071677347E+00  0.68771954635E+01  0.00000000000E+00 0.  1.
</event>
<event>
 7    1  0.8300060E-011  0.4778727E+02  0.7816164E-02  0.1312668E+00
        -11   -1    0    0    0    0  0.00000000000E+00  0.00000000000E+00  0.45593999997E+02  0.45594000000E+02  0.51100000000E-03 0.  1.
         11   -1    0    0    0    0 -0.00000000000E+00 -0.00000000000E+00 -0.45593999997E+02  0.45594000000E+02  0.51100000000E-03 0. -1.
    9900012    2    1    2    0    0  0.24445711212E+02 -0.31630612754E+02 -0.16897775391E+02  0.47787271054E+02  0.20000000044E+02 0.  0.
        -12    1    1    2    0    0 -0.24445711212E+02  0.31630612754E+02  0.16897775391E+02  0.43400728946E+02  0.00000000000E+00 0.  1.
         11    1    3    3    0    0  0.41328675004E+01 -0.44545064995E+01 -0.17774469025E+01  0.63310772924E+01  0.51100000000E-03 0. -1.
        -11    1    3    3    0    0  0.14956812887E+02 -0.11415879684E+02  0.22444108388E+00  0.18816985273E+02  0.51100000000E-03 0.  1.
        -12    1    3    3    0    0  0.53560308240E+01 -0.15760226571E+02 -0.15344769573E+02  0.22639208489E+02  0.00000000000E+00 0.  1.
</event>
<event>
 7    1  0.8300060E-011  0.4778727E+02  0.7816164E-02  0.1312668E+00
        -11   -1    0    0    0    0  0.00000000000E+00  0.00000000000E+00  0.45593999997E+02  0.45594000000E+02  0.51100000000E-03 0. -1.
         11   -1    0    0    0    0 -0.00000000000E+00 -0.00000000000E+00 -0.45593999997E+02  0.45594000000E+02  0.51100000000E-03 0.  1.
    9900012    2    1    2    0    0  0.57199334962E+01 -0.19422209291E+02 -0.38388581337E+02  0.47787273854E+02  0.20000012809E+02 0.  0.
         12    1    1    2    0    0 -0.57199334962E+01  0.19422209291E+02  0.38388581337E+02  0.43400726146E+02  0.00000000000E+00 0. -1.
         11    1    3    3    0    0  0.98063883156E+01 -0.13167683725E+02 -0.21369934885E+02  0.26948604115E+02  0.51100000000E-03 0. -1.
        -11    1    3    3    0    0 -0.13059147614E+01  0.23674240239E+01 -0.59491400365E+01  0.65347056022E+01  0.51100000000E-03 0.  1.
        -12    1    3    3    0    0 -0.27805400580E+01 -0.86219495898E+01 -0.11069506416E+02  0.14303964137E+02  0.00000000000E+00 0.  1.
</event>
<event>
 7    1  0.1465576E-010  0.4778727E+02  0.7816164E-02  0.1312668E+00
        -11   -1    0    0    0    0  0.00000000000E+00  0.00000000000E+00  0.45593999997E+02  0.45594000000E+02  0.51100000000E-03 0. -1.
         11   -1    0    0    0    0 -0.00000000000E+00 -0.00000000000E+00 -0.45593999997E+02  0.45594000000E+02  0.51100000000E-03 0.  1.
    9900012    2    1    2    0    0 -0.23683639790E+02  0.85569496194E+01  0.35348084645E+02  0.47787271105E+02  0.20000000276E+02 0.  0.
        -12    1    1    2    0    0  0.23683639790E+02 -0.85569496194E+01 -0.35348084645E+02  0.43400728895E+02  0.00000000000E+00 0.  1.
         11    1    3    3    0    0 -0.12210461092E+02  0.83415026459E+01  0.28232834201E+02  0.31871130412E+02  0.51100000000E-03 0. -1.
        -11    1    3    3    0    0  0.40820571521E+00 -0.62282420252E+00 -0.11841980167E+01  0.13988806586E+01  0.51100000000E-03 0.  1.
         12    1    3    3    0    0 -0.11881384413E+02  0.83827117600E+00  0.82994484616E+01  0.14517260035E+02  0.00000000000E+00 0. -1.
</event>
<event>
 7    1  0.8300060E-011  0.4778727E+02  0.7816164E-02  0.1312668E+00
        -11   -1    0    0    0    0  0.00000000000E+00  0.00000000000E+00  0.45593999997E+02  0.45594000000E+02  0.51100000000E-03 0. -1.
         11   -1    0    0    0    0 -0.00000000000E+00 -0.00000000000E+00 -0.45593999997E+02  0.45594000000E+02  0.51100000000E-03 0.  1.
    9900012    2    1    2    0    0 -0.34184110258E+02  0.19561014695E+02 -0.18232840479E+02  0.47787272333E+02  0.20000005876E+02 0.  0.
         12    1    1    2    0    0  0.34184110258E+02 -0.19561014695E+02  0.18232840479E+02  0.43400727667E+02  0.00000000000E+00 0. -1.
         11    1    3    3    0    0  0.17003741255E+01  0.34729014118E+01 -0.67860106508E+00  0.39259159504E+01  0.51100000000E-03 0. -1.
        -11    1    3    3    0    0 -0.22015256274E+02  0.11102487813E+02 -0.15121044327E+02  0.28923739839E+02  0.51100000000E-03 0.  1.
         12    1    3    3    0    0 -0.13869228109E+02  0.49856254705E+01 -0.24331950875E+01  0.14937616544E+02  0.00000000000E+00 0. -1.
</event>
<event>
 7    1  0.8300060E-011  0.4778727E+02  0.7816164E-02  0.1312668E+00
        -11   -1    0    0    0    0  0.00000000000E+00  0.00000000000E+00  0.45593999997E+02  0.45594000000E+02  0.51100000000E-03 0. -1.
         11   -1    0    0    0    0 -0.00000000000E+00 -0.00000000000E+00 -0.45593999997E+02  0.45594000000E+02  0.51100000000E-03 0.  1.
    9900012    2    1    2    0    0  0.24835735558E+01 -0.27756257470E+02 -0.33272292444E+02  0.47787269466E+02  0.19999992805E+02 0.  0.
         12    1    1    2    0    0 -0.24835735558E+01  0.27756257470E+02  0.33272292444E+02  0.43400730534E+02  0.00000000000E+00 0. -1.
         11    1    3    3    0    0  0.41696181168E+00 -0.33591202516E+01 -0.44155883883E+00  0.34135788384E+01  0.51100000000E-03 0. -1.
        -11    1    3    3    0    0  0.91446037817E+01 -0.15487342813E+02 -0.16093415267E+02  0.24134613752E+02  0.51100000000E-03 0.  1.
        -12    1    3    3    0    0 -0.70779920376E+01 -0.89097944056E+01 -0.16737318338E+02  0.20239076876E+02  0.00000000000E+00 0.  1.
</event>
<event>
 7    1  0.8300060E-011  0.4778727E+02  0.7816164E-02  0.1312668E+00
        -11   -1    0    0    0    0  0.00000000000E+00  0.00000000000E+00  0.45593999997E+02  0.45594000000E+02  0.51100000000E-03 0. -1.
         11   -1    0    0    0    0 -0.00000000000E+00 -0.00000000000E+00 -0.45593999997E+02  0.45594000000E+02  0.51100000000E-03 0.  1.
    9900012    2    1    2    0    0  0.16590548148E+02  0.66908582364E+01  0.39542502588E+02  0.47787269790E+02  0.19999994282E+02 0.  0.
        -12    1    1    2    0    0 -0.16590548148E+02 -0.66908582364E+01 -0.39542502588E+02  0.43400730210E+02  0.00000000000E+00 0.  1.
         11    1    3    3    0    0  0.17364501481E+02  0.18054517831E+01  0.26046772696E+02  0.31356338052E+02  0.51100000000E-03 0. -1.
        -11    1    3    3    0    0 -0.37693602095E+01  0.51280798496E+01  0.93512862573E+01  0.11311579654E+02  0.51100000000E-03 0.  1.
        -12    1    3    3    0    0  0.29954068765E+01 -0.24267339636E+00  0.41444436343E+01  0.51193520851E+01  0.00000000000E+00 0.  1.
</event>
<event>
 7    1  0.8300060E-011  0.4778727E+02  0.7816164E-02  0.1312668E+00
        -11   -1    0    0    0    0  0.00000000000E+00  0.00000000000E+00  0.45593999997E+02  0.45594000000E+02  0.51100000000E-03 0. -1.
         11   -1    0    0    0    0 -0.00000000000E+00 -0.00000000000E+00 -0.45593999997E+02  0.45594000000E+02  0.51100000000E-03 0.  1.
    9900012    2    1    2    0    0 -0.16857605052E+01  0.40943578289E+02 -0.14297036677E+02  0.47787266719E+02  0.19999980279E+02 0.  0.
         12    1    1    2    0    0  0.16857605052E+01 -0.40943578289E+02  0.14297036677E+02  0.43400733281E+02  0.00000000000E+00 0. -1.
         11    1    3    3    0    0 -0.35730453702E+01  0.15883100803E+01  0.28165574566E+01  0.48189602920E+01  0.51100000000E-03 0. -1.
        -11    1    3    3    0    0  0.49959303250E+00  0.53351211960E+01 -0.20656902897E+01  0.57428379751E+01  0.51100000000E-03 0.  1.
         12    1    3    3    0    0  0.13876918324E+01  0.34020147013E+02 -0.15047903844E+02  0.37225468452E+02  0.00000000000E+00 0. -1.
</event>
<event>
 7    1  0.8300060E-011  0.4778727E+02  0.7816164E-02  0.1312668E+00
        -11   -1    0    0    0    0  0.00000000000E+00  0.00000000000E+00  0.45593999997E+02  0.45594000000E+02  0.51100000000E-03 0. -1.
         11   -1    0    0    0    0 -0.00000000000E+00 -0.00000000000E+00 -0.45593999997E+02  0.45594000000E+02  0.51100000000E-03 0.  1.
    9900012    2    1    2    0    0  0.40435183858E+02  0.12286915747E+02 -0.98818388141E+01  0.47787272695E+02  0.20000007526E+02 0.  0.
         12    1    1    2    0    0 -0.40435183858E+02 -0.12286915747E+02  0.98818388141E+01  0.43400727305E+02  0.00000000000E+00 0. -1.
         11    1    3    3    0    0  0.76387666467E-01  0.48757996963E+01  0.16473510640E-01  0.48764258829E+01  0.51100000000E-03 0. -1.
        -11    1    3    3    0    0  0.28285605350E+02  0.68496004502E+01 -0.10149061794E+02  0.30822004346E+02  0.51100000000E-03 0.  1.
        -12    1    3    3    0    0  0.12073190842E+02  0.56151560051E+00  0.25074946950E+00  0.12088842466E+02  0.00000000000E+00 0.  1.
</event>
<event>
 7    1  0.8300060E-011  0.4778727E+02  0.7816164E-02  0.1312668E+00
        -11   -1    0    0    0    0  0.00000000000E+00  0.00000000000E+00  0.45593999997E+02  0.45594000000E+02  0.51100000000E-03 0.  1.
         11   -1    0    0    0    0 -0.00000000000E+00 -0.00000000000E+00 -0.45593999997E+02  0.45594000000E+02  0.51100000000E-03 0. -1.
    9900012    2    1    2    0    0  0.23616271772E+02 -0.27222356797E+02  0.24183430510E+02  0.47787270591E+02  0.19999997933E+02 0.  0.
        -12    1    1    2    0    0 -0.23616271772E+02  0.27222356797E+02 -0.24183430510E+02  0.43400729409E+02  0.00000000000E+00 0.  1.
         11    1    3    3    0    0  0.11548637467E+02 -0.23312904865E+02  0.23236304330E+02  0.34882494173E+02  0.51100000000E-03 0.  1.
        -11    1    3    3    0    0  0.78023364464E+01 -0.15151432826E+01  0.10171396098E+01  0.80129074896E+01  0.51100000000E-03 0. -1.
        -12    1    3    3    0    0  0.42652978581E+01 -0.23943086500E+01 -0.70013429320E-01  0.48918689282E+01  0.00000000000E+00 0.  1.
</event>
<event>
 7    1  0.8300060E-011  0.4778725E+02  0.7816164E-02  0.1312668E+00
        -11   -1    0    0    0    0  0.00000000000E+00  0.00000000000E+00  0.45593999997E+02  0.45594000000E+02  0.51100000000E-03 0. -1.
         11   -1    0    0    0    0 -0.00000000000E+00 -0.00000000000E+00 -0.45593999997E+02  0.45594000000E+02  0.51100000000E-03 0.  1.
    9900012    2    1    2    0    0 -0.24356990062E+02 -0.27977935665E+01 -0.35812485775E+02  0.47787254026E+02  0.19999922406E+02 0.  0.
         12    1    1    2    0    0  0.24356990062E+02  0.27977935665E+01  0.35812485775E+02  0.43400745974E+02  0.00000000000E+00 0. -1.
         11    1    3    3    0    0 -0.29980111764E+01 -0.40007491231E+01  0.64362373891E+00  0.50406662593E+01  0.51100000000E-03 0. -1.
        -11    1    3    3    0    0 -0.13588625226E+02  0.36821543871E+01 -0.21239086621E+02  0.25481518738E+02  0.51100000000E-03 0.  1.
         12    1    3    3    0    0 -0.77703536600E+01 -0.24791988305E+01 -0.15217022893E+02  0.17265069029E+02  0.00000000000E+00 0. -1.
</event>
<event>
 7    1  0.8300060E-011  0.4778727E+02  0.7816164E-02  0.1312668E+00
        -11   -1    0    0    0    0  0.00000000000E+00  0.00000000000E+00  0.45593999997E+02  0.45594000000E+02  0.51100000000E-03 0. -1.
         11   -1    0    0    0    0 -0.00000000000E+00 -0.00000000000E+00 -0.45593999997E+02  0.45594000000E+02  0.51100000000E-03 0.  1.
    9900012    2    1    2    0    0  0.28607037493E+02  0.17374744730E+02  0.27629310858E+02  0.47787272275E+02  0.20000005611E+02 0.  0.
        -12    1    1    2    0    0 -0.28607037493E+02 -0.17374744730E+02 -0.27629310858E+02  0.43400727725E+02  0.00000000000E+00 0.  1.
         11    1    3    3    0    0  0.16431032625E+02  0.80185888091E+01  0.25861612930E+02  0.31671748029E+02  0.51100000000E-03 0. -1.
        -11    1    3    3    0    0  0.33799375703E-01 -0.16471233699E+00  0.62073970199E+00  0.64311009205E+00  0.51100000000E-03 0.  1.
         12    1    3    3    0    0  0.12142205492E+02  0.95208682577E+01  0.11469582268E+01  0.15472414154E+02  0.00000000000E+00 0. -1.
</event>
<event>
 7    1  0.8300060E-011  0.4778725E+02  0.7816164E-02  0.1312668E+00
        -11   -1    0    0    0    0  0.00000000000E+00  0.00000000000E+00  0.45593999997E+02  0.45594000000E+02  0.51100000000E-03 0. -1.
         11   -1    0    0    0    0 -0.00000000000E+00 -0.00000000000E+00 -0.45593999997E+02  0.45594000000E+02  0.51100000000E-03 0.  1.
    9900012    2    1    2    0    0 -0.95440338542E+01  0.34176600606E+02  0.24989920914E+02  0.47787253941E+02  0.19999922019E+02 0.  0.
        -12    1    1    2    0    0  0.95440338542E+01 -0.34176600606E+02 -0.24989920914E+02  0.43400746059E+02  0.00000000000E+00 0.  1.
         11    1    3    3    0    0 -0.78340323938E+01  0.32940443326E+02  0.21597637558E+02  0.40160961373E+02  0.51100000000E-03 0. -1.
        -11    1    3    3    0    0 -0.80474787825E+00  0.10736758840E+01 -0.18603468704E+01  0.22937501588E+01  0.51100000000E-03 0.  1.
         12    1    3    3    0    0 -0.90525358211E+00  0.16248139580E+00  0.52526302262E+01  0.53325424091E+01  0.00000000000E+00 0. -1.
</event>
<event>
 7    1  0.8300060E-011  0.4778727E+02  0.7816164E-02  0.1312668E+00
        -11   -1    0    0    0    0  0.00000000000E+00  0.00000000000E+00  0.45593999997E+02  0.45594000000E+02  0.51100000000E-03 0. -1.
         11   -1    0    0    0    0 -0.00000000000E+00 -0.00000000000E+00 -0.45593999997E+02  0.45594000000E+02  0.51100000000E-03 0.  1.
    9900012    2    1    2    0    0  0.18935458625E+02 -0.31925680320E+02 -0.22490497192E+02  0.47787272804E+02  0.20000008022E+02 0.  0.
         12    1    1    2    0    0 -0.18935458625E+02  0.31925680320E+02  0.22490497192E+02  0.43400727196E+02  0.00000000000E+00 0. -1.
         11    1    3    3    0    0 -0.20926420181E+00  0.33622225637E+00  0.11653956465E+01  0.12308469384E+01  0.51100000000E-03 0. -1.
        -11    1    3    3    0    0  0.19740177219E+02 -0.31058115801E+02 -0.18423960220E+02  0.41154871695E+02  0.51100000000E-03 0.  1.
        -12    1    3    3    0    0 -0.59545439236E+00 -0.12037867750E+01 -0.52319326187E+01  0.54015541708E+01  0.00000000000E+00 0.  1.
</event>
<event>
 7    1  0.8300060E-011  0.4778724E+02  0.7816164E-02  0.1312668E+00
        -11   -1    0    0    0    0  0.00000000000E+00  0.00000000000E+00  0.45593999997E+02  0.45594000000E+02  0.51100000000E-03 0. -1.
         11   -1    0    0    0    0 -0.00000000000E+00 -0.00000000000E+00 -0.45593999997E+02  0.45594000000E+02  0.51100000000E-03 0.  1.
    9900012    2    1    2    0    0 -0.78758060747E+01  0.60706327483E+00 -0.42675859276E+02  0.47787241803E+02  0.19999866676E+02 0.  0.
         12    1    1    2    0    0  0.78758060747E+01 -0.60706327483E+00  0.42675859276E+02  0.43400758197E+02  0.00000000000E+00 0. -1.
         11    1    3    3    0    0 -0.93298147391E+01 -0.10389404283E+01 -0.20272188593E+02  0.22340243305E+02  0.51100000000E-03 0.  1.
        -11    1    3    3    0    0  0.82903883758E+00  0.58322120950E+01 -0.56336017802E+01  0.81510411970E+01  0.51100000000E-03 0. -1.
        -12    1    3    3    0    0  0.62496982677E+00 -0.41862083919E+01 -0.16770068902E+02  0.17295957301E+02  0.00000000000E+00 0.  1.
</event>
<event>
 7    1  0.8300060E-011  0.4778727E+02  0.7816164E-02  0.1312668E+00
        -11   -1    0    0    0    0  0.00000000000E+00  0.00000000000E+00  0.45593999997E+02  0.45594000000E+02  0.51100000000E-03 0. -1.
         11   -1    0    0    0    0 -0.00000000000E+00 -0.00000000000E+00 -0.45593999997E+02  0.45594000000E+02  0.51100000000E-03 0.  1.
    9900012    2    1    2    0    0 -0.25365650030E+02  0.20180666064E+02  0.28860836058E+02  0.47787270257E+02  0.19999996408E+02 0.  0.
        -12    1    1    2    0    0  0.25365650030E+02 -0.20180666064E+02 -0.28860836058E+02  0.43400729743E+02  0.00000000000E+00 0.  1.
         11    1    3    3    0    0 -0.12949783644E+02  0.48400400835E+01  0.77873189170E+01  0.15867111288E+02  0.51100000000E-03 0. -1.
        -11    1    3    3    0    0 -0.50577947900E+01  0.78018742480E+01  0.11311894687E+01  0.93664358107E+01  0.51100000000E-03 0.  1.
        -12    1    3    3    0    0 -0.73580715963E+01  0.75387517326E+01  0.19942327673E+02  0.22553723158E+02  0.00000000000E+00 0.  1.
</event>
<event>
 7    1  0.8300060E-011  0.4778727E+02  0.7816164E-02  0.1312668E+00
        -11   -1    0    0    0    0  0.00000000000E+00  0.00000000000E+00  0.45593999997E+02  0.45594000000E+02  0.51100000000E-03 0.  1.
         11   -1    0    0    0    0 -0.00000000000E+00 -0.00000000000E+00 -0.45593999997E+02  0.45594000000E+02  0.51100000000E-03 0. -1.
    9900012    2    1    2    0    0 -0.19485029826E+02 -0.38722499549E+02 -0.21271755303E+01  0.47787271500E+02  0.20000002076E+02 0.  0.
         12    1    1    2    0    0  0.19485029826E+02  0.38722499549E+02  0.21271755303E+01  0.43400728500E+02  0.00000000000E+00 0. -1.
         11    1    3    3    0    0 -0.62019443555E+01 -0.11882663598E+02 -0.96554459387E+01  0.16519365742E+02  0.51100000000E-03 0. -1.
        -11    1    3    3    0    0 -0.73186306635E+01 -0.10606280218E+02  0.48420681537E+01  0.13765941999E+02  0.51100000000E-03 0.  1.
         12    1    3    3    0    0 -0.59644548068E+01 -0.16233555733E+02  0.26862022547E+01  0.17501963759E+02  0.00000000000E+00 0. -1.
</event>
<event>
 7    1  0.8300060E-011  0.4778727E+02  0.7816164E-02  0.1312668E+00
        -11   -1    0    0    0    0  0.00000000000E+00  0.00000000000E+00  0.45593999997E+02  0.45594000000E+02  0.51100000000E-03 0. -1.
         11   -1    0    0    0    0 -0.00000000000E+00 -0.00000000000E+00 -0.45593999997E+02  0.45594000000E+02  0.51100000000E-03 0.  1.
    9900012    2    1    2    0    0 -0.75546682670E+01  0.19086461249E+02  0.38239475114E+02  0.47787268755E+02  0.19999989560E+02 0.  0.
        -12    1    1    2    0    0  0.75546682670E+01 -0.19086461249E+02 -0.38239475114E+02  0.43400731245E+02  0.00000000000E+00 0.  1.
         11    1    3    3    0    0 -0.10456845392E+02  0.43433936276E+01  0.13849497602E+02  0.17889082365E+02  0.51100000000E-03 0. -1.
        -11    1    3    3    0    0  0.54821235358E+01  0.11232838123E+02  0.14846541992E+02  0.19407476398E+02  0.51100000000E-03 0.  1.
        -12    1    3    3    0    0 -0.25799464108E+01  0.35102294990E+01  0.95434355194E+01  0.10490709992E+02  0.00000000000E+00 0.  1.
</event>
<event>
 7    1  0.8300060E-011  0.4778727E+02  0.7816164E-02  0.1312668E+00
        -11   -1    0    0    0    0  0.00000000000E+00  0.00000000000E+00  0.45593999997E+02  0.45594000000E+02  0.51100000000E-03 0. -1.
         11   -1    0    0    0    0 -0.00000000000E+00 -0.00000000000E+00 -0.45593999997E+02  0.45594000000E+02  0.51100000000E-03 0.  1.
    9900012    2    1    2    0    0  0.14374803564E+02 -0.65077087396E+01  0.40430658428E+02  0.47787269690E+02  0.19999993824E+02 0.  0.
        -12    1    1    2    0    0 -0.14374803564E+02  0.65077087396E+01 -0.40430658428E+02  0.43400730310E+02  0.00000000000E+00 0.  1.
         11    1    3    3    0    0  0.12682584634E+02 -0.44106775029E+01  0.27703743989E+02  0.30786351851E+02  0.51100000000E-03 0. -1.
        -11    1    3    3    0    0 -0.35419912161E+01 -0.23299147402E+01  0.13070530151E+01  0.44365067696E+01  0.51100000000E-03 0.  1.
        -12    1    3    3    0    0  0.52342101456E+01  0.23288350357E+00  0.11419861424E+02  0.12564411069E+02  0.00000000000E+00 0.  1.
</event>
<event>
 7    1  0.8300060E-011  0.4778727E+02  0.7816164E-02  0.1312668E+00
        -11   -1    0    0    0    0  0.00000000000E+00  0.00000000000E+00  0.45593999997E+02  0.45594000000E+02  0.51100000000E-03 0. -1.
         11   -1    0    0    0    0 -0.00000000000E+00 -0.00000000000E+00 -0.45593999997E+02  0.45594000000E+02  0.51100000000E-03 0.  1.
    9900012    2    1    2    0    0 -0.20055763095E+01  0.36160023474E+01  0.43203304728E+02  0.47787270182E+02  0.19999996068E+02 0.  0.
        -12    1    1    2    0    0  0.20055763095E+01 -0.36160023474E+01 -0.43203304728E+02  0.43400729818E+02  0.00000000000E+00 0.  1.
         11    1    3    3    0    0  0.25176109913E+00 -0.55889090151E+01  0.12094314010E+02  0.13325603899E+02  0.51100000000E-03 0. -1.
        -11    1    3    3    0    0 -0.31052196403E+01  0.96008753732E+01  0.13635209667E+02  0.16962845866E+02  0.51100000000E-03 0.  1.
        -12    1    3    3    0    0  0.84788223166E+00 -0.39596401069E+00  0.17473781051E+02  0.17498820417E+02  0.00000000000E+00 0.  1.
</event>
<event>
 7    1  0.8300060E-011  0.4778727E+02  0.7816164E-02  0.1312668E+00
        -11   -1    0    0    0    0  0.00000000000E+00  0.00000000000E+00  0.45593999997E+02  0.45594000000E+02  0.51100000000E-03 0. -1.
         11   -1    0    0    0    0 -0.00000000000E+00 -0.00000000000E+00 -0.45593999997E+02  0.45594000000E+02  0.51100000000E-03 0.  1.
    9900012    2    1    2    0    0  0.90004129016E+00 -0.13463625288E+02  0.41249775606E+02  0.47787271115E+02  0.20000000323E+02 0.  0.
        -12    1    1    2    0    0 -0.90004129016E+00  0.13463625288E+02 -0.41249775606E+02  0.43400728885E+02  0.00000000000E+00 0.  1.
         11    1    3    3    0    0  0.28999778834E+01 -0.46070843903E+00  0.17747422265E+02  0.17988694264E+02  0.51100000000E-03 0. -1.
        -11    1    3    3    0    0 -0.65434158921E+01 -0.11037014069E+02  0.13422651985E+02  0.18568779111E+02  0.51100000000E-03 0.  1.
        -12    1    3    3    0    0  0.45434792988E+01 -0.19659027799E+01  0.10079701355E+02  0.11229797741E+02  0.00000000000E+00 0.  1.
</event>
<event>
 7    1  0.9428612E-011  0.4778727E+02  0.7816164E-02  0.1312668E+00
        -11   -1    0    0    0    0  0.00000000000E+00  0.00000000000E+00  0.45593999997E+02  0.45594000000E+02  0.51100000000E-03 0. -1.
         11   -1    0    0    0    0 -0.00000000000E+00 -0.00000000000E+00 -0.45593999997E+02  0.45594000000E+02  0.51100000000E-03 0.  1.
    9900012    2    1    2    0    0  0.85126472634E+01  0.14603207202E+01 -0.42532638782E+02  0.47787273487E+02  0.20000011138E+02 0.  0.
         12    1    1    2    0    0 -0.85126472634E+01 -0.14603207202E+01  0.42532638782E+02  0.43400726513E+02  0.00000000000E+00 0. -1.
         11    1    3    3    0    0  0.67665770400E+01 -0.25146590268E+01 -0.30681811131E+02  0.31519575019E+02  0.51100000000E-03 0. -1.
        -11    1    3    3    0    0  0.18282346912E+01  0.34675732797E+00 -0.12450973292E+02  0.12589258077E+02  0.51100000000E-03 0.  1.
         12    1    3    3    0    0 -0.82164467808E-01  0.36282224190E+01  0.60014564099E+00  0.36784403912E+01  0.00000000000E+00 0. -1.
</event>
<event>
 7    1  0.1041147E-010  0.4778727E+02  0.7816164E-02  0.1312668E+00
        -11   -1    0    0    0    0  0.00000000000E+00  0.00000000000E+00  0.45593999997E+02  0.45594000000E+02  0.51100000000E-03 0. -1.
         11   -1    0    0    0    0 -0.00000000000E+00 -0.00000000000E+00 -0.45593999997E+02  0.45594000000E+02  0.51100000000E-03 0.  1.
    9900012    2    1    2    0    0 -0.18666708381E+02 -0.88734313166E+01 -0.38163325471E+02  0.47787271940E+02  0.20000004082E+02 0.  0.
         12    1    1    2    0    0  0.18666708381E+02  0.88734313166E+01  0.38163325471E+02  0.43400728060E+02  0.00000000000E+00 0. -1.
         11    1    3    3    0    0 -0.23171590962E+00 -0.30082600611E+01 -0.20245634582E+02  0.20469221791E+02  0.51100000000E-03 0. -1.
        -11    1    3    3    0    0 -0.12709401201E+02 -0.49736422848E+01 -0.16384398641E+02  0.21324036099E+02  0.51100000000E-03 0.  1.
         12    1    3    3    0    0 -0.57255912706E+01 -0.89152897067E+00 -0.15332922484E+01  0.59940140492E+01  0.00000000000E+00 0. -1.
</event>
<event>
 7    1  0.8300060E-011  0.4778728E+02  0.7816164E-02  0.1312668E+00
        -11   -1    0    0    0    0  0.00000000000E+00  0.00000000000E+00  0.45593999997E+02  0.45594000000E+02  0.51100000000E-03 0. -1.
         11   -1    0    0    0    0 -0.00000000000E+00 -0.00000000000E+00 -0.45593999997E+02  0.45594000000E+02  0.51100000000E-03 0.  1.
    9900012    2    1    2    0    0  0.11544522754E+02  0.41636864104E+02 -0.40887870938E+01  0.47787278371E+02  0.20000033405E+02 0.  0.
         12    1    1    2    0    0 -0.11544522754E+02 -0.41636864104E+02  0.40887870938E+01  0.43400721629E+02  0.00000000000E+00 0. -1.
         11    1    3    3    0    0  0.37078318794E+01  0.21421567622E+02 -0.87983504129E+01  0.23452985884E+02  0.51100000000E-03 0. -1.
        -11    1    3    3    0    0  0.55104130710E+01  0.14809605921E+02 -0.13850514451E+01  0.15862138807E+02  0.51100000000E-03 0.  1.
         12    1    3    3    0    0  0.23262778036E+01  0.54056905602E+01  0.60946147642E+01  0.84721536799E+01  0.00000000000E+00 0. -1.
</event>
<event>
 7    1  0.8300060E-011  0.4778727E+02  0.7816164E-02  0.1312668E+00
        -11   -1    0    0    0    0  0.00000000000E+00  0.00000000000E+00  0.45593999997E+02  0.45594000000E+02  0.51100000000E-03 0. -1.
         11   -1    0    0    0    0 -0.00000000000E+00 -0.00000000000E+00 -0.45593999997E+02  0.45594000000E+02  0.51100000000E-03 0.  1.
    9900012    2    1    2    0    0  0.30250792736E+02  0.23743003039E+02  0.20119210449E+02  0.47787270933E+02  0.19999999493E+02 0.  0.
        -12    1    1    2    0    0 -0.30250792736E+02 -0.23743003039E+02 -0.20119210449E+02  0.43400729067E+02  0.00000000000E+00 0.  1.
         11    1    3    3    0    0  0.20711048602E+02  0.18970780970E+02  0.16631916586E+02  0.32641365081E+02  0.51100000000E-03 0. -1.
        -11    1    3    3    0    0  0.25597024572E+01 -0.31882501096E+01  0.35003345670E+00  0.41036007496E+01  0.51100000000E-03 0.  1.
        -12    1    3    3    0    0  0.69800416766E+01  0.79604721786E+01  0.31372604063E+01  0.11042305102E+02  0.00000000000E+00 0.  1.
</event>
<event>
 7    1  0.8300060E-011  0.4778727E+02  0.7816164E-02  0.1312668E+00
        -11   -1    0    0    0    0  0.00000000000E+00  0.00000000000E+00  0.45593999997E+02  0.45594000000E+02  0.51100000000E-03 0. -1.
         11   -1    0    0    0    0 -0.00000000000E+00 -0.00000000000E+00 -0.45593999997E+02  0.45594000000E+02  0.51100000000E-03 0.  1.
    9900012    2    1    2    0    0 -0.30158273030E+02 -0.35759481734E+01  0.31005067836E+02  0.47787273404E+02  0.20000010759E+02 0.  0.
        -12    1    1    2    0    0  0.30158273030E+02  0.35759481734E+01 -0.31005067836E+02  0.43400726596E+02  0.00000000000E+00 0.  1.
         11    1    3    3    0    0 -0.21158383352E+02 -0.93999274389E+01  0.14842362270E+02  0.27501482504E+02  0.51100000000E-03 0. -1.
        -11    1    3    3    0    0 -0.22961326050E+01  0.14945656400E+00  0.54005265661E+00  0.23635184233E+01  0.51100000000E-03 0.  1.
         12    1    3    3    0    0 -0.67037570739E+01  0.56745227015E+01  0.15622652910E+02  0.17922272477E+02  0.00000000000E+00 0. -1.
</event>
<event>
 7    1  0.8300060E-011  0.4778727E+02  0.7816164E-02  0.1312668E+00
        -11   -1    0    0    0    0  0.00000000000E+00  0.00000000000E+00  0.45593999997E+02  0.45594000000E+02  0.51100000000E-03 0. -1.
         11   -1    0    0    0    0 -0.00000000000E+00 -0.00000000000E+00 -0.45593999997E+02  0.45594000000E+02  0.51100000000E-03 0.  1.
    9900012    2    1    2    0    0 -0.30601151643E+02  0.14265135380E+02 -0.27270840152E+02  0.47787270837E+02  0.19999999055E+02 0.  0.
         12    1    1    2    0    0  0.30601151643E+02 -0.14265135380E+02  0.27270840152E+02  0.43400729163E+02  0.00000000000E+00 0. -1.
         11    1    3    3    0    0  0.27329952744E+00  0.60558019822E+01 -0.44288750458E+01  0.75074872436E+01  0.51100000000E-03 0. -1.
        -11    1    3    3    0    0 -0.17850700612E+02  0.19106623228E+00 -0.11432457148E+02  0.21198705039E+02  0.51100000000E-03 0.  1.
         12    1    3    3    0    0 -0.13023750559E+02  0.80182671653E+01 -0.11409507958E+02  0.19081078554E+02  0.00000000000E+00 0. -1.
</event>
<event>
 7    1  0.8300060E-011  0.4778727E+02  0.7816164E-02  0.1312668E+00
        -11   -1    0    0    0    0  0.00000000000E+00  0.00000000000E+00  0.45593999997E+02  0.45594000000E+02  0.51100000000E-03 0. -1.
         11   -1    0    0    0    0 -0.00000000000E+00 -0.00000000000E+00 -0.45593999997E+02  0.45594000000E+02  0.51100000000E-03 0.  1.
    9900012    2    1    2    0    0 -0.13024108446E+02  0.13094033107E+02  0.39275211571E+02  0.47787270193E+02  0.19999996117E+02 0.  0.
        -12    1    1    2    0    0  0.13024108446E+02 -0.13094033107E+02 -0.39275211571E+02  0.43400729807E+02  0.00000000000E+00 0.  1.
         11    1    3    3    0    0  0.14780007360E+00  0.24084917076E+01  0.19393407058E+02  0.19542950513E+02  0.51100000000E-03 0. -1.
        -11    1    3    3    0    0 -0.10037789473E+02  0.20612098659E+01  0.69268886695E+01  0.12368815243E+02  0.51100000000E-03 0.  1.
        -12    1    3    3    0    0 -0.31341190462E+01  0.86243315339E+01  0.12954915844E+02  0.15875504437E+02  0.00000000000E+00 0.  1.
</event>
<event>
 7    1  0.8300060E-011  0.4778726E+02  0.7816164E-02  0.1312668E+00
        -11   -1    0    0    0    0  0.00000000000E+00  0.00000000000E+00  0.45593999997E+02  0.45594000000E+02  0.51100000000E-03 0. -1.
         11   -1    0    0    0    0 -0.00000000000E+00 -0.00000000000E+00 -0.45593999997E+02  0.45594000000E+02  0.51100000000E-03 0.  1.
    9900012    2    1    2    0    0 -0.66049975825E+01 -0.13404899992E+02 -0.40746859238E+02  0.47787264123E+02  0.19999968445E+02 0.  0.
         12    1    1    2    0    0  0.66049975825E+01  0.13404899992E+02  0.40746859238E+02  0.43400735877E+02  0.00000000000E+00 0. -1.
         11    1    3    3    0    0 -0.44806876547E+01  0.28668149323E+01 -0.99095535669E+01  0.11246974788E+02  0.51100000000E-03 0. -1.
        -11    1    3    3    0    0 -0.78894792734E+00 -0.63259226983E-01 -0.10360932549E+02  0.10391119483E+02  0.51100000000E-03 0.  1.
         12    1    3    3    0    0 -0.13353620005E+01 -0.16208455697E+02 -0.20476373122E+02  0.26149169853E+02  0.00000000000E+00 0. -1.
</event>
<event>
 7    1  0.8300060E-011  0.4778727E+02  0.7816164E-02  0.1312668E+00
        -11   -1    0    0    0    0  0.00000000000E+00  0.00000000000E+00  0.45593999997E+02  0.45594000000E+02  0.51100000000E-03 0. -1.
         11   -1    0    0    0    0 -0.00000000000E+00 -0.00000000000E+00 -0.45593999997E+02  0.45594000000E+02  0.51100000000E-03 0.  1.
    9900012    2    1    2    0    0 -0.17035601284E+02 -0.54381678141E+01  0.39545394989E+02  0.47787266768E+02  0.19999980501E+02 0.  0.
        -12    1    1    2    0    0  0.17035601284E+02  0.54381678141E+01 -0.39545394989E+02  0.43400733232E+02  0.00000000000E+00 0.  1.
         11    1    3    3    0    0 -0.15642020705E+02 -0.77815601823E+01  0.22024062736E+02  0.28112005092E+02  0.51100000000E-03 0. -1.
        -11    1    3    3    0    0  0.15945423833E+01  0.44451124030E+01  0.13184820290E+02  0.14005037523E+02  0.51100000000E-03 0.  1.
        -12    1    3    3    0    0 -0.29881229621E+01 -0.21017200348E+01  0.43365119624E+01  0.56702241527E+01  0.00000000000E+00 0.  1.
</event>
<event>
 7    1  0.8300060E-011  0.4778727E+02  0.7816164E-02  0.1312668E+00
        -11   -1    0    0    0    0  0.00000000000E+00  0.00000000000E+00  0.45593999997E+02  0.45594000000E+02  0.51100000000E-03 0. -1.
         11   -1    0    0    0    0 -0.00000000000E+00 -0.00000000000E+00 -0.45593999997E+02  0.45594000000E+02  0.51100000000E-03 0.  1.
    9900012    2    1    2    0    0  0.20308282601E+02 -0.33521435862E+02 -0.18641629199E+02  0.47787270241E+02  0.19999996336E+02 0.  0.
         12    1    1    2    0    0 -0.20308282601E+02  0.33521435862E+02  0.18641629199E+02  0.43400729759E+02  0.00000000000E+00 0. -1.
         11    1    3    3    0    0  0.16307295049E+02 -0.32109895106E+02 -0.93847473112E+01  0.37216215792E+02  0.51100000000E-03 0.  1.
        -11    1    3    3    0    0  0.19381887950E+01  0.72635180032E+00 -0.46430167525E+01  0.50834798680E+01  0.51100000000E-03 0. -1.
        -12    1    3    3    0    0  0.20627987567E+01 -0.21378925564E+01 -0.46138651350E+01  0.54875745806E+01  0.00000000000E+00 0.  1.
</event>
<event>
 7    1  0.8300060E-011  0.4778727E+02  0.7816164E-02  0.1312668E+00
        -11   -1    0    0    0    0  0.00000000000E+00  0.00000000000E+00  0.45593999997E+02  0.45594000000E+02  0.51100000000E-03 0.  1.
         11   -1    0    0    0    0 -0.00000000000E+00 -0.00000000000E+00 -0.45593999997E+02  0.45594000000E+02  0.51100000000E-03 0. -1.
    9900012    2    1    2    0    0  0.24440538339E+02 -0.22759778990E+02  0.27717789302E+02  0.47787270769E+02  0.19999998745E+02 0.  0.
        -12    1    1    2    0    0 -0.24440538339E+02  0.22759778990E+02 -0.27717789302E+02  0.43400729231E+02  0.00000000000E+00 0.  1.
         11    1    3    3    0    0  0.78101730635E+01 -0.12201319987E+02  0.21140871601E+01  0.14640368079E+02  0.51100000000E-03 0. -1.
        -11    1    3    3    0    0  0.72268941711E+01 -0.84767220914E+01  0.16399413083E+02  0.19824821979E+02  0.51100000000E-03 0.  1.
         12    1    3    3    0    0  0.94034711043E+01 -0.20817369109E+01  0.92042890590E+01  0.13322080711E+02  0.00000000000E+00 0. -1.
</event>
<event>
 7    1  0.8300060E-011  0.4778727E+02  0.7816164E-02  0.1312668E+00
        -11   -1    0    0    0    0  0.00000000000E+00  0.00000000000E+00  0.45593999997E+02  0.45594000000E+02  0.51100000000E-03 0. -1.
         11   -1    0    0    0    0 -0.00000000000E+00 -0.00000000000E+00 -0.45593999997E+02  0.45594000000E+02  0.51100000000E-03 0.  1.
    9900012    2    1    2    0    0 -0.14241614795E+01  0.63831451571E+01  0.42905135855E+02  0.47787268891E+02  0.19999990183E+02 0.  0.
        -12    1    1    2    0    0  0.14241614795E+01 -0.63831451571E+01 -0.42905135855E+02  0.43400731109E+02  0.00000000000E+00 0.  1.
         11    1    3    3    0    0  0.45224374983E+00  0.58377663888E+01  0.30753842382E+02  0.31306275127E+02  0.51100000000E-03 0. -1.
        -11    1    3    3    0    0  0.18425226757E+01 -0.75809393119E+00 -0.13563515828E+01  0.24102460654E+01  0.51100000000E-03 0.  1.
        -12    1    3    3    0    0 -0.37189279050E+01  0.13034726994E+01  0.13507645056E+02  0.14070747699E+02  0.00000000000E+00 0.  1.
</event>
<event>
 7    1  0.8300060E-011  0.4778727E+02  0.7816164E-02  0.1312668E+00
        -11   -1    0    0    0    0  0.00000000000E+00  0.00000000000E+00  0.45593999997E+02  0.45594000000E+02  0.51100000000E-03 0. -1.
         11   -1    0    0    0    0 -0.00000000000E+00 -0.00000000000E+00 -0.45593999997E+02  0.45594000000E+02  0.51100000000E-03 0.  1.
    9900012    2    1    2    0    0 -0.18819649954E+02 -0.15871607451E+02 -0.35742635296E+02  0.47787272756E+02  0.20000007802E+02 0.  0.
         12    1    1    2    0    0  0.18819649954E+02  0.15871607451E+02  0.35742635296E+02  0.43400727244E+02  0.00000000000E+00 0. -1.
         11    1    3    3    0    0 -0.10675644029E+02 -0.13303849901E+02 -0.14185398794E+02  0.22185295509E+02  0.51100000000E-03 0. -1.
        -11    1    3    3    0    0 -0.93293624669E+01  0.14336654373E+01 -0.16830174860E+02  0.19296299819E+02  0.51100000000E-03 0.  1.
         12    1    3    3    0    0  0.11853565418E+01 -0.40014229875E+01 -0.47270616412E+01  0.63056774272E+01  0.00000000000E+00 0. -1.
</event>
<event>
 7    1  0.8300060E-011  0.4778727E+02  0.7816164E-02  0.1312668E+00
        -11   -1    0    0    0    0  0.00000000000E+00  0.00000000000E+00  0.45593999997E+02  0.45594000000E+02  0.51100000000E-03 0. -1.
         11   -1    0    0    0    0 -0.00000000000E+00 -0.00000000000E+00 -0.45593999997E+02  0.45594000000E+02  0.51100000000E-03 0.  1.
    9900012    2    1    2    0    0 -0.14350807477E+02 -0.17259331799E+02  0.37145567466E+02  0.47787269687E+02  0.19999993810E+02 0.  0.
        -12    1    1    2    0    0  0.14350807477E+02  0.17259331799E+02 -0.37145567466E+02  0.43400730313E+02  0.00000000000E+00 0.  1.
         11    1    3    3    0    0 -0.65192757315E+01 -0.19380451831E+02  0.24233195430E+02  0.31707264629E+02  0.51100000000E-03 0. -1.
        -11    1    3    3    0    0 -0.18226020461E+01  0.19391099316E+01  0.12091196736E+01  0.29230114936E+01  0.51100000000E-03 0.  1.
         12    1    3    3    0    0 -0.60089296993E+01  0.18201010078E+00  0.11703252362E+02  0.13156993564E+02  0.00000000000E+00 0. -1.
</event>
<event>
 7    1  0.8300060E-011  0.4778727E+02  0.7816164E-02  0.1312668E+00
        -11   -1    0    0    0    0  0.00000000000E+00  0.00000000000E+00  0.45593999997E+02  0.45594000000E+02  0.51100000000E-03 0. -1.
         11   -1    0    0    0    0 -0.00000000000E+00 -0.00000000000E+00 -0.45593999997E+02  0.45594000000E+02  0.51100000000E-03 0.  1.
    9900012    2    1    2    0    0 -0.24287715723E+01  0.12192693965E+02 -0.41581994346E+02  0.47787274530E+02  0.20000015893E+02 0.  0.
         12    1    1    2    0    0  0.24287715723E+01 -0.12192693965E+02  0.41581994346E+02  0.43400725470E+02  0.00000000000E+00 0. -1.
         11    1    3    3    0    0 -0.33965053377E+01  0.11373865896E+02 -0.35861013022E+02  0.37774506339E+02  0.51100000000E-03 0. -1.
        -11    1    3    3    0    0 -0.14708536959E+01  0.33736534552E+01 -0.53048584299E+01  0.64565061335E+01  0.51100000000E-03 0.  1.
         12    1    3    3    0    0  0.24385874613E+01 -0.25548253863E+01 -0.41612289487E+00  0.35562620579E+01  0.00000000000E+00 0. -1.
</event>
<event>
 7    1  0.8300060E-011  0.4778727E+02  0.7816164E-02  0.1312668E+00
        -11   -1    0    0    0    0  0.00000000000E+00  0.00000000000E+00  0.45593999997E+02  0.45594000000E+02  0.51100000000E-03 0. -1.
         11   -1    0    0    0    0 -0.00000000000E+00 -0.00000000000E+00 -0.45593999997E+02  0.45594000000E+02  0.51100000000E-03 0.  1.
    9900012    2    1    2    0    0 -0.38996573763E+02  0.12005013975E+02 -0.14790878777E+02  0.47787271656E+02  0.20000002788E+02 0.  0.
         12    1    1    2    0    0  0.38996573763E+02 -0.12005013975E+02  0.14790878777E+02  0.43400728344E+02  0.00000000000E+00 0. -1.
         11    1    3    3    0    0 -0.22566283777E+02 -0.17181226318E+01 -0.84516736079E+01  0.24158226258E+02  0.51100000000E-03 0. -1.
        -11    1    3    3    0    0 -0.94229857264E+01  0.85722199722E+01 -0.76117806582E+01  0.14839636798E+02  0.51100000000E-03 0.  1.
         12    1    3    3    0    0 -0.70073042591E+01  0.51509166348E+01  0.12725754887E+01  0.87894085997E+01  0.00000000000E+00 0. -1.
</event>
<event>
 7    1  0.8300060E-011  0.4778727E+02  0.7816164E-02  0.1312668E+00
        -11   -1    0    0    0    0  0.00000000000E+00  0.00000000000E+00  0.45593999997E+02  0.45594000000E+02  0.51100000000E-03 0. -1.
         11   -1    0    0    0    0 -0.00000000000E+00 -0.00000000000E+00 -0.45593999997E+02  0.45594000000E+02  0.51100000000E-03 0.  1.
    9900012    2    1    2    0    0  0.15411291325E+02 -0.20241070255E+02  0.35162683337E+02  0.47787272762E+02  0.20000007829E+02 0.  0.
        -12    1    1    2    0    0 -0.15411291325E+02  0.20241070255E+02 -0.35162683337E+02  0.43400727238E+02  0.00000000000E+00 0.  1.
         11    1    3    3    0    0  0.10685572449E+02 -0.61564345755E+01  0.80148010894E+01  0.14707827236E+02  0.51100000000E-03 0. -1.
        -11    1    3    3    0    0  0.35879586180E+01 -0.56235751021E+01  0.22268611416E+02  0.23246270639E+02  0.51100000000E-03 0.  1.
        -12    1    3    3    0    0  0.11377602579E+01 -0.84610605770E+01  0.48792708316E+01  0.98331748861E+01  0.00000000000E+00 0.  1.
</event>
<event>
 7    1  0.8300060E-011  0.4778727E+02  0.7816164E-02  0.1312668E+00
        -11   -1    0    0    0    0  0.00000000000E+00  0.00000000000E+00  0.45593999997E+02  0.45594000000E+02  0.51100000000E-03 0. -1.
         11   -1    0    0    0    0 -0.00000000000E+00 -0.00000000000E+00 -0.45593999997E+02  0.45594000000E+02  0.51100000000E-03 0.  1.
    9900012    2    1    2    0    0 -0.34180622951E+02 -0.22412743899E+02  0.14593735864E+02  0.47787271885E+02  0.20000003833E+02 0.  0.
        -12    1    1    2    0    0  0.34180622951E+02  0.22412743899E+02 -0.14593735864E+02  0.43400728115E+02  0.00000000000E+00 0.  1.
         11    1    3    3    0    0 -0.27573271590E+02 -0.93111355928E+01  0.56549654732E+01  0.29647279588E+02  0.51100000000E-03 0. -1.
        -11    1    3    3    0    0  0.27583606187E+00 -0.54699253216E+01  0.36510518502E+01  0.65822753232E+01  0.51100000000E-03 0.  1.
        -12    1    3    3    0    0 -0.68831874233E+01 -0.76316829848E+01  0.52877185412E+01  0.11557716974E+02  0.00000000000E+00 0.  1.
</event>
<event>
 7    1  0.8300060E-011  0.4778733E+02  0.7816164E-02  0.1312668E+00
        -11   -1    0    0    0    0  0.00000000000E+00  0.00000000000E+00  0.45593999997E+02  0.45594000000E+02  0.51100000000E-03 0. -1.
         11   -1    0    0    0    0 -0.00000000000E+00 -0.00000000000E+00 -0.45593999997E+02  0.45594000000E+02  0.51100000000E-03 0.  1.
    9900012    2    1    2    0    0  0.12887247446E+02  0.18609461579E+01 -0.41401377230E+02  0.47787328301E+02  0.20000261054E+02 0.  0.
         12    1    1    2    0    0 -0.12887247446E+02 -0.18609461579E+01  0.41401377230E+02  0.43400671699E+02  0.00000000000E+00 0. -1.
         11    1    3    3    0    0  0.11201236576E+01 -0.24681458156E+01  0.10226121885E+01  0.28969219397E+01  0.51100000000E-03 0. -1.
        -11    1    3    3    0    0  0.77689438111E+01  0.38375826143E+00 -0.14997564100E+02  0.16894694065E+02  0.51100000000E-03 0.  1.
         12    1    3    3    0    0  0.39981799776E+01  0.39453337120E+01 -0.27426425319E+02  0.27995712297E+02  0.00000000000E+00 0. -1.
</event>
<event>
 7    1  0.8300060E-011  0.4778727E+02  0.7816164E-02  0.1312668E+00
        -11   -1    0    0    0    0  0.00000000000E+00  0.00000000000E+00  0.45593999997E+02  0.45594000000E+02  0.51100000000E-03 0. -1.
         11   -1    0    0    0    0 -0.00000000000E+00 -0.00000000000E+00 -0.45593999997E+02  0.45594000000E+02  0.51100000000E-03 0.  1.
    9900012    2    1    2    0    0 -0.27785517046E+02  0.22011707830E+02  0.25041435140E+02  0.47787265986E+02  0.19999976936E+02 0.  0.
        -12    1    1    2    0    0  0.27785517046E+02 -0.22011707830E+02 -0.25041435140E+02  0.43400734014E+02  0.00000000000E+00 0.  1.
         11    1    3    3    0    0 -0.17978798201E+02  0.11228823500E+02  0.60665850307E+01  0.22048290550E+02  0.51100000000E-03 0. -1.
        -11    1    3    3    0    0  0.28813980583E+00  0.30313363430E+00  0.66689377956E+01  0.66820390698E+01  0.51100000000E-03 0.  1.
         12    1    3    3    0    0 -0.10094858650E+02  0.10479750696E+02  0.12305912314E+02  0.19056936367E+02  0.00000000000E+00 0. -1.
</event>
<event>
 7    1  0.8300060E-011  0.4778727E+02  0.7816164E-02  0.1312668E+00
        -11   -1    0    0    0    0  0.00000000000E+00  0.00000000000E+00  0.45593999997E+02  0.45594000000E+02  0.51100000000E-03 0. -1.
         11   -1    0    0    0    0 -0.00000000000E+00 -0.00000000000E+00 -0.45593999997E+02  0.45594000000E+02  0.51100000000E-03 0.  1.
    9900012    2    1    2    0    0  0.17605232883E+02  0.17299995723E+02 -0.35698588675E+02  0.47787270625E+02  0.19999998089E+02 0.  0.
         12    1    1    2    0    0 -0.17605232883E+02 -0.17299995723E+02  0.35698588675E+02  0.43400729375E+02  0.00000000000E+00 0. -1.
         11    1    3    3    0    0  0.82595094971E+00  0.63744596791E+01 -0.19547649238E+02  0.20577330297E+02  0.51100000000E-03 0. -1.
        -11    1    3    3    0    0  0.82267151745E+01  0.57125967552E+01 -0.13571519382E+02  0.16867090527E+02  0.51100000000E-03 0.  1.
         12    1    3    3    0    0  0.85525667589E+01  0.52129392882E+01 -0.25794200548E+01  0.10342849801E+02  0.00000000000E+00 0. -1.
</event>
<event>
 7    1  0.8300060E-011  0.4778728E+02  0.7816164E-02  0.1312668E+00
        -11   -1    0    0    0    0  0.00000000000E+00  0.00000000000E+00  0.45593999997E+02  0.45594000000E+02  0.51100000000E-03 0. -1.
         11   -1    0    0    0    0 -0.00000000000E+00 -0.00000000000E+00 -0.45593999997E+02  0.45594000000E+02  0.51100000000E-03 0.  1.
    9900012    2    1    2    0    0 -0.33256742162E+01  0.16010400070E+01  0.43243489168E+02  0.47787276578E+02  0.20000025231E+02 0.  0.
        -12    1    1    2    0    0  0.33256742162E+01 -0.16010400070E+01 -0.43243489168E+02  0.43400723422E+02  0.00000000000E+00 0.  1.
         11    1    3    3    0    0  0.21621308137E+01 -0.67257069306E+01  0.67323946615E+01  0.97588463207E+01  0.51100000000E-03 0. -1.
        -11    1    3    3    0    0 -0.38389580346E+01  0.72226533946E+01  0.32967552173E+02  0.33967099043E+02  0.51100000000E-03 0.  1.
         12    1    3    3    0    0 -0.16488469953E+01  0.11040935430E+01  0.35435423340E+01  0.40613312150E+01  0.00000000000E+00 0. -1.
</event>
<event>
 7    1  0.8300060E-011  0.4778728E+02  0.7816164E-02  0.1312668E+00
        -11   -1    0    0    0    0  0.00000000000E+00  0.00000000000E+00  0.45593999997E+02  0.45594000000E+02  0.51100000000E-03 0. -1.
         11   -1    0    0    0    0 -0.00000000000E+00 -0.00000000000E+00 -0.45593999997E+02  0.45594000000E+02  0.51100000000E-03 0.  1.
    9900012    2    1    2    0    0 -0.34887652327E+01 -0.74949852815E+01 -0.42606059376E+02  0.47787279006E+02  0.20000036300E+02 0.  0.
         12    1    1    2    0    0  0.34887652327E+01  0.74949852815E+01  0.42606059376E+02  0.43400720994E+02  0.00000000000E+00 0. -1.
         11    1    3    3    0    0  0.49601364864E+01 -0.19755152185E+01 -0.33170330725E+02  0.33597268564E+02  0.51100000000E-03 0. -1.
        -11    1    3    3    0    0 -0.39196489553E+01 -0.11830539386E+01 -0.23208653538E+01  0.47063447394E+01  0.51100000000E-03 0.  1.
         12    1    3    3    0    0 -0.45292527638E+01 -0.43364161244E+01 -0.71148632978E+01  0.94836657021E+01  0.00000000000E+00 0. -1.
</event>
<event>
 7    1  0.8300060E-011  0.4778727E+02  0.7816164E-02  0.1312668E+00
        -11   -1    0    0    0    0  0.00000000000E+00  0.00000000000E+00  0.45593999997E+02  0.45594000000E+02  0.51100000000E-03 0. -1.
         11   -1    0    0    0    0 -0.00000000000E+00 -0.00000000000E+00 -0.45593999997E+02  0.45594000000E+02  0.51100000000E-03 0.  1.
    9900012    2    1    2    0    0  0.84368247508E+01  0.10313003431E+01  0.42560306633E+02  0.47787270824E+02  0.19999998997E+02 0.  0.
        -12    1    1    2    0    0 -0.84368247508E+01 -0.10313003431E+01 -0.42560306633E+02  0.43400729176E+02  0.00000000000E+00 0.  1.
         11    1    3    3    0    0  0.29528730584E+01  0.11433018482E+01  0.31177171449E+02  0.31337559226E+02  0.51100000000E-03 0. -1.
        -11    1    3    3    0    0 -0.23961452356E+01 -0.13210902204E+01  0.23773481258E+00  0.27465085951E+01  0.51100000000E-03 0.  1.
         12    1    3    3    0    0  0.78800969280E+01  0.12090887153E+01  0.11145400371E+02  0.13703203003E+02  0.00000000000E+00 0. -1.
</event>
<event>
 7    1  0.8300060E-011  0.4778727E+02  0.7816164E-02  0.1312668E+00
        -11   -1    0    0    0    0  0.00000000000E+00  0.00000000000E+00  0.45593999997E+02  0.45594000000E+02  0.51100000000E-03 0. -1.
         11   -1    0    0    0    0 -0.00000000000E+00 -0.00000000000E+00 -0.45593999997E+02  0.45594000000E+02  0.51100000000E-03 0.  1.
    9900012    2    1    2    0    0 -0.80784375552E+01  0.32975339085E+02 -0.27036808188E+02  0.47787272609E+02  0.20000007132E+02 0.  0.
         12    1    1    2    0    0  0.80784375552E+01 -0.32975339085E+02  0.27036808188E+02  0.43400727391E+02  0.00000000000E+00 0. -1.
         11    1    3    3    0    0  0.17044219579E+00  0.18856197709E+02 -0.12214629409E+02  0.22467363317E+02  0.51100000000E-03 0. -1.
        -11    1    3    3    0    0 -0.32215439181E+01  0.74451392351E+00 -0.95228872430E+01  0.10080576764E+02  0.51100000000E-03 0.  1.
        -12    1    3    3    0    0 -0.50273358329E+01  0.13374627453E+02 -0.52992915356E+01  0.15239332527E+02  0.00000000000E+00 0.  1.
</event>
<event>
 7    1  0.8300060E-011  0.4778727E+02  0.7816164E-02  0.1312668E+00
        -11   -1    0    0    0    0  0.00000000000E+00  0.00000000000E+00  0.45593999997E+02  0.45594000000E+02  0.51100000000E-03 0. -1.
         11   -1    0    0    0    0 -0.00000000000E+00 -0.00000000000E+00 -0.45593999997E+02  0.45594000000E+02  0.51100000000E-03 0.  1.
    9900012    2    1    2    0    0  0.11188015699E+02 -0.16660814631E+02 -0.38482060330E+02  0.47787269514E+02  0.19999993024E+02 0.  0.
         12    1    1    2    0    0 -0.11188015699E+02  0.16660814631E+02  0.38482060330E+02  0.43400730486E+02  0.00000000000E+00 0. -1.
         11    1    3    3    0    0 -0.51415055424E+01 -0.29952356947E+01 -0.44898232711E+01  0.74541954211E+01  0.51100000000E-03 0. -1.
        -11    1    3    3    0    0  0.78680824715E+01 -0.70978174808E+01 -0.13048265553E+02  0.16809014515E+02  0.51100000000E-03 0.  1.
         12    1    3    3    0    0  0.84614387703E+01 -0.65677614558E+01 -0.20943971505E+02  0.23524059578E+02  0.00000000000E+00 0. -1.
</event>
<event>
 7    1  0.8300060E-011  0.4778727E+02  0.7816164E-02  0.1312668E+00
        -11   -1    0    0    0    0  0.00000000000E+00  0.00000000000E+00  0.45593999997E+02  0.45594000000E+02  0.51100000000E-03 0. -1.
         11   -1    0    0    0    0 -0.00000000000E+00 -0.00000000000E+00 -0.45593999997E+02  0.45594000000E+02  0.51100000000E-03 0.  1.
    9900012    2    1    2    0    0 -0.72699014164E+01  0.27566461437E+02 -0.32724025792E+02  0.47787272739E+02  0.20000007728E+02 0.  0.
         12    1    1    2    0    0  0.72699014164E+01 -0.27566461437E+02  0.32724025792E+02  0.43400727261E+02  0.00000000000E+00 0. -1.
         11    1    3    3    0    0  0.27545062444E+01  0.51832122145E+00 -0.72785868396E+01  0.77996017963E+01  0.51100000000E-03 0. -1.
        -11    1    3    3    0    0 -0.87706807887E+01  0.90628995801E+01 -0.82310023353E+01  0.15060225430E+02  0.51100000000E-03 0.  1.
        -12    1    3    3    0    0 -0.12537268721E+01  0.17985240635E+02 -0.17214436617E+02  0.24927445513E+02  0.00000000000E+00 0.  1.
</event>
<event>
 7    1  0.8300060E-011  0.4778727E+02  0.7816164E-02  0.1312668E+00
        -11   -1    0    0    0    0  0.00000000000E+00  0.00000000000E+00  0.45593999997E+02  0.45594000000E+02  0.51100000000E-03 0. -1.
         11   -1    0    0    0    0 -0.00000000000E+00 -0.00000000000E+00 -0.45593999997E+02  0.45594000000E+02  0.51100000000E-03 0.  1.
    9900012    2    1    2    0    0 -0.24797105424E+02  0.29271848771E+02 -0.20294964033E+02  0.47787272668E+02  0.20000007400E+02 0.  0.
         12    1    1    2    0    0  0.24797105424E+02 -0.29271848771E+02  0.20294964033E+02  0.43400727332E+02  0.00000000000E+00 0. -1.
         11    1    3    3    0    0 -0.12229748148E+02  0.45337071024E+01  0.41236500627E+00  0.13049570300E+02  0.51100000000E-03 0. -1.
        -11    1    3    3    0    0 -0.96778723258E+01  0.20840673332E+02 -0.16193433889E+02  0.28110890755E+02  0.51100000000E-03 0.  1.
         12    1    3    3    0    0 -0.28894849496E+01  0.38974683375E+01 -0.45138951504E+01  0.66268116123E+01  0.00000000000E+00 0. -1.
</event>
<event>
 7    1  0.8300060E-011  0.4778727E+02  0.7816164E-02  0.1312668E+00
        -11   -1    0    0    0    0  0.00000000000E+00  0.00000000000E+00  0.45593999997E+02  0.45594000000E+02  0.51100000000E-03 0. -1.
         11   -1    0    0    0    0 -0.00000000000E+00 -0.00000000000E+00 -0.45593999997E+02  0.45594000000E+02  0.51100000000E-03 0.  1.
    9900012    2    1    2    0    0 -0.12414835221E+01  0.32750607469E+02 -0.28451361386E+02  0.47787268029E+02  0.19999986250E+02 0.  0.
         12    1    1    2    0    0  0.12414835221E+01 -0.32750607469E+02  0.28451361386E+02  0.43400731971E+02  0.00000000000E+00 0. -1.
         11    1    3    3    0    0 -0.22866940827E+01  0.88460962466E+00 -0.10023023636E+02  0.10318551598E+02  0.51100000000E-03 0. -1.
        -11    1    3    3    0    0  0.39481434699E+01  0.21363349328E+02 -0.12073636684E+02  0.24854642109E+02  0.51100000000E-03 0.  1.
         12    1    3    3    0    0 -0.29029329093E+01  0.10502648516E+02 -0.63547010668E+01  0.12614074321E+02  0.00000000000E+00 0. -1.
</event>
<event>
 7    1  0.8300060E-011  0.4778727E+02  0.7816164E-02  0.1312668E+00
        -11   -1    0    0    0    0  0.00000000000E+00  0.00000000000E+00  0.45593999997E+02  0.45594000000E+02  0.51100000000E-03 0. -1.
         11   -1    0    0    0    0 -0.00000000000E+00 -0.00000000000E+00 -0.45593999997E+02  0.45594000000E+02  0.51100000000E-03 0.  1.
    9900012    2    1    2    0    0 -0.34939154091E+02 -0.15333947926E+02 -0.20682098958E+02  0.47787266540E+02  0.19999979460E+02 0.  0.
         12    1    1    2    0    0  0.34939154091E+02  0.15333947926E+02  0.20682098958E+02  0.43400733460E+02  0.00000000000E+00 0. -1.
         11    1    3    3    0    0 -0.10894665637E+00  0.10725282965E+01 -0.59674250128E+01  0.60640207672E+01  0.51100000000E-03 0. -1.
        -11    1    3    3    0    0 -0.19976278124E+02 -0.10271352745E+02 -0.52334187964E+01  0.23063847195E+02  0.51100000000E-03 0.  1.
         12    1    3    3    0    0 -0.14853929311E+02 -0.61351234773E+01 -0.94812551492E+01  0.18659398577E+02  0.00000000000E+00 0. -1.
</event>
<event>
 7    1  0.8300060E-011  0.4778727E+02  0.7816164E-02  0.1312668E+00
        -11   -1    0    0    0    0  0.00000000000E+00  0.00000000000E+00  0.45593999997E+02  0.45594000000E+02  0.51100000000E-03 0. -1.
         11   -1    0    0    0    0 -0.00000000000E+00 -0.00000000000E+00 -0.45593999997E+02  0.45594000000E+02  0.51100000000E-03 0.  1.
    9900012    2    1    2    0    0  0.13417036768E+01 -0.15921217728E+02 -0.40352669855E+02  0.47787270662E+02  0.19999998255E+02 0.  0.
         12    1    1    2    0    0 -0.13417036768E+01  0.15921217728E+02  0.40352669855E+02  0.43400729338E+02  0.00000000000E+00 0. -1.
         11    1    3    3    0    0 -0.15552021243E+01  0.92546015410E+00  0.43352076312E+00  0.18609327385E+01  0.51100000000E-03 0. -1.
        -11    1    3    3    0    0  0.63888192241E+01 -0.51026155683E+01 -0.22269619682E+02  0.23723188187E+02  0.51100000000E-03 0.  1.
        -12    1    3    3    0    0 -0.34919134230E+01 -0.11744062314E+02 -0.18516570936E+02  0.22203149736E+02  0.00000000000E+00 0.  1.
</event>
<event>
 7    1  0.8300060E-011  0.4778727E+02  0.7816164E-02  0.1312668E+00
        -11   -1    0    0    0    0  0.00000000000E+00  0.00000000000E+00  0.45593999997E+02  0.45594000000E+02  0.51100000000E-03 0.  1.
         11   -1    0    0    0    0 -0.00000000000E+00 -0.00000000000E+00 -0.45593999997E+02  0.45594000000E+02  0.51100000000E-03 0. -1.
    9900012    2    1    2    0    0  0.16084410251E+01  0.40067582077E+02  0.16601962264E+02  0.47787269971E+02  0.19999995105E+02 0.  0.
        -12    1    1    2    0    0 -0.16084410251E+01 -0.40067582077E+02 -0.16601962264E+02  0.43400730029E+02  0.00000000000E+00 0.  1.
         11    1    3    3    0    0 -0.13280115417E+01  0.26269563810E+02  0.21038478885E+01  0.26387113779E+02  0.51100000000E-03 0. -1.
        -11    1    3    3    0    0  0.45251317161E+01  0.51492008491E+01  0.52137201328E+01  0.86124308019E+01  0.51100000000E-03 0.  1.
         12    1    3    3    0    0 -0.15886791493E+01  0.86488174183E+01  0.92843942432E+01  0.12787725390E+02  0.00000000000E+00 0. -1.
</event>
<event>
 7    1  0.8300060E-011  0.4778727E+02  0.7816164E-02  0.1312668E+00
        -11   -1    0    0    0    0  0.00000000000E+00  0.00000000000E+00  0.45593999997E+02  0.45594000000E+02  0.51100000000E-03 0. -1.
         11   -1    0    0    0    0 -0.00000000000E+00 -0.00000000000E+00 -0.45593999997E+02  0.45594000000E+02  0.51100000000E-03 0.  1.
    9900012    2    1    2    0    0  0.35038272666E+02  0.17070407324E+02  0.19093035682E+02  0.47787269947E+02  0.19999994995E+02 0.  0.
        -12    1    1    2    0    0 -0.35038272666E+02 -0.17070407324E+02 -0.19093035682E+02  0.43400730053E+02  0.00000000000E+00 0.  1.
         11    1    3    3    0    0  0.27793107008E+02  0.12071732728E+02  0.12766588694E+02  0.32881139204E+02  0.51100000000E-03 0. -1.
        -11    1    3    3    0    0  0.52697896955E+01  0.65474544130E+01  0.82243552291E+01  0.11759245806E+02  0.51100000000E-03 0.  1.
         12    1    3    3    0    0  0.19753759623E+01 -0.15487798167E+01 -0.18979082416E+01  0.31468849370E+01  0.00000000000E+00 0. -1.
</event>
<event>
 7    1  0.8300060E-011  0.4778728E+02  0.7816164E-02  0.1312668E+00
        -11   -1    0    0    0    0  0.00000000000E+00  0.00000000000E+00  0.45593999997E+02  0.45594000000E+02  0.51100000000E-03 0. -1.
         11   -1    0    0    0    0 -0.00000000000E+00 -0.00000000000E+00 -0.45593999997E+02  0.45594000000E+02  0.51100000000E-03 0.  1.
    9900012    2    1    2    0    0  0.29922370138E+02 -0.20610474674E+02  0.23737789540E+02  0.47787279346E+02  0.20000037852E+02 0.  0.
        -12    1    1    2    0    0 -0.29922370138E+02  0.20610474674E+02 -0.23737789540E+02  0.43400720654E+02  0.00000000000E+00 0.  1.
         11    1    3    3    0    0  0.10825696903E+02 -0.67099292121E+01  0.70311950320E+01  0.14548421471E+02  0.51100000000E-03 0. -1.
        -11    1    3    3    0    0  0.15540822371E+02 -0.64633584792E+01  0.27856967233E+01  0.17060254081E+02  0.51100000000E-03 0.  1.
        -12    1    3    3    0    0  0.35558508641E+01 -0.74371869829E+01  0.13920897785E+02  0.16178603794E+02  0.00000000000E+00 0.  1.
</event>
<event>
 7    1  0.8300060E-011  0.4778727E+02  0.7816164E-02  0.1312668E+00
        -11   -1    0    0    0    0  0.00000000000E+00  0.00000000000E+00  0.45593999997E+02  0.45594000000E+02  0.51100000000E-03 0. -1.
         11   -1    0    0    0    0 -0.00000000000E+00 -0.00000000000E+00 -0.45593999997E+02  0.45594000000E+02  0.51100000000E-03 0.  1.
    9900012    2    1    2    0    0  0.14319052300E+02 -0.29643555607E+02 -0.28281577341E+02  0.47787271151E+02  0.20000000484E+02 0.  0.
         12    1    1    2    0    0 -0.14319052300E+02  0.29643555607E+02  0.28281577341E+02  0.43400728849E+02  0.00000000000E+00 0. -1.
         11    1    3    3    0    0  0.34968353136E+01 -0.27693365685E+01  0.16869173180E+01  0.47689383031E+01  0.51100000000E-03 0. -1.
        -11    1    3    3    0    0  0.62448701012E+01 -0.24876361043E+02 -0.26843535929E+02  0.37126906183E+02  0.51100000000E-03 0.  1.
        -12    1    3    3    0    0  0.45773468848E+01 -0.19978579950E+01 -0.31249587305E+01  0.58914266642E+01  0.00000000000E+00 0.  1.
</event>
<event>
 7    1  0.8300060E-011  0.4778728E+02  0.7816164E-02  0.1312668E+00
        -11   -1    0    0    0    0  0.00000000000E+00  0.00000000000E+00  0.45593999997E+02  0.45594000000E+02  0.51100000000E-03 0. -1.
         11   -1    0    0    0    0 -0.00000000000E+00 -0.00000000000E+00 -0.45593999997E+02  0.45594000000E+02  0.51100000000E-03 0.  1.
    9900012    2    1    2    0    0  0.18641316187E+02  0.21227701858E+02 -0.32947057677E+02  0.47787278751E+02  0.20000035139E+02 0.  0.
         12    1    1    2    0    0 -0.18641316187E+02 -0.21227701858E+02  0.32947057677E+02  0.43400721249E+02  0.00000000000E+00 0. -1.
         11    1    3    3    0    0  0.59899050442E+01  0.41747970197E+01 -0.85372055880E+00  0.73509680755E+01  0.51100000000E-03 0. -1.
        -11    1    3    3    0    0  0.12398594072E+01  0.31217199265E+01 -0.15793325933E+02  0.16146564060E+02  0.51100000000E-03 0.  1.
        -12    1    3    3    0    0  0.11411551735E+02  0.13931184912E+02 -0.16300011185E+02  0.24289746616E+02  0.00000000000E+00 0.  1.
</event>
<event>
 7    1  0.8300060E-011  0.4778727E+02  0.7816164E-02  0.1312668E+00
        -11   -1    0    0    0    0  0.00000000000E+00  0.00000000000E+00  0.45593999997E+02  0.45594000000E+02  0.51100000000E-03 0. -1.
         11   -1    0    0    0    0 -0.00000000000E+00 -0.00000000000E+00 -0.45593999997E+02  0.45594000000E+02  0.51100000000E-03 0.  1.
    9900012    2    1    2    0    0 -0.20088849341E+02  0.40833175931E+01 -0.38254253515E+02  0.47787271177E+02  0.20000000603E+02 0.  0.
         12    1    1    2    0    0  0.20088849341E+02 -0.40833175931E+01  0.38254253515E+02  0.43400728823E+02  0.00000000000E+00 0. -1.
         11    1    3    3    0    0 -0.27388427607E+01 -0.39078946529E+01 -0.14345624919E+02  0.15118526874E+02  0.51100000000E-03 0. -1.
        -11    1    3    3    0    0 -0.18849352309E+02  0.78870625914E+01 -0.20502433450E+02  0.28945701173E+02  0.51100000000E-03 0.  1.
        -12    1    3    3    0    0  0.14993457288E+01  0.10414965466E+00 -0.34061951466E+01  0.37230431292E+01  0.00000000000E+00 0.  1.
</event>
<event>
 7    1  0.8300060E-011  0.4778727E+02  0.7816164E-02  0.1312668E+00
        -11   -1    0    0    0    0  0.00000000000E+00  0.00000000000E+00  0.45593999997E+02  0.45594000000E+02  0.51100000000E-03 0. -1.
         11   -1    0    0    0    0 -0.00000000000E+00 -0.00000000000E+00 -0.45593999997E+02  0.45594000000E+02  0.51100000000E-03 0.  1.
    9900012    2    1    2    0    0 -0.93020364691E+01 -0.52188507095E+01  0.42069695996E+02  0.47787267213E+02  0.19999982533E+02 0.  0.
        -12    1    1    2    0    0  0.93020364691E+01  0.52188507095E+01 -0.42069695996E+02  0.43400732787E+02  0.00000000000E+00 0.  1.
         11    1    3    3    0    0  0.32258868495E+01  0.29467518733E+01  0.33394150294E+01  0.54992168141E+01  0.51100000000E-03 0. -1.
        -11    1    3    3    0    0 -0.85776042403E+01 -0.57114299242E+01  0.15610510749E+02  0.18705180362E+02  0.51100000000E-03 0.  1.
         12    1    3    3    0    0 -0.39503190783E+01 -0.24541726586E+01  0.23119770218E+02  0.23582870037E+02  0.00000000000E+00 0. -1.
</event>
<event>
 7    1  0.8300060E-011  0.4778727E+02  0.7816164E-02  0.1312668E+00
        -11   -1    0    0    0    0  0.00000000000E+00  0.00000000000E+00  0.45593999997E+02  0.45594000000E+02  0.51100000000E-03 0. -1.
         11   -1    0    0    0    0 -0.00000000000E+00 -0.00000000000E+00 -0.45593999997E+02  0.45594000000E+02  0.51100000000E-03 0.  1.
    9900012    2    1    2    0    0  0.81452139364E+01 -0.93252440253E+01  0.41597100256E+02  0.47787269177E+02  0.19999991487E+02 0.  0.
        -12    1    1    2    0    0 -0.81452139364E+01  0.93252440253E+01 -0.41597100256E+02  0.43400730823E+02  0.00000000000E+00 0.  1.
         11    1    3    3    0    0  0.18800453541E+01 -0.11934757549E+02  0.30012479215E+02  0.32353082035E+02  0.51100000000E-03 0. -1.
        -11    1    3    3    0    0  0.60450243999E+00  0.42594274608E+01  0.48348704821E+01  0.64717940583E+01  0.51100000000E-03 0.  1.
         12    1    3    3    0    0  0.56606661423E+01 -0.16499139368E+01  0.67497505593E+01  0.89623930837E+01  0.00000000000E+00 0. -1.
</event>
<event>
 7    1  0.8300060E-011  0.4778727E+02  0.7816164E-02  0.1312668E+00
        -11   -1    0    0    0    0  0.00000000000E+00  0.00000000000E+00  0.45593999997E+02  0.45594000000E+02  0.51100000000E-03 0. -1.
         11   -1    0    0    0    0 -0.00000000000E+00 -0.00000000000E+00 -0.45593999997E+02  0.45594000000E+02  0.51100000000E-03 0.  1.
    9900012    2    1    2    0    0  0.12218758903E+02  0.66716826723E+01 -0.41107346929E+02  0.47787269703E+02  0.19999993882E+02 0.  0.
         12    1    1    2    0    0 -0.12218758903E+02 -0.66716826723E+01  0.41107346929E+02  0.43400730297E+02  0.00000000000E+00 0. -1.
         11    1    3    3    0    0  0.12771264047E+00  0.56534032944E+01 -0.50271048446E+01  0.75663110370E+01  0.51100000000E-03 0. -1.
        -11    1    3    3    0    0  0.12936897765E+02 -0.17134259241E+01 -0.34645110549E+02  0.37021383515E+02  0.51100000000E-03 0.  1.
        -12    1    3    3    0    0 -0.84585150194E+00  0.27317053020E+01 -0.14351315357E+01  0.31995751507E+01  0.00000000000E+00 0.  1.
</event>
<event>
 7    1  0.8300060E-011  0.4778728E+02  0.7816164E-02  0.1312668E+00
        -11   -1    0    0    0    0  0.00000000000E+00  0.00000000000E+00  0.45593999997E+02  0.45594000000E+02  0.51100000000E-03 0. -1.
         11   -1    0    0    0    0 -0.00000000000E+00 -0.00000000000E+00 -0.45593999997E+02  0.45594000000E+02  0.51100000000E-03 0.  1.
    9900012    2    1    2    0    0  0.72870420222E+01  0.10567717231E+02 -0.41458950721E+02  0.47787283142E+02  0.20000055157E+02 0.  0.
         12    1    1    2    0    0 -0.72870420222E+01 -0.10567717231E+02  0.41458950721E+02  0.43400716858E+02  0.00000000000E+00 0. -1.
         11    1    3    3    0    0  0.20934347629E+01 -0.18902771042E+00 -0.40688365959E-01  0.21023454488E+01  0.51100000000E-03 0. -1.
        -11    1    3    3    0    0 -0.31309107269E+01  0.15906471742E+01 -0.24330574774E+02  0.24582709971E+02  0.51100000000E-03 0.  1.
        -12    1    3    3    0    0  0.83245179862E+01  0.91660977670E+01 -0.17087687581E+02  0.21102227722E+02  0.00000000000E+00 0.  1.
</event>
<event>
 7    1  0.8300060E-011  0.4778728E+02  0.7816164E-02  0.1312668E+00
        -11   -1    0    0    0    0  0.00000000000E+00  0.00000000000E+00  0.45593999997E+02  0.45594000000E+02  0.51100000000E-03 0. -1.
         11   -1    0    0    0    0 -0.00000000000E+00 -0.00000000000E+00 -0.45593999997E+02  0.45594000000E+02  0.51100000000E-03 0.  1.
    9900012    2    1    2    0    0  0.21241833725E+02  0.13418286630E+02  0.35388656540E+02  0.47787275032E+02  0.20000018180E+02 0.  0.
        -12    1    1    2    0    0 -0.21241833725E+02 -0.13418286630E+02 -0.35388656540E+02  0.43400724968E+02  0.00000000000E+00 0.  1.
         11    1    3    3    0    0  0.80794820487E+01 -0.42508631428E+01  0.15092598794E+02  0.17639002416E+02  0.51100000000E-03 0. -1.
        -11    1    3    3    0    0  0.87169345581E+01  0.10324751497E+02  0.14315678820E+02  0.19685631864E+02  0.51100000000E-03 0.  1.
         12    1    3    3    0    0  0.44454171181E+01  0.73443982758E+01  0.59803789264E+01  0.10462640751E+02  0.00000000000E+00 0. -1.
</event>
<event>
 7    1  0.8300060E-011  0.4778727E+02  0.7816164E-02  0.1312668E+00
        -11   -1    0    0    0    0  0.00000000000E+00  0.00000000000E+00  0.45593999997E+02  0.45594000000E+02  0.51100000000E-03 0. -1.
         11   -1    0    0    0    0 -0.00000000000E+00 -0.00000000000E+00 -0.45593999997E+02  0.45594000000E+02  0.51100000000E-03 0.  1.
    9900012    2    1    2    0    0  0.23086211465E+02  0.11730767475E+02  0.34828711239E+02  0.47787271989E+02  0.20000004306E+02 0.  0.
        -12    1    1    2    0    0 -0.23086211465E+02 -0.11730767475E+02 -0.34828711239E+02  0.43400728011E+02  0.00000000000E+00 0.  1.
         11    1    3    3    0    0  0.20980844132E+02  0.11408951521E+02  0.24108205925E+02  0.33934725408E+02  0.51100000000E-03 0. -1.
        -11    1    3    3    0    0 -0.33000071209E+01 -0.91164662043E-01  0.47926405066E+01  0.58196014710E+01  0.51100000000E-03 0.  1.
        -12    1    3    3    0    0  0.54053744536E+01  0.41298061588E+00  0.59278648073E+01  0.80329451103E+01  0.00000000000E+00 0.  1.
</event>
<event>
 7    1  0.8300060E-011  0.4778727E+02  0.7816164E-02  0.1312668E+00
        -11   -1    0    0    0    0  0.00000000000E+00  0.00000000000E+00  0.45593999997E+02  0.45594000000E+02  0.51100000000E-03 0. -1.
         11   -1    0    0    0    0 -0.00000000000E+00 -0.00000000000E+00 -0.45593999997E+02  0.45594000000E+02  0.51100000000E-03 0.  1.
    9900012    2    1    2    0    0  0.23153241723E+02  0.29787249099E+02 -0.21453918599E+02  0.47787269194E+02  0.19999991565E+02 0.  0.
         12    1    1    2    0    0 -0.23153241723E+02 -0.29787249099E+02  0.21453918599E+02  0.43400730806E+02  0.00000000000E+00 0. -1.
         11    1    3    3    0    0  0.75177845383E+00 -0.72282294873E+00 -0.54285348391E+01  0.55278055880E+01  0.51100000000E-03 0. -1.
        -11    1    3    3    0    0  0.17183440878E+02  0.20520853473E+02 -0.65982902511E+01  0.27566528657E+02  0.51100000000E-03 0.  1.
         12    1    3    3    0    0  0.52180223910E+01  0.99892185748E+01 -0.94270935090E+01  0.14692934950E+02  0.00000000000E+00 0. -1.
</event>
<event>
 7    1  0.8300060E-011  0.4778727E+02  0.7816164E-02  0.1312668E+00
        -11   -1    0    0    0    0  0.00000000000E+00  0.00000000000E+00  0.45593999997E+02  0.45594000000E+02  0.51100000000E-03 0.  1.
         11   -1    0    0    0    0 -0.00000000000E+00 -0.00000000000E+00 -0.45593999997E+02  0.45594000000E+02  0.51100000000E-03 0. -1.
    9900012    2    1    2    0    0 -0.35654049303E+02  0.24348548314E+02  0.44226729805E+01  0.47787273359E+02  0.20000010553E+02 0.  0.
        -12    1    1    2    0    0  0.35654049303E+02 -0.24348548314E+02 -0.44226729805E+01  0.43400726641E+02  0.00000000000E+00 0.  1.
         11    1    3    3    0    0 -0.20702666198E+02  0.11283062999E+02 -0.43570006893E+01  0.23976892075E+02  0.51100000000E-03 0. -1.
        -11    1    3    3    0    0 -0.30490306626E+01  0.82555500328E+01  0.60675384578E+01  0.10689514373E+02  0.51100000000E-03 0.  1.
        -12    1    3    3    0    0 -0.11902352443E+02  0.48099352823E+01  0.27121352120E+01  0.13120866911E+02  0.00000000000E+00 0.  1.
</event>
<event>
 7    1  0.8300060E-011  0.4778727E+02  0.7816164E-02  0.1312668E+00
        -11   -1    0    0    0    0  0.00000000000E+00  0.00000000000E+00  0.45593999997E+02  0.45594000000E+02  0.51100000000E-03 0. -1.
         11   -1    0    0    0    0 -0.00000000000E+00 -0.00000000000E+00 -0.45593999997E+02  0.45594000000E+02  0.51100000000E-03 0.  1.
    9900012    2    1    2    0    0 -0.10874633903E+02 -0.81054476738E+01  0.41227025199E+02  0.47787267848E+02  0.19999985428E+02 0.  0.
        -12    1    1    2    0    0  0.10874633903E+02  0.81054476738E+01 -0.41227025199E+02  0.43400732152E+02  0.00000000000E+00 0.  1.
         11    1    3    3    0    0 -0.17919302733E+01 -0.27772283032E+01  0.49647181137E+00  0.33422291473E+01  0.51100000000E-03 0. -1.
        -11    1    3    3    0    0 -0.71124218981E+01  0.27763221623E+01  0.29402735044E+02  0.30377875804E+02  0.51100000000E-03 0.  1.
        -12    1    3    3    0    0 -0.19702817320E+01 -0.81045415330E+01  0.11327818344E+02  0.14067162898E+02  0.00000000000E+00 0.  1.
</event>
<event>
 7    1  0.8300060E-011  0.4778727E+02  0.7816164E-02  0.1312668E+00
        -11   -1    0    0    0    0  0.00000000000E+00  0.00000000000E+00  0.45593999997E+02  0.45594000000E+02  0.51100000000E-03 0. -1.
         11   -1    0    0    0    0 -0.00000000000E+00 -0.00000000000E+00 -0.45593999997E+02  0.45594000000E+02  0.51100000000E-03 0.  1.
    9900012    2    1    2    0    0  0.13824837492E+02  0.19953422490E+02  0.35977187263E+02  0.47787271848E+02  0.20000003665E+02 0.  0.
        -12    1    1    2    0    0 -0.13824837492E+02 -0.19953422490E+02 -0.35977187263E+02  0.43400728152E+02  0.00000000000E+00 0.  1.
         11    1    3    3    0    0  0.18556591682E+01  0.57556796005E+01 -0.54028463016E+00  0.60715093968E+01  0.51100000000E-03 0. -1.
        -11    1    3    3    0    0  0.10135946514E+02  0.60274152373E+01  0.21277131869E+02  0.24326600400E+02  0.51100000000E-03 0.  1.
         12    1    3    3    0    0  0.18332318097E+01  0.81703276518E+01  0.15240340024E+02  0.17389162051E+02  0.00000000000E+00 0. -1.
</event>
<event>
 7    1  0.8300060E-011  0.4778727E+02  0.7816164E-02  0.1312668E+00
        -11   -1    0    0    0    0  0.00000000000E+00  0.00000000000E+00  0.45593999997E+02  0.45594000000E+02  0.51100000000E-03 0. -1.
         11   -1    0    0    0    0 -0.00000000000E+00 -0.00000000000E+00 -0.45593999997E+02  0.45594000000E+02  0.51100000000E-03 0.  1.
    9900012    2    1    2    0    0  0.27489639208E+02 -0.18025525771E+02  0.28337673417E+02  0.47787267543E+02  0.19999984035E+02 0.  0.
        -12    1    1    2    0    0 -0.27489639208E+02  0.18025525771E+02 -0.28337673417E+02  0.43400732457E+02  0.00000000000E+00 0.  1.
         11    1    3    3    0    0  0.45771066221E+01 -0.75022555148E+01  0.68133195258E+01  0.11120029949E+02  0.51100000000E-03 0. -1.
        -11    1    3    3    0    0  0.17885753615E+02 -0.40965156693E+00  0.98451036260E+01  0.20420432475E+02  0.51100000000E-03 0.  1.
        -12    1    3    3    0    0  0.50267789708E+01 -0.10113618690E+02  0.11679250265E+02  0.16246805119E+02  0.00000000000E+00 0.  1.
</event>
<event>
 7    1  0.8300060E-011  0.4778731E+02  0.7816164E-02  0.1312668E+00
        -11   -1    0    0    0    0  0.00000000000E+00  0.00000000000E+00  0.45593999997E+02  0.45594000000E+02  0.51100000000E-03 0.  1.
         11   -1    0    0    0    0 -0.00000000000E+00 -0.00000000000E+00 -0.45593999997E+02  0.45594000000E+02  0.51100000000E-03 0. -1.
    9900012    2    1    2    0    0 -0.39480677411E+02 -0.12346143303E+01 -0.17982548167E+02  0.47787306458E+02  0.20000161464E+02 0.  0.
         12    1    1    2    0    0  0.39480677411E+02  0.12346143303E+01  0.17982548167E+02  0.43400693542E+02  0.00000000000E+00 0. -1.
         11    1    3    3    0    0 -0.22441449822E+02 -0.10171113570E+02 -0.98606524528E+01  0.26538701710E+02  0.51100000000E-03 0. -1.
        -11    1    3    3    0    0 -0.17200237649E+02  0.88704366890E+01 -0.82444232229E+01  0.21035763280E+02  0.51100000000E-03 0.  1.
         12    1    3    3    0    0  0.16101006039E+00  0.66062550646E-01  0.12252750890E+00  0.21284146819E+00  0.00000000000E+00 0. -1.
</event>
<event>
 7    1  0.8300060E-011  0.4778727E+02  0.7816164E-02  0.1312668E+00
        -11   -1    0    0    0    0  0.00000000000E+00  0.00000000000E+00  0.45593999997E+02  0.45594000000E+02  0.51100000000E-03 0.  1.
         11   -1    0    0    0    0 -0.00000000000E+00 -0.00000000000E+00 -0.45593999997E+02  0.45594000000E+02  0.51100000000E-03 0. -1.
    9900012    2    1    2    0    0  0.22400447333E+02 -0.19764404649E+02  0.31483510718E+02  0.47787272138E+02  0.20000004984E+02 0.  0.
        -12    1    1    2    0    0 -0.22400447333E+02  0.19764404649E+02 -0.31483510718E+02  0.43400727862E+02  0.00000000000E+00 0.  1.
         11    1    3    3    0    0  0.25662960908E+01  0.36924016506E+01  0.35967356319E+01  0.57581431939E+01  0.51100000000E-03 0. -1.
        -11    1    3    3    0    0  0.17532412261E+02 -0.17097700309E+02  0.23674717441E+02  0.34061842019E+02  0.51100000000E-03 0.  1.
        -12    1    3    3    0    0  0.23017389816E+01 -0.63591059904E+01  0.42120576452E+01  0.79672869249E+01  0.00000000000E+00 0.  1.
</event>
<event>
 7    1  0.8300060E-011  0.4778727E+02  0.7816164E-02  0.1312668E+00
        -11   -1    0    0    0    0  0.00000000000E+00  0.00000000000E+00  0.45593999997E+02  0.45594000000E+02  0.51100000000E-03 0. -1.
         11   -1    0    0    0    0 -0.00000000000E+00 -0.00000000000E+00 -0.45593999997E+02  0.45594000000E+02  0.51100000000E-03 0.  1.
    9900012    2    1    2    0    0  0.83403803332E+01  0.20537646825E+02  0.37313087731E+02  0.47787269623E+02  0.19999993521E+02 0.  0.
        -12    1    1    2    0    0 -0.83403803332E+01 -0.20537646825E+02 -0.37313087731E+02  0.43400730377E+02  0.00000000000E+00 0.  1.
         11    1    3    3    0    0 -0.12674162677E+01 -0.25688862267E+01  0.29461315531E+01  0.41091619377E+01  0.51100000000E-03 0. -1.
        -11    1    3    3    0    0  0.11745902132E+02  0.19622705410E+02  0.29143829401E+02  0.37045641808E+02  0.51100000000E-03 0.  1.
         12    1    3    3    0    0 -0.21381055315E+01  0.34838276415E+01  0.52231267764E+01  0.66324658779E+01  0.00000000000E+00 0. -1.
</event>
<event>
 7    1  0.8300060E-011  0.4778727E+02  0.7816164E-02  0.1312668E+00
        -11   -1    0    0    0    0  0.00000000000E+00  0.00000000000E+00  0.45593999997E+02  0.45594000000E+02  0.51100000000E-03 0. -1.
         11   -1    0    0    0    0 -0.00000000000E+00 -0.00000000000E+00 -0.45593999997E+02  0.45594000000E+02  0.51100000000E-03 0.  1.
    9900012    2    1    2    0    0  0.17791974676E+02  0.25604740653E+02  0.30190504526E+02  0.47787266478E+02  0.19999979178E+02 0.  0.
        -12    1    1    2    0    0 -0.17791974676E+02 -0.25604740653E+02 -0.30190504526E+02  0.43400733522E+02  0.00000000000E+00 0.  1.
         11    1    3    3    0    0  0.73274208292E+01  0.18570824168E+02  0.27888616343E+02  0.34297835618E+02  0.51100000000E-03 0. -1.
        -11    1    3    3    0    0  0.68384858458E+01  0.36399324715E+01  0.33051589698E+01  0.84224742883E+01  0.51100000000E-03 0.  1.
         12    1    3    3    0    0  0.36260680005E+01  0.33939840132E+01 -0.10032707865E+01  0.50669565715E+01  0.00000000000E+00 0. -1.
</event>
<event>
 7    1  0.8300060E-011  0.4778726E+02  0.7816164E-02  0.1312668E+00
        -11   -1    0    0    0    0  0.00000000000E+00  0.00000000000E+00  0.45593999997E+02  0.45594000000E+02  0.51100000000E-03 0. -1.
         11   -1    0    0    0    0 -0.00000000000E+00 -0.00000000000E+00 -0.45593999997E+02  0.45594000000E+02  0.51100000000E-03 0.  1.
    9900012    2    1    2    0    0  0.20701070195E+02  0.37048115039E+02  0.90844582340E+01  0.47787256728E+02  0.19999934726E+02 0.  0.
        -12    1    1    2    0    0 -0.20701070195E+02 -0.37048115039E+02 -0.90844582340E+01  0.43400743272E+02  0.00000000000E+00 0.  1.
         11    1    3    3    0    0  0.92344945495E+01  0.25345941815E+02  0.14586866705E+01  0.27015188749E+02  0.51100000000E-03 0. -1.
        -11    1    3    3    0    0  0.54007853324E+01  0.55359818946E+01  0.91590083035E+01  0.11987619076E+02  0.51100000000E-03 0.  1.
         12    1    3    3    0    0  0.60657903134E+01  0.61661913291E+01 -0.15332367400E+01  0.87844489033E+01  0.00000000000E+00 0. -1.
</event>
<event>
 7    1  0.8300060E-011  0.4778728E+02  0.7816164E-02  0.1312668E+00
        -11   -1    0    0    0    0  0.00000000000E+00  0.00000000000E+00  0.45593999997E+02  0.45594000000E+02  0.51100000000E-03 0. -1.
         11   -1    0    0    0    0 -0.00000000000E+00 -0.00000000000E+00 -0.45593999997E+02  0.45594000000E+02  0.51100000000E-03 0.  1.
    9900012    2    1    2    0    0  0.34001738345E+02 -0.44189952328E+01 -0.26607837436E+02  0.47787277168E+02  0.20000027920E+02 0.  0.
         12    1    1    2    0    0 -0.34001738345E+02  0.44189952328E+01  0.26607837436E+02  0.43400722832E+02  0.00000000000E+00 0. -1.
         11    1    3    3    0    0  0.59106587385E+01  0.34151194896E+01 -0.20589838317E+00  0.68294452379E+01  0.51100000000E-03 0. -1.
        -11    1    3    3    0    0  0.26980206191E+02 -0.59819486431E+01 -0.19758779583E+02  0.33972409490E+02  0.51100000000E-03 0.  1.
        -12    1    3    3    0    0  0.11108734148E+01 -0.18521660794E+01 -0.66431594697E+01  0.69854224403E+01  0.00000000000E+00 0.  1.
</event>
<event>
 7    1  0.8300060E-011  0.4778727E+02  0.7816164E-02  0.1312668E+00
        -11   -1    0    0    0    0  0.00000000000E+00  0.00000000000E+00  0.45593999997E+02  0.45594000000E+02  0.51100000000E-03 0. -1.
         11   -1    0    0    0    0 -0.00000000000E+00 -0.00000000000E+00 -0.45593999997E+02  0.45594000000E+02  0.51100000000E-03 0.  1.
    9900012    2    1    2    0    0 -0.24034947190E+02 -0.14737074577E+02 -0.32996410837E+02  0.47787272107E+02  0.20000004845E+02 0.  0.
         12    1    1    2    0    0  0.24034947190E+02  0.14737074577E+02  0.32996410837E+02  0.43400727893E+02  0.00000000000E+00 0. -1.
         11    1    3    3    0    0 -0.16267024616E+02 -0.42269582062E+01 -0.24235726347E+02  0.29493282241E+02  0.51100000000E-03 0.  1.
        -11    1    3    3    0    0 -0.27876108796E+01 -0.96597064050E+01 -0.86141059785E+01  0.13239468430E+02  0.51100000000E-03 0. -1.
         12    1    3    3    0    0 -0.49803116941E+01 -0.85040996567E+00 -0.14657851146E+00  0.50545214353E+01  0.00000000000E+00 0. -1.
</event>
<event>
 7    1  0.8300060E-011  0.4778727E+02  0.7816164E-02  0.1312668E+00
        -11   -1    0    0    0    0  0.00000000000E+00  0.00000000000E+00  0.45593999997E+02  0.45594000000E+02  0.51100000000E-03 0. -1.
         11   -1    0    0    0    0 -0.00000000000E+00 -0.00000000000E+00 -0.45593999997E+02  0.45594000000E+02  0.51100000000E-03 0.  1.
    9900012    2    1    2    0    0  0.12422458730E+02 -0.27619778552E+02  0.31087836297E+02  0.47787271736E+02  0.20000003155E+02 0.  0.
        -12    1    1    2    0    0 -0.12422458730E+02  0.27619778552E+02 -0.31087836297E+02  0.43400728264E+02  0.00000000000E+00 0.  1.
         11    1    3    3    0    0  0.50362009150E+01 -0.36400464748E+01  0.67377834781E+01  0.91657506214E+01  0.51100000000E-03 0. -1.
        -11    1    3    3    0    0  0.94718724651E+01 -0.92306304759E+01  0.48588222670E+01  0.14090034104E+02  0.51100000000E-03 0.  1.
        -12    1    3    3    0    0 -0.20856146497E+01 -0.14749101601E+02  0.19491230552E+02  0.24531487011E+02  0.00000000000E+00 0.  1.
</event>
<event>
 7    1  0.8300060E-011  0.4778727E+02  0.7816164E-02  0.1312668E+00
        -11   -1    0    0    0    0  0.00000000000E+00  0.00000000000E+00  0.45593999997E+02  0.45594000000E+02  0.51100000000E-03 0. -1.
         11   -1    0    0    0    0 -0.00000000000E+00 -0.00000000000E+00 -0.45593999997E+02  0.45594000000E+02  0.51100000000E-03 0.  1.
    9900012    2    1    2    0    0  0.91525822704E+01  0.16736176244E+02  0.38984022691E+02  0.47787269792E+02  0.19999994288E+02 0.  0.
        -12    1    1    2    0    0 -0.91525822704E+01 -0.16736176244E+02 -0.38984022691E+02  0.43400730208E+02  0.00000000000E+00 0.  1.
         11    1    3    3    0    0 -0.32795872796E+01  0.60523575970E+01  0.19716918415E+02  0.20884051266E+02  0.51100000000E-03 0. -1.
        -11    1    3    3    0    0  0.18453299384E+01  0.67576410208E+00 -0.78618193840E+00  0.21165967978E+01  0.51100000000E-03 0.  1.
         12    1    3    3    0    0  0.10586839612E+02  0.10008054544E+02  0.20053286214E+02  0.24786621728E+02  0.00000000000E+00 0. -1.
</event>
<event>
 7    1  0.8300060E-011  0.4778728E+02  0.7816164E-02  0.1312668E+00
        -11   -1    0    0    0    0  0.00000000000E+00  0.00000000000E+00  0.45593999997E+02  0.45594000000E+02  0.51100000000E-03 0. -1.
         11   -1    0    0    0    0 -0.00000000000E+00 -0.00000000000E+00 -0.45593999997E+02  0.45594000000E+02  0.51100000000E-03 0.  1.
    9900012    2    1    2    0    0 -0.18773810281E+02 -0.20031131702E+02  0.33614291770E+02  0.47787276493E+02  0.20000024843E+02 0.  0.
        -12    1    1    2    0    0  0.18773810281E+02  0.20031131702E+02 -0.33614291770E+02  0.43400723507E+02  0.00000000000E+00 0.  1.
         11    1    3    3    0    0 -0.14320586372E+02 -0.60580153381E+01  0.12692916669E+02  0.20072092011E+02  0.51100000000E-03 0. -1.
        -11    1    3    3    0    0 -0.44470053806E+01 -0.52923671460E+00  0.33601598206E+01  0.55988054651E+01  0.51100000000E-03 0.  1.
         12    1    3    3    0    0 -0.62185279177E-02 -0.13443879649E+02  0.17561215280E+02  0.22116379017E+02  0.00000000000E+00 0. -1.
</event>
<event>
 7    1  0.8300060E-011  0.4778727E+02  0.7816164E-02  0.1312668E+00
        -11   -1    0    0    0    0  0.00000000000E+00  0.00000000000E+00  0.45593999997E+02  0.45594000000E+02  0.51100000000E-03 0. -1.
         11   -1    0    0    0    0 -0.00000000000E+00 -0.00000000000E+00 -0.45593999997E+02  0.45594000000E+02  0.51100000000E-03 0.  1.
    9900012    2    1    2    0    0 -0.20971495171E+02 -0.37212741521E+02  0.76832037693E+01  0.47787270036E+02  0.19999995403E+02 0.  0.
        -12    1    1    2    0    0  0.20971495171E+02  0.37212741521E+02 -0.76832037693E+01  0.43400729964E+02  0.00000000000E+00 0.  1.
         11    1    3    3    0    0 -0.17665458163E+02 -0.24001100631E+02  0.11741806753E+02  0.32031098478E+02  0.51100000000E-03 0. -1.
        -11    1    3    3    0    0 -0.83860468654E+00 -0.56120036381E+01 -0.51856350770E+01  0.76869144699E+01  0.51100000000E-03 0.  1.
        -12    1    3    3    0    0 -0.24674323217E+01 -0.75996372519E+01  0.11270320933E+01  0.80692570886E+01  0.00000000000E+00 0.  1.
</event>
<event>
 7    1  0.8300060E-011  0.4778727E+02  0.7816164E-02  0.1312668E+00
        -11   -1    0    0    0    0  0.00000000000E+00  0.00000000000E+00  0.45593999997E+02  0.45594000000E+02  0.51100000000E-03 0. -1.
         11   -1    0    0    0    0 -0.00000000000E+00 -0.00000000000E+00 -0.45593999997E+02  0.45594000000E+02  0.51100000000E-03 0.  1.
    9900012    2    1    2    0    0 -0.18276205086E+02 -0.18296287809E+02  0.34854694157E+02  0.47787268154E+02  0.19999986823E+02 0.  0.
        -12    1    1    2    0    0  0.18276205086E+02  0.18296287809E+02 -0.34854694157E+02  0.43400731846E+02  0.00000000000E+00 0.  1.
         11    1    3    3    0    0 -0.15412608046E+01 -0.94504652262E+00  0.25003482448E+01  0.30855047244E+01  0.51100000000E-03 0. -1.
        -11    1    3    3    0    0 -0.14453736399E+02 -0.13505870763E+02  0.34479607541E+02  0.39751256299E+02  0.51100000000E-03 0.  1.
        -12    1    3    3    0    0 -0.22812078830E+01 -0.38453705229E+01 -0.21252616279E+01  0.49505071307E+01  0.00000000000E+00 0.  1.
</event>
<event>
 7    1  0.8300060E-011  0.4778727E+02  0.7816164E-02  0.1312668E+00
        -11   -1    0    0    0    0  0.00000000000E+00  0.00000000000E+00  0.45593999997E+02  0.45594000000E+02  0.51100000000E-03 0.  1.
         11   -1    0    0    0    0 -0.00000000000E+00 -0.00000000000E+00 -0.45593999997E+02  0.45594000000E+02  0.51100000000E-03 0. -1.
    9900012    2    1    2    0    0  0.99926356811E+01 -0.39005852253E+02  0.16196115742E+02  0.47787269097E+02  0.19999991119E+02 0.  0.
        -12    1    1    2    0    0 -0.99926356811E+01  0.39005852253E+02 -0.16196115742E+02  0.43400730903E+02  0.00000000000E+00 0.  1.
         11    1    3    3    0    0 -0.78863688841E+00 -0.39693391682E+01  0.30785217380E+01  0.50847711774E+01  0.51100000000E-03 0. -1.
        -11    1    3    3    0    0  0.61119499486E+01 -0.11957166667E+02  0.13651855297E+02  0.19149488771E+02  0.51100000000E-03 0.  1.
        -12    1    3    3    0    0  0.46693226209E+01 -0.23079346418E+02 -0.53426129322E+00  0.23553009148E+02  0.00000000000E+00 0.  1.
</event>
<event>
 7    1  0.8300060E-011  0.4778727E+02  0.7816164E-02  0.1312668E+00
        -11   -1    0    0    0    0  0.00000000000E+00  0.00000000000E+00  0.45593999997E+02  0.45594000000E+02  0.51100000000E-03 0. -1.
         11   -1    0    0    0    0 -0.00000000000E+00 -0.00000000000E+00 -0.45593999997E+02  0.45594000000E+02  0.51100000000E-03 0.  1.
    9900012    2    1    2    0    0  0.12873799303E+02  0.33974872784E+02  0.23740193872E+02  0.47787268506E+02  0.19999988426E+02 0.  0.
        -12    1    1    2    0    0 -0.12873799303E+02 -0.33974872784E+02 -0.23740193872E+02  0.43400731494E+02  0.00000000000E+00 0.  1.
         11    1    3    3    0    0  0.89221821134E+01  0.11955567346E+02  0.41680411759E+01  0.15489141091E+02  0.51100000000E-03 0.  1.
        -11    1    3    3    0    0  0.34514639549E+01  0.12484522264E+02  0.18648641847E+02  0.22705676440E+02  0.51100000000E-03 0. -1.
        -12    1    3    3    0    0  0.50015323416E+00  0.95347831738E+01  0.92351084932E+00  0.95924509755E+01  0.00000000000E+00 0.  1.
</event>
<event>
 7    1  0.8300060E-011  0.4778727E+02  0.7816164E-02  0.1312668E+00
        -11   -1    0    0    0    0  0.00000000000E+00  0.00000000000E+00  0.45593999997E+02  0.45594000000E+02  0.51100000000E-03 0. -1.
         11   -1    0    0    0    0 -0.00000000000E+00 -0.00000000000E+00 -0.45593999997E+02  0.45594000000E+02  0.51100000000E-03 0.  1.
    9900012    2    1    2    0    0 -0.91528012194E+01  0.45772937862E+01  0.42176982521E+02  0.47787271398E+02  0.20000001614E+02 0.  0.
        -12    1    1    2    0    0  0.91528012194E+01 -0.45772937862E+01 -0.42176982521E+02  0.43400728602E+02  0.00000000000E+00 0.  1.
         11    1    3    3    0    0 -0.10277124090E+01 -0.15535852671E+01  0.80854923102E+01  0.82972890836E+01  0.51100000000E-03 0. -1.
        -11    1    3    3    0    0 -0.96818708740E+00  0.25539195730E+00 -0.19961984606E+01  0.22332531973E+01  0.51100000000E-03 0.  1.
        -12    1    3    3    0    0 -0.71569017230E+01  0.58754870959E+01  0.36087688671E+02  0.37256729118E+02  0.00000000000E+00 0.  1.
</event>
<event>
 7    1  0.8300060E-011  0.4778727E+02  0.7816164E-02  0.1312668E+00
        -11   -1    0    0    0    0  0.00000000000E+00  0.00000000000E+00  0.45593999997E+02  0.45594000000E+02  0.51100000000E-03 0. -1.
         11   -1    0    0    0    0 -0.00000000000E+00 -0.00000000000E+00 -0.45593999997E+02  0.45594000000E+02  0.51100000000E-03 0.  1.
    9900012    2    1    2    0    0  0.95525340733E+01 -0.14905784388E+02 -0.39625621771E+02  0.47787271709E+02  0.20000003029E+02 0.  0.
         12    1    1    2    0    0 -0.95525340733E+01  0.14905784388E+02  0.39625621771E+02  0.43400728291E+02  0.00000000000E+00 0. -1.
         11    1    3    3    0    0  0.30490390631E+01  0.34016130954E+01 -0.37657388879E+01  0.59201689581E+01  0.51100000000E-03 0. -1.
        -11    1    3    3    0    0  0.44473843398E+00 -0.86551414403E+01 -0.81144934596E+01  0.11872416350E+02  0.51100000000E-03 0.  1.
         12    1    3    3    0    0  0.60587565762E+01 -0.96522560433E+01 -0.27745389424E+02  0.29994686400E+02  0.00000000000E+00 0. -1.
</event>
<event>
 7    1  0.9530061E-011  0.4778727E+02  0.7816164E-02  0.1312668E+00
        -11   -1    0    0    0    0  0.00000000000E+00  0.00000000000E+00  0.45593999997E+02  0.45594000000E+02  0.51100000000E-03 0.  1.
         11   -1    0    0    0    0 -0.00000000000E+00 -0.00000000000E+00 -0.45593999997E+02  0.45594000000E+02  0.51100000000E-03 0. -1.
    9900012    2    1    2    0    0  0.15560291705E+02 -0.14422708956E+02 -0.37861406982E+02  0.47787270165E+02  0.19999995989E+02 0.  0.
         12    1    1    2    0    0 -0.15560291705E+02  0.14422708956E+02  0.37861406982E+02  0.43400729835E+02  0.00000000000E+00 0. -1.
         11    1    3    3    0    0  0.94217702168E+01 -0.53956311689E+01 -0.54455424063E+01  0.12146461299E+02  0.51100000000E-03 0. -1.
        -11    1    3    3    0    0  0.46420742624E+01 -0.10937687624E+02 -0.22644199860E+02  0.25572282878E+02  0.51100000000E-03 0.  1.
         12    1    3    3    0    0  0.14964472257E+01  0.19106098373E+01 -0.97716647155E+01  0.10068525988E+02  0.00000000000E+00 0. -1.
</event>
<event>
 7    1  0.8300060E-011  0.4778726E+02  0.7816164E-02  0.1312668E+00
        -11   -1    0    0    0    0  0.00000000000E+00  0.00000000000E+00  0.45593999997E+02  0.45594000000E+02  0.51100000000E-03 0. -1.
         11   -1    0    0    0    0 -0.00000000000E+00 -0.00000000000E+00 -0.45593999997E+02  0.45594000000E+02  0.51100000000E-03 0.  1.
    9900012    2    1    2    0    0  0.27533672683E+01 -0.22761191922E+02  0.36850658051E+02  0.47787263971E+02  0.19999967751E+02 0.  0.
        -12    1    1    2    0    0 -0.27533672683E+01  0.22761191922E+02 -0.36850658051E+02  0.43400736029E+02  0.00000000000E+00 0.  1.
         11    1    3    3    0    0  0.84082055343E+01 -0.71212157130E+01  0.18521936697E+02  0.21551607198E+02  0.51100000000E-03 0. -1.
        -11    1    3    3    0    0 -0.72194190078E+01 -0.12058840533E+02  0.10700160320E+02  0.17664344793E+02  0.51100000000E-03 0.  1.
        -12    1    3    3    0    0  0.15645807418E+01 -0.35811356760E+01  0.76285610333E+01  0.85713119805E+01  0.00000000000E+00 0.  1.
</event>
<event>
 7    1  0.8300060E-011  0.4778728E+02  0.7816164E-02  0.1312668E+00
        -11   -1    0    0    0    0  0.00000000000E+00  0.00000000000E+00  0.45593999997E+02  0.45594000000E+02  0.51100000000E-03 0. -1.
         11   -1    0    0    0    0 -0.00000000000E+00 -0.00000000000E+00 -0.45593999997E+02  0.45594000000E+02  0.51100000000E-03 0.  1.
    9900012    2    1    2    0    0 -0.29483920028E+02 -0.27878081991E+02  0.15399153033E+02  0.47787275238E+02  0.20000019122E+02 0.  0.
        -12    1    1    2    0    0  0.29483920028E+02  0.27878081991E+02 -0.15399153033E+02  0.43400724762E+02  0.00000000000E+00 0.  1.
         11    1    3    3    0    0 -0.48067871052E+01 -0.87015934463E+01  0.66260449239E+01  0.11946857427E+02  0.51100000000E-03 0. -1.
        -11    1    3    3    0    0 -0.19899934723E+02 -0.93828013938E+01  0.24351087714E+00  0.22002355824E+02  0.51100000000E-03 0.  1.
        -12    1    3    3    0    0 -0.47771981995E+01 -0.97936871512E+01  0.85295972316E+01  0.13838061988E+02  0.00000000000E+00 0.  1.
</event>
<event>
 7    1  0.8300060E-011  0.4778728E+02  0.7816164E-02  0.1312668E+00
        -11   -1    0    0    0    0  0.00000000000E+00  0.00000000000E+00  0.45593999997E+02  0.45594000000E+02  0.51100000000E-03 0. -1.
         11   -1    0    0    0    0 -0.00000000000E+00 -0.00000000000E+00 -0.45593999997E+02  0.45594000000E+02  0.51100000000E-03 0.  1.
    9900012    2    1    2    0    0  0.24497075585E+01 -0.28211772321E+02 -0.32889473332E+02  0.47787278569E+02  0.20000034310E+02 0.  0.
         12    1    1    2    0    0 -0.24497075585E+01  0.28211772321E+02  0.32889473332E+02  0.43400721431E+02  0.00000000000E+00 0. -1.
         11    1    3    3    0    0 -0.37959931931E+01 -0.12193233400E+02 -0.23473540755E+02  0.26722492790E+02  0.51100000000E-03 0. -1.
        -11    1    3    3    0    0  0.54327001048E+01 -0.13504486780E+02 -0.10758926191E+02  0.18100825579E+02  0.51100000000E-03 0.  1.
         12    1    3    3    0    0  0.81300064677E+00 -0.25140521416E+01  0.13429936136E+01  0.29639602002E+01  0.00000000000E+00 0. -1.
</event>
<event>
 7    1  0.8300060E-011  0.4778728E+02  0.7816164E-02  0.1312668E+00
        -11   -1    0    0    0    0  0.00000000000E+00  0.00000000000E+00  0.45593999997E+02  0.45594000000E+02  0.51100000000E-03 0.  1.
         11   -1    0    0    0    0 -0.00000000000E+00 -0.00000000000E+00 -0.45593999997E+02  0.45594000000E+02  0.51100000000E-03 0. -1.
    9900012    2    1    2    0    0 -0.38666276977E+02  0.19571327679E+02  0.23462476219E+01  0.47787277422E+02  0.20000029076E+02 0.  0.
         12    1    1    2    0    0  0.38666276977E+02 -0.19571327679E+02 -0.23462476219E+01  0.43400722578E+02  0.00000000000E+00 0. -1.
         11    1    3    3    0    0 -0.44457159538E+01  0.71838381921E+01 -0.33760918505E+01  0.90977974234E+01  0.51100000000E-03 0. -1.
        -11    1    3    3    0    0 -0.17495407327E+02  0.25377600887E+00  0.12063513341E+01  0.17538784554E+02  0.51100000000E-03 0.  1.
        -12    1    3    3    0    0 -0.16725153696E+02  0.12133713478E+02  0.45159881382E+01  0.21150695445E+02  0.00000000000E+00 0.  1.
</event>
<event>
 7    1  0.8300060E-011  0.4778727E+02  0.7816164E-02  0.1312668E+00
        -11   -1    0    0    0    0  0.00000000000E+00  0.00000000000E+00  0.45593999997E+02  0.45594000000E+02  0.51100000000E-03 0. -1.
         11   -1    0    0    0    0 -0.00000000000E+00 -0.00000000000E+00 -0.45593999997E+02  0.45594000000E+02  0.51100000000E-03 0.  1.
    9900012    2    1    2    0    0 -0.35030322584E+02  0.17027430932E+02 -0.19145927806E+02  0.47787268946E+02  0.19999990434E+02 0.  0.
         12    1    1    2    0    0  0.35030322584E+02 -0.17027430932E+02  0.19145927806E+02  0.43400731054E+02  0.00000000000E+00 0. -1.
         11    1    3    3    0    0 -0.20999409124E+02  0.42447097918E+01 -0.29008364787E+01  0.21619611405E+02  0.51100000000E-03 0. -1.
        -11    1    3    3    0    0 -0.48347936662E+01  0.95572671748E+01 -0.75171944006E+01  0.13085289357E+02  0.51100000000E-03 0.  1.
         12    1    3    3    0    0 -0.91961197933E+01  0.32254539652E+01 -0.87278969266E+01  0.13082368184E+02  0.00000000000E+00 0. -1.
</event>
<event>
 7    1  0.8300060E-011  0.4778727E+02  0.7816164E-02  0.1312668E+00
        -11   -1    0    0    0    0  0.00000000000E+00  0.00000000000E+00  0.45593999997E+02  0.45594000000E+02  0.51100000000E-03 0. -1.
         11   -1    0    0    0    0 -0.00000000000E+00 -0.00000000000E+00 -0.45593999997E+02  0.45594000000E+02  0.51100000000E-03 0.  1.
    9900012    2    1    2    0    0  0.20295883542E+02  0.70746712086E+01 -0.37704767246E+02  0.47787270346E+02  0.19999996815E+02 0.  0.
         12    1    1    2    0    0 -0.20295883542E+02 -0.70746712086E+01  0.37704767246E+02  0.43400729654E+02  0.00000000000E+00 0. -1.
         11    1    3    3    0    0  0.11104163101E+02 -0.21795835953E+01 -0.69694033580E+01  0.13290056669E+02  0.51100000000E-03 0. -1.
        -11    1    3    3    0    0  0.63408766136E+01  0.23459346213E+01 -0.75383431902E+01  0.10126042850E+02  0.51100000000E-03 0.  1.
         12    1    3    3    0    0  0.28508438268E+01  0.69083201827E+01 -0.23197020698E+02  0.24371170828E+02  0.00000000000E+00 0. -1.
</event>
<event>
 7    1  0.8300060E-011  0.4778726E+02  0.7816164E-02  0.1312668E+00
        -11   -1    0    0    0    0  0.00000000000E+00  0.00000000000E+00  0.45593999997E+02  0.45594000000E+02  0.51100000000E-03 0. -1.
         11   -1    0    0    0    0 -0.00000000000E+00 -0.00000000000E+00 -0.45593999997E+02  0.45594000000E+02  0.51100000000E-03 0.  1.
    9900012    2    1    2    0    0  0.16832843119E+02  0.13233296506E+02  0.37751281682E+02  0.47787262534E+02  0.19999961200E+02 0.  0.
        -12    1    1    2    0    0 -0.16832843119E+02 -0.13233296506E+02 -0.37751281682E+02  0.43400737466E+02  0.00000000000E+00 0.  1.
         11    1    3    3    0    0  0.12904647686E+02  0.10274189555E+02  0.25974869384E+02  0.30769834948E+02  0.51100000000E-03 0. -1.
        -11    1    3    3    0    0  0.50826035455E+01 -0.30399636357E+01  0.40827046778E+01  0.71932409562E+01  0.51100000000E-03 0.  1.
        -12    1    3    3    0    0 -0.11544081130E+01  0.59990705875E+01  0.76937076204E+01  0.98241866307E+01  0.00000000000E+00 0.  1.
</event>
<event>
 7    1  0.8300060E-011  0.4778727E+02  0.7816164E-02  0.1312668E+00
        -11   -1    0    0    0    0  0.00000000000E+00  0.00000000000E+00  0.45593999997E+02  0.45594000000E+02  0.51100000000E-03 0. -1.
         11   -1    0    0    0    0 -0.00000000000E+00 -0.00000000000E+00 -0.45593999997E+02  0.45594000000E+02  0.51100000000E-03 0.  1.
    9900012    2    1    2    0    0  0.61395399916E+01  0.35074006804E+02  0.24814179054E+02  0.47787269745E+02  0.19999994073E+02 0.  0.
        -12    1    1    2    0    0 -0.61395399916E+01 -0.35074006804E+02 -0.24814179054E+02  0.43400730255E+02  0.00000000000E+00 0.  1.
         11    1    3    3    0    0  0.10640638739E+01  0.49676304232E+01  0.62894460927E+01  0.80849685443E+01  0.51100000000E-03 0. -1.
        -11    1    3    3    0    0 -0.26389153542E+01  0.15296861101E+02  0.16865639119E+02  0.22921771680E+02  0.51100000000E-03 0.  1.
        -12    1    3    3    0    0  0.77143914719E+01  0.14809515280E+02  0.16590938420E+01  0.16780529520E+02  0.00000000000E+00 0.  1.
</event>
<event>
 7    1  0.8300060E-011  0.4778726E+02  0.7816164E-02  0.1312668E+00
        -11   -1    0    0    0    0  0.00000000000E+00  0.00000000000E+00  0.45593999997E+02  0.45594000000E+02  0.51100000000E-03 0.  1.
         11   -1    0    0    0    0 -0.00000000000E+00 -0.00000000000E+00 -0.45593999997E+02  0.45594000000E+02  0.51100000000E-03 0. -1.
    9900012    2    1    2    0    0  0.15482539636E+02  0.37943630370E+02  0.14289717210E+02  0.47787261098E+02  0.19999954651E+02 0.  0.
         12    1    1    2    0    0 -0.15482539636E+02 -0.37943630370E+02 -0.14289717210E+02  0.43400738902E+02  0.00000000000E+00 0. -1.
         11    1    3    3    0    0 -0.14883287856E+01  0.13666672998E+01  0.79551068854E+00  0.21715753726E+01  0.51100000000E-03 0. -1.
        -11    1    3    3    0    0  0.77625487805E+01  0.19473116769E+02 -0.15872734208E+01  0.21023293687E+02  0.51100000000E-03 0.  1.
        -12    1    3    3    0    0  0.92083196414E+01  0.17103846301E+02  0.15081479942E+02  0.24592392038E+02  0.00000000000E+00 0.  1.
</event>
<event>
 7    1  0.8300060E-011  0.4778729E+02  0.7816164E-02  0.1312668E+00
        -11   -1    0    0    0    0  0.00000000000E+00  0.00000000000E+00  0.45593999997E+02  0.45594000000E+02  0.51100000000E-03 0. -1.
         11   -1    0    0    0    0 -0.00000000000E+00 -0.00000000000E+00 -0.45593999997E+02  0.45594000000E+02  0.51100000000E-03 0.  1.
    9900012    2    1    2    0    0 -0.28086622994E+02 -0.29114902529E+02  0.15718967753E+02  0.47787287014E+02  0.20000072811E+02 0.  0.
        -12    1    1    2    0    0  0.28086622994E+02  0.29114902529E+02 -0.15718967753E+02  0.43400712986E+02  0.00000000000E+00 0.  1.
         11    1    3    3    0    0 -0.43539197209E+01 -0.75228284149E+01 -0.35873991565E+01  0.94031376288E+01  0.51100000000E-03 0. -1.
        -11    1    3    3    0    0 -0.14132776412E+02 -0.84422465918E+01  0.66183438583E+01  0.17742868210E+02  0.51100000000E-03 0.  1.
         12    1    3    3    0    0 -0.95999268607E+01 -0.13149827522E+02  0.12688023051E+02  0.20641281175E+02  0.00000000000E+00 0. -1.
</event>
<event>
 7    1  0.8300060E-011  0.4778726E+02  0.7816164E-02  0.1312668E+00
        -11   -1    0    0    0    0  0.00000000000E+00  0.00000000000E+00  0.45593999997E+02  0.45594000000E+02  0.51100000000E-03 0. -1.
         11   -1    0    0    0    0 -0.00000000000E+00 -0.00000000000E+00 -0.45593999997E+02  0.45594000000E+02  0.51100000000E-03 0.  1.
    9900012    2    1    2    0    0 -0.17265313548E+02  0.26093352592E+02 -0.30077729595E+02  0.47787263612E+02  0.19999966113E+02 0.  0.
         12    1    1    2    0    0  0.17265313548E+02 -0.26093352592E+02  0.30077729595E+02  0.43400736388E+02  0.00000000000E+00 0. -1.
         11    1    3    3    0    0  0.38908426029E+00  0.20943389412E+01 -0.35707747201E+01  0.41578930391E+01  0.51100000000E-03 0. -1.
        -11    1    3    3    0    0  0.81828412240E+00  0.10149005497E+02 -0.14178896130E+02  0.17456030396E+02  0.51100000000E-03 0.  1.
        -12    1    3    3    0    0 -0.18472681930E+02  0.13850008154E+02 -0.12328058746E+02  0.26173340177E+02  0.00000000000E+00 0.  1.
</event>
<event>
 7    1  0.8300060E-011  0.4778727E+02  0.7816164E-02  0.1312668E+00
        -11   -1    0    0    0    0  0.00000000000E+00  0.00000000000E+00  0.45593999997E+02  0.45594000000E+02  0.51100000000E-03 0. -1.
         11   -1    0    0    0    0 -0.00000000000E+00 -0.00000000000E+00 -0.45593999997E+02  0.45594000000E+02  0.51100000000E-03 0.  1.
    9900012    2    1    2    0    0  0.25239824658E+02  0.28949263353E+02  0.20211745137E+02  0.47787271447E+02  0.20000001836E+02 0.  0.
        -12    1    1    2    0    0 -0.25239824658E+02 -0.28949263353E+02 -0.20211745137E+02  0.43400728553E+02  0.00000000000E+00 0.  1.
         11    1    3    3    0    0  0.61600578642E+01  0.14434811579E+02  0.51556737046E+00  0.15702735691E+02  0.51100000000E-03 0.  1.
        -11    1    3    3    0    0  0.10868776512E+02  0.39461930114E+01  0.63850554515E+01  0.13208772673E+02  0.51100000000E-03 0. -1.
         12    1    3    3    0    0  0.82109902819E+01  0.10568258762E+02  0.13311122315E+02  0.18875763083E+02  0.00000000000E+00 0. -1.
</event>
<event>
 7    1  0.8300060E-011  0.4778727E+02  0.7816164E-02  0.1312668E+00
        -11   -1    0    0    0    0  0.00000000000E+00  0.00000000000E+00  0.45593999997E+02  0.45594000000E+02  0.51100000000E-03 0. -1.
         11   -1    0    0    0    0 -0.00000000000E+00 -0.00000000000E+00 -0.45593999997E+02  0.45594000000E+02  0.51100000000E-03 0.  1.
    9900012    2    1    2    0    0 -0.24714107819E+02  0.16617752502E+02  0.31570336951E+02  0.47787274214E+02  0.20000014451E+02 0.  0.
        -12    1    1    2    0    0  0.24714107819E+02 -0.16617752502E+02 -0.31570336951E+02  0.43400725786E+02  0.00000000000E+00 0.  1.
         11    1    3    3    0    0 -0.21952567140E+02  0.12184962707E+02  0.32790505002E+02  0.41298979875E+02  0.51100000000E-03 0. -1.
        -11    1    3    3    0    0 -0.35602195659E+01  0.42520421762E+01 -0.11705893264E+01  0.56679189882E+01  0.51100000000E-03 0.  1.
        -12    1    3    3    0    0  0.79867888645E+00  0.18074761920E+00 -0.49578724227E-01  0.82037535031E+00  0.00000000000E+00 0.  1.
</event>
<event>
 7    1  0.8300060E-011  0.4778727E+02  0.7816164E-02  0.1312668E+00
        -11   -1    0    0    0    0  0.00000000000E+00  0.00000000000E+00  0.45593999997E+02  0.45594000000E+02  0.51100000000E-03 0. -1.
         11   -1    0    0    0    0 -0.00000000000E+00 -0.00000000000E+00 -0.45593999997E+02  0.45594000000E+02  0.51100000000E-03 0.  1.
    9900012    2    1    2    0    0  0.12348048751E+02  0.36595108792E+02  0.19797650392E+02  0.47787271245E+02  0.20000000912E+02 0.  0.
        -12    1    1    2    0    0 -0.12348048751E+02 -0.36595108792E+02 -0.19797650392E+02  0.43400728755E+02  0.00000000000E+00 0.  1.
         11    1    3    3    0    0  0.47422515584E+01  0.17185224175E+02 -0.42203305030E-01  0.17827581473E+02  0.51100000000E-03 0. -1.
        -11    1    3    3    0    0  0.22336957497E+01  0.66623464497E-01  0.10747958160E+01  0.24797221005E+01  0.51100000000E-03 0.  1.
         12    1    3    3    0    0  0.53721014428E+01  0.19343261152E+02  0.18765057881E+02  0.27479967671E+02  0.00000000000E+00 0. -1.
</event>
<event>
 7    1  0.8300060E-011  0.4778728E+02  0.7816164E-02  0.1312668E+00
        -11   -1    0    0    0    0  0.00000000000E+00  0.00000000000E+00  0.45593999997E+02  0.45594000000E+02  0.51100000000E-03 0. -1.
         11   -1    0    0    0    0 -0.00000000000E+00 -0.00000000000E+00 -0.45593999997E+02  0.45594000000E+02  0.51100000000E-03 0.  1.
    9900012    2    1    2    0    0 -0.33307330212E+02 -0.27190333060E+02  0.59101588768E+01  0.47787280700E+02  0.20000044024E+02 0.  0.
         12    1    1    2    0    0  0.33307330212E+02  0.27190333060E+02 -0.59101588768E+01  0.43400719300E+02  0.00000000000E+00 0. -1.
         11    1    3    3    0    0 -0.59893553827E+01 -0.88477300139E+01 -0.24996948306E+01  0.10972838229E+02  0.51100000000E-03 0. -1.
        -11    1    3    3    0    0 -0.25008715877E+02 -0.14501133511E+02  0.11769630892E+02  0.31212865209E+02  0.51100000000E-03 0.  1.
        -12    1    3    3    0    0 -0.23092589521E+01 -0.38414695350E+01 -0.33597771842E+01  0.56015772622E+01  0.00000000000E+00 0.  1.
</event>
<event>
 7    1  0.8300060E-011  0.4778727E+02  0.7816164E-02  0.1312668E+00
        -11   -1    0    0    0    0  0.00000000000E+00  0.00000000000E+00  0.45593999997E+02  0.45594000000E+02  0.51100000000E-03 0. -1.
         11   -1    0    0    0    0 -0.00000000000E+00 -0.00000000000E+00 -0.45593999997E+02  0.45594000000E+02  0.51100000000E-03 0.  1.
    9900012    2    1    2    0    0  0.15856405564E+02 -0.13805775331E+02 -0.37968387611E+02  0.47787268582E+02  0.19999988771E+02 0.  0.
         12    1    1    2    0    0 -0.15856405564E+02  0.13805775331E+02  0.37968387611E+02  0.43400731418E+02  0.00000000000E+00 0. -1.
         11    1    3    3    0    0 -0.98111925127E+00  0.16086624625E-01  0.11703602826E+01  0.15272842620E+01  0.51100000000E-03 0. -1.
        -11    1    3    3    0    0  0.34103050277E+01 -0.10195168923E+02 -0.16788096214E+02  0.19935190606E+02  0.51100000000E-03 0.  1.
        -12    1    3    3    0    0  0.13427219787E+02 -0.36266930323E+01 -0.22350651679E+02  0.26324793714E+02  0.00000000000E+00 0.  1.
</event>
<event>
 7    1  0.8300060E-011  0.4778727E+02  0.7816164E-02  0.1312668E+00
        -11   -1    0    0    0    0  0.00000000000E+00  0.00000000000E+00  0.45593999997E+02  0.45594000000E+02  0.51100000000E-03 0. -1.
         11   -1    0    0    0    0 -0.00000000000E+00 -0.00000000000E+00 -0.45593999997E+02  0.45594000000E+02  0.51100000000E-03 0.  1.
    9900012    2    1    2    0    0  0.31938488003E+02  0.14445529950E+02  0.25590678070E+02  0.47787272408E+02  0.20000006215E+02 0.  0.
        -12    1    1    2    0    0 -0.31938488003E+02 -0.14445529950E+02 -0.25590678070E+02  0.43400727592E+02  0.00000000000E+00 0.  1.
         11    1    3    3    0    0  0.61062861719E+01 -0.10625459648E-01  0.81116308892E+01  0.10153098033E+02  0.51100000000E-03 0. -1.
        -11    1    3    3    0    0  0.22609942748E+02  0.93139292505E+01  0.19459169797E+02  0.31250889245E+02  0.51100000000E-03 0.  1.
        -12    1    3    3    0    0  0.32222590831E+01  0.51422261595E+01 -0.19801226165E+01  0.63832851300E+01  0.00000000000E+00 0.  1.
</event>
<event>
 7    1  0.8300060E-011  0.4778727E+02  0.7816164E-02  0.1312668E+00
        -11   -1    0    0    0    0  0.00000000000E+00  0.00000000000E+00  0.45593999997E+02  0.45594000000E+02  0.51100000000E-03 0.  1.
         11   -1    0    0    0    0 -0.00000000000E+00 -0.00000000000E+00 -0.45593999997E+02  0.45594000000E+02  0.51100000000E-03 0. -1.
    9900012    2    1    2    0    0  0.13241461377E+02  0.27296419047E+02  0.31035342594E+02  0.47787270950E+02  0.19999999569E+02 0.  0.
        -12    1    1    2    0    0 -0.13241461377E+02 -0.27296419047E+02 -0.31035342594E+02  0.43400729050E+02  0.00000000000E+00 0.  1.
         11    1    3    3    0    0  0.52971728033E+01  0.29918802433E+01  0.13627142172E+02  0.14923484551E+02  0.51100000000E-03 0.  1.
        -11    1    3    3    0    0  0.91154978543E+00  0.86537890991E+01  0.12098480828E+02  0.14902759053E+02  0.51100000000E-03 0. -1.
         12    1    3    3    0    0  0.70327387882E+01  0.15650749704E+02  0.53097195941E+01  0.17961027346E+02  0.00000000000E+00 0. -1.
</event>
<event>
 7    1  0.8300060E-011  0.4778727E+02  0.7816164E-02  0.1312668E+00
        -11   -1    0    0    0    0  0.00000000000E+00  0.00000000000E+00  0.45593999997E+02  0.45594000000E+02  0.51100000000E-03 0. -1.
         11   -1    0    0    0    0 -0.00000000000E+00 -0.00000000000E+00 -0.45593999997E+02  0.45594000000E+02  0.51100000000E-03 0.  1.
    9900012    2    1    2    0    0 -0.15768272900E+02 -0.15583334500E+02  0.37311451833E+02  0.47787272100E+02  0.20000004813E+02 0.  0.
        -12    1    1    2    0    0  0.15768272900E+02  0.15583334500E+02 -0.37311451833E+02  0.43400727900E+02  0.00000000000E+00 0.  1.
         11    1    3    3    0    0 -0.31189685900E+01  0.30566642972E+01  0.13170668227E+02  0.13875794157E+02  0.51100000000E-03 0. -1.
        -11    1    3    3    0    0 -0.12873724583E+02 -0.18948360308E+02  0.24385906345E+02  0.33458116677E+02  0.51100000000E-03 0.  1.
        -12    1    3    3    0    0  0.22442027286E+00  0.30836151128E+00 -0.24512273934E+00  0.45336126637E+00  0.00000000000E+00 0.  1.
</event>
<event>
 7    1  0.8300060E-011  0.4778730E+02  0.7816164E-02  0.1312668E+00
        -11   -1    0    0    0    0  0.00000000000E+00  0.00000000000E+00  0.45593999997E+02  0.45594000000E+02  0.51100000000E-03 0. -1.
         11   -1    0    0    0    0 -0.00000000000E+00 -0.00000000000E+00 -0.45593999997E+02  0.45594000000E+02  0.51100000000E-03 0.  1.
    9900012    2    1    2    0    0  0.29901276699E+02 -0.23025324459E+02 -0.21432893729E+02  0.47787298988E+02  0.20000127406E+02 0.  0.
         12    1    1    2    0    0 -0.29901276699E+02  0.23025324459E+02  0.21432893729E+02  0.43400701012E+02  0.00000000000E+00 0. -1.
         11    1    3    3    0    0  0.14781971289E+02 -0.19236889689E+02 -0.15745408813E+02  0.28922007175E+02  0.51100000000E-03 0. -1.
        -11    1    3    3    0    0  0.39952683933E+01 -0.42444722986E+01 -0.50522303144E+01  0.77138023075E+01  0.51100000000E-03 0.  1.
         12    1    3    3    0    0  0.11124037017E+02  0.45603752771E+00 -0.63525460172E+00  0.11151489505E+02  0.00000000000E+00 0. -1.
</event>
<event>
 7    1  0.8300060E-011  0.4778725E+02  0.7816164E-02  0.1312668E+00
        -11   -1    0    0    0    0  0.00000000000E+00  0.00000000000E+00  0.45593999997E+02  0.45594000000E+02  0.51100000000E-03 0. -1.
         11   -1    0    0    0    0 -0.00000000000E+00 -0.00000000000E+00 -0.45593999997E+02  0.45594000000E+02  0.51100000000E-03 0.  1.
    9900012    2    1    2    0    0  0.28609234018E+02 -0.52540941647E+01 -0.32210730748E+02  0.47787251713E+02  0.19999911859E+02 0.  0.
         12    1    1    2    0    0 -0.28609234018E+02  0.52540941647E+01  0.32210730748E+02  0.43400748287E+02  0.00000000000E+00 0. -1.
         11    1    3    3    0    0  0.54153999919E+01  0.45666136671E+01 -0.56726524320E+01  0.90752136797E+01  0.51100000000E-03 0. -1.
        -11    1    3    3    0    0  0.10866619570E+02 -0.83481741692E+01 -0.21098153057E+02  0.25157652822E+02  0.51100000000E-03 0.  1.
        -12    1    3    3    0    0  0.12327214456E+02 -0.14725336626E+01 -0.54399252589E+01  0.13554385211E+02  0.00000000000E+00 0.  1.
</event>
<event>
 7    1  0.8300060E-011  0.4778727E+02  0.7816164E-02  0.1312668E+00
        -11   -1    0    0    0    0  0.00000000000E+00  0.00000000000E+00  0.45593999997E+02  0.45594000000E+02  0.51100000000E-03 0. -1.
         11   -1    0    0    0    0 -0.00000000000E+00 -0.00000000000E+00 -0.45593999997E+02  0.45594000000E+02  0.51100000000E-03 0.  1.
    9900012    2    1    2    0    0 -0.83364651497E+01 -0.98201840699E+01  0.41445029850E+02  0.47787272292E+02  0.20000005688E+02 0.  0.
        -12    1    1    2    0    0  0.83364651497E+01  0.98201840699E+01 -0.41445029850E+02  0.43400727708E+02  0.00000000000E+00 0.  1.
         11    1    3    3    0    0 -0.32821234715E+01 -0.82556890447E+01  0.91056170314E+01  0.12721674334E+02  0.51100000000E-03 0. -1.
        -11    1    3    3    0    0  0.43631146755E-01  0.19286460570E+01  0.26477776344E+02  0.26547960744E+02  0.51100000000E-03 0.  1.
        -12    1    3    3    0    0 -0.50979728250E+01 -0.34931410822E+01  0.58616364743E+01  0.85176372136E+01  0.00000000000E+00 0.  1.
</event>
<event>
 7    1  0.8300060E-011  0.4778728E+02  0.7816164E-02  0.1312668E+00
        -11   -1    0    0    0    0  0.00000000000E+00  0.00000000000E+00  0.45593999997E+02  0.45594000000E+02  0.51100000000E-03 0. -1.
         11   -1    0    0    0    0 -0.00000000000E+00 -0.00000000000E+00 -0.45593999997E+02  0.45594000000E+02  0.51100000000E-03 0.  1.
    9900012    2    1    2    0    0 -0.17598626110E+02 -0.15677882681E+02 -0.36443313856E+02  0.47787276836E+02  0.20000026406E+02 0.  0.
         12    1    1    2    0    0  0.17598626110E+02  0.15677882681E+02  0.36443313856E+02  0.43400723164E+02  0.00000000000E+00 0. -1.
         11    1    3    3    0    0 -0.12599457456E+02 -0.87431492816E+01 -0.11314552914E+02  0.19058019190E+02  0.51100000000E-03 0. -1.
        -11    1    3    3    0    0 -0.36536878201E+01 -0.75395990793E+01 -0.81560790481E+01  0.11692588022E+02  0.51100000000E-03 0.  1.
         12    1    3    3    0    0 -0.13454808340E+01  0.60486568028E+00 -0.16972681894E+02  0.17036669623E+02  0.00000000000E+00 0. -1.
</event>
<event>
 7    1  0.8300060E-011  0.4778727E+02  0.7816164E-02  0.1312668E+00
        -11   -1    0    0    0    0  0.00000000000E+00  0.00000000000E+00  0.45593999997E+02  0.45594000000E+02  0.51100000000E-03 0. -1.
         11   -1    0    0    0    0 -0.00000000000E+00 -0.00000000000E+00 -0.45593999997E+02  0.45594000000E+02  0.51100000000E-03 0.  1.
    9900012    2    1    2    0    0 -0.16244785855E+02  0.30494091798E+02 -0.26264819245E+02  0.47787269223E+02  0.19999991695E+02 0.  0.
         12    1    1    2    0    0  0.16244785855E+02 -0.30494091798E+02  0.26264819245E+02  0.43400730777E+02  0.00000000000E+00 0. -1.
         11    1    3    3    0    0 -0.51201279062E+01  0.47099877888E+01  0.26528214452E+01  0.74456132472E+01  0.51100000000E-03 0. -1.
        -11    1    3    3    0    0 -0.83218552665E+01  0.17566020784E+02 -0.20434807070E+02  0.28202831445E+02  0.51100000000E-03 0.  1.
         12    1    3    3    0    0 -0.28028026823E+01  0.82180832244E+01 -0.84828336199E+01  0.12138824530E+02  0.00000000000E+00 0. -1.
</event>
<event>
 7    1  0.8300060E-011  0.4778727E+02  0.7816164E-02  0.1312668E+00
        -11   -1    0    0    0    0  0.00000000000E+00  0.00000000000E+00  0.45593999997E+02  0.45594000000E+02  0.51100000000E-03 0. -1.
         11   -1    0    0    0    0 -0.00000000000E+00 -0.00000000000E+00 -0.45593999997E+02  0.45594000000E+02  0.51100000000E-03 0.  1.
    9900012    2    1    2    0    0 -0.35815028400E+02  0.54564861539E+01  0.23898400199E+02  0.47787273825E+02  0.20000012679E+02 0.  0.
        -12    1    1    2    0    0  0.35815028400E+02 -0.54564861539E+01 -0.23898400199E+02  0.43400726175E+02  0.00000000000E+00 0.  1.
         11    1    3    3    0    0 -0.20105170593E+02  0.11281535244E+02  0.13837768481E+02  0.26888189951E+02  0.51100000000E-03 0. -1.
        -11    1    3    3    0    0 -0.96997928326E+01 -0.45830534241E+01  0.22424154990E+01  0.10959871679E+02  0.51100000000E-03 0.  1.
         12    1    3    3    0    0 -0.60100649740E+01 -0.12419956658E+01  0.78182162190E+01  0.99392121958E+01  0.00000000000E+00 0. -1.
</event>
<event>
 7    1  0.8300060E-011  0.4778727E+02  0.7816164E-02  0.1312668E+00
        -11   -1    0    0    0    0  0.00000000000E+00  0.00000000000E+00  0.45593999997E+02  0.45594000000E+02  0.51100000000E-03 0. -1.
         11   -1    0    0    0    0 -0.00000000000E+00 -0.00000000000E+00 -0.45593999997E+02  0.45594000000E+02  0.51100000000E-03 0.  1.
    9900012    2    1    2    0    0  0.12098177628E+01  0.21288452922E+02  0.37801604095E+02  0.47787272368E+02  0.20000006035E+02 0.  0.
        -12    1    1    2    0    0 -0.12098177628E+01 -0.21288452922E+02 -0.37801604095E+02  0.43400727632E+02  0.00000000000E+00 0.  1.
         11    1    3    3    0    0  0.51022525146E-01  0.22242380574E+02  0.21034749407E+02  0.30613506493E+02  0.51100000000E-03 0. -1.
        -11    1    3    3    0    0 -0.87900142055E+00 -0.10942635713E+01  0.10212446940E+02  0.10308449399E+02  0.51100000000E-03 0.  1.
         12    1    3    3    0    0  0.20377966582E+01  0.14033591933E+00  0.65544077478E+01  0.68653164760E+01  0.00000000000E+00 0. -1.
</event>
<event>
 7    1  0.8300060E-011  0.4778727E+02  0.7816164E-02  0.1312668E+00
        -11   -1    0    0    0    0  0.00000000000E+00  0.00000000000E+00  0.45593999997E+02  0.45594000000E+02  0.51100000000E-03 0. -1.
         11   -1    0    0    0    0 -0.00000000000E+00 -0.00000000000E+00 -0.45593999997E+02  0.45594000000E+02  0.51100000000E-03 0.  1.
    9900012    2    1    2    0    0  0.16059518706E+02  0.55031175441E+01 -0.39942843919E+02  0.47787271618E+02  0.20000002613E+02 0.  0.
         12    1    1    2    0    0 -0.16059518706E+02 -0.55031175441E+01  0.39942843919E+02  0.43400728382E+02  0.00000000000E+00 0. -1.
         11    1    3    3    0    0  0.31453873305E+01  0.35247034119E+01  0.58390592514E+00  0.47600359233E+01  0.51100000000E-03 0. -1.
        -11    1    3    3    0    0  0.81815144933E+01 -0.23638167077E-01 -0.32360552979E+02  0.33378782596E+02  0.51100000000E-03 0.  1.
        -12    1    3    3    0    0  0.47326168822E+01  0.20020522993E+01 -0.81661968649E+01  0.96484530988E+01  0.00000000000E+00 0.  1.
</event>
<event>
 7    1  0.8300060E-011  0.4778727E+02  0.7816164E-02  0.1312668E+00
        -11   -1    0    0    0    0  0.00000000000E+00  0.00000000000E+00  0.45593999997E+02  0.45594000000E+02  0.51100000000E-03 0. -1.
         11   -1    0    0    0    0 -0.00000000000E+00 -0.00000000000E+00 -0.45593999997E+02  0.45594000000E+02  0.51100000000E-03 0.  1.
    9900012    2    1    2    0    0  0.70327573287E+01  0.10151249633E+02 -0.41606679954E+02  0.47787270034E+02  0.19999995393E+02 0.  0.
         12    1    1    2    0    0 -0.70327573287E+01 -0.10151249633E+02  0.41606679954E+02  0.43400729966E+02  0.00000000000E+00 0. -1.
         11    1    3    3    0    0 -0.35076006119E+01 -0.28621393144E+01 -0.10184672617E+02  0.11145521974E+02  0.51100000000E-03 0. -1.
        -11    1    3    3    0    0  0.39114532216E+01  0.22217671277E+01 -0.16337340149E+02  0.16945335608E+02  0.51100000000E-03 0.  1.
         12    1    3    3    0    0  0.66289047191E+01  0.10791621819E+02 -0.15084667189E+02  0.19696412452E+02  0.00000000000E+00 0. -1.
</event>
<event>
 7    1  0.8300060E-011  0.4778725E+02  0.7816164E-02  0.1312668E+00
        -11   -1    0    0    0    0  0.00000000000E+00  0.00000000000E+00  0.45593999997E+02  0.45594000000E+02  0.51100000000E-03 0. -1.
         11   -1    0    0    0    0 -0.00000000000E+00 -0.00000000000E+00 -0.45593999997E+02  0.45594000000E+02  0.51100000000E-03 0.  1.
    9900012    2    1    2    0    0  0.13413126726E+02 -0.30237314892E+02  0.28096575312E+02  0.47787254330E+02  0.19999923791E+02 0.  0.
        -12    1    1    2    0    0 -0.13413126726E+02  0.30237314892E+02 -0.28096575312E+02  0.43400745670E+02  0.00000000000E+00 0.  1.
         11    1    3    3    0    0  0.90747125547E+01 -0.28617129515E+02  0.28653343795E+02  0.41500658073E+02  0.51100000000E-03 0. -1.
        -11    1    3    3    0    0  0.45343151899E+01 -0.26119960272E+01 -0.64185013886E+00  0.52720498243E+01  0.51100000000E-03 0.  1.
        -12    1    3    3    0    0 -0.19590101877E+00  0.99181065019E+00  0.85081656594E-01  0.10145464323E+01  0.00000000000E+00 0.  1.
</event>
<event>
 7    1  0.8300060E-011  0.4778727E+02  0.7816164E-02  0.1312668E+00
        -11   -1    0    0    0    0  0.00000000000E+00  0.00000000000E+00  0.45593999997E+02  0.45594000000E+02  0.51100000000E-03 0. -1.
         11   -1    0    0    0    0 -0.00000000000E+00 -0.00000000000E+00 -0.45593999997E+02  0.45594000000E+02  0.51100000000E-03 0.  1.
    9900012    2    1    2    0    0 -0.68871037638E+01 -0.35613734483E+02  0.23829665810E+02  0.47787271266E+02  0.20000001008E+02 0.  0.
        -12    1    1    2    0    0  0.68871037638E+01  0.35613734483E+02 -0.23829665810E+02  0.43400728734E+02  0.00000000000E+00 0.  1.
         11    1    3    3    0    0 -0.57991102383E+01 -0.29259350707E+02  0.24023923386E+02  0.38299976220E+02  0.51100000000E-03 0. -1.
        -11    1    3    3    0    0  0.49797778125E+00  0.69475472206E+00 -0.18823719840E+01  0.20673631857E+01  0.51100000000E-03 0.  1.
         12    1    3    3    0    0 -0.15859713068E+01 -0.70491384982E+01  0.16881144078E+01  0.74199318600E+01  0.00000000000E+00 0. -1.
</event>
<event>
 7    1  0.8300060E-011  0.4778727E+02  0.7816164E-02  0.1312668E+00
        -11   -1    0    0    0    0  0.00000000000E+00  0.00000000000E+00  0.45593999997E+02  0.45594000000E+02  0.51100000000E-03 0. -1.
         11   -1    0    0    0    0 -0.00000000000E+00 -0.00000000000E+00 -0.45593999997E+02  0.45594000000E+02  0.51100000000E-03 0.  1.
    9900012    2    1    2    0    0  0.10099692516E+02  0.17353523427E+02  0.38476939966E+02  0.47787268746E+02  0.19999989521E+02 0.  0.
        -12    1    1    2    0    0 -0.10099692516E+02 -0.17353523427E+02 -0.38476939966E+02  0.43400731254E+02  0.00000000000E+00 0.  1.
         11    1    3    3    0    0  0.10192680207E+01  0.25476338745E-01  0.13857781018E+02  0.13895238441E+02  0.51100000000E-03 0.  1.
        -11    1    3    3    0    0  0.39697545754E+01  0.82415671537E+01  0.25691277336E+01  0.95017260596E+01  0.51100000000E-03 0. -1.
         12    1    3    3    0    0  0.51106699194E+01  0.90864799342E+01  0.22050031214E+02  0.24390304245E+02  0.00000000000E+00 0. -1.
</event>
<event>
 7    1  0.8300060E-011  0.4778727E+02  0.7816164E-02  0.1312668E+00
        -11   -1    0    0    0    0  0.00000000000E+00  0.00000000000E+00  0.45593999997E+02  0.45594000000E+02  0.51100000000E-03 0.  1.
         11   -1    0    0    0    0 -0.00000000000E+00 -0.00000000000E+00 -0.45593999997E+02  0.45594000000E+02  0.51100000000E-03 0. -1.
    9900012    2    1    2    0    0 -0.27446719851E+02 -0.33180461449E+02  0.54182761572E+01  0.47787272252E+02  0.20000005506E+02 0.  0.
         12    1    1    2    0    0  0.27446719851E+02  0.33180461449E+02 -0.54182761572E+01  0.43400727748E+02  0.00000000000E+00 0. -1.
         11    1    3    3    0    0 -0.49876586613E+01 -0.17268989874E+02  0.51273685583E+01  0.18691834013E+02  0.51100000000E-03 0. -1.
        -11    1    3    3    0    0 -0.21483626290E+02 -0.14928782399E+02  0.27170089737E+01  0.26302031870E+02  0.51100000000E-03 0.  1.
         12    1    3    3    0    0 -0.97543490002E+00 -0.98268917579E+00 -0.24261013747E+01  0.27934063687E+01  0.00000000000E+00 0. -1.
</event>
<event>
 7    1  0.8300060E-011  0.4778727E+02  0.7816164E-02  0.1312668E+00
        -11   -1    0    0    0    0  0.00000000000E+00  0.00000000000E+00  0.45593999997E+02  0.45594000000E+02  0.51100000000E-03 0. -1.
         11   -1    0    0    0    0 -0.00000000000E+00 -0.00000000000E+00 -0.45593999997E+02  0.45594000000E+02  0.51100000000E-03 0.  1.
    9900012    2    1    2    0    0  0.98276889872E+01  0.21193490296E+02 -0.36576979824E+02  0.47787274720E+02  0.20000016760E+02 0.  0.
         12    1    1    2    0    0 -0.98276889872E+01 -0.21193490296E+02  0.36576979824E+02  0.43400725280E+02  0.00000000000E+00 0. -1.
         11    1    3    3    0    0  0.37225921313E+01 -0.18395333658E+01 -0.11268634322E+01  0.43024872615E+01  0.51100000000E-03 0. -1.
        -11    1    3    3    0    0 -0.18624462404E+01  0.73644727025E+01 -0.11245975446E+02  0.13571150584E+02  0.51100000000E-03 0.  1.
         12    1    3    3    0    0  0.79675430963E+01  0.15668550959E+02 -0.24204140945E+02  0.29913636874E+02  0.00000000000E+00 0. -1.
</event>
<event>
 7    1  0.8300060E-011  0.4778727E+02  0.7816164E-02  0.1312668E+00
        -11   -1    0    0    0    0  0.00000000000E+00  0.00000000000E+00  0.45593999997E+02  0.45594000000E+02  0.51100000000E-03 0. -1.
         11   -1    0    0    0    0 -0.00000000000E+00 -0.00000000000E+00 -0.45593999997E+02  0.45594000000E+02  0.51100000000E-03 0.  1.
    9900012    2    1    2    0    0  0.21564838499E+02  0.61643321215E+01 -0.37156181339E+02  0.47787273489E+02  0.20000011146E+02 0.  0.
         12    1    1    2    0    0 -0.21564838499E+02 -0.61643321215E+01  0.37156181339E+02  0.43400726511E+02  0.00000000000E+00 0. -1.
         11    1    3    3    0    0  0.19317711170E+02  0.47455199785E+01 -0.32184700427E+02  0.37835814601E+02  0.51100000000E-03 0.  1.
        -11    1    3    3    0    0 -0.93306863773E+00 -0.30135320890E+01 -0.15834922110E+01  0.35297932769E+01  0.51100000000E-03 0. -1.
        -12    1    3    3    0    0  0.31801959664E+01  0.44323442320E+01 -0.33879887010E+01  0.64216656106E+01  0.00000000000E+00 0.  1.
</event>
<event>
 7    1  0.8300060E-011  0.4778727E+02  0.7816164E-02  0.1312668E+00
        -11   -1    0    0    0    0  0.00000000000E+00  0.00000000000E+00  0.45593999997E+02  0.45594000000E+02  0.51100000000E-03 0. -1.
         11   -1    0    0    0    0 -0.00000000000E+00 -0.00000000000E+00 -0.45593999997E+02  0.45594000000E+02  0.51100000000E-03 0.  1.
    9900012    2    1    2    0    0  0.15466061595E+02  0.83129615736E+01 -0.39690285883E+02  0.47787272070E+02  0.20000004676E+02 0.  0.
         12    1    1    2    0    0 -0.15466061595E+02 -0.83129615736E+01  0.39690285883E+02  0.43400727930E+02  0.00000000000E+00 0. -1.
         11    1    3    3    0    0  0.92863193839E+01  0.85823640569E+01 -0.18022079301E+02  0.22015631790E+02  0.51100000000E-03 0. -1.
        -11    1    3    3    0    0 -0.11139973000E+00  0.29258894873E+01 -0.17138319851E+02  0.17386639893E+02  0.51100000000E-03 0.  1.
         12    1    3    3    0    0  0.62911419411E+01 -0.31952919706E+01 -0.45298867306E+01  0.83850003872E+01  0.00000000000E+00 0. -1.
</event>
<event>
 7    1  0.8300060E-011  0.4778726E+02  0.7816164E-02  0.1312668E+00
        -11   -1    0    0    0    0  0.00000000000E+00  0.00000000000E+00  0.45593999997E+02  0.45594000000E+02  0.51100000000E-03 0. -1.
         11   -1    0    0    0    0 -0.00000000000E+00 -0.00000000000E+00 -0.45593999997E+02  0.45594000000E+02  0.51100000000E-03 0.  1.
    9900012    2    1    2    0    0  0.21219470724E+02 -0.25629303262E+02  0.27865700401E+02  0.47787258274E+02  0.19999941775E+02 0.  0.
        -12    1    1    2    0    0 -0.21219470724E+02  0.25629303262E+02 -0.27865700401E+02  0.43400741726E+02  0.00000000000E+00 0.  1.
         11    1    3    3    0    0  0.46216881068E+01 -0.16448657790E+02  0.71157496654E+01  0.18508166781E+02  0.51100000000E-03 0. -1.
        -11    1    3    3    0    0  0.17190429628E+02 -0.74865741480E+01  0.19714791860E+02  0.27207217455E+02  0.51100000000E-03 0.  1.
        -12    1    3    3    0    0 -0.59264701109E+00 -0.16940713241E+01  0.10351588760E+01  0.20718740380E+01  0.00000000000E+00 0.  1.
</event>
<event>
 7    1  0.8300060E-011  0.4778727E+02  0.7816164E-02  0.1312668E+00
        -11   -1    0    0    0    0  0.00000000000E+00  0.00000000000E+00  0.45593999997E+02  0.45594000000E+02  0.51100000000E-03 0. -1.
         11   -1    0    0    0    0 -0.00000000000E+00 -0.00000000000E+00 -0.45593999997E+02  0.45594000000E+02  0.51100000000E-03 0.  1.
    9900012    2    1    2    0    0 -0.28679385919E+02 -0.24470973168E+02  0.21500868438E+02  0.47787273646E+02  0.20000011862E+02 0.  0.
        -12    1    1    2    0    0  0.28679385919E+02  0.24470973168E+02 -0.21500868438E+02  0.43400726354E+02  0.00000000000E+00 0.  1.
         11    1    3    3    0    0 -0.37036472666E+01 -0.93512378446E+01  0.74299193957E+01  0.12504653325E+02  0.51100000000E-03 0. -1.
        -11    1    3    3    0    0 -0.11478271565E+02 -0.30583594514E+01 -0.72898452210E+00  0.11901079756E+02  0.51100000000E-03 0.  1.
        -12    1    3    3    0    0 -0.13497467087E+02 -0.12061375872E+02  0.14799933564E+02  0.23381540565E+02  0.00000000000E+00 0.  1.
</event>
<event>
 7    1  0.8300060E-011  0.4778727E+02  0.7816164E-02  0.1312668E+00
        -11   -1    0    0    0    0  0.00000000000E+00  0.00000000000E+00  0.45593999997E+02  0.45594000000E+02  0.51100000000E-03 0. -1.
         11   -1    0    0    0    0 -0.00000000000E+00 -0.00000000000E+00 -0.45593999997E+02  0.45594000000E+02  0.51100000000E-03 0.  1.
    9900012    2    1    2    0    0 -0.10031092929E+02 -0.85910707285E+01 -0.41342398159E+02  0.47787271813E+02  0.20000003504E+02 0.  0.
         12    1    1    2    0    0  0.10031092929E+02  0.85910707285E+01  0.41342398159E+02  0.43400728187E+02  0.00000000000E+00 0. -1.
         11    1    3    3    0    0  0.52608129068E+00  0.43059961240E+01 -0.93542224432E+01  0.10311151338E+02  0.51100000000E-03 0.  1.
        -11    1    3    3    0    0 -0.61841264984E+01 -0.30324816453E+00 -0.99128306925E+01  0.11687582838E+02  0.51100000000E-03 0. -1.
         12    1    3    3    0    0 -0.43730477212E+01 -0.12593818688E+02 -0.22075345024E+02  0.25788537636E+02  0.00000000000E+00 0. -1.
</event>
<event>
 7    1  0.8300060E-011  0.4778727E+02  0.7816164E-02  0.1312668E+00
        -11   -1    0    0    0    0  0.00000000000E+00  0.00000000000E+00  0.45593999997E+02  0.45594000000E+02  0.51100000000E-03 0. -1.
         11   -1    0    0    0    0 -0.00000000000E+00 -0.00000000000E+00 -0.45593999997E+02  0.45594000000E+02  0.51100000000E-03 0.  1.
    9900012    2    1    2    0    0  0.40148458536E+02 -0.13749218362E+02 -0.90930557616E+01  0.47787269690E+02  0.19999993823E+02 0.  0.
         12    1    1    2    0    0 -0.40148458536E+02  0.13749218362E+02  0.90930557616E+01  0.43400730310E+02  0.00000000000E+00 0. -1.
         11    1    3    3    0    0  0.17895270638E+02 -0.34875887002E+01 -0.11202335111E+02  0.21398511592E+02  0.51100000000E-03 0. -1.
        -11    1    3    3    0    0  0.17090356289E+02 -0.38492635042E+01  0.39380024392E+01  0.17955638978E+02  0.51100000000E-03 0.  1.
         12    1    3    3    0    0  0.51628316089E+01 -0.64123661578E+01 -0.18287230901E+01  0.84331191206E+01  0.00000000000E+00 0. -1.
</event>
<event>
 7    1  0.8300060E-011  0.4778727E+02  0.7816164E-02  0.1312668E+00
        -11   -1    0    0    0    0  0.00000000000E+00  0.00000000000E+00  0.45593999997E+02  0.45594000000E+02  0.51100000000E-03 0. -1.
         11   -1    0    0    0    0 -0.00000000000E+00 -0.00000000000E+00 -0.45593999997E+02  0.45594000000E+02  0.51100000000E-03 0.  1.
    9900012    2    1    2    0    0 -0.32639869695E+02  0.12901364307E+02  0.25530706099E+02  0.47787271335E+02  0.20000001327E+02 0.  0.
        -12    1    1    2    0    0  0.32639869695E+02 -0.12901364307E+02 -0.25530706099E+02  0.43400728665E+02  0.00000000000E+00 0.  1.
         11    1    3    3    0    0 -0.12643078925E+02  0.51290946757E+01 -0.57973037289E+00  0.13656176056E+02  0.51100000000E-03 0. -1.
        -11    1    3    3    0    0 -0.41235773862E+00  0.10471252949E+01  0.60298203463E+00  0.12767528668E+01  0.51100000000E-03 0.  1.
         12    1    3    3    0    0 -0.19584433031E+02  0.67251443364E+01  0.25507454437E+02  0.32854342413E+02  0.00000000000E+00 0. -1.
</event>
<event>
 7    1  0.8300060E-011  0.4778727E+02  0.7816164E-02  0.1312668E+00
        -11   -1    0    0    0    0  0.00000000000E+00  0.00000000000E+00  0.45593999997E+02  0.45594000000E+02  0.51100000000E-03 0. -1.
         11   -1    0    0    0    0 -0.00000000000E+00 -0.00000000000E+00 -0.45593999997E+02  0.45594000000E+02  0.51100000000E-03 0.  1.
    9900012    2    1    2    0    0  0.78782515887E+01 -0.58788423838E+01 -0.42272868583E+02  0.47787273576E+02  0.20000011543E+02 0.  0.
         12    1    1    2    0    0 -0.78782515887E+01  0.58788423838E+01  0.42272868583E+02  0.43400726424E+02  0.00000000000E+00 0. -1.
         11    1    3    3    0    0  0.13054151056E+01  0.11556774968E+01 -0.10964721472E+01  0.20595995983E+01  0.51100000000E-03 0. -1.
        -11    1    3    3    0    0  0.15050274374E+01  0.14477109454E+01  0.10662966106E+01  0.23447736120E+01  0.51100000000E-03 0.  1.
        -12    1    3    3    0    0  0.50678090458E+01 -0.84822308260E+01 -0.42242693047E+02  0.43382900366E+02  0.00000000000E+00 0.  1.
</event>
<event>
 7    1  0.8300060E-011  0.4778727E+02  0.7816164E-02  0.1312668E+00
        -11   -1    0    0    0    0  0.00000000000E+00  0.00000000000E+00  0.45593999997E+02  0.45594000000E+02  0.51100000000E-03 0. -1.
         11   -1    0    0    0    0 -0.00000000000E+00 -0.00000000000E+00 -0.45593999997E+02  0.45594000000E+02  0.51100000000E-03 0.  1.
    9900012    2    1    2    0    0 -0.38416774342E+02  0.11919897936E+02  0.16300018636E+02  0.47787272757E+02  0.20000007809E+02 0.  0.
        -12    1    1    2    0    0  0.38416774342E+02 -0.11919897936E+02 -0.16300018636E+02  0.43400727243E+02  0.00000000000E+00 0.  1.
         11    1    3    3    0    0 -0.12551961034E+02  0.59780402528E+01  0.15500145735E+02  0.20821700438E+02  0.51100000000E-03 0. -1.
        -11    1    3    3    0    0 -0.24406922527E+02  0.66344872449E+01  0.37011767068E+00  0.25295281687E+02  0.51100000000E-03 0.  1.
        -12    1    3    3    0    0 -0.14578907810E+01 -0.69262956149E+00  0.42975522992E+00  0.16702906323E+01  0.00000000000E+00 0.  1.
</event>
<event>
 7    1  0.8300060E-011  0.4778727E+02  0.7816164E-02  0.1312668E+00
        -11   -1    0    0    0    0  0.00000000000E+00  0.00000000000E+00  0.45593999997E+02  0.45594000000E+02  0.51100000000E-03 0.  1.
         11   -1    0    0    0    0 -0.00000000000E+00 -0.00000000000E+00 -0.45593999997E+02  0.45594000000E+02  0.51100000000E-03 0. -1.
    9900012    2    1    2    0    0 -0.23963316281E+02 -0.35108378986E+02 -0.87626863693E+01  0.47787268732E+02  0.19999989456E+02 0.  0.
        -12    1    1    2    0    0  0.23963316281E+02  0.35108378986E+02  0.87626863693E+01  0.43400731268E+02  0.00000000000E+00 0.  1.
         11    1    3    3    0    0  0.31740310559E+00 -0.94057757629E+01 -0.63989100984E+01  0.11380483871E+02  0.51100000000E-03 0. -1.
        -11    1    3    3    0    0 -0.44797684701E+01 -0.11922465310E+01  0.92244801451E+00  0.47265936928E+01  0.51100000000E-03 0.  1.
         12    1    3    3    0    0 -0.19800950917E+02 -0.24510356692E+02 -0.32862242854E+01  0.31680191168E+02  0.00000000000E+00 0. -1.
</event>
<event>
 7    1  0.8300060E-011  0.4778728E+02  0.7816164E-02  0.1312668E+00
        -11   -1    0    0    0    0  0.00000000000E+00  0.00000000000E+00  0.45593999997E+02  0.45594000000E+02  0.51100000000E-03 0. -1.
         11   -1    0    0    0    0 -0.00000000000E+00 -0.00000000000E+00 -0.45593999997E+02  0.45594000000E+02  0.51100000000E-03 0.  1.
    9900012    2    1    2    0    0  0.31659911994E+01 -0.38124285576E+02 -0.20497271122E+02  0.47787276799E+02  0.20000026236E+02 0.  0.
         12    1    1    2    0    0 -0.31659911994E+01  0.38124285576E+02  0.20497271122E+02  0.43400723201E+02  0.00000000000E+00 0. -1.
         11    1    3    3    0    0  0.74194953267E+01 -0.19638507903E+02 -0.11913193903E+02  0.24138021725E+02  0.51100000000E-03 0. -1.
        -11    1    3    3    0    0  0.22628363131E+00 -0.11296602740E+02  0.39420459266E+00  0.11305743463E+02  0.51100000000E-03 0.  1.
         12    1    3    3    0    0 -0.44797877586E+01 -0.71891749332E+01 -0.89782818117E+01  0.12343511610E+02  0.00000000000E+00 0. -1.
</event>
<event>
 7    1  0.8300060E-011  0.4778728E+02  0.7816164E-02  0.1312668E+00
        -11   -1    0    0    0    0  0.00000000000E+00  0.00000000000E+00  0.45593999997E+02  0.45594000000E+02  0.51100000000E-03 0. -1.
         11   -1    0    0    0    0 -0.00000000000E+00 -0.00000000000E+00 -0.45593999997E+02  0.45594000000E+02  0.51100000000E-03 0.  1.
    9900012    2    1    2    0    0 -0.15476206600E+02  0.36237294749E+02  0.18192530456E+02  0.47787278050E+02  0.20000031939E+02 0.  0.
        -12    1    1    2    0    0  0.15476206600E+02 -0.36237294749E+02 -0.18192530456E+02  0.43400721950E+02  0.00000000000E+00 0.  1.
         11    1    3    3    0    0 -0.79661620210E+01  0.21691199407E+02  0.89532494337E+01  0.24781617073E+02  0.51100000000E-03 0. -1.
        -11    1    3    3    0    0 -0.46650124421E+01  0.43547799808E+01  0.10564097087E+02  0.12342066168E+02  0.51100000000E-03 0.  1.
        -12    1    3    3    0    0 -0.28450321368E+01  0.10191315361E+02 -0.13248160649E+01  0.10663594809E+02  0.00000000000E+00 0.  1.
</event>
<event>
 7    1  0.8300060E-011  0.4778727E+02  0.7816164E-02  0.1312668E+00
        -11   -1    0    0    0    0  0.00000000000E+00  0.00000000000E+00  0.45593999997E+02  0.45594000000E+02  0.51100000000E-03 0. -1.
         11   -1    0    0    0    0 -0.00000000000E+00 -0.00000000000E+00 -0.45593999997E+02  0.45594000000E+02  0.51100000000E-03 0.  1.
    9900012    2    1    2    0    0  0.10248492136E+02 -0.23410158836E+02  0.35079280005E+02  0.47787274044E+02  0.20000013677E+02 0.  0.
        -12    1    1    2    0    0 -0.10248492136E+02  0.23410158836E+02 -0.35079280005E+02  0.43400725956E+02  0.00000000000E+00 0.  1.
         11    1    3    3    0    0  0.12054317080E+01 -0.95122171967E+00  0.80907868813E+01  0.82352122609E+01  0.51100000000E-03 0. -1.
        -11    1    3    3    0    0  0.11582531061E+02 -0.12490975926E+02  0.22764004767E+02  0.28432013974E+02  0.51100000000E-03 0.  1.
        -12    1    3    3    0    0 -0.25394706329E+01 -0.99679611906E+01  0.42244883573E+01  0.11120047809E+02  0.00000000000E+00 0.  1.
</event>
<event>
 7    1  0.8300060E-011  0.4778727E+02  0.7816164E-02  0.1312668E+00
        -11   -1    0    0    0    0  0.00000000000E+00  0.00000000000E+00  0.45593999997E+02  0.45594000000E+02  0.51100000000E-03 0. -1.
         11   -1    0    0    0    0 -0.00000000000E+00 -0.00000000000E+00 -0.45593999997E+02  0.45594000000E+02  0.51100000000E-03 0.  1.
    9900012    2    1    2    0    0  0.75933697415E+01 -0.21016523132E+02  0.37205776770E+02  0.47787270356E+02  0.19999996859E+02 0.  0.
        -12    1    1    2    0    0 -0.75933697415E+01  0.21016523132E+02 -0.37205776770E+02  0.43400729644E+02  0.00000000000E+00 0.  1.
         11    1    3    3    0    0  0.79577280320E+01 -0.36363641828E+01  0.16370442847E+02  0.18561788146E+02  0.51100000000E-03 0. -1.
        -11    1    3    3    0    0 -0.51245040399E+01 -0.52876996235E+01  0.59621014887E+01  0.94745429117E+01  0.51100000000E-03 0.  1.
         12    1    3    3    0    0  0.47601457495E+01 -0.12092459326E+02  0.14873232435E+02  0.19750939298E+02  0.00000000000E+00 0. -1.
</event>
<event>
 7    1  0.8300060E-011  0.4778727E+02  0.7816164E-02  0.1312668E+00
        -11   -1    0    0    0    0  0.00000000000E+00  0.00000000000E+00  0.45593999997E+02  0.45594000000E+02  0.51100000000E-03 0. -1.
         11   -1    0    0    0    0 -0.00000000000E+00 -0.00000000000E+00 -0.45593999997E+02  0.45594000000E+02  0.51100000000E-03 0.  1.
    9900012    2    1    2    0    0 -0.28460716029E+02 -0.77790272854E+01 -0.31829197616E+02  0.47787269093E+02  0.19999991101E+02 0.  0.
         12    1    1    2    0    0  0.28460716029E+02  0.77790272854E+01  0.31829197616E+02  0.43400730907E+02  0.00000000000E+00 0. -1.
         11    1    3    3    0    0 -0.11456943096E+01 -0.10896616953E+01  0.14940746865E+01  0.21753706560E+01  0.51100000000E-03 0. -1.
        -11    1    3    3    0    0 -0.27436795648E+02 -0.86565250251E+01 -0.28946970543E+02  0.40812256551E+02  0.51100000000E-03 0.  1.
         12    1    3    3    0    0  0.12177392901E+00  0.19671594349E+01 -0.43763017600E+01  0.47996418853E+01  0.00000000000E+00 0. -1.
</event>
<event>
 7    1  0.8300060E-011  0.4778727E+02  0.7816164E-02  0.1312668E+00
        -11   -1    0    0    0    0  0.00000000000E+00  0.00000000000E+00  0.45593999997E+02  0.45594000000E+02  0.51100000000E-03 0. -1.
         11   -1    0    0    0    0 -0.00000000000E+00 -0.00000000000E+00 -0.45593999997E+02  0.45594000000E+02  0.51100000000E-03 0.  1.
    9900012    2    1    2    0    0  0.24563020336E+02  0.10471101111E+02  0.34214581259E+02  0.47787268472E+02  0.19999988269E+02 0.  0.
        -12    1    1    2    0    0 -0.24563020336E+02 -0.10471101111E+02 -0.34214581259E+02  0.43400731528E+02  0.00000000000E+00 0.  1.
         11    1    3    3    0    0  0.14705384276E+02  0.43003512960E+01  0.32420159048E+02  0.35858165889E+02  0.51100000000E-03 0. -1.
        -11    1    3    3    0    0  0.70479646548E+01  0.49039455045E+01  0.20779215376E+01  0.88340390232E+01  0.51100000000E-03 0.  1.
         12    1    3    3    0    0  0.28096714050E+01  0.12668043104E+01 -0.28349932728E+00  0.30950635589E+01  0.00000000000E+00 0. -1.
</event>
<event>
 7    1  0.8300060E-011  0.4778727E+02  0.7816164E-02  0.1312668E+00
        -11   -1    0    0    0    0  0.00000000000E+00  0.00000000000E+00  0.45593999997E+02  0.45594000000E+02  0.51100000000E-03 0. -1.
         11   -1    0    0    0    0 -0.00000000000E+00 -0.00000000000E+00 -0.45593999997E+02  0.45594000000E+02  0.51100000000E-03 0.  1.
    9900012    2    1    2    0    0 -0.21076455965E+02  0.49100732618E+01  0.37620438897E+02  0.47787271455E+02  0.20000001870E+02 0.  0.
        -12    1    1    2    0    0  0.21076455965E+02 -0.49100732618E+01 -0.37620438897E+02  0.43400728545E+02  0.00000000000E+00 0.  1.
         11    1    3    3    0    0 -0.63966092303E+01  0.89294636559E+00  0.84100264250E+00  0.65131596451E+01  0.51100000000E-03 0. -1.
        -11    1    3    3    0    0  0.16723699987E+01  0.44361456832E+00  0.18028453712E+01  0.24987730973E+01  0.51100000000E-03 0.  1.
         12    1    3    3    0    0 -0.16352216734E+02  0.35735123279E+01  0.34976590883E+02  0.38775338712E+02  0.00000000000E+00 0. -1.
</event>
<event>
 7    1  0.8300060E-011  0.4778727E+02  0.7816164E-02  0.1312668E+00
        -11   -1    0    0    0    0  0.00000000000E+00  0.00000000000E+00  0.45593999997E+02  0.45594000000E+02  0.51100000000E-03 0. -1.
         11   -1    0    0    0    0 -0.00000000000E+00 -0.00000000000E+00 -0.45593999997E+02  0.45594000000E+02  0.51100000000E-03 0.  1.
    9900012    2    1    2    0    0 -0.19731347139E+02  0.15944119974E+02  0.35214800856E+02  0.47787271653E+02  0.20000002776E+02 0.  0.
        -12    1    1    2    0    0  0.19731347139E+02 -0.15944119974E+02 -0.35214800856E+02  0.43400728347E+02  0.00000000000E+00 0.  1.
         11    1    3    3    0    0 -0.20946832258E+01 -0.43194162872E+01  0.87304093027E+01  0.99631873280E+01  0.51100000000E-03 0. -1.
        -11    1    3    3    0    0 -0.62660549774E+00  0.59842614758E+00  0.28411739635E+00  0.91185045920E+00  0.51100000000E-03 0.  1.
         12    1    3    3    0    0 -0.17010058415E+02  0.19665110113E+02  0.26200274157E+02  0.36912233866E+02  0.00000000000E+00 0. -1.
</event>
<event>
 7    1  0.8300060E-011  0.4778727E+02  0.7816164E-02  0.1312668E+00
        -11   -1    0    0    0    0  0.00000000000E+00  0.00000000000E+00  0.45593999997E+02  0.45594000000E+02  0.51100000000E-03 0. -1.
         11   -1    0    0    0    0 -0.00000000000E+00 -0.00000000000E+00 -0.45593999997E+02  0.45594000000E+02  0.51100000000E-03 0.  1.
    9900012    2    1    2    0    0  0.35926127750E+01 -0.23681158864E+01  0.43186898910E+02  0.47787273315E+02  0.20000010350E+02 0.  0.
        -12    1    1    2    0    0 -0.35926127750E+01  0.23681158864E+01 -0.43186898910E+02  0.43400726685E+02  0.00000000000E+00 0.  1.
         11    1    3    3    0    0  0.42715679134E+00 -0.58425495074E+01  0.71305025020E+01  0.92283212917E+01  0.51100000000E-03 0.  1.
        -11    1    3    3    0    0  0.77570842122E+01  0.34580776673E-01  0.23662653186E+02  0.24901700893E+02  0.51100000000E-03 0. -1.
        -12    1    3    3    0    0 -0.45916282285E+01  0.34398528443E+01  0.12393743222E+02  0.13657251130E+02  0.00000000000E+00 0.  1.
</event>
<event>
 7    1  0.8300060E-011  0.4778727E+02  0.7816164E-02  0.1312668E+00
        -11   -1    0    0    0    0  0.00000000000E+00  0.00000000000E+00  0.45593999997E+02  0.45594000000E+02  0.51100000000E-03 0.  1.
         11   -1    0    0    0    0 -0.00000000000E+00 -0.00000000000E+00 -0.45593999997E+02  0.45594000000E+02  0.51100000000E-03 0. -1.
    9900012    2    1    2    0    0  0.41124665313E+02 -0.60418265613E+01 -0.12485252596E+02  0.47787270770E+02  0.19999998747E+02 0.  0.
         12    1    1    2    0    0 -0.41124665313E+02  0.60418265613E+01  0.12485252596E+02  0.43400729230E+02  0.00000000000E+00 0. -1.
         11    1    3    3    0    0 -0.67529966308E+00  0.12544812016E+01 -0.30968697000E+01  0.34088641686E+01  0.51100000000E-03 0. -1.
        -11    1    3    3    0    0  0.21339189995E+02 -0.53300227608E+00 -0.13854984167E+01  0.21390762660E+02  0.51100000000E-03 0.  1.
         12    1    3    3    0    0  0.20460774982E+02 -0.67633054868E+01 -0.80028844795E+01  0.22987643941E+02  0.00000000000E+00 0. -1.
</event>
<event>
 7    1  0.8300060E-011  0.4778727E+02  0.7816164E-02  0.1312668E+00
        -11   -1    0    0    0    0  0.00000000000E+00  0.00000000000E+00  0.45593999997E+02  0.45594000000E+02  0.51100000000E-03 0.  1.
         11   -1    0    0    0    0 -0.00000000000E+00 -0.00000000000E+00 -0.45593999997E+02  0.45594000000E+02  0.51100000000E-03 0. -1.
    9900012    2    1    2    0    0 -0.34741586027E+02 -0.12317197310E+02  0.22911394435E+02  0.47787272539E+02  0.20000006812E+02 0.  0.
        -12    1    1    2    0    0  0.34741586027E+02  0.12317197310E+02 -0.22911394435E+02  0.43400727461E+02  0.00000000000E+00 0.  1.
         11    1    3    3    0    0  0.15490318078E+01 -0.41084637499E+01  0.86963270388E+00  0.44760736395E+01  0.51100000000E-03 0.  1.
        -11    1    3    3    0    0 -0.19572307445E+02 -0.55257329386E+01  0.11449521922E+02  0.23338819501E+02  0.51100000000E-03 0. -1.
        -12    1    3    3    0    0 -0.16718310390E+02 -0.26830006218E+01  0.10592239809E+02  0.19972379398E+02  0.00000000000E+00 0.  1.
</event>
<event>
 7    1  0.8300060E-011  0.4778727E+02  0.7816164E-02  0.1312668E+00
        -11   -1    0    0    0    0  0.00000000000E+00  0.00000000000E+00  0.45593999997E+02  0.45594000000E+02  0.51100000000E-03 0. -1.
         11   -1    0    0    0    0 -0.00000000000E+00 -0.00000000000E+00 -0.45593999997E+02  0.45594000000E+02  0.51100000000E-03 0.  1.
    9900012    2    1    2    0    0 -0.65833270890E+01 -0.37458395063E+02 -0.20908175900E+02  0.47787269871E+02  0.19999994648E+02 0.  0.
         12    1    1    2    0    0  0.65833270890E+01  0.37458395063E+02  0.20908175900E+02  0.43400730129E+02  0.00000000000E+00 0. -1.
         11    1    3    3    0    0  0.46058692267E+01 -0.55551085244E+01 -0.36396664091E+01  0.80821057826E+01  0.51100000000E-03 0. -1.
        -11    1    3    3    0    0 -0.74467829347E+01 -0.59839688242E+01 -0.50747670418E+01  0.10817380448E+02  0.51100000000E-03 0.  1.
        -12    1    3    3    0    0 -0.37424133810E+01 -0.25919317715E+02 -0.12193742449E+02  0.28887783640E+02  0.00000000000E+00 0.  1.
</event>
<event>
 7    1  0.8300060E-011  0.4778727E+02  0.7816164E-02  0.1312668E+00
        -11   -1    0    0    0    0  0.00000000000E+00  0.00000000000E+00  0.45593999997E+02  0.45594000000E+02  0.51100000000E-03 0. -1.
         11   -1    0    0    0    0 -0.00000000000E+00 -0.00000000000E+00 -0.45593999997E+02  0.45594000000E+02  0.51100000000E-03 0.  1.
    9900012    2    1    2    0    0  0.32762951597E+00 -0.69604948402E+01 -0.42837685239E+02  0.47787272977E+02  0.20000008809E+02 0.  0.
         12    1    1    2    0    0 -0.32762951597E+00  0.69604948402E+01  0.42837685239E+02  0.43400727023E+02  0.00000000000E+00 0. -1.
         11    1    3    3    0    0  0.35440273706E+01  0.15644811495E+01 -0.60503087741E+01  0.71842861715E+01  0.51100000000E-03 0. -1.
        -11    1    3    3    0    0 -0.27511604382E+01  0.15975364640E+01 -0.89099763865E+00  0.33037680857E+01  0.51100000000E-03 0.  1.
        -12    1    3    3    0    0 -0.46523741639E+00 -0.10122512454E+02 -0.35896378826E+02  0.37299218719E+02  0.00000000000E+00 0.  1.
</event>
<event>
 7    1  0.8300060E-011  0.4778727E+02  0.7816164E-02  0.1312668E+00
        -11   -1    0    0    0    0  0.00000000000E+00  0.00000000000E+00  0.45593999997E+02  0.45594000000E+02  0.51100000000E-03 0. -1.
         11   -1    0    0    0    0 -0.00000000000E+00 -0.00000000000E+00 -0.45593999997E+02  0.45594000000E+02  0.51100000000E-03 0.  1.
    9900012    2    1    2    0    0  0.20445619483E+02 -0.20210608738E+02  0.32513560455E+02  0.47787266423E+02  0.19999978928E+02 0.  0.
        -12    1    1    2    0    0 -0.20445619483E+02  0.20210608738E+02 -0.32513560455E+02  0.43400733577E+02  0.00000000000E+00 0.  1.
         11    1    3    3    0    0 -0.34034120789E+00 -0.50020640966E+01  0.48567123626E+01  0.69802673730E+01  0.51100000000E-03 0. -1.
        -11    1    3    3    0    0  0.20963392560E+02 -0.96673907945E+01  0.16586231480E+02  0.28425786662E+02  0.51100000000E-03 0.  1.
        -12    1    3    3    0    0 -0.17743186884E+00 -0.55411538470E+01  0.11070616612E+02  0.12381212388E+02  0.00000000000E+00 0.  1.
</event>
<event>
 7    1  0.8300060E-011  0.4778727E+02  0.7816164E-02  0.1312668E+00
        -11   -1    0    0    0    0  0.00000000000E+00  0.00000000000E+00  0.45593999997E+02  0.45594000000E+02  0.51100000000E-03 0. -1.
         11   -1    0    0    0    0 -0.00000000000E+00 -0.00000000000E+00 -0.45593999997E+02  0.45594000000E+02  0.51100000000E-03 0.  1.
    9900012    2    1    2    0    0  0.62361834637E+01 -0.29649036859E+02 -0.31075198154E+02  0.47787270615E+02  0.19999998040E+02 0.  0.
         12    1    1    2    0    0 -0.62361834637E+01  0.29649036859E+02  0.31075198154E+02  0.43400729385E+02  0.00000000000E+00 0. -1.
         11    1    3    3    0    0 -0.51804634519E+01 -0.62517592961E+01 -0.14768450676E+02  0.16853154942E+02  0.51100000000E-03 0. -1.
        -11    1    3    3    0    0  0.12198964172E+01 -0.59914869018E+01 -0.37824445418E+01  0.71897809102E+01  0.51100000000E-03 0.  1.
         12    1    3    3    0    0  0.10196750498E+02 -0.17405790661E+02 -0.12524302936E+02  0.23744334762E+02  0.00000000000E+00 0. -1.
</event>
<event>
 7    1  0.8300060E-011  0.4778727E+02  0.7816164E-02  0.1312668E+00
        -11   -1    0    0    0    0  0.00000000000E+00  0.00000000000E+00  0.45593999997E+02  0.45594000000E+02  0.51100000000E-03 0. -1.
         11   -1    0    0    0    0 -0.00000000000E+00 -0.00000000000E+00 -0.45593999997E+02  0.45594000000E+02  0.51100000000E-03 0.  1.
    9900012    2    1    2    0    0  0.28811297676E+02  0.30685018089E+02  0.10581213198E+02  0.47787270955E+02  0.19999999590E+02 0.  0.
        -12    1    1    2    0    0 -0.28811297676E+02 -0.30685018089E+02 -0.10581213198E+02  0.43400729045E+02  0.00000000000E+00 0.  1.
         11    1    3    3    0    0  0.54608537628E+01  0.84564604214E+00  0.75577608660E+01  0.93624671223E+01  0.51100000000E-03 0. -1.
        -11    1    3    3    0    0  0.20780611636E+02  0.26069839716E+02  0.44739942172E+01  0.33637582959E+02  0.51100000000E-03 0.  1.
         12    1    3    3    0    0  0.25698322772E+01  0.37695323311E+01 -0.14505418855E+01  0.47872208733E+01  0.00000000000E+00 0. -1.
</event>
<event>
 7    1  0.8300060E-011  0.4778728E+02  0.7816164E-02  0.1312668E+00
        -11   -1    0    0    0    0  0.00000000000E+00  0.00000000000E+00  0.45593999997E+02  0.45594000000E+02  0.51100000000E-03 0. -1.
         11   -1    0    0    0    0 -0.00000000000E+00 -0.00000000000E+00 -0.45593999997E+02  0.45594000000E+02  0.51100000000E-03 0.  1.
    9900012    2    1    2    0    0 -0.22075822999E+01 -0.22231245465E+02 -0.37209152921E+02  0.47787277015E+02  0.20000027222E+02 0.  0.
         12    1    1    2    0    0  0.22075822999E+01  0.22231245465E+02  0.37209152921E+02  0.43400722985E+02  0.00000000000E+00 0. -1.
         11    1    3    3    0    0 -0.61877054480E+01 -0.19145819478E+02 -0.18061961036E+02  0.27038575017E+02  0.51100000000E-03 0. -1.
        -11    1    3    3    0    0  0.71563596737E+00 -0.99980779608E+00 -0.15086725109E+02  0.15136744209E+02  0.51100000000E-03 0.  1.
         12    1    3    3    0    0  0.32644871807E+01 -0.20856181907E+01 -0.40604667753E+01  0.56119577888E+01  0.00000000000E+00 0. -1.
</event>
<event>
 7    1  0.8300060E-011  0.4778726E+02  0.7816164E-02  0.1312668E+00
        -11   -1    0    0    0    0  0.00000000000E+00  0.00000000000E+00  0.45593999997E+02  0.45594000000E+02  0.51100000000E-03 0.  1.
         11   -1    0    0    0    0 -0.00000000000E+00 -0.00000000000E+00 -0.45593999997E+02  0.45594000000E+02  0.51100000000E-03 0. -1.
    9900012    2    1    2    0    0  0.28918855043E+02  0.18855927019E+02  0.26301675119E+02  0.47787259513E+02  0.19999947423E+02 0.  0.
        -12    1    1    2    0    0 -0.28918855043E+02 -0.18855927019E+02 -0.26301675119E+02  0.43400740487E+02  0.00000000000E+00 0.  1.
         11    1    3    3    0    0  0.16403153250E+02  0.87198822455E+01  0.89403449615E+01  0.20616244838E+02  0.51100000000E-03 0. -1.
        -11    1    3    3    0    0  0.38464891116E+01 -0.29443083782E+01  0.64129234107E+01  0.80367914770E+01  0.51100000000E-03 0.  1.
        -12    1    3    3    0    0  0.86692126809E+01  0.13080353152E+02  0.10948406747E+02  0.19134223198E+02  0.00000000000E+00 0.  1.
</event>
<event>
 7    1  0.8300060E-011  0.4778728E+02  0.7816164E-02  0.1312668E+00
        -11   -1    0    0    0    0  0.00000000000E+00  0.00000000000E+00  0.45593999997E+02  0.45594000000E+02  0.51100000000E-03 0.  1.
         11   -1    0    0    0    0 -0.00000000000E+00 -0.00000000000E+00 -0.45593999997E+02  0.45594000000E+02  0.51100000000E-03 0. -1.
    9900012    2    1    2    0    0  0.21965687140E+02 -0.12721544130E+02 -0.35203597909E+02  0.47787281085E+02  0.20000045781E+02 0.  0.
         12    1    1    2    0    0 -0.21965687140E+02  0.12721544130E+02  0.35203597909E+02  0.43400718915E+02  0.00000000000E+00 0. -1.
         11    1    3    3    0    0  0.13057403086E+02 -0.11710337850E+02 -0.31429586370E+02  0.35992314284E+02  0.51100000000E-03 0. -1.
        -11    1    3    3    0    0  0.34184796828E+01  0.28486211406E+01 -0.12147007915E+01  0.46126070739E+01  0.51100000000E-03 0.  1.
         12    1    3    3    0    0  0.54898043708E+01 -0.38598274206E+01 -0.25593107480E+01  0.71823597272E+01  0.00000000000E+00 0. -1.
</event>
<event>
 7    1  0.8300060E-011  0.4778727E+02  0.7816164E-02  0.1312668E+00
        -11   -1    0    0    0    0  0.00000000000E+00  0.00000000000E+00  0.45593999997E+02  0.45594000000E+02  0.51100000000E-03 0. -1.
         11   -1    0    0    0    0 -0.00000000000E+00 -0.00000000000E+00 -0.45593999997E+02  0.45594000000E+02  0.51100000000E-03 0.  1.
    9900012    2    1    2    0    0 -0.19290014516E+02  0.78468095428E+01  0.38078158779E+02  0.47787271250E+02  0.20000000937E+02 0.  0.
        -12    1    1    2    0    0  0.19290014516E+02 -0.78468095428E+01 -0.38078158779E+02  0.43400728750E+02  0.00000000000E+00 0.  1.
         11    1    3    3    0    0 -0.53449530351E+01  0.34364551667E+01  0.10754608872E+02  0.12491571531E+02  0.51100000000E-03 0. -1.
        -11    1    3    3    0    0 -0.73154821089E+01  0.38098414199E+01  0.27424731041E+02  0.28638209495E+02  0.51100000000E-03 0.  1.
        -12    1    3    3    0    0 -0.66295793721E+01  0.60051295622E+00 -0.10118113420E+00  0.66574902240E+01  0.00000000000E+00 0.  1.
</event>
<event>
 7    1  0.8300060E-011  0.4778725E+02  0.7816164E-02  0.1312668E+00
        -11   -1    0    0    0    0  0.00000000000E+00  0.00000000000E+00  0.45593999997E+02  0.45594000000E+02  0.51100000000E-03 0. -1.
         11   -1    0    0    0    0 -0.00000000000E+00 -0.00000000000E+00 -0.45593999997E+02  0.45594000000E+02  0.51100000000E-03 0.  1.
    9900012    2    1    2    0    0 -0.13850200668E+02 -0.21759196445E+02 -0.34904648638E+02  0.47787249027E+02  0.19999899614E+02 0.  0.
         12    1    1    2    0    0  0.13850200668E+02  0.21759196445E+02  0.34904648638E+02  0.43400750973E+02  0.00000000000E+00 0. -1.
         11    1    3    3    0    0 -0.43303640233E+01 -0.15485858637E+02 -0.18984357343E+02  0.24879101557E+02  0.51100000000E-03 0. -1.
        -11    1    3    3    0    0 -0.18056772253E+01 -0.82929495926E+01 -0.86189393798E+01  0.12096263865E+02  0.51100000000E-03 0.  1.
         12    1    3    3    0    0 -0.77141594194E+01  0.20196117850E+01 -0.73013519151E+01  0.10811883605E+02  0.00000000000E+00 0. -1.
</event>
<event>
 7    1  0.8300060E-011  0.4778727E+02  0.7816164E-02  0.1312668E+00
        -11   -1    0    0    0    0  0.00000000000E+00  0.00000000000E+00  0.45593999997E+02  0.45594000000E+02  0.51100000000E-03 0. -1.
         11   -1    0    0    0    0 -0.00000000000E+00 -0.00000000000E+00 -0.45593999997E+02  0.45594000000E+02  0.51100000000E-03 0.  1.
    9900012    2    1    2    0    0  0.23501324839E+02  0.30281073530E+02 -0.20356019518E+02  0.47787271735E+02  0.20000003150E+02 0.  0.
         12    1    1    2    0    0 -0.23501324839E+02 -0.30281073530E+02  0.20356019518E+02  0.43400728265E+02  0.00000000000E+00 0. -1.
         11    1    3    3    0    0  0.25580795600E+01 -0.10585944532E+01  0.19562568756E+01  0.33898870890E+01  0.51100000000E-03 0. -1.
        -11    1    3    3    0    0  0.11485490702E+02  0.23152419364E+02 -0.14213044302E+02  0.29495112267E+02  0.51100000000E-03 0.  1.
         12    1    3    3    0    0  0.94577545776E+01  0.81872486193E+01 -0.80992320916E+01  0.14902272380E+02  0.00000000000E+00 0. -1.
</event>
<event>
 7    1  0.8300060E-011  0.4778726E+02  0.7816164E-02  0.1312668E+00
        -11   -1    0    0    0    0  0.00000000000E+00  0.00000000000E+00  0.45593999997E+02  0.45594000000E+02  0.51100000000E-03 0. -1.
         11   -1    0    0    0    0 -0.00000000000E+00 -0.00000000000E+00 -0.45593999997E+02  0.45594000000E+02  0.51100000000E-03 0.  1.
    9900012    2    1    2    0    0  0.32646426806E+02 -0.18570942416E+01 -0.28537457252E+02  0.47787257510E+02  0.19999938293E+02 0.  0.
         12    1    1    2    0    0 -0.32646426806E+02  0.18570942416E+01  0.28537457252E+02  0.43400742490E+02  0.00000000000E+00 0. -1.
         11    1    3    3    0    0  0.76145636783E+01  0.62153012220E+01 -0.63476496110E+01  0.11700607041E+02  0.51100000000E-03 0. -1.
        -11    1    3    3    0    0  0.23426145547E+02 -0.65135459934E+01 -0.23221693337E+02  0.33622278600E+02  0.51100000000E-03 0.  1.
         12    1    3    3    0    0  0.16057175805E+01 -0.15588494702E+01  0.10318856952E+01  0.24643718686E+01  0.00000000000E+00 0. -1.
</event>
<event>
 7    1  0.8300060E-011  0.4778721E+02  0.7816164E-02  0.1312668E+00
        -11   -1    0    0    0    0  0.00000000000E+00  0.00000000000E+00  0.45593999997E+02  0.45594000000E+02  0.51100000000E-03 0. -1.
         11   -1    0    0    0    0 -0.00000000000E+00 -0.00000000000E+00 -0.45593999997E+02  0.45594000000E+02  0.51100000000E-03 0.  1.
    9900012    2    1    2    0    0 -0.42873367142E+00  0.11392641778E+02  0.41876628812E+02  0.47787214985E+02  0.19999744400E+02 0.  0.
        -12    1    1    2    0    0  0.42873367142E+00 -0.11392641778E+02 -0.41876628812E+02  0.43400785015E+02  0.00000000000E+00 0.  1.
         11    1    3    3    0    0  0.77659200530E+01  0.41077092707E+01  0.17964335569E+02  0.19997503404E+02  0.51100000000E-03 0. -1.
        -11    1    3    3    0    0 -0.88693870731E+01  0.72241807435E+01  0.15061623541E+02  0.18913151996E+02  0.51100000000E-03 0.  1.
        -12    1    3    3    0    0  0.67473334870E+00  0.60751763986E-01  0.88506697032E+01  0.88765595849E+01  0.00000000000E+00 0.  1.
</event>
<event>
 7    1  0.8300060E-011  0.4778729E+02  0.7816164E-02  0.1312668E+00
        -11   -1    0    0    0    0  0.00000000000E+00  0.00000000000E+00  0.45593999997E+02  0.45594000000E+02  0.51100000000E-03 0. -1.
         11   -1    0    0    0    0 -0.00000000000E+00 -0.00000000000E+00 -0.45593999997E+02  0.45594000000E+02  0.51100000000E-03 0.  1.
    9900012    2    1    2    0    0  0.28517893852E+02  0.93018078397E+01  0.31366027827E+02  0.47787290323E+02  0.20000087898E+02 0.  0.
        -12    1    1    2    0    0 -0.28517893852E+02 -0.93018078397E+01 -0.31366027827E+02  0.43400709677E+02  0.00000000000E+00 0.  1.
         11    1    3    3    0    0  0.99610811892E+01  0.43502311910E+01  0.17219338591E+02  0.20363036897E+02  0.51100000000E-03 0. -1.
        -11    1    3    3    0    0 -0.35332228824E-01  0.37729726691E+01 -0.39154644700E+00  0.37933995320E+01  0.51100000000E-03 0.  1.
        -12    1    3    3    0    0  0.18592144891E+02  0.11786039796E+01  0.14538235683E+02  0.23630853894E+02  0.00000000000E+00 0.  1.
</event>
<event>
 7    1  0.8300060E-011  0.4778727E+02  0.7816164E-02  0.1312668E+00
        -11   -1    0    0    0    0  0.00000000000E+00  0.00000000000E+00  0.45593999997E+02  0.45594000000E+02  0.51100000000E-03 0. -1.
         11   -1    0    0    0    0 -0.00000000000E+00 -0.00000000000E+00 -0.45593999997E+02  0.45594000000E+02  0.51100000000E-03 0.  1.
    9900012    2    1    2    0    0  0.11408975375E+02 -0.19646406301E+02 -0.36979412872E+02  0.47787274476E+02  0.20000015644E+02 0.  0.
         12    1    1    2    0    0 -0.11408975375E+02  0.19646406301E+02  0.36979412872E+02  0.43400725524E+02  0.00000000000E+00 0. -1.
         11    1    3    3    0    0  0.12232660068E+02 -0.22488682729E+02 -0.30329743038E+02  0.39689698112E+02  0.51100000000E-03 0. -1.
        -11    1    3    3    0    0 -0.19719914282E+01  0.25084406766E+01 -0.58355320339E+01  0.66508991273E+01  0.51100000000E-03 0.  1.
         12    1    3    3    0    0  0.11483067357E+01  0.33383575149E+00 -0.81413780077E+00  0.14466772366E+01  0.00000000000E+00 0. -1.
</event>
<event>
 7    1  0.8300060E-011  0.4778727E+02  0.7816164E-02  0.1312668E+00
        -11   -1    0    0    0    0  0.00000000000E+00  0.00000000000E+00  0.45593999997E+02  0.45594000000E+02  0.51100000000E-03 0. -1.
         11   -1    0    0    0    0 -0.00000000000E+00 -0.00000000000E+00 -0.45593999997E+02  0.45594000000E+02  0.51100000000E-03 0.  1.
    9900012    2    1    2    0    0  0.88491359178E+01  0.83727445026E+01 -0.41655894193E+02  0.47787267540E+02  0.19999984023E+02 0.  0.
         12    1    1    2    0    0 -0.88491359178E+01 -0.83727445026E+01  0.41655894193E+02  0.43400732460E+02  0.00000000000E+00 0. -1.
         11    1    3    3    0    0  0.11676739900E+02  0.39094322884E+01 -0.26576859415E+02  0.29290943517E+02  0.51100000000E-03 0. -1.
        -11    1    3    3    0    0 -0.44831633879E+01 -0.41145887164E+00 -0.11135962472E+02  0.12011565793E+02  0.51100000000E-03 0.  1.
         12    1    3    3    0    0  0.16555594061E+01  0.48747710858E+01 -0.39430723061E+01  0.64847582297E+01  0.00000000000E+00 0. -1.
</event>
<event>
 7    1  0.8742438E-011  0.4778727E+02  0.7816164E-02  0.1312668E+00
        -11   -1    0    0    0    0  0.00000000000E+00  0.00000000000E+00  0.45593999997E+02  0.45594000000E+02  0.51100000000E-03 0. -1.
         11   -1    0    0    0    0 -0.00000000000E+00 -0.00000000000E+00 -0.45593999997E+02  0.45594000000E+02  0.51100000000E-03 0.  1.
    9900012    2    1    2    0    0  0.18853909383E+02 -0.14519933095E+02 -0.36294972853E+02  0.47787269470E+02  0.19999992822E+02 0.  0.
         12    1    1    2    0    0 -0.18853909383E+02  0.14519933095E+02  0.36294972853E+02  0.43400730530E+02  0.00000000000E+00 0. -1.
         11    1    3    3    0    0  0.81673395034E+01 -0.12573094573E+01 -0.22949941111E+01  0.85763197157E+01  0.51100000000E-03 0. -1.
        -11    1    3    3    0    0  0.64844108259E+00 -0.52472572593E+01 -0.17611812797E+02  0.18388315171E+02  0.51100000000E-03 0.  1.
        -12    1    3    3    0    0  0.10038128797E+02 -0.80153663787E+01 -0.16388165946E+02  0.20822634583E+02  0.00000000000E+00 0.  1.
</event>
<event>
 7    1  0.8300060E-011  0.4778727E+02  0.7816164E-02  0.1312668E+00
        -11   -1    0    0    0    0  0.00000000000E+00  0.00000000000E+00  0.45593999997E+02  0.45594000000E+02  0.51100000000E-03 0. -1.
         11   -1    0    0    0    0 -0.00000000000E+00 -0.00000000000E+00 -0.45593999997E+02  0.45594000000E+02  0.51100000000E-03 0.  1.
    9900012    2    1    2    0    0 -0.25002122322E+01 -0.36806510601E+02 -0.22861603279E+02  0.47787272030E+02  0.20000004494E+02 0.  0.
         12    1    1    2    0    0  0.25002122322E+01  0.36806510601E+02  0.22861603279E+02  0.43400727970E+02  0.00000000000E+00 0. -1.
         11    1    3    3    0    0 -0.19661436702E+01 -0.13041487415E+01  0.24936362279E+01  0.34328918961E+01  0.51100000000E-03 0. -1.
        -11    1    3    3    0    0 -0.71056964396E+00 -0.15369809418E+02 -0.62762909398E+01  0.16617092976E+02  0.51100000000E-03 0.  1.
         12    1    3    3    0    0  0.17650108202E+00 -0.20132552442E+02 -0.19078948567E+02  0.27737287158E+02  0.00000000000E+00 0. -1.
</event>
<event>
 7    1  0.8300060E-011  0.4778721E+02  0.7816164E-02  0.1312668E+00
        -11   -1    0    0    0    0  0.00000000000E+00  0.00000000000E+00  0.45593999997E+02  0.45594000000E+02  0.51100000000E-03 0. -1.
         11   -1    0    0    0    0 -0.00000000000E+00 -0.00000000000E+00 -0.45593999997E+02  0.45594000000E+02  0.51100000000E-03 0.  1.
    9900012    2    1    2    0    0 -0.12517906904E+02  0.99952142388E+01 -0.40336408752E+02  0.47787214616E+02  0.19999742720E+02 0.  0.
         12    1    1    2    0    0  0.12517906904E+02 -0.99952142388E+01  0.40336408752E+02  0.43400785384E+02  0.00000000000E+00 0. -1.
         11    1    3    3    0    0 -0.60215556270E+01  0.42890918683E+01 -0.26984008199E+01  0.78699941849E+01  0.51100000000E-03 0. -1.
        -11    1    3    3    0    0 -0.76058009194E+01  0.65558924940E+01 -0.37074759861E+02  0.38410490143E+02  0.51100000000E-03 0.  1.
        -12    1    3    3    0    0  0.11094496427E+01 -0.84977012350E+00 -0.56324807115E+00  0.15067302885E+01  0.00000000000E+00 0.  1.
</event>
<event>
 7    1  0.8300060E-011  0.4778727E+02  0.7816164E-02  0.1312668E+00
        -11   -1    0    0    0    0  0.00000000000E+00  0.00000000000E+00  0.45593999997E+02  0.45594000000E+02  0.51100000000E-03 0. -1.
         11   -1    0    0    0    0 -0.00000000000E+00 -0.00000000000E+00 -0.45593999997E+02  0.45594000000E+02  0.51100000000E-03 0.  1.
    9900012    2    1    2    0    0  0.13366907318E+02 -0.31245011994E+02  0.26994410550E+02  0.47787272048E+02  0.20000004578E+02 0.  0.
        -12    1    1    2    0    0 -0.13366907318E+02  0.31245011994E+02 -0.26994410550E+02  0.43400727952E+02  0.00000000000E+00 0.  1.
         11    1    3    3    0    0  0.26367116173E+01 -0.22460921984E+02  0.14488976251E+02  0.26858438108E+02  0.51100000000E-03 0. -1.
        -11    1    3    3    0    0  0.10451262790E+02 -0.66673316502E+01  0.13704919628E+02  0.18479908752E+02  0.51100000000E-03 0.  1.
         12    1    3    3    0    0  0.27893291076E+00 -0.21167583601E+01 -0.11994853287E+01  0.24489251882E+01  0.00000000000E+00 0. -1.
</event>
<event>
 7    1  0.8300060E-011  0.4778727E+02  0.7816164E-02  0.1312668E+00
        -11   -1    0    0    0    0  0.00000000000E+00  0.00000000000E+00  0.45593999997E+02  0.45594000000E+02  0.51100000000E-03 0. -1.
         11   -1    0    0    0    0 -0.00000000000E+00 -0.00000000000E+00 -0.45593999997E+02  0.45594000000E+02  0.51100000000E-03 0.  1.
    9900012    2    1    2    0    0 -0.88323595544E+01 -0.32923331417E+02  0.26863860725E+02  0.47787270283E+02  0.19999996528E+02 0.  0.
        -12    1    1    2    0    0  0.88323595544E+01  0.32923331417E+02 -0.26863860725E+02  0.43400729717E+02  0.00000000000E+00 0.  1.
         11    1    3    3    0    0 -0.53540148638E+01 -0.15886986124E+02  0.22909935575E+02  0.28388852594E+02  0.51100000000E-03 0. -1.
        -11    1    3    3    0    0 -0.48221583818E+00 -0.26438694681E+01 -0.21884137431E+01  0.34657946926E+01  0.51100000000E-03 0.  1.
        -12    1    3    3    0    0 -0.29961288524E+01 -0.14392475825E+02  0.61423388931E+01  0.15932622997E+02  0.00000000000E+00 0.  1.
</event>
<event>
 7    1  0.8300060E-011  0.4778727E+02  0.7816164E-02  0.1312668E+00
        -11   -1    0    0    0    0  0.00000000000E+00  0.00000000000E+00  0.45593999997E+02  0.45594000000E+02  0.51100000000E-03 0. -1.
         11   -1    0    0    0    0 -0.00000000000E+00 -0.00000000000E+00 -0.45593999997E+02  0.45594000000E+02  0.51100000000E-03 0.  1.
    9900012    2    1    2    0    0  0.23334529985E+02  0.33453264820E+02 -0.14832481775E+02  0.47787265762E+02  0.19999975917E+02 0.  0.
         12    1    1    2    0    0 -0.23334529985E+02 -0.33453264820E+02  0.14832481775E+02  0.43400734238E+02  0.00000000000E+00 0. -1.
         11    1    3    3    0    0  0.93495708835E+01  0.20323742775E+02 -0.11907953926E+02  0.25343014087E+02  0.51100000000E-03 0.  1.
        -11    1    3    3    0    0  0.15445749411E+02  0.13491653357E+02 -0.18432735880E+01  0.20591103491E+02  0.51100000000E-03 0. -1.
         12    1    3    3    0    0 -0.14607903102E+01 -0.36213131095E+00 -0.10812542607E+01  0.18531481843E+01  0.00000000000E+00 0. -1.
</event>
<event>
 7    1  0.8300060E-011  0.4778727E+02  0.7816164E-02  0.1312668E+00
        -11   -1    0    0    0    0  0.00000000000E+00  0.00000000000E+00  0.45593999997E+02  0.45594000000E+02  0.51100000000E-03 0. -1.
         11   -1    0    0    0    0 -0.00000000000E+00 -0.00000000000E+00 -0.45593999997E+02  0.45594000000E+02  0.51100000000E-03 0.  1.
    9900012    2    1    2    0    0  0.12308516765E+02  0.23293677687E+02  0.34489542576E+02  0.47787267837E+02  0.19999985378E+02 0.  0.
        -12    1    1    2    0    0 -0.12308516765E+02 -0.23293677687E+02 -0.34489542576E+02  0.43400732163E+02  0.00000000000E+00 0.  1.
         11    1    3    3    0    0  0.86553784684E+01  0.23789750871E+02  0.27097894462E+02  0.37083199801E+02  0.51100000000E-03 0. -1.
        -11    1    3    3    0    0  0.30335787328E+01 -0.79460356379E+00  0.86879758844E+01  0.92366076013E+01  0.51100000000E-03 0.  1.
         12    1    3    3    0    0  0.61955956405E+00  0.29853037929E+00 -0.12963277702E+01  0.14674604351E+01  0.00000000000E+00 0. -1.
</event>
<event>
 7    1  0.8300060E-011  0.4778727E+02  0.7816164E-02  0.1312668E+00
        -11   -1    0    0    0    0  0.00000000000E+00  0.00000000000E+00  0.45593999997E+02  0.45594000000E+02  0.51100000000E-03 0. -1.
         11   -1    0    0    0    0 -0.00000000000E+00 -0.00000000000E+00 -0.45593999997E+02  0.45594000000E+02  0.51100000000E-03 0.  1.
    9900012    2    1    2    0    0 -0.93949380678E+00  0.16333063517E+02  0.40199150813E+02  0.47787270299E+02  0.19999996602E+02 0.  0.
        -12    1    1    2    0    0  0.93949380678E+00 -0.16333063517E+02 -0.40199150813E+02  0.43400729701E+02  0.00000000000E+00 0.  1.
         11    1    3    3    0    0 -0.28816933746E+01  0.14624349525E+02  0.27430720124E+02  0.31218907132E+02  0.51100000000E-03 0. -1.
        -11    1    3    3    0    0  0.42345690965E+01  0.35854579729E+01  0.28917996075E+01  0.62569632842E+01  0.51100000000E-03 0.  1.
         12    1    3    3    0    0 -0.22923695286E+01 -0.18767439811E+01  0.98766310811E+01  0.10311399883E+02  0.00000000000E+00 0. -1.
</event>
<event>
 7    1  0.8300060E-011  0.4778727E+02  0.7816164E-02  0.1312668E+00
        -11   -1    0    0    0    0  0.00000000000E+00  0.00000000000E+00  0.45593999997E+02  0.45594000000E+02  0.51100000000E-03 0. -1.
         11   -1    0    0    0    0 -0.00000000000E+00 -0.00000000000E+00 -0.45593999997E+02  0.45594000000E+02  0.51100000000E-03 0.  1.
    9900012    2    1    2    0    0  0.35356297312E+02 -0.52173104714E+01  0.24623870789E+02  0.47787273038E+02  0.20000009091E+02 0.  0.
        -12    1    1    2    0    0 -0.35356297312E+02  0.52173104714E+01 -0.24623870789E+02  0.43400726962E+02  0.00000000000E+00 0.  1.
         11    1    3    3    0    0  0.19018373009E+02  0.23820542733E+01  0.57773165044E+01  0.20018743236E+02  0.51100000000E-03 0. -1.
        -11    1    3    3    0    0  0.40218386246E+01 -0.68900168604E+01  0.86110185023E+01  0.11738703428E+02  0.51100000000E-03 0.  1.
         12    1    3    3    0    0  0.12316085678E+02 -0.70934788436E+00  0.10235535783E+02  0.16029826375E+02  0.00000000000E+00 0. -1.
</event>
<event>
 7    1  0.8300060E-011  0.4778727E+02  0.7816164E-02  0.1312668E+00
        -11   -1    0    0    0    0  0.00000000000E+00  0.00000000000E+00  0.45593999997E+02  0.45594000000E+02  0.51100000000E-03 0.  1.
         11   -1    0    0    0    0 -0.00000000000E+00 -0.00000000000E+00 -0.45593999997E+02  0.45594000000E+02  0.51100000000E-03 0. -1.
    9900012    2    1    2    0    0 -0.38211208637E+02 -0.12117003236E+02  0.16634454479E+02  0.47787270643E+02  0.19999998172E+02 0.  0.
         12    1    1    2    0    0  0.38211208637E+02  0.12117003236E+02 -0.16634454479E+02  0.43400729357E+02  0.00000000000E+00 0. -1.
         11    1    3    3    0    0 -0.45396583497E+01  0.89193140321E+00  0.35707916997E+01  0.58441931166E+01  0.51100000000E-03 0. -1.
        -11    1    3    3    0    0 -0.86336930327E+01  0.28784557425E+01  0.74545069208E+01  0.11764175982E+02  0.51100000000E-03 0.  1.
        -12    1    3    3    0    0 -0.25037857254E+02 -0.15887390381E+02  0.56091558580E+01  0.30178901545E+02  0.00000000000E+00 0.  1.
</event>
<event>
 7    1  0.8300060E-011  0.4778728E+02  0.7816164E-02  0.1312668E+00
        -11   -1    0    0    0    0  0.00000000000E+00  0.00000000000E+00  0.45593999997E+02  0.45594000000E+02  0.51100000000E-03 0. -1.
         11   -1    0    0    0    0 -0.00000000000E+00 -0.00000000000E+00 -0.45593999997E+02  0.45594000000E+02  0.51100000000E-03 0.  1.
    9900012    2    1    2    0    0 -0.23343053081E+02  0.32453451522E+02 -0.16896687928E+02  0.47787277589E+02  0.20000029839E+02 0.  0.
         12    1    1    2    0    0  0.23343053081E+02 -0.32453451522E+02  0.16896687928E+02  0.43400722411E+02  0.00000000000E+00 0. -1.
         11    1    3    3    0    0 -0.66760159427E+01  0.19232037002E+02 -0.15082718812E+02  0.25336314711E+02  0.51100000000E-03 0. -1.
        -11    1    3    3    0    0 -0.31493738999E+01  0.33988849765E+01 -0.32801876074E+01  0.56772005466E+01  0.51100000000E-03 0.  1.
         12    1    3    3    0    0 -0.13517663239E+02  0.98225295435E+01  0.14662184915E+01  0.16773762331E+02  0.00000000000E+00 0. -1.
</event>
<event>
 7    1  0.8300060E-011  0.4778727E+02  0.7816164E-02  0.1312668E+00
        -11   -1    0    0    0    0  0.00000000000E+00  0.00000000000E+00  0.45593999997E+02  0.45594000000E+02  0.51100000000E-03 0. -1.
         11   -1    0    0    0    0 -0.00000000000E+00 -0.00000000000E+00 -0.45593999997E+02  0.45594000000E+02  0.51100000000E-03 0.  1.
    9900012    2    1    2    0    0  0.54895858286E+01 -0.23289801573E+02  0.36208739201E+02  0.47787271845E+02  0.20000003649E+02 0.  0.
        -12    1    1    2    0    0 -0.54895858286E+01  0.23289801573E+02 -0.36208739201E+02  0.43400728155E+02  0.00000000000E+00 0.  1.
         11    1    3    3    0    0  0.50452631128E+01  0.80969011617E+00  0.10676116422E+02  0.11835951169E+02  0.51100000000E-03 0. -1.
        -11    1    3    3    0    0 -0.23606468176E+01 -0.19728682443E+02  0.18056167425E+02  0.26848067839E+02  0.51100000000E-03 0.  1.
         12    1    3    3    0    0  0.28049695334E+01 -0.43708092459E+01  0.74764553535E+01  0.91032528362E+01  0.00000000000E+00 0. -1.
</event>
<event>
 7    1  0.8300060E-011  0.4778727E+02  0.7816164E-02  0.1312668E+00
        -11   -1    0    0    0    0  0.00000000000E+00  0.00000000000E+00  0.45593999997E+02  0.45594000000E+02  0.51100000000E-03 0. -1.
         11   -1    0    0    0    0 -0.00000000000E+00 -0.00000000000E+00 -0.45593999997E+02  0.45594000000E+02  0.51100000000E-03 0.  1.
    9900012    2    1    2    0    0  0.20732940374E+02 -0.77136416052E+01  0.37339906656E+02  0.47787265992E+02  0.19999976964E+02 0.  0.
        -12    1    1    2    0    0 -0.20732940374E+02  0.77136416052E+01 -0.37339906656E+02  0.43400734008E+02  0.00000000000E+00 0.  1.
         11    1    3    3    0    0  0.15903995074E+02 -0.10814499110E+02  0.14738647000E+02  0.24230521372E+02  0.51100000000E-03 0. -1.
        -11    1    3    3    0    0  0.30422123849E+01  0.14666566437E+01  0.70395114739E+01  0.78077435894E+01  0.51100000000E-03 0.  1.
         12    1    3    3    0    0  0.17867329146E+01  0.16342008612E+01  0.15561748182E+02  0.15749001030E+02  0.00000000000E+00 0. -1.
</event>
<event>
 7    1  0.8300060E-011  0.4778727E+02  0.7816164E-02  0.1312668E+00
        -11   -1    0    0    0    0  0.00000000000E+00  0.00000000000E+00  0.45593999997E+02  0.45594000000E+02  0.51100000000E-03 0.  1.
         11   -1    0    0    0    0 -0.00000000000E+00 -0.00000000000E+00 -0.45593999997E+02  0.45594000000E+02  0.51100000000E-03 0. -1.
    9900012    2    1    2    0    0  0.14076509036E+02  0.36190800897E+02 -0.19383022530E+02  0.47787265691E+02  0.19999975590E+02 0.  0.
         12    1    1    2    0    0 -0.14076509036E+02 -0.36190800897E+02  0.19383022530E+02  0.43400734309E+02  0.00000000000E+00 0. -1.
         11    1    3    3    0    0  0.11225051864E+02  0.16445905984E+02 -0.16832553047E+02  0.26073059954E+02  0.51100000000E-03 0. -1.
        -11    1    3    3    0    0  0.45748522280E+01  0.19227337362E+02 -0.23026219774E+01  0.19897784881E+02  0.51100000000E-03 0.  1.
        -12    1    3    3    0    0 -0.17233950565E+01  0.51755755036E+00 -0.24784750486E+00  0.18164208555E+01  0.00000000000E+00 0.  1.
</event>
<event>
 7    1  0.8300060E-011  0.4778727E+02  0.7816164E-02  0.1312668E+00
        -11   -1    0    0    0    0  0.00000000000E+00  0.00000000000E+00  0.45593999997E+02  0.45594000000E+02  0.51100000000E-03 0. -1.
         11   -1    0    0    0    0 -0.00000000000E+00 -0.00000000000E+00 -0.45593999997E+02  0.45594000000E+02  0.51100000000E-03 0.  1.
    9900012    2    1    2    0    0  0.30360758698E+02 -0.42804336653E+01  0.30716856994E+02  0.47787273225E+02  0.20000009940E+02 0.  0.
        -12    1    1    2    0    0 -0.30360758698E+02  0.42804336653E+01 -0.30716856994E+02  0.43400726775E+02  0.00000000000E+00 0.  1.
         11    1    3    3    0    0  0.55034247161E+01 -0.46745225336E+01  0.44735139615E+01  0.84941845958E+01  0.51100000000E-03 0. -1.
        -11    1    3    3    0    0  0.24632507923E+02  0.43853422193E+01  0.24179237902E+02  0.34794068729E+02  0.51100000000E-03 0.  1.
        -12    1    3    3    0    0  0.22482605890E+00 -0.39912533510E+01  0.20641051299E+01  0.44990198995E+01  0.00000000000E+00 0.  1.
</event>
<event>
 7    1  0.8300060E-011  0.4778727E+02  0.7816164E-02  0.1312668E+00
        -11   -1    0    0    0    0  0.00000000000E+00  0.00000000000E+00  0.45593999997E+02  0.45594000000E+02  0.51100000000E-03 0.  1.
         11   -1    0    0    0    0 -0.00000000000E+00 -0.00000000000E+00 -0.45593999997E+02  0.45594000000E+02  0.51100000000E-03 0. -1.
    9900012    2    1    2    0    0  0.30313786429E+02 -0.21386253573E+02  0.22523893195E+02  0.47787271271E+02  0.20000001032E+02 0.  0.
        -12    1    1    2    0    0 -0.30313786429E+02  0.21386253573E+02 -0.22523893195E+02  0.43400728729E+02  0.00000000000E+00 0.  1.
         11    1    3    3    0    0  0.11067346470E+02 -0.16824202023E+02  0.12110624543E+02  0.23499088465E+02  0.51100000000E-03 0. -1.
        -11    1    3    3    0    0  0.98849201545E+01  0.16430611436E+01  0.19097398504E+01  0.10200902065E+02  0.51100000000E-03 0.  1.
        -12    1    3    3    0    0  0.93615198046E+01 -0.62051126936E+01  0.85035288014E+01  0.14087280741E+02  0.00000000000E+00 0.  1.
</event>
<event>
 7    1  0.8300060E-011  0.4778727E+02  0.7816164E-02  0.1312668E+00
        -11   -1    0    0    0    0  0.00000000000E+00  0.00000000000E+00  0.45593999997E+02  0.45594000000E+02  0.51100000000E-03 0.  1.
         11   -1    0    0    0    0 -0.00000000000E+00 -0.00000000000E+00 -0.45593999997E+02  0.45594000000E+02  0.51100000000E-03 0. -1.
    9900012    2    1    2    0    0 -0.18957356288E+02  0.38972959392E+02  0.23130843971E+01  0.47787270967E+02  0.19999999646E+02 0.  0.
         12    1    1    2    0    0  0.18957356288E+02 -0.38972959392E+02 -0.23130843971E+01  0.43400729033E+02  0.00000000000E+00 0. -1.
         11    1    3    3    0    0 -0.21508151297E+01  0.61733350504E+01 -0.35918396160E+01  0.74590470876E+01  0.51100000000E-03 0. -1.
        -11    1    3    3    0    0 -0.13873797176E+02  0.15570804553E+02 -0.23741995353E+01  0.20989736211E+02  0.51100000000E-03 0.  1.
        -12    1    3    3    0    0 -0.29327439820E+01  0.17228819788E+02  0.82791235483E+01  0.19338487668E+02  0.00000000000E+00 0.  1.
</event>
<event>
 7    1  0.8300060E-011  0.4778728E+02  0.7816164E-02  0.1312668E+00
        -11   -1    0    0    0    0  0.00000000000E+00  0.00000000000E+00  0.45593999997E+02  0.45594000000E+02  0.51100000000E-03 0. -1.
         11   -1    0    0    0    0 -0.00000000000E+00 -0.00000000000E+00 -0.45593999997E+02  0.45594000000E+02  0.51100000000E-03 0.  1.
    9900012    2    1    2    0    0  0.20159401591E+02  0.74424381626E+01 -0.37707181633E+02  0.47787275293E+02  0.20000019373E+02 0.  0.
         12    1    1    2    0    0 -0.20159401591E+02 -0.74424381626E+01  0.37707181633E+02  0.43400724707E+02  0.00000000000E+00 0. -1.
         11    1    3    3    0    0  0.14813321784E+02 -0.46246807116E+01 -0.16337384640E+02  0.22532916169E+02  0.51100000000E-03 0. -1.
        -11    1    3    3    0    0  0.51688373905E+01  0.10468789506E+02 -0.19919056162E+02  0.23088551976E+02  0.51100000000E-03 0.  1.
         12    1    3    3    0    0  0.17724241615E+00  0.15983293680E+01 -0.14507408322E+01  0.21658071486E+01  0.00000000000E+00 0. -1.
</event>
<event>
 7    1  0.8300060E-011  0.4778727E+02  0.7816164E-02  0.1312668E+00
        -11   -1    0    0    0    0  0.00000000000E+00  0.00000000000E+00  0.45593999997E+02  0.45594000000E+02  0.51100000000E-03 0. -1.
         11   -1    0    0    0    0 -0.00000000000E+00 -0.00000000000E+00 -0.45593999997E+02  0.45594000000E+02  0.51100000000E-03 0.  1.
    9900012    2    1    2    0    0  0.80798630631E+01 -0.27897084400E+02  0.32250457080E+02  0.47787268589E+02  0.19999988803E+02 0.  0.
        -12    1    1    2    0    0 -0.80798630631E+01  0.27897084400E+02 -0.32250457080E+02  0.43400731411E+02  0.00000000000E+00 0.  1.
         11    1    3    3    0    0  0.18748766930E+01 -0.17683852058E+01  0.30548718169E+01  0.39968226041E+01  0.51100000000E-03 0. -1.
        -11    1    3    3    0    0  0.17271768329E+01 -0.23397491928E+02  0.13119216394E+02  0.26880096863E+02  0.51100000000E-03 0.  1.
        -12    1    3    3    0    0  0.44778095371E+01 -0.27312072671E+01  0.16076368870E+02  0.16910349122E+02  0.00000000000E+00 0.  1.
</event>
<event>
 7    1  0.8300060E-011  0.4778727E+02  0.7816164E-02  0.1312668E+00
        -11   -1    0    0    0    0  0.00000000000E+00  0.00000000000E+00  0.45593999997E+02  0.45594000000E+02  0.51100000000E-03 0. -1.
         11   -1    0    0    0    0 -0.00000000000E+00 -0.00000000000E+00 -0.45593999997E+02  0.45594000000E+02  0.51100000000E-03 0.  1.
    9900012    2    1    2    0    0 -0.24064041775E+01 -0.42527011453E+02 -0.83238088530E+01  0.47787270997E+02  0.19999999785E+02 0.  0.
         12    1    1    2    0    0  0.24064041775E+01  0.42527011453E+02  0.83238088530E+01  0.43400729003E+02  0.00000000000E+00 0. -1.
         11    1    3    3    0    0 -0.30556645809E+01 -0.19329962124E+02 -0.11542899839E+01  0.19604002330E+02  0.51100000000E-03 0. -1.
        -11    1    3    3    0    0  0.62858400744E+01 -0.46318051416E+01 -0.13217327261E+01  0.79191149740E+01  0.51100000000E-03 0.  1.
        -12    1    3    3    0    0 -0.56365796710E+01 -0.18565244187E+02 -0.58477861430E+01  0.20264153693E+02  0.00000000000E+00 0.  1.
</event>
<event>
 7    1  0.8300060E-011  0.4778727E+02  0.7816164E-02  0.1312668E+00
        -11   -1    0    0    0    0  0.00000000000E+00  0.00000000000E+00  0.45593999997E+02  0.45594000000E+02  0.51100000000E-03 0. -1.
         11   -1    0    0    0    0 -0.00000000000E+00 -0.00000000000E+00 -0.45593999997E+02  0.45594000000E+02  0.51100000000E-03 0.  1.
    9900012    2    1    2    0    0  0.41877086802E+01 -0.24555567733E+02  0.35540266575E+02  0.47787270064E+02  0.19999995531E+02 0.  0.
        -12    1    1    2    0    0 -0.41877086802E+01  0.24555567733E+02 -0.35540266575E+02  0.43400729936E+02  0.00000000000E+00 0.  1.
         11    1    3    3    0    0  0.98596841954E+01 -0.86452410131E+01  0.23211635743E+02  0.26659587370E+02  0.51100000000E-03 0. -1.
        -11    1    3    3    0    0 -0.18333697201E+01 -0.95114608826E+01  0.73050878434E+01  0.12132330416E+02  0.51100000000E-03 0.  1.
         12    1    3    3    0    0 -0.38386057950E+01 -0.63988658378E+01  0.50235429888E+01  0.89953522788E+01  0.00000000000E+00 0. -1.
</event>
<event>
 7    1  0.8300060E-011  0.4778727E+02  0.7816164E-02  0.1312668E+00
        -11   -1    0    0    0    0  0.00000000000E+00  0.00000000000E+00  0.45593999997E+02  0.45594000000E+02  0.51100000000E-03 0. -1.
         11   -1    0    0    0    0 -0.00000000000E+00 -0.00000000000E+00 -0.45593999997E+02  0.45594000000E+02  0.51100000000E-03 0.  1.
    9900012    2    1    2    0    0 -0.17436627022E+02 -0.25937719302E+02  0.30113485227E+02  0.47787271469E+02  0.20000001936E+02 0.  0.
        -12    1    1    2    0    0  0.17436627022E+02  0.25937719302E+02 -0.30113485227E+02  0.43400728531E+02  0.00000000000E+00 0.  1.
         11    1    3    3    0    0 -0.56887385806E+01 -0.19661820365E+02  0.18845403974E+02  0.27822619897E+02  0.51100000000E-03 0. -1.
        -11    1    3    3    0    0 -0.38892216514E+01  0.25512008960E+01  0.28565324149E+01  0.54584291480E+01  0.51100000000E-03 0.  1.
         12    1    3    3    0    0 -0.78586667897E+01 -0.88270998334E+01  0.84115488379E+01  0.14506222425E+02  0.00000000000E+00 0. -1.
</event>
<event>
 7    1  0.8300060E-011  0.4778728E+02  0.7816164E-02  0.1312668E+00
        -11   -1    0    0    0    0  0.00000000000E+00  0.00000000000E+00  0.45593999997E+02  0.45594000000E+02  0.51100000000E-03 0. -1.
         11   -1    0    0    0    0 -0.00000000000E+00 -0.00000000000E+00 -0.45593999997E+02  0.45594000000E+02  0.51100000000E-03 0.  1.
    9900012    2    1    2    0    0  0.25425286426E+00  0.79161706761E+01  0.42671916752E+02  0.47787275559E+02  0.20000020586E+02 0.  0.
        -12    1    1    2    0    0 -0.25425286426E+00 -0.79161706761E+01 -0.42671916752E+02  0.43400724441E+02  0.00000000000E+00 0.  1.
         11    1    3    3    0    0  0.63460631045E+01  0.14816139169E+01  0.91775439674E+01  0.11255887804E+02  0.51100000000E-03 0. -1.
        -11    1    3    3    0    0 -0.78861024074E+01  0.41043684240E+01  0.12540147321E+02  0.15371784101E+02  0.51100000000E-03 0.  1.
        -12    1    3    3    0    0  0.17942921671E+01  0.23301883352E+01  0.20954225463E+02  0.21159603655E+02  0.00000000000E+00 0.  1.
</event>
<event>
 7    1  0.8300060E-011  0.4778727E+02  0.7816164E-02  0.1312668E+00
        -11   -1    0    0    0    0  0.00000000000E+00  0.00000000000E+00  0.45593999997E+02  0.45594000000E+02  0.51100000000E-03 0. -1.
         11   -1    0    0    0    0 -0.00000000000E+00 -0.00000000000E+00 -0.45593999997E+02  0.45594000000E+02  0.51100000000E-03 0.  1.
    9900012    2    1    2    0    0  0.22030300263E+02  0.33414329008E+02 -0.16786055678E+02  0.47787272150E+02  0.20000005038E+02 0.  0.
         12    1    1    2    0    0 -0.22030300263E+02 -0.33414329008E+02  0.16786055678E+02  0.43400727850E+02  0.00000000000E+00 0. -1.
         11    1    3    3    0    0  0.51800193254E+01  0.47884419146E+01  0.31697583466E+01  0.77336372050E+01  0.51100000000E-03 0. -1.
        -11    1    3    3    0    0  0.15056964372E+02  0.16758307726E+02 -0.15015662399E+02  0.27074400667E+02  0.51100000000E-03 0.  1.
         12    1    3    3    0    0  0.17933165654E+01  0.11867579367E+02 -0.49401516254E+01  0.12979234277E+02  0.00000000000E+00 0. -1.
</event>
<event>
 7    1  0.8300060E-011  0.4778727E+02  0.7816164E-02  0.1312668E+00
        -11   -1    0    0    0    0  0.00000000000E+00  0.00000000000E+00  0.45593999997E+02  0.45594000000E+02  0.51100000000E-03 0. -1.
         11   -1    0    0    0    0 -0.00000000000E+00 -0.00000000000E+00 -0.45593999997E+02  0.45594000000E+02  0.51100000000E-03 0.  1.
    9900012    2    1    2    0    0 -0.11613763466E+02 -0.10093525483E+02 -0.40581580490E+02  0.47787269204E+02  0.19999991611E+02 0.  0.
         12    1    1    2    0    0  0.11613763466E+02  0.10093525483E+02  0.40581580490E+02  0.43400730796E+02  0.00000000000E+00 0. -1.
         11    1    3    3    0    0 -0.94085613842E+01 -0.98330394404E+01 -0.16536469195E+02  0.21416454087E+02  0.51100000000E-03 0. -1.
        -11    1    3    3    0    0 -0.48118437217E+01 -0.48713088445E+00 -0.23081140624E+02  0.23582412711E+02  0.51100000000E-03 0.  1.
        -12    1    3    3    0    0  0.26066416403E+01  0.22664484204E+00 -0.96397067085E+00  0.27884024063E+01  0.00000000000E+00 0.  1.
</event>
<event>
 7    1  0.8300060E-011  0.4778727E+02  0.7816164E-02  0.1312668E+00
        -11   -1    0    0    0    0  0.00000000000E+00  0.00000000000E+00  0.45593999997E+02  0.45594000000E+02  0.51100000000E-03 0. -1.
         11   -1    0    0    0    0 -0.00000000000E+00 -0.00000000000E+00 -0.45593999997E+02  0.45594000000E+02  0.51100000000E-03 0.  1.
    9900012    2    1    2    0    0  0.23245056071E+01 -0.12328892165E+02 -0.41547783031E+02  0.47787272090E+02  0.20000004769E+02 0.  0.
         12    1    1    2    0    0 -0.23245056071E+01  0.12328892165E+02  0.41547783031E+02  0.43400727910E+02  0.00000000000E+00 0. -1.
         11    1    3    3    0    0  0.70578801813E+01 -0.56012854603E+01 -0.95095990329E+01  0.13100402493E+02  0.51100000000E-03 0. -1.
        -11    1    3    3    0    0 -0.66684112687E+01 -0.72014107162E+00 -0.12975003945E+02  0.14606061743E+02  0.51100000000E-03 0.  1.
         12    1    3    3    0    0  0.19350366945E+01 -0.60074656330E+01 -0.19063180052E+02  0.20080807854E+02  0.00000000000E+00 0. -1.
</event>
<event>
 7    1  0.8300060E-011  0.4778727E+02  0.7816164E-02  0.1312668E+00
        -11   -1    0    0    0    0  0.00000000000E+00  0.00000000000E+00  0.45593999997E+02  0.45594000000E+02  0.51100000000E-03 0. -1.
         11   -1    0    0    0    0 -0.00000000000E+00 -0.00000000000E+00 -0.45593999997E+02  0.45594000000E+02  0.51100000000E-03 0.  1.
    9900012    2    1    2    0    0 -0.37130527053E+02 -0.12929029167E+02  0.18378987021E+02  0.47787274219E+02  0.20000014474E+02 0.  0.
        -12    1    1    2    0    0  0.37130527053E+02  0.12929029167E+02 -0.18378987021E+02  0.43400725781E+02  0.00000000000E+00 0.  1.
         11    1    3    3    0    0 -0.41590068221E+01 -0.43444915698E+01  0.10204976319E+02  0.11845399389E+02  0.51100000000E-03 0. -1.
        -11    1    3    3    0    0 -0.24491700399E+02 -0.60850114903E+01  0.23284266119E+01  0.25343486817E+02  0.51100000000E-03 0.  1.
         12    1    3    3    0    0 -0.84798198315E+01 -0.24995261066E+01  0.58455840894E+01  0.10598388013E+02  0.00000000000E+00 0. -1.
</event>
<event>
 7    1  0.8300060E-011  0.4778727E+02  0.7816164E-02  0.1312668E+00
        -11   -1    0    0    0    0  0.00000000000E+00  0.00000000000E+00  0.45593999997E+02  0.45594000000E+02  0.51100000000E-03 0. -1.
         11   -1    0    0    0    0 -0.00000000000E+00 -0.00000000000E+00 -0.45593999997E+02  0.45594000000E+02  0.51100000000E-03 0.  1.
    9900012    2    1    2    0    0 -0.58960550503E-01 -0.59576480578E+01  0.42989842506E+02  0.47787267225E+02  0.19999982587E+02 0.  0.
        -12    1    1    2    0    0  0.58960550503E-01  0.59576480578E+01 -0.42989842506E+02  0.43400732775E+02  0.00000000000E+00 0.  1.
         11    1    3    3    0    0 -0.72571211104E+01 -0.76197050890E+00  0.62317471991E+01  0.95958886656E+01  0.51100000000E-03 0. -1.
        -11    1    3    3    0    0  0.64338420641E+01 -0.15535561662E+01  0.22248856474E+02  0.23212485329E+02  0.51100000000E-03 0.  1.
         12    1    3    3    0    0  0.76431849580E+00 -0.36421213827E+01  0.14509238832E+02  0.14978893231E+02  0.00000000000E+00 0. -1.
</event>
<event>
 7    1  0.8809232E-011  0.4778727E+02  0.7816164E-02  0.1312668E+00
        -11   -1    0    0    0    0  0.00000000000E+00  0.00000000000E+00  0.45593999997E+02  0.45594000000E+02  0.51100000000E-03 0. -1.
         11   -1    0    0    0    0 -0.00000000000E+00 -0.00000000000E+00 -0.45593999997E+02  0.45594000000E+02  0.51100000000E-03 0.  1.
    9900012    2    1    2    0    0 -0.10194203544E+02  0.21609100847E+02 -0.36231866069E+02  0.47787272539E+02  0.20000006816E+02 0.  0.
         12    1    1    2    0    0  0.10194203544E+02 -0.21609100847E+02  0.36231866069E+02  0.43400727461E+02  0.00000000000E+00 0. -1.
         11    1    3    3    0    0 -0.20798862590E+01  0.13939027888E+02 -0.88035299292E+01  0.16616996263E+02  0.51100000000E-03 0. -1.
        -11    1    3    3    0    0 -0.59296275193E+01  0.91997341925E+01 -0.25849037365E+02  0.28070773496E+02  0.51100000000E-03 0.  1.
         12    1    3    3    0    0 -0.21846897661E+01 -0.15296612342E+01 -0.15792987746E+01  0.30995027803E+01  0.00000000000E+00 0. -1.
</event>
<event>
 7    1  0.8300060E-011  0.4778728E+02  0.7816164E-02  0.1312668E+00
        -11   -1    0    0    0    0  0.00000000000E+00  0.00000000000E+00  0.45593999997E+02  0.45594000000E+02  0.51100000000E-03 0. -1.
         11   -1    0    0    0    0 -0.00000000000E+00 -0.00000000000E+00 -0.45593999997E+02  0.45594000000E+02  0.51100000000E-03 0.  1.
    9900012    2    1    2    0    0 -0.13917828579E+02  0.99886728209E+00 -0.41096460024E+02  0.47787277487E+02  0.20000029373E+02 0.  0.
         12    1    1    2    0    0  0.13917828579E+02 -0.99886728209E+00  0.41096460024E+02  0.43400722513E+02  0.00000000000E+00 0. -1.
         11    1    3    3    0    0 -0.15235895515E+00 -0.33232728800E+01 -0.16555487658E+02  0.16886430284E+02  0.51100000000E-03 0. -1.
        -11    1    3    3    0    0 -0.47188958314E+01 -0.86050742166E+00 -0.17918519438E+02  0.18549441771E+02  0.51100000000E-03 0.  1.
        -12    1    3    3    0    0 -0.90465737926E+01  0.51826475838E+01 -0.66224529270E+01  0.12351405431E+02  0.00000000000E+00 0.  1.
</event>
<event>
 7    1  0.8300060E-011  0.4778727E+02  0.7816164E-02  0.1312668E+00
        -11   -1    0    0    0    0  0.00000000000E+00  0.00000000000E+00  0.45593999997E+02  0.45594000000E+02  0.51100000000E-03 0. -1.
         11   -1    0    0    0    0 -0.00000000000E+00 -0.00000000000E+00 -0.45593999997E+02  0.45594000000E+02  0.51100000000E-03 0.  1.
    9900012    2    1    2    0    0  0.19239942912E+02  0.89764767525E+01  0.37853279824E+02  0.47787270380E+02  0.19999996969E+02 0.  0.
        -12    1    1    2    0    0 -0.19239942912E+02 -0.89764767525E+01 -0.37853279824E+02  0.43400729620E+02  0.00000000000E+00 0.  1.
         11    1    3    3    0    0  0.94883338612E+01  0.44523422122E+01  0.25897237055E+02  0.27937765086E+02  0.51100000000E-03 0. -1.
        -11    1    3    3    0    0  0.11090563167E+02  0.48713974092E+00  0.62726712312E+01  0.12750854917E+02  0.51100000000E-03 0.  1.
        -12    1    3    3    0    0 -0.13389541161E+01  0.40369947993E+01  0.56833715380E+01  0.70986503769E+01  0.00000000000E+00 0.  1.
</event>
<event>
 7    1  0.8300060E-011  0.4778727E+02  0.7816164E-02  0.1312668E+00
        -11   -1    0    0    0    0  0.00000000000E+00  0.00000000000E+00  0.45593999997E+02  0.45594000000E+02  0.51100000000E-03 0. -1.
         11   -1    0    0    0    0 -0.00000000000E+00 -0.00000000000E+00 -0.45593999997E+02  0.45594000000E+02  0.51100000000E-03 0.  1.
    9900012    2    1    2    0    0  0.26388351621E+02  0.17884847276E+02 -0.29451833491E+02  0.47787270060E+02  0.19999995510E+02 0.  0.
         12    1    1    2    0    0 -0.26388351621E+02 -0.17884847276E+02  0.29451833491E+02  0.43400729940E+02  0.00000000000E+00 0. -1.
         11    1    3    3    0    0  0.59053580366E+01 -0.41499910229E+00 -0.13909820075E+02  0.15117161525E+02  0.51100000000E-03 0. -1.
        -11    1    3    3    0    0  0.88612658698E+01  0.89279363873E+01 -0.24546110686E+01  0.12816208359E+02  0.51100000000E-03 0.  1.
        -12    1    3    3    0    0  0.11621727715E+02  0.93719099910E+01 -0.13087402347E+02  0.19853900175E+02  0.00000000000E+00 0.  1.
</event>
<event>
 7    1  0.8300060E-011  0.4778727E+02  0.7816164E-02  0.1312668E+00
        -11   -1    0    0    0    0  0.00000000000E+00  0.00000000000E+00  0.45593999997E+02  0.45594000000E+02  0.51100000000E-03 0. -1.
         11   -1    0    0    0    0 -0.00000000000E+00 -0.00000000000E+00 -0.45593999997E+02  0.45594000000E+02  0.51100000000E-03 0.  1.
    9900012    2    1    2    0    0 -0.73658480195E+01 -0.75252789023E+01  0.42103892978E+02  0.47787270242E+02  0.19999996343E+02 0.  0.
        -12    1    1    2    0    0  0.73658480195E+01  0.75252789023E+01 -0.42103892978E+02  0.43400729758E+02  0.00000000000E+00 0.  1.
         11    1    3    3    0    0 -0.52628411353E+01  0.39737032723E+01  0.28529347014E+02  0.29281589025E+02  0.51100000000E-03 0. -1.
        -11    1    3    3    0    0  0.14078432665E+01 -0.29086246162E+01  0.27108526545E+01  0.42179191785E+01  0.51100000000E-03 0.  1.
         12    1    3    3    0    0 -0.35108501507E+01 -0.85903575584E+01  0.10863693309E+02  0.14287762039E+02  0.00000000000E+00 0. -1.
</event>
<event>
 7    1  0.8300060E-011  0.4778727E+02  0.7816164E-02  0.1312668E+00
        -11   -1    0    0    0    0  0.00000000000E+00  0.00000000000E+00  0.45593999997E+02  0.45594000000E+02  0.51100000000E-03 0.  1.
         11   -1    0    0    0    0 -0.00000000000E+00 -0.00000000000E+00 -0.45593999997E+02  0.45594000000E+02  0.51100000000E-03 0. -1.
    9900012    2    1    2    0    0  0.62079823391E+01  0.25567412749E+02  0.34516545554E+02  0.47787267790E+02  0.19999985162E+02 0.  0.
        -12    1    1    2    0    0 -0.62079823391E+01 -0.25567412749E+02 -0.34516545554E+02  0.43400732210E+02  0.00000000000E+00 0.  1.
         11    1    3    3    0    0  0.23080200474E+01  0.89048636544E+01  0.16843975252E+02  0.19192265520E+02  0.51100000000E-03 0. -1.
        -11    1    3    3    0    0 -0.56106194599E+00  0.14176319421E+02  0.51879731088E+01  0.15106220178E+02  0.51100000000E-03 0.  1.
        -12    1    3    3    0    0  0.44610242377E+01  0.24862296732E+01  0.12484597193E+02  0.13488782092E+02  0.00000000000E+00 0.  1.
</event>
<event>
 7    1  0.8300060E-011  0.4778725E+02  0.7816164E-02  0.1312668E+00
        -11   -1    0    0    0    0  0.00000000000E+00  0.00000000000E+00  0.45593999997E+02  0.45594000000E+02  0.51100000000E-03 0. -1.
         11   -1    0    0    0    0 -0.00000000000E+00 -0.00000000000E+00 -0.45593999997E+02  0.45594000000E+02  0.51100000000E-03 0.  1.
    9900012    2    1    2    0    0  0.26250544742E+02 -0.32521298968E+02  0.11700390265E+02  0.47787249797E+02  0.19999903125E+02 0.  0.
        -12    1    1    2    0    0 -0.26250544742E+02  0.32521298968E+02 -0.11700390265E+02  0.43400750203E+02  0.00000000000E+00 0.  1.
         11    1    3    3    0    0  0.15529328314E+02 -0.12424251584E+02  0.97321326524E+01  0.22141284324E+02  0.51100000000E-03 0. -1.
        -11    1    3    3    0    0 -0.17210072737E+01 -0.78625712102E+01  0.15171198567E+01  0.81904545046E+01  0.51100000000E-03 0.  1.
        -12    1    3    3    0    0  0.12442223702E+02 -0.12234476174E+02  0.45113775580E+00  0.17455510969E+02  0.00000000000E+00 0.  1.
</event>
<event>
 7    1  0.8300060E-011  0.4778727E+02  0.7816164E-02  0.1312668E+00
        -11   -1    0    0    0    0  0.00000000000E+00  0.00000000000E+00  0.45593999997E+02  0.45594000000E+02  0.51100000000E-03 0. -1.
         11   -1    0    0    0    0 -0.00000000000E+00 -0.00000000000E+00 -0.45593999997E+02  0.45594000000E+02  0.51100000000E-03 0.  1.
    9900012    2    1    2    0    0 -0.44450601853E+01 -0.76667448382E+01 -0.42486300858E+02  0.47787270777E+02  0.19999998783E+02 0.  0.
         12    1    1    2    0    0  0.44450601853E+01  0.76667448382E+01  0.42486300858E+02  0.43400729223E+02  0.00000000000E+00 0. -1.
         11    1    3    3    0    0  0.48184950562E+01 -0.32211412494E+01 -0.41164834055E+01  0.71090844308E+01  0.51100000000E-03 0. -1.
        -11    1    3    3    0    0 -0.97618616980E+00  0.25061596007E+01 -0.78973028051E+01  0.83427314016E+01  0.51100000000E-03 0.  1.
         12    1    3    3    0    0 -0.82873690717E+01 -0.69517631895E+01 -0.30472514647E+02  0.32335454945E+02  0.00000000000E+00 0. -1.
</event>
<event>
 7    1  0.8300060E-011  0.4778726E+02  0.7816164E-02  0.1312668E+00
        -11   -1    0    0    0    0  0.00000000000E+00  0.00000000000E+00  0.45593999997E+02  0.45594000000E+02  0.51100000000E-03 0. -1.
         11   -1    0    0    0    0 -0.00000000000E+00 -0.00000000000E+00 -0.45593999997E+02  0.45594000000E+02  0.51100000000E-03 0.  1.
    9900012    2    1    2    0    0 -0.30548791997E+02 -0.26068242544E+02  0.16457280267E+02  0.47787262269E+02  0.19999959987E+02 0.  0.
        -12    1    1    2    0    0  0.30548791997E+02  0.26068242544E+02 -0.16457280267E+02  0.43400737731E+02  0.00000000000E+00 0.  1.
         11    1    3    3    0    0 -0.32082863444E+02 -0.25048992173E+02  0.17593489770E+02  0.44342902681E+02  0.51100000000E-03 0. -1.
        -11    1    3    3    0    0  0.44446451006E+00 -0.86528320164E+00 -0.18795716689E+01  0.21163774804E+01  0.51100000000E-03 0.  1.
         12    1    3    3    0    0  0.10896069370E+01 -0.15396716991E+00  0.74336216576E+00  0.13279821068E+01  0.00000000000E+00 0. -1.
</event>
<event>
 7    1  0.8300060E-011  0.4778728E+02  0.7816164E-02  0.1312668E+00
        -11   -1    0    0    0    0  0.00000000000E+00  0.00000000000E+00  0.45593999997E+02  0.45594000000E+02  0.51100000000E-03 0.  1.
         11   -1    0    0    0    0 -0.00000000000E+00 -0.00000000000E+00 -0.45593999997E+02  0.45594000000E+02  0.51100000000E-03 0. -1.
    9900012    2    1    2    0    0 -0.21540748587E+02 -0.35165393624E+02  0.13528260476E+02  0.47787278924E+02  0.20000035925E+02 0.  0.
        -12    1    1    2    0    0  0.21540748587E+02  0.35165393624E+02 -0.13528260476E+02  0.43400721076E+02  0.00000000000E+00 0.  1.
         11    1    3    3    0    0 -0.60264237457E+01 -0.10611686110E+02  0.28689122770E+01  0.12536200508E+02  0.51100000000E-03 0.  1.
        -11    1    3    3    0    0 -0.12874679875E+02 -0.23485942422E+02  0.14510587968E+02  0.30461517309E+02  0.51100000000E-03 0. -1.
        -12    1    3    3    0    0 -0.26396449663E+01 -0.10677650926E+01 -0.38512397688E+01  0.47895611070E+01  0.00000000000E+00 0.  1.
</event>
<event>
 7    1  0.8300060E-011  0.4778727E+02  0.7816164E-02  0.1312668E+00
        -11   -1    0    0    0    0  0.00000000000E+00  0.00000000000E+00  0.45593999997E+02  0.45594000000E+02  0.51100000000E-03 0.  1.
         11   -1    0    0    0    0 -0.00000000000E+00 -0.00000000000E+00 -0.45593999997E+02  0.45594000000E+02  0.51100000000E-03 0. -1.
    9900012    2    1    2    0    0 -0.20125348104E+02 -0.37281728319E+02  0.94163036565E+01  0.47787266397E+02  0.19999978811E+02 0.  0.
        -12    1    1    2    0    0  0.20125348104E+02  0.37281728319E+02 -0.94163036565E+01  0.43400733603E+02  0.00000000000E+00 0.  1.
         11    1    3    3    0    0 -0.92834742814E+00 -0.13476090239E+02  0.79175768586E+01  0.15657421903E+02  0.51100000000E-03 0. -1.
        -11    1    3    3    0    0 -0.23822156624E+01 -0.93691959766E+01  0.23602137215E+01  0.99512508652E+01  0.51100000000E-03 0.  1.
         12    1    3    3    0    0 -0.16814785013E+02 -0.14436442103E+02 -0.86148692364E+00  0.22178593629E+02  0.00000000000E+00 0. -1.
</event>
<event>
 7    1  0.8300060E-011  0.4778727E+02  0.7816164E-02  0.1312668E+00
        -11   -1    0    0    0    0  0.00000000000E+00  0.00000000000E+00  0.45593999997E+02  0.45594000000E+02  0.51100000000E-03 0.  1.
         11   -1    0    0    0    0 -0.00000000000E+00 -0.00000000000E+00 -0.45593999997E+02  0.45594000000E+02  0.51100000000E-03 0. -1.
    9900012    2    1    2    0    0 -0.23940867596E+02 -0.34440145264E+02 -0.11150540814E+02  0.47787270657E+02  0.19999998234E+02 0.  0.
        -12    1    1    2    0    0  0.23940867596E+02  0.34440145264E+02  0.11150540814E+02  0.43400729343E+02  0.00000000000E+00 0.  1.
         11    1    3    3    0    0 -0.10084561999E+02 -0.11776523309E+02 -0.22600126016E+01  0.15668201849E+02  0.51100000000E-03 0. -1.
        -11    1    3    3    0    0 -0.87352625014E+01 -0.13390001080E+01 -0.37108802803E+01  0.95847986403E+01  0.51100000000E-03 0.  1.
        -12    1    3    3    0    0 -0.51210430962E+01 -0.21324621847E+02 -0.51796479322E+01  0.22534270168E+02  0.00000000000E+00 0.  1.
</event>
<event>
 7    1  0.8300060E-011  0.4778728E+02  0.7816164E-02  0.1312668E+00
        -11   -1    0    0    0    0  0.00000000000E+00  0.00000000000E+00  0.45593999997E+02  0.45594000000E+02  0.51100000000E-03 0. -1.
         11   -1    0    0    0    0 -0.00000000000E+00 -0.00000000000E+00 -0.45593999997E+02  0.45594000000E+02  0.51100000000E-03 0.  1.
    9900012    2    1    2    0    0  0.15481345961E+02  0.35904616696E+02  0.18836378302E+02  0.47787277420E+02  0.20000029071E+02 0.  0.
        -12    1    1    2    0    0 -0.15481345961E+02 -0.35904616696E+02 -0.18836378302E+02  0.43400722580E+02  0.00000000000E+00 0.  1.
         11    1    3    3    0    0  0.63747572820E+01  0.14395448118E+02  0.12595055994E+02  0.20161892091E+02  0.51100000000E-03 0. -1.
        -11    1    3    3    0    0  0.14232458741E+00  0.14415065385E+01 -0.33463347338E+01  0.36463891455E+01  0.51100000000E-03 0.  1.
        -12    1    3    3    0    0  0.89642640915E+01  0.20067662040E+02  0.95876570418E+01  0.23978996184E+02  0.00000000000E+00 0.  1.
</event>
<event>
 7    1  0.8300060E-011  0.4778727E+02  0.7816164E-02  0.1312668E+00
        -11   -1    0    0    0    0  0.00000000000E+00  0.00000000000E+00  0.45593999997E+02  0.45594000000E+02  0.51100000000E-03 0. -1.
         11   -1    0    0    0    0 -0.00000000000E+00 -0.00000000000E+00 -0.45593999997E+02  0.45594000000E+02  0.51100000000E-03 0.  1.
    9900012    2    1    2    0    0  0.33977307303E+02 -0.15704314796E+02 -0.21966796213E+02  0.47787273617E+02  0.20000011727E+02 0.  0.
         12    1    1    2    0    0 -0.33977307303E+02  0.15704314796E+02  0.21966796213E+02  0.43400726383E+02  0.00000000000E+00 0. -1.
         11    1    3    3    0    0  0.10012640102E+02 -0.11955861847E+02 -0.18969435421E+01  0.15709678208E+02  0.51100000000E-03 0. -1.
        -11    1    3    3    0    0  0.16490750676E+02 -0.78146352885E-01 -0.11340621934E+02  0.20014011862E+02  0.51100000000E-03 0.  1.
         12    1    3    3    0    0  0.74739165244E+01 -0.36703065954E+01 -0.87292307373E+01  0.12063583547E+02  0.00000000000E+00 0. -1.
</event>
<event>
 7    1  0.8300060E-011  0.4778727E+02  0.7816164E-02  0.1312668E+00
        -11   -1    0    0    0    0  0.00000000000E+00  0.00000000000E+00  0.45593999997E+02  0.45594000000E+02  0.51100000000E-03 0. -1.
         11   -1    0    0    0    0 -0.00000000000E+00 -0.00000000000E+00 -0.45593999997E+02  0.45594000000E+02  0.51100000000E-03 0.  1.
    9900012    2    1    2    0    0 -0.15458062928E+01 -0.36401406946E+02 -0.23583286377E+02  0.47787270270E+02  0.19999996470E+02 0.  0.
         12    1    1    2    0    0  0.15458062928E+01  0.36401406946E+02  0.23583286377E+02  0.43400729730E+02  0.00000000000E+00 0. -1.
         11    1    3    3    0    0 -0.88897430223E+00 -0.16782126679E+02 -0.16977677430E+01  0.16891194947E+02  0.51100000000E-03 0. -1.
        -11    1    3    3    0    0  0.38180044110E+01 -0.13904466699E+02 -0.16108912064E+02  0.21619629970E+02  0.51100000000E-03 0.  1.
         12    1    3    3    0    0 -0.44748364015E+01 -0.57148135683E+01 -0.57766065695E+01  0.92764453537E+01  0.00000000000E+00 0. -1.
</event>
<event>
 7    1  0.8300060E-011  0.4778730E+02  0.7816164E-02  0.1312668E+00
        -11   -1    0    0    0    0  0.00000000000E+00  0.00000000000E+00  0.45593999997E+02  0.45594000000E+02  0.51100000000E-03 0. -1.
         11   -1    0    0    0    0 -0.00000000000E+00 -0.00000000000E+00 -0.45593999997E+02  0.45594000000E+02  0.51100000000E-03 0.  1.
    9900012    2    1    2    0    0  0.22721834593E+02  0.30818594343E+02  0.20434112852E+02  0.47787303086E+02  0.20000146091E+02 0.  0.
        -12    1    1    2    0    0 -0.22721834593E+02 -0.30818594343E+02 -0.20434112852E+02  0.43400696914E+02  0.00000000000E+00 0.  1.
         11    1    3    3    0    0  0.16619613849E+02  0.20467065731E+02  0.10191620335E+02  0.28266260266E+02  0.51100000000E-03 0. -1.
        -11    1    3    3    0    0 -0.14075608223E+01  0.67949830808E+01  0.86691106737E+00  0.69931793625E+01  0.51100000000E-03 0.  1.
        -12    1    3    3    0    0  0.75097815661E+01  0.35565455312E+01  0.93755814497E+01  0.12527863457E+02  0.00000000000E+00 0.  1.
</event>
<event>
 7    1  0.8300060E-011  0.4778727E+02  0.7816164E-02  0.1312668E+00
        -11   -1    0    0    0    0  0.00000000000E+00  0.00000000000E+00  0.45593999997E+02  0.45594000000E+02  0.51100000000E-03 0. -1.
         11   -1    0    0    0    0 -0.00000000000E+00 -0.00000000000E+00 -0.45593999997E+02  0.45594000000E+02  0.51100000000E-03 0.  1.
    9900012    2    1    2    0    0  0.18390968805E+02  0.39309637187E+02  0.38475107498E+00  0.47787270251E+02  0.19999996383E+02 0.  0.
         12    1    1    2    0    0 -0.18390968805E+02 -0.39309637187E+02 -0.38475107498E+00  0.43400729749E+02  0.00000000000E+00 0. -1.
         11    1    3    3    0    0  0.16178858017E+01  0.94045711767E+00  0.47660801165E+01  0.51203060451E+01  0.51100000000E-03 0. -1.
        -11    1    3    3    0    0  0.43612446065E+01  0.18555606434E+02 -0.19896296767E+01  0.19164801360E+02  0.51100000000E-03 0.  1.
         12    1    3    3    0    0  0.12411838397E+02  0.19813573635E+02 -0.23916993648E+01  0.23502162846E+02  0.00000000000E+00 0. -1.
</event>
<event>
 7    1  0.8300060E-011  0.4778725E+02  0.7816164E-02  0.1312668E+00
        -11   -1    0    0    0    0  0.00000000000E+00  0.00000000000E+00  0.45593999997E+02  0.45594000000E+02  0.51100000000E-03 0. -1.
         11   -1    0    0    0    0 -0.00000000000E+00 -0.00000000000E+00 -0.45593999997E+02  0.45594000000E+02  0.51100000000E-03 0.  1.
    9900012    2    1    2    0    0 -0.80586386065E+01 -0.55057421590E+01  0.42289125566E+02  0.47787251227E+02  0.19999909645E+02 0.  0.
        -12    1    1    2    0    0  0.80586386065E+01  0.55057421590E+01 -0.42289125566E+02  0.43400748773E+02  0.00000000000E+00 0.  1.
         11    1    3    3    0    0 -0.32763238674E+01 -0.89196879485E+01  0.88104472774E+01  0.12958360725E+02  0.51100000000E-03 0.  1.
        -11    1    3    3    0    0 -0.39167500342E+01  0.13917175813E+00  0.28729163643E+02  0.28995260708E+02  0.51100000000E-03 0. -1.
        -12    1    3    3    0    0 -0.86556470495E+00  0.32747740314E+01  0.47495146454E+01  0.58336297948E+01  0.00000000000E+00 0.  1.
</event>
<event>
 7    1  0.8300060E-011  0.4778727E+02  0.7816164E-02  0.1312668E+00
        -11   -1    0    0    0    0  0.00000000000E+00  0.00000000000E+00  0.45593999997E+02  0.45594000000E+02  0.51100000000E-03 0.  1.
         11   -1    0    0    0    0 -0.00000000000E+00 -0.00000000000E+00 -0.45593999997E+02  0.45594000000E+02  0.51100000000E-03 0. -1.
    9900012    2    1    2    0    0 -0.40118717802E+02  0.10301224063E+01 -0.16524239361E+02  0.47787272394E+02  0.20000006154E+02 0.  0.
        -12    1    1    2    0    0  0.40118717802E+02 -0.10301224063E+01  0.16524239361E+02  0.43400727606E+02  0.00000000000E+00 0.  1.
         11    1    3    3    0    0 -0.15857678340E+02 -0.48525793520E+00  0.21505859995E+01  0.16010198563E+02  0.51100000000E-03 0. -1.
        -11    1    3    3    0    0 -0.11955224094E+01  0.18281854486E+01 -0.14583294667E+00  0.21892472165E+01  0.51100000000E-03 0.  1.
         12    1    3    3    0    0 -0.23065517052E+02 -0.31280510705E+00 -0.18528992414E+02  0.29587826615E+02  0.00000000000E+00 0. -1.
</event>
<event>
 7    1  0.8300060E-011  0.4778727E+02  0.7816164E-02  0.1312668E+00
        -11   -1    0    0    0    0  0.00000000000E+00  0.00000000000E+00  0.45593999997E+02  0.45594000000E+02  0.51100000000E-03 0. -1.
         11   -1    0    0    0    0 -0.00000000000E+00 -0.00000000000E+00 -0.45593999997E+02  0.45594000000E+02  0.51100000000E-03 0.  1.
    9900012    2    1    2    0    0 -0.24112217342E+02  0.34379491041E+02 -0.10966980580E+02  0.47787273135E+02  0.20000009530E+02 0.  0.
         12    1    1    2    0    0  0.24112217342E+02 -0.34379491041E+02  0.10966980580E+02  0.43400726865E+02  0.00000000000E+00 0. -1.
         11    1    3    3    0    0 -0.64927547738E+01  0.44361425015E+01  0.28013412125E+01  0.83476186841E+01  0.51100000000E-03 0. -1.
        -11    1    3    3    0    0 -0.27448013382E+01  0.58613569798E+01 -0.84418703793E+01  0.10637415842E+02  0.51100000000E-03 0.  1.
        -12    1    3    3    0    0 -0.14874661230E+02  0.24081991560E+02 -0.53264514127E+01  0.28802238609E+02  0.00000000000E+00 0.  1.
</event>
<event>
 7    1  0.8300060E-011  0.4778726E+02  0.7816164E-02  0.1312668E+00
        -11   -1    0    0    0    0  0.00000000000E+00  0.00000000000E+00  0.45593999997E+02  0.45594000000E+02  0.51100000000E-03 0. -1.
         11   -1    0    0    0    0 -0.00000000000E+00 -0.00000000000E+00 -0.45593999997E+02  0.45594000000E+02  0.51100000000E-03 0.  1.
    9900012    2    1    2    0    0  0.35405904936E+01 -0.16049157795E+02 -0.40168553532E+02  0.47787263373E+02  0.19999965021E+02 0.  0.
         12    1    1    2    0    0 -0.35405904936E+01  0.16049157795E+02  0.40168553532E+02  0.43400736627E+02  0.00000000000E+00 0. -1.
         11    1    3    3    0    0 -0.30934760087E+01  0.18848138070E+01 -0.96725595670E+01  0.10328626518E+02  0.51100000000E-03 0. -1.
        -11    1    3    3    0    0 -0.27102022399E+01 -0.60383946424E+01 -0.88690533735E+01  0.11066504147E+02  0.51100000000E-03 0.  1.
         12    1    3    3    0    0  0.93442687422E+01 -0.11895576960E+02 -0.21626940591E+02  0.26392132708E+02  0.00000000000E+00 0. -1.
</event>
<event>
 7    1  0.8300060E-011  0.4778727E+02  0.7816164E-02  0.1312668E+00
        -11   -1    0    0    0    0  0.00000000000E+00  0.00000000000E+00  0.45593999997E+02  0.45594000000E+02  0.51100000000E-03 0. -1.
         11   -1    0    0    0    0 -0.00000000000E+00 -0.00000000000E+00 -0.45593999997E+02  0.45594000000E+02  0.51100000000E-03 0.  1.
    9900012    2    1    2    0    0  0.29276603485E+02 -0.32028981870E+02  0.80500851256E+00  0.47787271550E+02  0.20000002307E+02 0.  0.
        -12    1    1    2    0    0 -0.29276603485E+02  0.32028981870E+02 -0.80500851256E+00  0.43400728450E+02  0.00000000000E+00 0.  1.
         11    1    3    3    0    0  0.68966400127E+01 -0.46463533450E+01 -0.65897228472E+01  0.10610216319E+02  0.51100000000E-03 0. -1.
        -11    1    3    3    0    0  0.82674995913E+01 -0.10713098937E+02  0.72142757354E+01  0.15335182195E+02  0.51100000000E-03 0.  1.
        -12    1    3    3    0    0  0.14112463881E+02 -0.16669529588E+02  0.18045562443E+00  0.21841873036E+02  0.00000000000E+00 0.  1.
</event>
<event>
 7    1  0.8300060E-011  0.4778727E+02  0.7816164E-02  0.1312668E+00
        -11   -1    0    0    0    0  0.00000000000E+00  0.00000000000E+00  0.45593999997E+02  0.45594000000E+02  0.51100000000E-03 0. -1.
         11   -1    0    0    0    0 -0.00000000000E+00 -0.00000000000E+00 -0.45593999997E+02  0.45594000000E+02  0.51100000000E-03 0.  1.
    9900012    2    1    2    0    0 -0.42508708770E+00  0.18427305265E+02 -0.39292202604E+02  0.47787268856E+02  0.19999990023E+02 0.  0.
         12    1    1    2    0    0  0.42508708770E+00 -0.18427305265E+02  0.39292202604E+02  0.43400731144E+02  0.00000000000E+00 0. -1.
         11    1    3    3    0    0  0.37446946705E+01  0.50714833270E+01 -0.27194203268E+00  0.63100423169E+01  0.51100000000E-03 0. -1.
        -11    1    3    3    0    0 -0.30567666464E+01  0.90630744309E+01 -0.28435208483E+02  0.30000737028E+02  0.51100000000E-03 0.  1.
         12    1    3    3    0    0 -0.11130151119E+01  0.42927475069E+01 -0.10585052088E+02  0.11476489512E+02  0.00000000000E+00 0. -1.
</event>
<event>
 7    1  0.8300060E-011  0.4778727E+02  0.7816164E-02  0.1312668E+00
        -11   -1    0    0    0    0  0.00000000000E+00  0.00000000000E+00  0.45593999997E+02  0.45594000000E+02  0.51100000000E-03 0. -1.
         11   -1    0    0    0    0 -0.00000000000E+00 -0.00000000000E+00 -0.45593999997E+02  0.45594000000E+02  0.51100000000E-03 0.  1.
    9900012    2    1    2    0    0  0.33919108770E+02  0.13505873099E+02  0.23467177821E+02  0.47787274398E+02  0.20000015289E+02 0.  0.
        -12    1    1    2    0    0 -0.33919108770E+02 -0.13505873099E+02 -0.23467177821E+02  0.43400725602E+02  0.00000000000E+00 0.  1.
         11    1    3    3    0    0  0.92435062507E+01  0.97953429315E+01  0.16901464196E+01  0.13573788938E+02  0.51100000000E-03 0. -1.
        -11    1    3    3    0    0  0.54204047712E+01 -0.24676375205E+01  0.32358291733E+01  0.67779505396E+01  0.51100000000E-03 0.  1.
         12    1    3    3    0    0  0.19255197748E+02  0.61781676883E+01  0.18541202228E+02  0.27435534920E+02  0.00000000000E+00 0. -1.
</event>
<event>
 7    1  0.8300060E-011  0.4778728E+02  0.7816164E-02  0.1312668E+00
        -11   -1    0    0    0    0  0.00000000000E+00  0.00000000000E+00  0.45593999997E+02  0.45594000000E+02  0.51100000000E-03 0. -1.
         11   -1    0    0    0    0 -0.00000000000E+00 -0.00000000000E+00 -0.45593999997E+02  0.45594000000E+02  0.51100000000E-03 0.  1.
    9900012    2    1    2    0    0  0.15857572885E+02  0.36487212737E+02 -0.17344842483E+02  0.47787275676E+02  0.20000021116E+02 0.  0.
         12    1    1    2    0    0 -0.15857572885E+02 -0.36487212737E+02  0.17344842483E+02  0.43400724324E+02  0.00000000000E+00 0. -1.
         11    1    3    3    0    0  0.19368682774E+01 -0.14289716947E+01 -0.29394618916E+01  0.37991914010E+01  0.51100000000E-03 0. -1.
        -11    1    3    3    0    0  0.60826875355E+01  0.15980679966E+02 -0.10365165763E+01  0.17130545429E+02  0.51100000000E-03 0.  1.
         12    1    3    3    0    0  0.78380170716E+01  0.21935504466E+02 -0.13368864015E+02  0.26857538845E+02  0.00000000000E+00 0. -1.
</event>
<event>
 7    1  0.8300060E-011  0.4778727E+02  0.7816164E-02  0.1312668E+00
        -11   -1    0    0    0    0  0.00000000000E+00  0.00000000000E+00  0.45593999997E+02  0.45594000000E+02  0.51100000000E-03 0. -1.
         11   -1    0    0    0    0 -0.00000000000E+00 -0.00000000000E+00 -0.45593999997E+02  0.45594000000E+02  0.51100000000E-03 0.  1.
    9900012    2    1    2    0    0  0.20043844467E+02  0.59536621568E+01  0.38031844725E+02  0.47787274116E+02  0.20000014004E+02 0.  0.
        -12    1    1    2    0    0 -0.20043844467E+02 -0.59536621568E+01 -0.38031844725E+02  0.43400725884E+02  0.00000000000E+00 0.  1.
         11    1    3    3    0    0  0.10371754341E+02 -0.60652047843E+01  0.18698127365E+02  0.22225660044E+02  0.51100000000E-03 0.  1.
        -11    1    3    3    0    0  0.46278202186E+01  0.93704674049E+01  0.15501498919E+02  0.18695423193E+02  0.51100000000E-03 0. -1.
        -12    1    3    3    0    0  0.50442699077E+01  0.26483995362E+01  0.38322184408E+01  0.68661908787E+01  0.00000000000E+00 0.  1.
</event>
<event>
 7    1  0.8300060E-011  0.4778727E+02  0.7816164E-02  0.1312668E+00
        -11   -1    0    0    0    0  0.00000000000E+00  0.00000000000E+00  0.45593999997E+02  0.45594000000E+02  0.51100000000E-03 0. -1.
         11   -1    0    0    0    0 -0.00000000000E+00 -0.00000000000E+00 -0.45593999997E+02  0.45594000000E+02  0.51100000000E-03 0.  1.
    9900012    2    1    2    0    0  0.22111787205E+01  0.10130649900E+02 -0.42143845960E+02  0.47787272690E+02  0.20000007505E+02 0.  0.
         12    1    1    2    0    0 -0.22111787205E+01 -0.10130649900E+02  0.42143845960E+02  0.43400727310E+02  0.00000000000E+00 0. -1.
         11    1    3    3    0    0 -0.73065639590E+01  0.52625822842E+01 -0.13202797961E+02  0.15981067656E+02  0.51100000000E-03 0. -1.
        -11    1    3    3    0    0  0.87596832281E+01  0.61498387600E+01 -0.19461612842E+02  0.22210514215E+02  0.51100000000E-03 0.  1.
        -12    1    3    3    0    0  0.75805945137E+00 -0.12817711442E+01 -0.94794351573E+01  0.95956908193E+01  0.00000000000E+00 0.  1.
</event>
<event>
 7    1  0.8300060E-011  0.4778727E+02  0.7816164E-02  0.1312668E+00
        -11   -1    0    0    0    0  0.00000000000E+00  0.00000000000E+00  0.45593999997E+02  0.45594000000E+02  0.51100000000E-03 0. -1.
         11   -1    0    0    0    0 -0.00000000000E+00 -0.00000000000E+00 -0.45593999997E+02  0.45594000000E+02  0.51100000000E-03 0.  1.
    9900012    2    1    2    0    0 -0.42921083352E+02 -0.63927444440E+01  0.73258689890E+00  0.47787271190E+02  0.20000000665E+02 0.  0.
        -12    1    1    2    0    0  0.42921083352E+02  0.63927444440E+01 -0.73258689890E+00  0.43400728810E+02  0.00000000000E+00 0.  1.
         11    1    3    3    0    0 -0.12537490578E+02 -0.85328358400E+01  0.35113435140E+01  0.15566871587E+02  0.51100000000E-03 0. -1.
        -11    1    3    3    0    0 -0.19978205727E+02  0.21307451126E+01 -0.65813287715E+01  0.21141964607E+02  0.51100000000E-03 0.  1.
         12    1    3    3    0    0 -0.10405387047E+02  0.93462834292E-02  0.38025721565E+01  0.11078434996E+02  0.00000000000E+00 0. -1.
</event>
<event>
 7    1  0.8300060E-011  0.4778727E+02  0.7816164E-02  0.1312668E+00
        -11   -1    0    0    0    0  0.00000000000E+00  0.00000000000E+00  0.45593999997E+02  0.45594000000E+02  0.51100000000E-03 0. -1.
         11   -1    0    0    0    0 -0.00000000000E+00 -0.00000000000E+00 -0.45593999997E+02  0.45594000000E+02  0.51100000000E-03 0.  1.
    9900012    2    1    2    0    0  0.45547578140E+01  0.15187783807E+02  0.40400599391E+02  0.47787273890E+02  0.20000012974E+02 0.  0.
        -12    1    1    2    0    0 -0.45547578140E+01 -0.15187783807E+02 -0.40400599391E+02  0.43400726110E+02  0.00000000000E+00 0.  1.
         11    1    3    3    0    0 -0.45999388401E+01  0.11361720212E+02  0.12003183437E+02  0.17155889262E+02  0.51100000000E-03 0. -1.
        -11    1    3    3    0    0  0.22412284181E+01 -0.88933204687E+00  0.11797428453E+02  0.12041317814E+02  0.51100000000E-03 0.  1.
         12    1    3    3    0    0  0.69134682359E+01  0.47153956418E+01  0.16599987501E+02  0.18590066814E+02  0.00000000000E+00 0. -1.
</event>
