<event>
 7    1  0.2313935E-008  0.4614232E+02  0.7816164E-02  0.1320468E+00
        -11   -1    0    0    0    0  0.00000000000E+00  0.00000000000E+00  0.45593999997E+02  0.45594000000E+02  0.51100000000E-03 0. -1.
         11   -1    0    0    0    0 -0.00000000000E+00 -0.00000000000E+00 -0.45593999997E+02  0.45594000000E+02  0.51100000000E-03 0.  1.
    9900012    2    1    2    0    0  0.32173541528E+02 -0.16404333359E+02 -0.26923495502E+02  0.46142317217E+02  0.99999950341E+01 0.  0.
         12    1    1    2    0    0 -0.32173541528E+02  0.16404333359E+02  0.26923495502E+02  0.45045682783E+02  0.00000000000E+00 0. -1.
         11    1    3    3    0    0  0.60488319347E+01 -0.50638977274E+01 -0.29913728631E+01  0.84368086286E+01  0.51100000000E-03 0. -1.
        -11    1    3    3    0    0  0.12264694841E+01 -0.13418961213E+01 -0.36282475852E+01  0.40582130792E+01  0.51100000000E-03 0.  1.
        -12    1    3    3    0    0  0.24898240109E+02 -0.99985395102E+01 -0.20303875054E+02  0.33647295509E+02  0.00000000000E+00 0.  1.
</event>
<event>
 7    1  0.2313935E-008  0.4614232E+02  0.7816164E-02  0.1320468E+00
        -11   -1    0    0    0    0  0.00000000000E+00  0.00000000000E+00  0.45593999997E+02  0.45594000000E+02  0.51100000000E-03 0.  1.
         11   -1    0    0    0    0 -0.00000000000E+00 -0.00000000000E+00 -0.45593999997E+02  0.45594000000E+02  0.51100000000E-03 0. -1.
    9900012    2    1    2    0    0  0.33734904580E+02  0.24263130883E+02  0.17388795303E+02  0.46142317528E+02  0.99999978779E+01 0.  0.
         12    1    1    2    0    0 -0.33734904580E+02 -0.24263130883E+02 -0.17388795303E+02  0.45045682472E+02  0.00000000000E+00 0. -1.
         11    1    3    3    0    0  0.49386534116E+00  0.16911980504E+01  0.12754780232E+01  0.21750628197E+01  0.51100000000E-03 0. -1.
        -11    1    3    3    0    0  0.29831159818E+02  0.17080518064E+02  0.12609849211E+02  0.36614894385E+02  0.51100000000E-03 0.  1.
        -12    1    3    3    0    0  0.34098794203E+01  0.54914147687E+01  0.35034680685E+01  0.73523603237E+01  0.00000000000E+00 0.  1.
</event>
<event>
 7    1  0.2313935E-008  0.4614232E+02  0.7816164E-02  0.1320468E+00
        -11   -1    0    0    0    0  0.00000000000E+00  0.00000000000E+00  0.45593999997E+02  0.45594000000E+02  0.51100000000E-03 0.  1.
         11   -1    0    0    0    0 -0.00000000000E+00 -0.00000000000E+00 -0.45593999997E+02  0.45594000000E+02  0.51100000000E-03 0. -1.
    9900012    2    1    2    0    0 -0.20234711513E+02  0.28503323439E+01  0.40144057060E+02  0.46142320276E+02  0.10000022937E+02 0.  0.
         12    1    1    2    0    0  0.20234711513E+02 -0.28503323439E+01 -0.40144057060E+02  0.45045679724E+02  0.00000000000E+00 0. -1.
         11    1    3    3    0    0 -0.83661669445E+01  0.59297146713E-01  0.90100098154E+01  0.12295387047E+02  0.51100000000E-03 0. -1.
        -11    1    3    3    0    0 -0.23950177228E+01 -0.66586987008E+00  0.26643806958E+01  0.36439562744E+01  0.51100000000E-03 0.  1.
        -12    1    3    3    0    0 -0.94735268461E+01  0.34569050672E+01  0.28469666549E+02  0.30202976955E+02  0.00000000000E+00 0.  1.
</event>
<event>
 7    1  0.2313935E-008  0.4614232E+02  0.7816164E-02  0.1320468E+00
        -11   -1    0    0    0    0  0.00000000000E+00  0.00000000000E+00  0.45593999997E+02  0.45594000000E+02  0.51100000000E-03 0.  1.
         11   -1    0    0    0    0 -0.00000000000E+00 -0.00000000000E+00 -0.45593999997E+02  0.45594000000E+02  0.51100000000E-03 0. -1.
    9900012    2    1    2    0    0  0.42934961614E+02  0.13943575142E+01  0.13555751708E+02  0.46142316899E+02  0.99999921402E+01 0.  0.
         12    1    1    2    0    0 -0.42934961614E+02 -0.13943575142E+01 -0.13555751708E+02  0.45045683101E+02  0.00000000000E+00 0. -1.
         11    1    3    3    0    0  0.31639550441E+01  0.68740475371E+00 -0.10271062254E+01  0.33967755704E+01  0.51100000000E-03 0. -1.
        -11    1    3    3    0    0  0.28091578497E+02  0.62411585124E+00  0.74855423470E+01  0.29078508345E+02  0.51100000000E-03 0.  1.
        -12    1    3    3    0    0  0.11679428072E+02  0.82836909253E-01  0.70973155867E+01  0.13667032984E+02  0.00000000000E+00 0.  1.
</event>
<event>
 7    1  0.2313935E-008  0.4614232E+02  0.7816164E-02  0.1320468E+00
        -11   -1    0    0    0    0  0.00000000000E+00  0.00000000000E+00  0.45593999997E+02  0.45594000000E+02  0.51100000000E-03 0.  1.
         11   -1    0    0    0    0 -0.00000000000E+00 -0.00000000000E+00 -0.45593999997E+02  0.45594000000E+02  0.51100000000E-03 0. -1.
    9900012    2    1    2    0    0 -0.29668259218E+01  0.36527464265E+02  0.26192665293E+02  0.46142318555E+02  0.10000007240E+02 0.  0.
         12    1    1    2    0    0  0.29668259218E+01 -0.36527464265E+02 -0.26192665293E+02  0.45045681445E+02  0.00000000000E+00 0. -1.
         11    1    3    3    0    0 -0.35271643360E+01  0.15957751785E+02  0.91630482306E+01  0.18736386616E+02  0.51100000000E-03 0.  1.
        -11    1    3    3    0    0  0.97599838635E+00  0.15023765233E+02  0.15564774246E+02  0.21654752186E+02  0.51100000000E-03 0. -1.
        -12    1    3    3    0    0 -0.41565997222E+00  0.55459472469E+01  0.14648428159E+01  0.57511797532E+01  0.00000000000E+00 0.  1.
</event>
<event>
 7    1  0.2313935E-008  0.4614232E+02  0.7816164E-02  0.1320468E+00
        -11   -1    0    0    0    0  0.00000000000E+00  0.00000000000E+00  0.45593999997E+02  0.45594000000E+02  0.51100000000E-03 0.  1.
         11   -1    0    0    0    0 -0.00000000000E+00 -0.00000000000E+00 -0.45593999997E+02  0.45594000000E+02  0.51100000000E-03 0. -1.
    9900012    2    1    2    0    0  0.15199382873E+02 -0.41786657813E+02  0.72088465456E+01  0.46142317861E+02  0.10000000908E+02 0.  0.
         12    1    1    2    0    0 -0.15199382873E+02  0.41786657813E+02 -0.72088465456E+01  0.45045682139E+02  0.00000000000E+00 0. -1.
         11    1    3    3    0    0  0.52267885710E+01 -0.26224523539E+02  0.28935283614E+01  0.26896420956E+02  0.51100000000E-03 0. -1.
        -11    1    3    3    0    0  0.46356973656E+01 -0.73871976308E+01  0.36694149798E+01  0.94617643945E+01  0.51100000000E-03 0.  1.
        -12    1    3    3    0    0  0.53368969360E+01 -0.81749366429E+01  0.64590320434E+00  0.97841325098E+01  0.00000000000E+00 0.  1.
</event>
<event>
 7    1  0.2313935E-008  0.4614232E+02  0.7816164E-02  0.1320468E+00
        -11   -1    0    0    0    0  0.00000000000E+00  0.00000000000E+00  0.45593999997E+02  0.45594000000E+02  0.51100000000E-03 0.  1.
         11   -1    0    0    0    0 -0.00000000000E+00 -0.00000000000E+00 -0.45593999997E+02  0.45594000000E+02  0.51100000000E-03 0. -1.
    9900012    2    1    2    0    0 -0.24622540946E+02 -0.29469273626E+02  0.23545826212E+02  0.46142317158E+02  0.99999945042E+01 0.  0.
         12    1    1    2    0    0  0.24622540946E+02  0.29469273626E+02 -0.23545826212E+02  0.45045682842E+02  0.00000000000E+00 0. -1.
         11    1    3    3    0    0 -0.63514946273E+01 -0.69738366492E+01  0.41340551057E+01  0.10298849134E+02  0.51100000000E-03 0. -1.
        -11    1    3    3    0    0 -0.14202630163E+02 -0.11107729248E+02  0.11190171851E+02  0.21220657363E+02  0.51100000000E-03 0.  1.
         12    1    3    3    0    0 -0.40684161555E+01 -0.11387707729E+02  0.82215992550E+01  0.14622810662E+02  0.00000000000E+00 0. -1.
</event>
<event>
 7    1  0.2313935E-008  0.4614232E+02  0.7816164E-02  0.1320468E+00
        -11   -1    0    0    0    0  0.00000000000E+00  0.00000000000E+00  0.45593999997E+02  0.45594000000E+02  0.51100000000E-03 0.  1.
         11   -1    0    0    0    0 -0.00000000000E+00 -0.00000000000E+00 -0.45593999997E+02  0.45594000000E+02  0.51100000000E-03 0. -1.
    9900012    2    1    2    0    0 -0.65802496946E+01  0.71225434929E+01  0.43989578776E+02  0.46142319267E+02  0.10000013731E+02 0.  0.
         12    1    1    2    0    0  0.65802496946E+01 -0.71225434929E+01 -0.43989578776E+02  0.45045680733E+02  0.00000000000E+00 0. -1.
         11    1    3    3    0    0  0.14732694098E+01  0.82187525810E+00  0.92120373691E+01  0.93652354186E+01  0.51100000000E-03 0. -1.
        -11    1    3    3    0    0 -0.29734780475E+01 -0.60146265633E+00  0.13537381656E+02  0.13873140646E+02  0.51100000000E-03 0.  1.
         12    1    3    3    0    0 -0.50800410569E+01  0.69021308912E+01  0.21240159750E+02  0.22903943202E+02  0.00000000000E+00 0. -1.
</event>
<event>
 7    1  0.2313935E-008  0.4614231E+02  0.7816164E-02  0.1320468E+00
        -11   -1    0    0    0    0  0.00000000000E+00  0.00000000000E+00  0.45593999997E+02  0.45594000000E+02  0.51100000000E-03 0. -1.
         11   -1    0    0    0    0 -0.00000000000E+00 -0.00000000000E+00 -0.45593999997E+02  0.45594000000E+02  0.51100000000E-03 0.  1.
    9900012    2    1    2    0    0 -0.33689142223E+02  0.82699124489E+01 -0.28736109458E+02  0.46142314941E+02  0.99999742872E+01 0.  0.
         12    1    1    2    0    0  0.33689142223E+02 -0.82699124489E+01  0.28736109458E+02  0.45045685059E+02  0.00000000000E+00 0. -1.
         11    1    3    3    0    0 -0.11720062992E+02  0.29978031478E+01 -0.11050222718E+02  0.16384569650E+02  0.51100000000E-03 0. -1.
        -11    1    3    3    0    0 -0.11436323316E+02  0.67748671118E+01 -0.98164416750E+01  0.16524250143E+02  0.51100000000E-03 0.  1.
         12    1    3    3    0    0 -0.10532755915E+02 -0.15027578107E+01 -0.78694450653E+01  0.13233495148E+02  0.00000000000E+00 0. -1.
</event>
<event>
 7    1  0.2313935E-008  0.4614232E+02  0.7816164E-02  0.1320468E+00
        -11   -1    0    0    0    0  0.00000000000E+00  0.00000000000E+00  0.45593999997E+02  0.45594000000E+02  0.51100000000E-03 0. -1.
         11   -1    0    0    0    0 -0.00000000000E+00 -0.00000000000E+00 -0.45593999997E+02  0.45594000000E+02  0.51100000000E-03 0.  1.
    9900012    2    1    2    0    0  0.11723167497E+02 -0.23150102055E+01 -0.43431803747E+02  0.46142317575E+02  0.99999983052E+01 0.  0.
         12    1    1    2    0    0 -0.11723167497E+02  0.23150102055E+01  0.43431803747E+02  0.45045682425E+02  0.00000000000E+00 0. -1.
         11    1    3    3    0    0 -0.77415642213E+00 -0.19496534170E+01 -0.56928421493E+01  0.60670354054E+01  0.51100000000E-03 0. -1.
        -11    1    3    3    0    0  0.13465254560E+01  0.25382461712E+00 -0.10559296812E+01  0.17298975382E+01  0.51100000000E-03 0.  1.
        -12    1    3    3    0    0  0.11150798464E+02 -0.61918140559E+00 -0.36683031916E+02  0.38345384632E+02  0.00000000000E+00 0.  1.
</event>
<event>
 7    1  0.2313935E-008  0.4614232E+02  0.7816164E-02  0.1320468E+00
        -11   -1    0    0    0    0  0.00000000000E+00  0.00000000000E+00  0.45593999997E+02  0.45594000000E+02  0.51100000000E-03 0. -1.
         11   -1    0    0    0    0 -0.00000000000E+00 -0.00000000000E+00 -0.45593999997E+02  0.45594000000E+02  0.51100000000E-03 0.  1.
    9900012    2    1    2    0    0 -0.40730589880E+02  0.14607864132E+02 -0.12519682481E+02  0.46142322118E+02  0.10000039726E+02 0.  0.
         12    1    1    2    0    0  0.40730589880E+02 -0.14607864132E+02  0.12519682481E+02  0.45045677882E+02  0.00000000000E+00 0. -1.
         11    1    3    3    0    0 -0.54127656616E+01  0.20113854407E+01 -0.17555917718E+01  0.60353795431E+01  0.51100000000E-03 0. -1.
        -11    1    3    3    0    0 -0.31900970911E+02  0.79942094808E+01 -0.95753518354E+01  0.34252980794E+02  0.51100000000E-03 0.  1.
         12    1    3    3    0    0 -0.34168533074E+01  0.46022692107E+01 -0.11887388742E+01  0.58539617801E+01  0.00000000000E+00 0. -1.
</event>
<event>
 7    1  0.2313935E-008  0.4614232E+02  0.7816164E-02  0.1320468E+00
        -11   -1    0    0    0    0  0.00000000000E+00  0.00000000000E+00  0.45593999997E+02  0.45594000000E+02  0.51100000000E-03 0.  1.
         11   -1    0    0    0    0 -0.00000000000E+00 -0.00000000000E+00 -0.45593999997E+02  0.45594000000E+02  0.51100000000E-03 0. -1.
    9900012    2    1    2    0    0 -0.59487135173E+01  0.25514539161E+02  0.36643338593E+02  0.46142321358E+02  0.10000032799E+02 0.  0.
         12    1    1    2    0    0  0.59487135173E+01 -0.25514539161E+02 -0.36643338593E+02  0.45045678642E+02  0.00000000000E+00 0. -1.
         11    1    3    3    0    0  0.26406888086E+01  0.55323908846E+01  0.85693977365E+01  0.10536373385E+02  0.51100000000E-03 0. -1.
        -11    1    3    3    0    0 -0.38736512761E+01  0.87292248562E+01  0.14410304302E+02  0.17287608601E+02  0.51100000000E-03 0.  1.
         12    1    3    3    0    0 -0.47157510498E+01  0.11252923420E+02  0.13663636554E+02  0.18318339372E+02  0.00000000000E+00 0. -1.
</event>
<event>
 7    1  0.2313935E-008  0.4614232E+02  0.7816164E-02  0.1320468E+00
        -11   -1    0    0    0    0  0.00000000000E+00  0.00000000000E+00  0.45593999997E+02  0.45594000000E+02  0.51100000000E-03 0.  1.
         11   -1    0    0    0    0 -0.00000000000E+00 -0.00000000000E+00 -0.45593999997E+02  0.45594000000E+02  0.51100000000E-03 0. -1.
    9900012    2    1    2    0    0 -0.26886408082E+02 -0.21290139070E+02  0.29205555895E+02  0.46142318117E+02  0.10000003247E+02 0.  0.
         12    1    1    2    0    0  0.26886408082E+02  0.21290139070E+02 -0.29205555895E+02  0.45045681883E+02  0.00000000000E+00 0. -1.
         11    1    3    3    0    0 -0.14722505556E+00 -0.26844875358E-02  0.96126473188E+00  0.97247754182E+00  0.51100000000E-03 0. -1.
        -11    1    3    3    0    0 -0.15457616402E+02 -0.10203392202E+02  0.10085961411E+02  0.21089659435E+02  0.51100000000E-03 0.  1.
         12    1    3    3    0    0 -0.11281566624E+02 -0.11084062381E+02  0.18158329752E+02  0.24080181140E+02  0.00000000000E+00 0. -1.
</event>
<event>
 7    1  0.2313935E-008  0.4614232E+02  0.7816164E-02  0.1320468E+00
        -11   -1    0    0    0    0  0.00000000000E+00  0.00000000000E+00  0.45593999997E+02  0.45594000000E+02  0.51100000000E-03 0.  1.
         11   -1    0    0    0    0 -0.00000000000E+00 -0.00000000000E+00 -0.45593999997E+02  0.45594000000E+02  0.51100000000E-03 0. -1.
    9900012    2    1    2    0    0  0.91618571252E+01 -0.30395767733E+02  0.31957332988E+02  0.46142318145E+02  0.10000003504E+02 0.  0.
         12    1    1    2    0    0 -0.91618571252E+01  0.30395767733E+02 -0.31957332988E+02  0.45045681855E+02  0.00000000000E+00 0. -1.
         11    1    3    3    0    0  0.35615662621E+01 -0.13119316843E+02  0.16215675806E+02  0.21160089101E+02  0.51100000000E-03 0. -1.
        -11    1    3    3    0    0  0.40786955573E+01 -0.16936741942E+02  0.12681592084E+02  0.21547894633E+02  0.51100000000E-03 0.  1.
         12    1    3    3    0    0  0.15215953058E+01 -0.33970894725E+00  0.30600650980E+01  0.34343344111E+01  0.00000000000E+00 0. -1.
</event>
<event>
 7    1  0.2313935E-008  0.4614232E+02  0.7816164E-02  0.1320468E+00
        -11   -1    0    0    0    0  0.00000000000E+00  0.00000000000E+00  0.45593999997E+02  0.45594000000E+02  0.51100000000E-03 0.  1.
         11   -1    0    0    0    0 -0.00000000000E+00 -0.00000000000E+00 -0.45593999997E+02  0.45594000000E+02  0.51100000000E-03 0. -1.
    9900012    2    1    2    0    0  0.81375351114E+01 -0.41760481570E+02  0.14797171873E+02  0.46142316587E+02  0.99999892954E+01 0.  0.
         12    1    1    2    0    0 -0.81375351114E+01  0.41760481570E+02 -0.14797171873E+02  0.45045683413E+02  0.00000000000E+00 0. -1.
         11    1    3    3    0    0  0.32221073534E+01 -0.10497626191E+02  0.75897067373E+01  0.13348624651E+02  0.51100000000E-03 0. -1.
        -11    1    3    3    0    0  0.46858730366E+01 -0.18171844418E+02  0.27727343618E+01  0.18970012962E+02  0.51100000000E-03 0.  1.
         12    1    3    3    0    0  0.22955472141E+00 -0.13091010961E+02  0.44347307740E+01  0.13823678975E+02  0.00000000000E+00 0. -1.
</event>
<event>
 7    1  0.2313935E-008  0.4614232E+02  0.7816164E-02  0.1320468E+00
        -11   -1    0    0    0    0  0.00000000000E+00  0.00000000000E+00  0.45593999997E+02  0.45594000000E+02  0.51100000000E-03 0.  1.
         11   -1    0    0    0    0 -0.00000000000E+00 -0.00000000000E+00 -0.45593999997E+02  0.45594000000E+02  0.51100000000E-03 0. -1.
    9900012    2    1    2    0    0 -0.39301324430E+02 -0.16162865329E+02 -0.14942596876E+02  0.46142317422E+02  0.99999969042E+01 0.  0.
         12    1    1    2    0    0  0.39301324430E+02  0.16162865329E+02  0.14942596876E+02  0.45045682578E+02  0.00000000000E+00 0. -1.
         11    1    3    3    0    0 -0.16019381078E+01 -0.33992648472E+00 -0.18446316614E+01  0.24666621057E+01  0.51100000000E-03 0. -1.
        -11    1    3    3    0    0 -0.29641720658E+02 -0.99762158661E+01 -0.12567699796E+02  0.33706135420E+02  0.51100000000E-03 0.  1.
        -12    1    3    3    0    0 -0.80576656640E+01 -0.58467229779E+01 -0.53026541887E+00  0.99695198955E+01  0.00000000000E+00 0.  1.
</event>
<event>
 7    1  0.2313935E-008  0.4614232E+02  0.7816164E-02  0.1320468E+00
        -11   -1    0    0    0    0  0.00000000000E+00  0.00000000000E+00  0.45593999997E+02  0.45594000000E+02  0.51100000000E-03 0.  1.
         11   -1    0    0    0    0 -0.00000000000E+00 -0.00000000000E+00 -0.45593999997E+02  0.45594000000E+02  0.51100000000E-03 0. -1.
    9900012    2    1    2    0    0  0.14871453550E+02 -0.41703335112E+02  0.82936845045E+01  0.46142317712E+02  0.99999995508E+01 0.  0.
         12    1    1    2    0    0 -0.14871453550E+02  0.41703335112E+02 -0.82936845045E+01  0.45045682288E+02  0.00000000000E+00 0. -1.
         11    1    3    3    0    0  0.82751610455E+01 -0.24573398490E+02  0.36643562784E+01  0.26186975978E+02  0.51100000000E-03 0. -1.
        -11    1    3    3    0    0  0.49825583293E+01 -0.16919284574E+02  0.35192228086E+01  0.17985355361E+02  0.51100000000E-03 0.  1.
        -12    1    3    3    0    0  0.16137341750E+01 -0.21065204772E+00  0.11101054175E+01  0.19699863732E+01  0.00000000000E+00 0.  1.
</event>
<event>
 7    1  0.2313935E-008  0.4614232E+02  0.7816164E-02  0.1320468E+00
        -11   -1    0    0    0    0  0.00000000000E+00  0.00000000000E+00  0.45593999997E+02  0.45594000000E+02  0.51100000000E-03 0. -1.
         11   -1    0    0    0    0 -0.00000000000E+00 -0.00000000000E+00 -0.45593999997E+02  0.45594000000E+02  0.51100000000E-03 0.  1.
    9900012    2    1    2    0    0  0.13256236453E+02  0.40041901048E+02 -0.15812394769E+02  0.46142317934E+02  0.10000001581E+02 0.  0.
         12    1    1    2    0    0 -0.13256236453E+02 -0.40041901048E+02  0.15812394769E+02  0.45045682066E+02  0.00000000000E+00 0. -1.
         11    1    3    3    0    0  0.53746761427E+01  0.89870721021E+01 -0.43196757820E+00  0.10480515486E+02  0.51100000000E-03 0. -1.
        -11    1    3    3    0    0  0.11360528852E+01  0.39212177405E+01 -0.30908779575E+01  0.51205557838E+01  0.51100000000E-03 0.  1.
        -12    1    3    3    0    0  0.67455074251E+01  0.27133611205E+02 -0.12289549233E+02  0.30541246664E+02  0.00000000000E+00 0.  1.
</event>
<event>
 7    1  0.2313935E-008  0.4614232E+02  0.7816164E-02  0.1320468E+00
        -11   -1    0    0    0    0  0.00000000000E+00  0.00000000000E+00  0.45593999997E+02  0.45594000000E+02  0.51100000000E-03 0.  1.
         11   -1    0    0    0    0 -0.00000000000E+00 -0.00000000000E+00 -0.45593999997E+02  0.45594000000E+02  0.51100000000E-03 0. -1.
    9900012    2    1    2    0    0 -0.28554078968E+02  0.14832203190E+02  0.31524336770E+02  0.46142317787E+02  0.10000000240E+02 0.  0.
         12    1    1    2    0    0  0.28554078968E+02 -0.14832203190E+02 -0.31524336770E+02  0.45045682213E+02  0.00000000000E+00 0. -1.
         11    1    3    3    0    0 -0.10467581766E+01 -0.24325768855E+00 -0.42078877115E+00  0.11540972379E+01  0.51100000000E-03 0. -1.
        -11    1    3    3    0    0 -0.58320050422E+00  0.10347258252E+01  0.54327867322E+00  0.13061134481E+01  0.51100000000E-03 0.  1.
        -12    1    3    3    0    0 -0.26924120287E+02  0.14040735053E+02  0.31401846868E+02  0.43682107101E+02  0.00000000000E+00 0.  1.
</event>
<event>
 7    1  0.2313935E-008  0.4614232E+02  0.7816164E-02  0.1320468E+00
        -11   -1    0    0    0    0  0.00000000000E+00  0.00000000000E+00  0.45593999997E+02  0.45594000000E+02  0.51100000000E-03 0.  1.
         11   -1    0    0    0    0 -0.00000000000E+00 -0.00000000000E+00 -0.45593999997E+02  0.45594000000E+02  0.51100000000E-03 0. -1.
    9900012    2    1    2    0    0  0.76824847829E+01 -0.74948802834E+01  0.43748365604E+02  0.46142319898E+02  0.10000019482E+02 0.  0.
         12    1    1    2    0    0 -0.76824847829E+01  0.74948802834E+01 -0.43748365604E+02  0.45045680102E+02  0.00000000000E+00 0. -1.
         11    1    3    3    0    0  0.47805966435E+01 -0.31906097406E+01  0.15653424000E+02  0.16675244465E+02  0.51100000000E-03 0. -1.
        -11    1    3    3    0    0  0.39272509989E+01 -0.21880363942E+01  0.25773681591E+02  0.26162826045E+02  0.51100000000E-03 0.  1.
         12    1    3    3    0    0 -0.10253628595E+01 -0.21162341486E+01  0.23212600127E+01  0.33042493870E+01  0.00000000000E+00 0. -1.
</event>
<event>
 7    1  0.2313935E-008  0.4614232E+02  0.7816164E-02  0.1320468E+00
        -11   -1    0    0    0    0  0.00000000000E+00  0.00000000000E+00  0.45593999997E+02  0.45594000000E+02  0.51100000000E-03 0.  1.
         11   -1    0    0    0    0 -0.00000000000E+00 -0.00000000000E+00 -0.45593999997E+02  0.45594000000E+02  0.51100000000E-03 0. -1.
    9900012    2    1    2    0    0  0.26482672193E+02 -0.32381195339E+02  0.16710472384E+02  0.46142316240E+02  0.99999861283E+01 0.  0.
         12    1    1    2    0    0 -0.26482672193E+02  0.32381195339E+02 -0.16710472384E+02  0.45045683760E+02  0.00000000000E+00 0. -1.
         11    1    3    3    0    0  0.16622872891E+02 -0.15169414562E+02  0.67570192388E+01  0.23496560398E+02  0.51100000000E-03 0. -1.
        -11    1    3    3    0    0  0.64975645218E+01 -0.12249285060E+02  0.91139876201E+01  0.16593013584E+02  0.51100000000E-03 0.  1.
         12    1    3    3    0    0  0.33622347802E+01 -0.49624957182E+01  0.83946552533E+00  0.60527422578E+01  0.00000000000E+00 0. -1.
</event>
<event>
 7    1  0.2313935E-008  0.4614232E+02  0.7816164E-02  0.1320468E+00
        -11   -1    0    0    0    0  0.00000000000E+00  0.00000000000E+00  0.45593999997E+02  0.45594000000E+02  0.51100000000E-03 0.  1.
         11   -1    0    0    0    0 -0.00000000000E+00 -0.00000000000E+00 -0.45593999997E+02  0.45594000000E+02  0.51100000000E-03 0. -1.
    9900012    2    1    2    0    0 -0.33655974785E+02  0.28625005267E+02 -0.87748453576E+01  0.46142317895E+02  0.10000001222E+02 0.  0.
         12    1    1    2    0    0  0.33655974785E+02 -0.28625005267E+02  0.87748453576E+01  0.45045682105E+02  0.00000000000E+00 0. -1.
         11    1    3    3    0    0 -0.16747188467E+02  0.18718442686E+02 -0.83957424587E+01  0.26482766280E+02  0.51100000000E-03 0. -1.
        -11    1    3    3    0    0 -0.10263081452E+02  0.63660825001E+01 -0.90652474915E+00  0.12111136803E+02  0.51100000000E-03 0.  1.
         12    1    3    3    0    0 -0.66457048662E+01  0.35404800810E+01  0.52742185021E+00  0.75484148124E+01  0.00000000000E+00 0. -1.
</event>
<event>
 7    1  0.2313935E-008  0.4614232E+02  0.7816164E-02  0.1320468E+00
        -11   -1    0    0    0    0  0.00000000000E+00  0.00000000000E+00  0.45593999997E+02  0.45594000000E+02  0.51100000000E-03 0.  1.
         11   -1    0    0    0    0 -0.00000000000E+00 -0.00000000000E+00 -0.45593999997E+02  0.45594000000E+02  0.51100000000E-03 0. -1.
    9900012    2    1    2    0    0  0.35847430572E+02 -0.15101930977E+02  0.22715778187E+02  0.46142321223E+02  0.10000031568E+02 0.  0.
         12    1    1    2    0    0 -0.35847430572E+02  0.15101930977E+02 -0.22715778187E+02  0.45045678777E+02  0.00000000000E+00 0. -1.
         11    1    3    3    0    0  0.18797940957E+02 -0.54778078713E+01  0.11348099349E+02  0.22630694253E+02  0.51100000000E-03 0. -1.
        -11    1    3    3    0    0  0.12823460859E+02 -0.96148044584E+01  0.71807974074E+01  0.17562729425E+02  0.51100000000E-03 0.  1.
         12    1    3    3    0    0  0.42260287553E+01 -0.93186469638E-02  0.41868814310E+01  0.59488975446E+01  0.00000000000E+00 0. -1.
</event>
<event>
 7    1  0.2313935E-008  0.4614232E+02  0.7816164E-02  0.1320468E+00
        -11   -1    0    0    0    0  0.00000000000E+00  0.00000000000E+00  0.45593999997E+02  0.45594000000E+02  0.51100000000E-03 0. -1.
         11   -1    0    0    0    0 -0.00000000000E+00 -0.00000000000E+00 -0.45593999997E+02  0.45594000000E+02  0.51100000000E-03 0.  1.
    9900012    2    1    2    0    0  0.27753775619E+01  0.44922241850E+02  0.18447226697E+01  0.46142317242E+02  0.99999952633E+01 0.  0.
         12    1    1    2    0    0 -0.27753775619E+01 -0.44922241850E+02 -0.18447226697E+01  0.45045682758E+02  0.00000000000E+00 0. -1.
         11    1    3    3    0    0 -0.19700040696E+01  0.75326004457E+01 -0.48590292046E-01  0.77860995875E+01  0.51100000000E-03 0. -1.
        -11    1    3    3    0    0 -0.15648264458E+01  0.64724932483E+01 -0.69804324337E+00  0.66954548229E+01  0.51100000000E-03 0.  1.
        -12    1    3    3    0    0  0.63102080773E+01  0.30917148156E+02  0.25913562051E+01  0.31660762831E+02  0.00000000000E+00 0.  1.
</event>
<event>
 7    1  0.2313935E-008  0.4614232E+02  0.7816164E-02  0.1320468E+00
        -11   -1    0    0    0    0  0.00000000000E+00  0.00000000000E+00  0.45593999997E+02  0.45594000000E+02  0.51100000000E-03 0.  1.
         11   -1    0    0    0    0 -0.00000000000E+00 -0.00000000000E+00 -0.45593999997E+02  0.45594000000E+02  0.51100000000E-03 0. -1.
    9900012    2    1    2    0    0  0.24254299865E+02  0.10924140391E+02  0.36352518765E+02  0.46142317345E+02  0.99999962100E+01 0.  0.
         12    1    1    2    0    0 -0.24254299865E+02 -0.10924140391E+02 -0.36352518765E+02  0.45045682655E+02  0.00000000000E+00 0. -1.
         11    1    3    3    0    0  0.61932224374E+00  0.64490270328E+00 -0.49200162098E+00  0.10205515148E+01  0.51100000000E-03 0. -1.
        -11    1    3    3    0    0  0.45546133494E+01  0.35512154200E+01  0.71748547798E+01  0.92105469487E+01  0.51100000000E-03 0.  1.
        -12    1    3    3    0    0  0.19080364272E+02  0.67280222676E+01  0.29669665606E+02  0.35911218882E+02  0.00000000000E+00 0.  1.
</event>
<event>
 7    1  0.2313935E-008  0.4614232E+02  0.7816164E-02  0.1320468E+00
        -11   -1    0    0    0    0  0.00000000000E+00  0.00000000000E+00  0.45593999997E+02  0.45594000000E+02  0.51100000000E-03 0.  1.
         11   -1    0    0    0    0 -0.00000000000E+00 -0.00000000000E+00 -0.45593999997E+02  0.45594000000E+02  0.51100000000E-03 0. -1.
    9900012    2    1    2    0    0  0.25029167216E+02  0.34701802208E+01  0.37290912688E+02  0.46142317284E+02  0.99999956450E+01 0.  0.
         12    1    1    2    0    0 -0.25029167216E+02 -0.34701802208E+01 -0.37290912688E+02  0.45045682716E+02  0.00000000000E+00 0. -1.
         11    1    3    3    0    0  0.63358672808E+01  0.32242366602E+01  0.13308647280E+02  0.15088373303E+02  0.51100000000E-03 0. -1.
        -11    1    3    3    0    0  0.21415948649E+01  0.15782532475E+01  0.60782471221E+01  0.66349378457E+01  0.51100000000E-03 0.  1.
        -12    1    3    3    0    0  0.16551705070E+02 -0.13323096869E+01  0.17904018286E+02  0.24419006135E+02  0.00000000000E+00 0.  1.
</event>
<event>
 7    1  0.2313935E-008  0.4614232E+02  0.7816164E-02  0.1320468E+00
        -11   -1    0    0    0    0  0.00000000000E+00  0.00000000000E+00  0.45593999997E+02  0.45594000000E+02  0.51100000000E-03 0.  1.
         11   -1    0    0    0    0 -0.00000000000E+00 -0.00000000000E+00 -0.45593999997E+02  0.45594000000E+02  0.51100000000E-03 0. -1.
    9900012    2    1    2    0    0  0.28333617918E+02  0.18414480111E+02  0.29786346878E+02  0.46142318272E+02  0.10000004657E+02 0.  0.
         12    1    1    2    0    0 -0.28333617918E+02 -0.18414480111E+02 -0.29786346878E+02  0.45045681728E+02  0.00000000000E+00 0. -1.
         11    1    3    3    0    0  0.78469912886E+01  0.64284461690E+01  0.72609139168E+01  0.12474817177E+02  0.51100000000E-03 0. -1.
        -11    1    3    3    0    0  0.75367677480E+01  0.87775229307E+01  0.88857243457E+01  0.14587798816E+02  0.51100000000E-03 0.  1.
        -12    1    3    3    0    0  0.12949858881E+02  0.32085110108E+01  0.13639708615E+02  0.19079702279E+02  0.00000000000E+00 0.  1.
</event>
<event>
 7    1  0.2313935E-008  0.4614232E+02  0.7816164E-02  0.1320468E+00
        -11   -1    0    0    0    0  0.00000000000E+00  0.00000000000E+00  0.45593999997E+02  0.45594000000E+02  0.51100000000E-03 0.  1.
         11   -1    0    0    0    0 -0.00000000000E+00 -0.00000000000E+00 -0.45593999997E+02  0.45594000000E+02  0.51100000000E-03 0. -1.
    9900012    2    1    2    0    0  0.33825510932E+02  0.19651109327E+02  0.22333431880E+02  0.46142317997E+02  0.10000002153E+02 0.  0.
         12    1    1    2    0    0 -0.33825510932E+02 -0.19651109327E+02 -0.22333431880E+02  0.45045682003E+02  0.00000000000E+00 0. -1.
         11    1    3    3    0    0  0.32605496693E+01  0.52761288479E+01  0.57847701981E+01  0.84812903659E+01  0.51100000000E-03 0. -1.
        -11    1    3    3    0    0  0.11042852774E+02  0.46612582620E+01  0.50126858167E+01  0.12992264827E+02  0.51100000000E-03 0.  1.
         12    1    3    3    0    0  0.19522108488E+02  0.97137222168E+01  0.11535975865E+02  0.24668762805E+02  0.00000000000E+00 0. -1.
</event>
<event>
 7    1  0.2313935E-008  0.4614231E+02  0.7816164E-02  0.1320468E+00
        -11   -1    0    0    0    0  0.00000000000E+00  0.00000000000E+00  0.45593999997E+02  0.45594000000E+02  0.51100000000E-03 0.  1.
         11   -1    0    0    0    0 -0.00000000000E+00 -0.00000000000E+00 -0.45593999997E+02  0.45594000000E+02  0.51100000000E-03 0. -1.
    9900012    2    1    2    0    0  0.38654659856E+02 -0.21209151679E+02 -0.92251268111E+01  0.46142314212E+02  0.99999676324E+01 0.  0.
         12    1    1    2    0    0 -0.38654659856E+02  0.21209151679E+02  0.92251268111E+01  0.45045685788E+02  0.00000000000E+00 0. -1.
         11    1    3    3    0    0 -0.28849191124E+00 -0.13212254584E+00  0.36981791849E-01  0.31945557441E+00  0.51100000000E-03 0. -1.
        -11    1    3    3    0    0  0.10941400234E+02 -0.30060901423E+01 -0.47225186992E+00  0.11356664965E+02  0.51100000000E-03 0.  1.
        -12    1    3    3    0    0  0.28001751532E+02 -0.18070938990E+02 -0.87898567330E+01  0.34466193672E+02  0.00000000000E+00 0.  1.
</event>
<event>
 7    1  0.2313935E-008  0.4614231E+02  0.7816164E-02  0.1320468E+00
        -11   -1    0    0    0    0  0.00000000000E+00  0.00000000000E+00  0.45593999997E+02  0.45594000000E+02  0.51100000000E-03 0.  1.
         11   -1    0    0    0    0 -0.00000000000E+00 -0.00000000000E+00 -0.45593999997E+02  0.45594000000E+02  0.51100000000E-03 0. -1.
    9900012    2    1    2    0    0 -0.26240374796E+02 -0.35141887702E+02  0.10276407602E+02  0.46142311040E+02  0.99999387134E+01 0.  0.
         12    1    1    2    0    0  0.26240374796E+02  0.35141887702E+02 -0.10276407602E+02  0.45045688960E+02  0.00000000000E+00 0. -1.
         11    1    3    3    0    0 -0.14846175147E+01 -0.53583821657E+01 -0.11761909420E+01  0.56832890119E+01  0.51100000000E-03 0. -1.
        -11    1    3    3    0    0 -0.10158846400E+02 -0.11964105819E+02  0.58731257985E+01  0.16758150111E+02  0.51100000000E-03 0.  1.
        -12    1    3    3    0    0 -0.14596910881E+02 -0.17819399717E+02  0.55794727451E+01  0.23700871918E+02  0.00000000000E+00 0.  1.
</event>
<event>
 7    1  0.2313935E-008  0.4614232E+02  0.7816164E-02  0.1320468E+00
        -11   -1    0    0    0    0  0.00000000000E+00  0.00000000000E+00  0.45593999997E+02  0.45594000000E+02  0.51100000000E-03 0.  1.
         11   -1    0    0    0    0 -0.00000000000E+00 -0.00000000000E+00 -0.45593999997E+02  0.45594000000E+02  0.51100000000E-03 0. -1.
    9900012    2    1    2    0    0  0.33817556822E+02  0.29717318933E+02  0.15386221476E+01  0.46142317054E+02  0.99999935517E+01 0.  0.
         12    1    1    2    0    0 -0.33817556822E+02 -0.29717318933E+02 -0.15386221476E+01  0.45045682946E+02  0.00000000000E+00 0. -1.
         11    1    3    3    0    0  0.14331203746E+02  0.11180443842E+02  0.42406418261E+01  0.18664639527E+02  0.51100000000E-03 0. -1.
        -11    1    3    3    0    0  0.17607494287E+02  0.15437036176E+02 -0.90981928532E+00  0.23434028940E+02  0.51100000000E-03 0.  1.
         12    1    3    3    0    0  0.18788587895E+01  0.30998389153E+01 -0.17922003932E+01  0.40436485877E+01  0.00000000000E+00 0. -1.
</event>
<event>
 7    1  0.2313935E-008  0.4614232E+02  0.7816164E-02  0.1320468E+00
        -11   -1    0    0    0    0  0.00000000000E+00  0.00000000000E+00  0.45593999997E+02  0.45594000000E+02  0.51100000000E-03 0. -1.
         11   -1    0    0    0    0 -0.00000000000E+00 -0.00000000000E+00 -0.45593999997E+02  0.45594000000E+02  0.51100000000E-03 0.  1.
    9900012    2    1    2    0    0 -0.17437123024E+02  0.11133217780E+02 -0.40013894115E+02  0.46142317413E+02  0.99999968243E+01 0.  0.
         12    1    1    2    0    0  0.17437123024E+02 -0.11133217780E+02  0.40013894115E+02  0.45045682587E+02  0.00000000000E+00 0. -1.
         11    1    3    3    0    0 -0.17674246677E+00  0.89942992514E+00 -0.51543207770E+00  0.10516095177E+01  0.51100000000E-03 0. -1.
        -11    1    3    3    0    0 -0.80624025281E+01  0.10070724664E+00 -0.14893809345E+02  0.16936293382E+02  0.51100000000E-03 0.  1.
        -12    1    3    3    0    0 -0.91979780292E+01  0.10133080608E+02 -0.24604652693E+02  0.28154414513E+02  0.00000000000E+00 0.  1.
</event>
<event>
 7    1  0.2313935E-008  0.4614232E+02  0.7816164E-02  0.1320468E+00
        -11   -1    0    0    0    0  0.00000000000E+00  0.00000000000E+00  0.45593999997E+02  0.45594000000E+02  0.51100000000E-03 0.  1.
         11   -1    0    0    0    0 -0.00000000000E+00 -0.00000000000E+00 -0.45593999997E+02  0.45594000000E+02  0.51100000000E-03 0. -1.
    9900012    2    1    2    0    0  0.27358480863E+02 -0.17486561872E+01  0.35743100488E+02  0.46142317564E+02  0.99999982070E+01 0.  0.
         12    1    1    2    0    0 -0.27358480863E+02  0.17486561872E+01 -0.35743100488E+02  0.45045682436E+02  0.00000000000E+00 0. -1.
         11    1    3    3    0    0  0.54880957164E+01 -0.25696113366E+01  0.12568327728E+02  0.13952955212E+02  0.51100000000E-03 0. -1.
        -11    1    3    3    0    0  0.10389541916E+01  0.10518676064E+01  0.19715107230E+01  0.24642861168E+01  0.51100000000E-03 0.  1.
        -12    1    3    3    0    0  0.20831430955E+02 -0.23091245702E+00  0.21203262037E+02  0.29725076236E+02  0.00000000000E+00 0.  1.
</event>
<event>
 7    1  0.2313935E-008  0.4614232E+02  0.7816164E-02  0.1320468E+00
        -11   -1    0    0    0    0  0.00000000000E+00  0.00000000000E+00  0.45593999997E+02  0.45594000000E+02  0.51100000000E-03 0.  1.
         11   -1    0    0    0    0 -0.00000000000E+00 -0.00000000000E+00 -0.45593999997E+02  0.45594000000E+02  0.51100000000E-03 0. -1.
    9900012    2    1    2    0    0  0.27810433149E+02  0.53979015709E+01  0.35022220742E+02  0.46142317865E+02  0.10000000946E+02 0.  0.
         12    1    1    2    0    0 -0.27810433149E+02 -0.53979015709E+01 -0.35022220742E+02  0.45045682135E+02  0.00000000000E+00 0. -1.
         11    1    3    3    0    0  0.12521751974E+02  0.53939586283E+01  0.16523866815E+02  0.21422587075E+02  0.51100000000E-03 0. -1.
        -11    1    3    3    0    0  0.12886486473E+02 -0.81879784938E+00  0.17966809030E+02  0.22125509949E+02  0.51100000000E-03 0.  1.
         12    1    3    3    0    0  0.24021947011E+01  0.82274079199E+00  0.53154489747E+00  0.25942208408E+01  0.00000000000E+00 0. -1.
</event>
<event>
 7    1  0.2313935E-008  0.4614232E+02  0.7816164E-02  0.1320468E+00
        -11   -1    0    0    0    0  0.00000000000E+00  0.00000000000E+00  0.45593999997E+02  0.45594000000E+02  0.51100000000E-03 0.  1.
         11   -1    0    0    0    0 -0.00000000000E+00 -0.00000000000E+00 -0.45593999997E+02  0.45594000000E+02  0.51100000000E-03 0. -1.
    9900012    2    1    2    0    0 -0.14404793370E+02 -0.14894791166E+02  0.39997007460E+02  0.46142317835E+02  0.10000000678E+02 0.  0.
         12    1    1    2    0    0  0.14404793370E+02  0.14894791166E+02 -0.39997007460E+02  0.45045682165E+02  0.00000000000E+00 0. -1.
         11    1    3    3    0    0 -0.69029838046E+00 -0.19476719921E+00  0.69057047495E+01  0.69428527612E+01  0.51100000000E-03 0. -1.
        -11    1    3    3    0    0 -0.53975319287E+00 -0.54500284599E+00 -0.11235905946E+00  0.77523314604E+00  0.51100000000E-03 0.  1.
        -12    1    3    3    0    0 -0.13174741796E+02 -0.14155021121E+02  0.33203661770E+02  0.38424231928E+02  0.00000000000E+00 0.  1.
</event>
<event>
 7    1  0.2313935E-008  0.4614232E+02  0.7816164E-02  0.1320468E+00
        -11   -1    0    0    0    0  0.00000000000E+00  0.00000000000E+00  0.45593999997E+02  0.45594000000E+02  0.51100000000E-03 0.  1.
         11   -1    0    0    0    0 -0.00000000000E+00 -0.00000000000E+00 -0.45593999997E+02  0.45594000000E+02  0.51100000000E-03 0. -1.
    9900012    2    1    2    0    0  0.87461697525E+01 -0.31010474378E+02  0.31479651791E+02  0.46142317817E+02  0.10000000510E+02 0.  0.
         12    1    1    2    0    0 -0.87461697525E+01  0.31010474378E+02 -0.31479651791E+02  0.45045682183E+02  0.00000000000E+00 0. -1.
         11    1    3    3    0    0  0.18831683002E+01 -0.28280351131E+00  0.12557779333E+01  0.22810697385E+01  0.51100000000E-03 0. -1.
        -11    1    3    3    0    0  0.15365986340E+01 -0.71564423489E+01  0.46271546570E+01  0.86594666658E+01  0.51100000000E-03 0.  1.
         12    1    3    3    0    0  0.53264028184E+01 -0.23571228518E+02  0.25596719200E+02  0.35201781413E+02  0.00000000000E+00 0. -1.
</event>
<event>
 7    1  0.2313935E-008  0.4614232E+02  0.7816164E-02  0.1320468E+00
        -11   -1    0    0    0    0  0.00000000000E+00  0.00000000000E+00  0.45593999997E+02  0.45594000000E+02  0.51100000000E-03 0.  1.
         11   -1    0    0    0    0 -0.00000000000E+00 -0.00000000000E+00 -0.45593999997E+02  0.45594000000E+02  0.51100000000E-03 0. -1.
    9900012    2    1    2    0    0  0.55888665920E+01  0.75451049271E+01  0.44056208866E+02  0.46142316768E+02  0.99999909480E+01 0.  0.
         12    1    1    2    0    0 -0.55888665920E+01 -0.75451049271E+01 -0.44056208866E+02  0.45045683232E+02  0.00000000000E+00 0. -1.
         11    1    3    3    0    0  0.13868841438E+01  0.16809360874E+01  0.12576426971E+01  0.25160801205E+01  0.51100000000E-03 0. -1.
        -11    1    3    3    0    0  0.25866612719E+01  0.17603127826E+01  0.87371398614E+01  0.92804704001E+01  0.51100000000E-03 0.  1.
        -12    1    3    3    0    0  0.16153211763E+01  0.41038560571E+01  0.34061426308E+02  0.34345766248E+02  0.00000000000E+00 0.  1.
</event>
<event>
 7    1  0.2478810E-008  0.4614232E+02  0.7816164E-02  0.1320468E+00
        -11   -1    0    0    0    0  0.00000000000E+00  0.00000000000E+00  0.45593999997E+02  0.45594000000E+02  0.51100000000E-03 0. -1.
         11   -1    0    0    0    0 -0.00000000000E+00 -0.00000000000E+00 -0.45593999997E+02  0.45594000000E+02  0.51100000000E-03 0.  1.
    9900012    2    1    2    0    0  0.22115050882E+02  0.28969261075E+02 -0.26473004645E+02  0.46142317214E+02  0.99999950085E+01 0.  0.
         12    1    1    2    0    0 -0.22115050882E+02 -0.28969261075E+02  0.26473004645E+02  0.45045682786E+02  0.00000000000E+00 0. -1.
         11    1    3    3    0    0  0.82356399441E+00 -0.42310069033E+00 -0.14754885890E+01  0.17419353272E+01  0.51100000000E-03 0. -1.
        -11    1    3    3    0    0  0.18543654222E+00 -0.24026532199E+00 -0.31189526202E+00  0.43519312004E+00  0.51100000000E-03 0.  1.
        -12    1    3    3    0    0  0.21106050345E+02  0.29632627088E+02 -0.24685620794E+02  0.43965188766E+02  0.00000000000E+00 0.  1.
</event>
<event>
 7    1  0.2313935E-008  0.4614232E+02  0.7816164E-02  0.1320468E+00
        -11   -1    0    0    0    0  0.00000000000E+00  0.00000000000E+00  0.45593999997E+02  0.45594000000E+02  0.51100000000E-03 0.  1.
         11   -1    0    0    0    0 -0.00000000000E+00 -0.00000000000E+00 -0.45593999997E+02  0.45594000000E+02  0.51100000000E-03 0. -1.
    9900012    2    1    2    0    0 -0.23584490531E+02 -0.31761703719E+02  0.21542504448E+02  0.46142317469E+02  0.99999973387E+01 0.  0.
         12    1    1    2    0    0  0.23584490531E+02  0.31761703719E+02 -0.21542504448E+02  0.45045682531E+02  0.00000000000E+00 0. -1.
         11    1    3    3    0    0 -0.45199597670E+01 -0.35039667951E+01  0.37007353879E+00  0.57310360566E+01  0.51100000000E-03 0. -1.
        -11    1    3    3    0    0 -0.15252901424E+01 -0.33370102356E+01  0.40160213985E+01  0.54397220026E+01  0.51100000000E-03 0.  1.
        -12    1    3    3    0    0 -0.17539240622E+02 -0.24920726689E+02  0.17156409511E+02  0.34971559410E+02  0.00000000000E+00 0.  1.
</event>
<event>
 7    1  0.2313935E-008  0.4614233E+02  0.7816164E-02  0.1320468E+00
        -11   -1    0    0    0    0  0.00000000000E+00  0.00000000000E+00  0.45593999997E+02  0.45594000000E+02  0.51100000000E-03 0.  1.
         11   -1    0    0    0    0 -0.00000000000E+00 -0.00000000000E+00 -0.45593999997E+02  0.45594000000E+02  0.51100000000E-03 0. -1.
    9900012    2    1    2    0    0  0.27555154686E+02 -0.23193290989E+02  0.27053591926E+02  0.46142332808E+02  0.10000137208E+02 0.  0.
         12    1    1    2    0    0 -0.27555154686E+02  0.23193290989E+02 -0.27053591926E+02  0.45045667192E+02  0.00000000000E+00 0. -1.
         11    1    3    3    0    0  0.12598904233E+02 -0.80247014817E+01  0.11587218258E+02  0.18904810207E+02  0.51100000000E-03 0. -1.
        -11    1    3    3    0    0  0.14821600658E+02 -0.15764043630E+02  0.15514881977E+02  0.26625109965E+02  0.51100000000E-03 0.  1.
        -12    1    3    3    0    0  0.13464979573E+00  0.59545412298E+00 -0.48508309513E-01  0.61241263553E+00  0.00000000000E+00 0.  1.
</event>
<event>
 7    1  0.2313935E-008  0.4614233E+02  0.7816164E-02  0.1320468E+00
        -11   -1    0    0    0    0  0.00000000000E+00  0.00000000000E+00  0.45593999997E+02  0.45594000000E+02  0.51100000000E-03 0.  1.
         11   -1    0    0    0    0 -0.00000000000E+00 -0.00000000000E+00 -0.45593999997E+02  0.45594000000E+02  0.51100000000E-03 0. -1.
    9900012    2    1    2    0    0 -0.41456572850E+02 -0.60169206736E+01  0.16560855546E+02  0.46142326476E+02  0.10000079466E+02 0.  0.
         12    1    1    2    0    0  0.41456572850E+02  0.60169206736E+01 -0.16560855546E+02  0.45045673524E+02  0.00000000000E+00 0. -1.
         11    1    3    3    0    0 -0.23623365700E+01 -0.19041157724E+01  0.20132655267E+01  0.36413636576E+01  0.51100000000E-03 0. -1.
        -11    1    3    3    0    0 -0.56354286741E+01 -0.17031817468E+01  0.47196756064E+01  0.75454769560E+01  0.51100000000E-03 0.  1.
        -12    1    3    3    0    0 -0.33458807606E+02 -0.24096231544E+01  0.98279144134E+01  0.34955485862E+02  0.00000000000E+00 0.  1.
</event>
<event>
 7    1  0.2313935E-008  0.4614232E+02  0.7816164E-02  0.1320468E+00
        -11   -1    0    0    0    0  0.00000000000E+00  0.00000000000E+00  0.45593999997E+02  0.45594000000E+02  0.51100000000E-03 0.  1.
         11   -1    0    0    0    0 -0.00000000000E+00 -0.00000000000E+00 -0.45593999997E+02  0.45594000000E+02  0.51100000000E-03 0. -1.
    9900012    2    1    2    0    0 -0.81514062125E+01  0.20591117725E+02  0.39225930236E+02  0.46142321458E+02  0.10000033714E+02 0.  0.
         12    1    1    2    0    0  0.81514062125E+01 -0.20591117725E+02 -0.39225930236E+02  0.45045678542E+02  0.00000000000E+00 0. -1.
         11    1    3    3    0    0 -0.19951624208E+01  0.65828361713E+01  0.18250285060E+02  0.19503520456E+02  0.51100000000E-03 0.  1.
        -11    1    3    3    0    0 -0.31725707146E+01  0.93399484255E+01  0.17529088914E+02  0.20113895693E+02  0.51100000000E-03 0. -1.
         12    1    3    3    0    0 -0.29836730770E+01  0.46683331286E+01  0.34465562613E+01  0.65249053091E+01  0.00000000000E+00 0. -1.
</event>
<event>
 7    1  0.2313935E-008  0.4614232E+02  0.7816164E-02  0.1320468E+00
        -11   -1    0    0    0    0  0.00000000000E+00  0.00000000000E+00  0.45593999997E+02  0.45594000000E+02  0.51100000000E-03 0. -1.
         11   -1    0    0    0    0 -0.00000000000E+00 -0.00000000000E+00 -0.45593999997E+02  0.45594000000E+02  0.51100000000E-03 0.  1.
    9900012    2    1    2    0    0  0.37608551437E+02  0.19100860685E+02 -0.15807197313E+02  0.46142317554E+02  0.99999981139E+01 0.  0.
         12    1    1    2    0    0 -0.37608551437E+02 -0.19100860685E+02  0.15807197313E+02  0.45045682446E+02  0.00000000000E+00 0. -1.
         11    1    3    3    0    0  0.12262469612E+02  0.95150009530E+01 -0.30457928027E+01  0.15817087538E+02  0.51100000000E-03 0. -1.
        -11    1    3    3    0    0  0.14352521299E+02  0.79001331466E+01 -0.73407614134E+01  0.17952541597E+02  0.51100000000E-03 0.  1.
         12    1    3    3    0    0  0.10993560526E+02  0.16857265855E+01 -0.54206430967E+01  0.12372688420E+02  0.00000000000E+00 0. -1.
</event>
<event>
 7    1  0.2313935E-008  0.4614231E+02  0.7816164E-02  0.1320468E+00
        -11   -1    0    0    0    0  0.00000000000E+00  0.00000000000E+00  0.45593999997E+02  0.45594000000E+02  0.51100000000E-03 0.  1.
         11   -1    0    0    0    0 -0.00000000000E+00 -0.00000000000E+00 -0.45593999997E+02  0.45594000000E+02  0.51100000000E-03 0. -1.
    9900012    2    1    2    0    0  0.36908246530E+02  0.23509345081E+02  0.10686711922E+02  0.46142314527E+02  0.99999705052E+01 0.  0.
         12    1    1    2    0    0 -0.36908246530E+02 -0.23509345081E+02 -0.10686711922E+02  0.45045685473E+02  0.00000000000E+00 0. -1.
         11    1    3    3    0    0  0.94972213155E+01  0.55433662651E+01  0.68369743378E+01  0.12948758266E+02  0.51100000000E-03 0. -1.
        -11    1    3    3    0    0  0.44312375498E+01  0.44674652083E+01  0.21802312523E+00  0.62961612078E+01  0.51100000000E-03 0.  1.
        -12    1    3    3    0    0  0.22979787665E+02  0.13498513608E+02  0.36317144585E+01  0.26897395053E+02  0.00000000000E+00 0.  1.
</event>
<event>
 7    1  0.2313935E-008  0.4614232E+02  0.7816164E-02  0.1320468E+00
        -11   -1    0    0    0    0  0.00000000000E+00  0.00000000000E+00  0.45593999997E+02  0.45594000000E+02  0.51100000000E-03 0. -1.
         11   -1    0    0    0    0 -0.00000000000E+00 -0.00000000000E+00 -0.45593999997E+02  0.45594000000E+02  0.51100000000E-03 0.  1.
    9900012    2    1    2    0    0  0.11583157882E+02 -0.40022999657E+02  0.17120263765E+02  0.46142317860E+02  0.10000000899E+02 0.  0.
         12    1    1    2    0    0 -0.11583157882E+02  0.40022999657E+02 -0.17120263765E+02  0.45045682140E+02  0.00000000000E+00 0. -1.
         11    1    3    3    0    0 -0.58710139096E+00 -0.39496396463E+01  0.40335442887E+00  0.40133572524E+01  0.51100000000E-03 0. -1.
        -11    1    3    3    0    0  0.39322374440E+01 -0.16514365950E+02  0.41932328780E+01  0.17486279658E+02  0.51100000000E-03 0.  1.
         12    1    3    3    0    0  0.82380218287E+01 -0.19558994061E+02  0.12523676458E+02  0.24642680949E+02  0.00000000000E+00 0. -1.
</event>
<event>
 7    1  0.2313935E-008  0.4614232E+02  0.7816164E-02  0.1320468E+00
        -11   -1    0    0    0    0  0.00000000000E+00  0.00000000000E+00  0.45593999997E+02  0.45594000000E+02  0.51100000000E-03 0.  1.
         11   -1    0    0    0    0 -0.00000000000E+00 -0.00000000000E+00 -0.45593999997E+02  0.45594000000E+02  0.51100000000E-03 0. -1.
    9900012    2    1    2    0    0  0.34547665161E+02  0.26017728808E+02  0.12595643363E+02  0.46142316387E+02  0.99999874740E+01 0.  0.
         12    1    1    2    0    0 -0.34547665161E+02 -0.26017728808E+02 -0.12595643363E+02  0.45045683613E+02  0.00000000000E+00 0. -1.
         11    1    3    3    0    0  0.11989739911E+02  0.11815568342E+02  0.76700899579E+01  0.18498426922E+02  0.51100000000E-03 0. -1.
        -11    1    3    3    0    0  0.17835327999E+02  0.88490920112E+01  0.49055324556E+01  0.20505355476E+02  0.51100000000E-03 0.  1.
         12    1    3    3    0    0  0.47225972511E+01  0.53530684556E+01  0.20020949259E-01  0.71385339899E+01  0.00000000000E+00 0. -1.
</event>
<event>
 7    1  0.2313935E-008  0.4614232E+02  0.7816164E-02  0.1320468E+00
        -11   -1    0    0    0    0  0.00000000000E+00  0.00000000000E+00  0.45593999997E+02  0.45594000000E+02  0.51100000000E-03 0. -1.
         11   -1    0    0    0    0 -0.00000000000E+00 -0.00000000000E+00 -0.45593999997E+02  0.45594000000E+02  0.51100000000E-03 0.  1.
    9900012    2    1    2    0    0 -0.17688123881E+02  0.66064689358E+01 -0.40897412273E+02  0.46142317755E+02  0.99999999465E+01 0.  0.
         12    1    1    2    0    0  0.17688123881E+02 -0.66064689358E+01  0.40897412273E+02  0.45045682245E+02  0.00000000000E+00 0. -1.
         11    1    3    3    0    0 -0.21883065793E+00  0.74475766956E+00 -0.79550512111E+01  0.79928337200E+01  0.51100000000E-03 0. -1.
        -11    1    3    3    0    0 -0.43600971278E+01  0.13996863844E+01 -0.13680054532E+02  0.14426138125E+02  0.51100000000E-03 0.  1.
         12    1    3    3    0    0 -0.13109196096E+02  0.44620248818E+01 -0.19262306530E+02  0.23723345910E+02  0.00000000000E+00 0. -1.
</event>
<event>
 7    1  0.2313935E-008  0.4614232E+02  0.7816164E-02  0.1320468E+00
        -11   -1    0    0    0    0  0.00000000000E+00  0.00000000000E+00  0.45593999997E+02  0.45594000000E+02  0.51100000000E-03 0.  1.
         11   -1    0    0    0    0 -0.00000000000E+00 -0.00000000000E+00 -0.45593999997E+02  0.45594000000E+02  0.51100000000E-03 0. -1.
    9900012    2    1    2    0    0 -0.20864055617E+02  0.28598883751E+02 -0.27855134665E+02  0.46142317679E+02  0.99999992530E+01 0.  0.
         12    1    1    2    0    0  0.20864055617E+02 -0.28598883751E+02  0.27855134665E+02  0.45045682321E+02  0.00000000000E+00 0. -1.
         11    1    3    3    0    0  0.75989397811E+00  0.83229936058E+00 -0.25205559086E+01  0.27610439027E+01  0.51100000000E-03 0. -1.
        -11    1    3    3    0    0 -0.92795582023E+01  0.10931267803E+02 -0.10325982770E+02  0.17669995377E+02  0.51100000000E-03 0.  1.
         12    1    3    3    0    0 -0.12344391393E+02  0.16835316587E+02 -0.15008595987E+02  0.25711278399E+02  0.00000000000E+00 0. -1.
</event>
<event>
 7    1  0.2313935E-008  0.4614232E+02  0.7816164E-02  0.1320468E+00
        -11   -1    0    0    0    0  0.00000000000E+00  0.00000000000E+00  0.45593999997E+02  0.45594000000E+02  0.51100000000E-03 0.  1.
         11   -1    0    0    0    0 -0.00000000000E+00 -0.00000000000E+00 -0.45593999997E+02  0.45594000000E+02  0.51100000000E-03 0. -1.
    9900012    2    1    2    0    0 -0.44025849140E+02  0.37719204485E+01  0.87527675773E+01  0.46142315228E+02  0.99999768997E+01 0.  0.
         12    1    1    2    0    0  0.44025849140E+02 -0.37719204485E+01 -0.87527675773E+01  0.45045684772E+02  0.00000000000E+00 0. -1.
         11    1    3    3    0    0 -0.72739497965E+01 -0.14134369060E+01  0.34737043389E+01  0.81838115585E+01  0.51100000000E-03 0. -1.
        -11    1    3    3    0    0 -0.32275965486E+02  0.26346006415E+01  0.52536736127E+01  0.32806708998E+02  0.51100000000E-03 0.  1.
        -12    1    3    3    0    0 -0.44759338567E+01  0.25507567130E+01  0.25389625577E-01  0.51517946709E+01  0.00000000000E+00 0.  1.
</event>
<event>
 7    1  0.2313935E-008  0.4614232E+02  0.7816164E-02  0.1320468E+00
        -11   -1    0    0    0    0  0.00000000000E+00  0.00000000000E+00  0.45593999997E+02  0.45594000000E+02  0.51100000000E-03 0.  1.
         11   -1    0    0    0    0 -0.00000000000E+00 -0.00000000000E+00 -0.45593999997E+02  0.45594000000E+02  0.51100000000E-03 0. -1.
    9900012    2    1    2    0    0 -0.20750947922E+02 -0.32575194326E+02  0.23181208570E+02  0.46142317012E+02  0.99999931714E+01 0.  0.
         12    1    1    2    0    0  0.20750947922E+02  0.32575194326E+02 -0.23181208570E+02  0.45045682988E+02  0.00000000000E+00 0. -1.
         11    1    3    3    0    0 -0.34038581489E+01 -0.15621150835E+01  0.24171899553E+01  0.44574949661E+01  0.51100000000E-03 0. -1.
        -11    1    3    3    0    0 -0.11210128984E+01 -0.59816120719E+01  0.53710545845E+01  0.81169317176E+01  0.51100000000E-03 0.  1.
        -12    1    3    3    0    0 -0.16226076874E+02 -0.25031467171E+02  0.15392964030E+02  0.33567890329E+02  0.00000000000E+00 0.  1.
</event>
<event>
 7    1  0.2313935E-008  0.4614232E+02  0.7816164E-02  0.1320468E+00
        -11   -1    0    0    0    0  0.00000000000E+00  0.00000000000E+00  0.45593999997E+02  0.45594000000E+02  0.51100000000E-03 0.  1.
         11   -1    0    0    0    0 -0.00000000000E+00 -0.00000000000E+00 -0.45593999997E+02  0.45594000000E+02  0.51100000000E-03 0. -1.
    9900012    2    1    2    0    0  0.75878880433E+01 -0.11881669923E+02  0.42782745703E+02  0.46142318132E+02  0.10000003379E+02 0.  0.
         12    1    1    2    0    0 -0.75878880433E+01  0.11881669923E+02 -0.42782745703E+02  0.45045681868E+02  0.00000000000E+00 0. -1.
         11    1    3    3    0    0  0.43349122380E+01 -0.30842450668E+01  0.56802994882E+01  0.77826624159E+01  0.51100000000E-03 0. -1.
        -11    1    3    3    0    0  0.11271521497E+01 -0.55321872678E+01  0.18029774178E+02  0.18893076115E+02  0.51100000000E-03 0.  1.
         12    1    3    3    0    0  0.21258236555E+01 -0.32652375889E+01  0.19072672036E+02  0.19466579600E+02  0.00000000000E+00 0. -1.
</event>
<event>
 7    1  0.2313935E-008  0.4614232E+02  0.7816164E-02  0.1320468E+00
        -11   -1    0    0    0    0  0.00000000000E+00  0.00000000000E+00  0.45593999997E+02  0.45594000000E+02  0.51100000000E-03 0. -1.
         11   -1    0    0    0    0 -0.00000000000E+00 -0.00000000000E+00 -0.45593999997E+02  0.45594000000E+02  0.51100000000E-03 0.  1.
    9900012    2    1    2    0    0 -0.16888031234E+02 -0.26135116003E+02 -0.32570900463E+02  0.46142318249E+02  0.10000004450E+02 0.  0.
         12    1    1    2    0    0  0.16888031234E+02  0.26135116003E+02  0.32570900463E+02  0.45045681751E+02  0.00000000000E+00 0. -1.
         11    1    3    3    0    0 -0.24040817440E+01 -0.71495449973E+01 -0.58719112965E+01  0.95590242826E+01  0.51100000000E-03 0. -1.
        -11    1    3    3    0    0 -0.23220862406E+01 -0.20146709423E+01 -0.79428422883E+01  0.85170257363E+01  0.51100000000E-03 0.  1.
        -12    1    3    3    0    0 -0.12161863249E+02 -0.16970900064E+02 -0.18756146878E+02  0.28066268230E+02  0.00000000000E+00 0.  1.
</event>
<event>
 7    1  0.2313935E-008  0.4614232E+02  0.7816164E-02  0.1320468E+00
        -11   -1    0    0    0    0  0.00000000000E+00  0.00000000000E+00  0.45593999997E+02  0.45594000000E+02  0.51100000000E-03 0.  1.
         11   -1    0    0    0    0 -0.00000000000E+00 -0.00000000000E+00 -0.45593999997E+02  0.45594000000E+02  0.51100000000E-03 0. -1.
    9900012    2    1    2    0    0 -0.19421907140E+02  0.38527603506E+02  0.12943212905E+02  0.46142317974E+02  0.10000001944E+02 0.  0.
         12    1    1    2    0    0  0.19421907140E+02 -0.38527603506E+02 -0.12943212905E+02  0.45045682026E+02  0.00000000000E+00 0. -1.
         11    1    3    3    0    0 -0.53473511197E+01  0.12135221923E+02  0.10884152194E+01  0.13305728957E+02  0.51100000000E-03 0. -1.
        -11    1    3    3    0    0 -0.10952796513E+02  0.14483820483E+02  0.86583468842E+01  0.20117449597E+02  0.51100000000E-03 0.  1.
        -12    1    3    3    0    0 -0.31217595070E+01  0.11908561100E+02  0.31964508013E+01  0.12719139421E+02  0.00000000000E+00 0.  1.
</event>
<event>
 7    1  0.2313935E-008  0.4614232E+02  0.7816164E-02  0.1320468E+00
        -11   -1    0    0    0    0  0.00000000000E+00  0.00000000000E+00  0.45593999997E+02  0.45594000000E+02  0.51100000000E-03 0.  1.
         11   -1    0    0    0    0 -0.00000000000E+00 -0.00000000000E+00 -0.45593999997E+02  0.45594000000E+02  0.51100000000E-03 0. -1.
    9900012    2    1    2    0    0  0.24438545289E+02 -0.32315745807E+02  0.19686633062E+02  0.46142318250E+02  0.10000004462E+02 0.  0.
         12    1    1    2    0    0 -0.24438545289E+02  0.32315745807E+02 -0.19686633062E+02  0.45045681750E+02  0.00000000000E+00 0. -1.
         11    1    3    3    0    0  0.24749146000E+01 -0.43746764901E+01  0.52174848990E+01  0.72446632498E+01  0.51100000000E-03 0. -1.
        -11    1    3    3    0    0  0.67777403595E+01 -0.44587682134E+01  0.39081094752E+01  0.90050929086E+01  0.51100000000E-03 0.  1.
        -12    1    3    3    0    0  0.15185890330E+02 -0.23482301104E+02  0.10561038688E+02  0.29892562092E+02  0.00000000000E+00 0.  1.
</event>
<event>
 7    1  0.2313935E-008  0.4614232E+02  0.7816164E-02  0.1320468E+00
        -11   -1    0    0    0    0  0.00000000000E+00  0.00000000000E+00  0.45593999997E+02  0.45594000000E+02  0.51100000000E-03 0.  1.
         11   -1    0    0    0    0 -0.00000000000E+00 -0.00000000000E+00 -0.45593999997E+02  0.45594000000E+02  0.51100000000E-03 0. -1.
    9900012    2    1    2    0    0 -0.28812146979E+02  0.20122771404E+02  0.28178851544E+02  0.46142318555E+02  0.10000007239E+02 0.  0.
         12    1    1    2    0    0  0.28812146979E+02 -0.20122771404E+02 -0.28178851544E+02  0.45045681445E+02  0.00000000000E+00 0. -1.
         11    1    3    3    0    0 -0.12697650098E+02  0.10712325700E+02  0.16228408693E+02  0.23223812971E+02  0.51100000000E-03 0. -1.
        -11    1    3    3    0    0 -0.95013447575E+01  0.56364735655E+01  0.10349147287E+02  0.15137709083E+02  0.51100000000E-03 0.  1.
         12    1    3    3    0    0 -0.66131521233E+01  0.37739721385E+01  0.16012955630E+01  0.77807965009E+01  0.00000000000E+00 0. -1.
</event>
<event>
 7    1  0.2313935E-008  0.4614232E+02  0.7816164E-02  0.1320468E+00
        -11   -1    0    0    0    0  0.00000000000E+00  0.00000000000E+00  0.45593999997E+02  0.45594000000E+02  0.51100000000E-03 0.  1.
         11   -1    0    0    0    0 -0.00000000000E+00 -0.00000000000E+00 -0.45593999997E+02  0.45594000000E+02  0.51100000000E-03 0. -1.
    9900012    2    1    2    0    0  0.11543741315E+02 -0.37161020570E+00  0.43539837358E+02  0.46142317689E+02  0.99999993463E+01 0.  0.
         12    1    1    2    0    0 -0.11543741315E+02  0.37161020570E+00 -0.43539837358E+02  0.45045682311E+02  0.00000000000E+00 0. -1.
         11    1    3    3    0    0  0.72988077866E+00  0.16025739516E+01  0.19720597191E+01  0.26438587365E+01  0.51100000000E-03 0. -1.
        -11    1    3    3    0    0  0.24250795506E+01 -0.67594212614E+00  0.26088301531E+01  0.36254521943E+01  0.51100000000E-03 0.  1.
         12    1    3    3    0    0  0.83887809858E+01 -0.12982420312E+01  0.38958947485E+02  0.39873006759E+02  0.00000000000E+00 0. -1.
</event>
<event>
 7    1  0.2313935E-008  0.4614232E+02  0.7816164E-02  0.1320468E+00
        -11   -1    0    0    0    0  0.00000000000E+00  0.00000000000E+00  0.45593999997E+02  0.45594000000E+02  0.51100000000E-03 0. -1.
         11   -1    0    0    0    0 -0.00000000000E+00 -0.00000000000E+00 -0.45593999997E+02  0.45594000000E+02  0.51100000000E-03 0.  1.
    9900012    2    1    2    0    0  0.29371683654E+02  0.28634450680E+02 -0.18614132231E+02  0.46142317797E+02  0.10000000325E+02 0.  0.
         12    1    1    2    0    0 -0.29371683654E+02 -0.28634450680E+02  0.18614132231E+02  0.45045682203E+02  0.00000000000E+00 0. -1.
         11    1    3    3    0    0  0.11822288960E+01  0.14206357451E+01  0.21432778654E+00  0.18605933849E+01  0.51100000000E-03 0. -1.
        -11    1    3    3    0    0  0.44951731129E+01  0.50156486774E+01  0.27770540810E-01  0.67352865146E+01  0.51100000000E-03 0.  1.
         12    1    3    3    0    0  0.23694281645E+02  0.22198166258E+02 -0.18856230559E+02  0.37546437897E+02  0.00000000000E+00 0. -1.
</event>
<event>
 7    1  0.2845696E-008  0.4614232E+02  0.7816164E-02  0.1320468E+00
        -11   -1    0    0    0    0  0.00000000000E+00  0.00000000000E+00  0.45593999997E+02  0.45594000000E+02  0.51100000000E-03 0. -1.
         11   -1    0    0    0    0 -0.00000000000E+00 -0.00000000000E+00 -0.45593999997E+02  0.45594000000E+02  0.51100000000E-03 0.  1.
    9900012    2    1    2    0    0 -0.34267561615E+02  0.13380922756E+02 -0.25996128954E+02  0.46142316595E+02  0.99999893656E+01 0.  0.
         12    1    1    2    0    0  0.34267561615E+02 -0.13380922756E+02  0.25996128954E+02  0.45045683405E+02  0.00000000000E+00 0. -1.
         11    1    3    3    0    0 -0.12277363419E+02  0.43849657534E+01 -0.12416299152E+02  0.18003501383E+02  0.51100000000E-03 0. -1.
        -11    1    3    3    0    0 -0.14275646554E+02  0.34009938498E+01 -0.10770795898E+02  0.18203595475E+02  0.51100000000E-03 0.  1.
         12    1    3    3    0    0 -0.77145516431E+01  0.55949631528E+01 -0.28090339037E+01  0.99352197363E+01  0.00000000000E+00 0. -1.
</event>
<event>
 7    1  0.2313935E-008  0.4614232E+02  0.7816164E-02  0.1320468E+00
        -11   -1    0    0    0    0  0.00000000000E+00  0.00000000000E+00  0.45593999997E+02  0.45594000000E+02  0.51100000000E-03 0.  1.
         11   -1    0    0    0    0 -0.00000000000E+00 -0.00000000000E+00 -0.45593999997E+02  0.45594000000E+02  0.51100000000E-03 0. -1.
    9900012    2    1    2    0    0 -0.14608604319E+02 -0.42147999519E+02  0.62648516576E+01  0.46142317079E+02  0.99999937765E+01 0.  0.
         12    1    1    2    0    0  0.14608604319E+02  0.42147999519E+02 -0.62648516576E+01  0.45045682921E+02  0.00000000000E+00 0. -1.
         11    1    3    3    0    0 -0.13758378408E+01 -0.71342465765E+01  0.24543564088E+01  0.76690462002E+01  0.51100000000E-03 0. -1.
        -11    1    3    3    0    0 -0.13009735208E+02 -0.35393122856E+02  0.33832374153E+01  0.37859908233E+02  0.51100000000E-03 0.  1.
         12    1    3    3    0    0 -0.22303126985E+00  0.37936991416E+00  0.42725783351E+00  0.61336264591E+00  0.00000000000E+00 0. -1.
</event>
<event>
 7    1  0.2313935E-008  0.4614232E+02  0.7816164E-02  0.1320468E+00
        -11   -1    0    0    0    0  0.00000000000E+00  0.00000000000E+00  0.45593999997E+02  0.45594000000E+02  0.51100000000E-03 0.  1.
         11   -1    0    0    0    0 -0.00000000000E+00 -0.00000000000E+00 -0.45593999997E+02  0.45594000000E+02  0.51100000000E-03 0. -1.
    9900012    2    1    2    0    0 -0.18624220658E+02  0.33349350084E+02  0.23876196071E+02  0.46142317799E+02  0.10000000346E+02 0.  0.
         12    1    1    2    0    0  0.18624220658E+02 -0.33349350084E+02 -0.23876196071E+02  0.45045682201E+02  0.00000000000E+00 0. -1.
         11    1    3    3    0    0 -0.58602841898E+01  0.93944749613E+01  0.84212198567E+01  0.13911004087E+02  0.51100000000E-03 0. -1.
        -11    1    3    3    0    0 -0.11608990911E+02  0.24409700334E+02  0.14566277922E+02  0.30704699855E+02  0.51100000000E-03 0.  1.
         12    1    3    3    0    0 -0.11549455575E+01 -0.45482521207E+00  0.88869829204E+00  0.15266138570E+01  0.00000000000E+00 0. -1.
</event>
<event>
 7    1  0.2313935E-008  0.4614231E+02  0.7816164E-02  0.1320468E+00
        -11   -1    0    0    0    0  0.00000000000E+00  0.00000000000E+00  0.45593999997E+02  0.45594000000E+02  0.51100000000E-03 0.  1.
         11   -1    0    0    0    0 -0.00000000000E+00 -0.00000000000E+00 -0.45593999997E+02  0.45594000000E+02  0.51100000000E-03 0. -1.
    9900012    2    1    2    0    0 -0.26833852274E+02  0.34603552305E+02  0.10566567527E+02  0.46142314199E+02  0.99999675163E+01 0.  0.
         12    1    1    2    0    0  0.26833852274E+02 -0.34603552305E+02 -0.10566567527E+02  0.45045685801E+02  0.00000000000E+00 0. -1.
         11    1    3    3    0    0 -0.44778469608E+00  0.28429061689E+01  0.74565930125E+00  0.29729841361E+01  0.51100000000E-03 0. -1.
        -11    1    3    3    0    0 -0.14949598544E+02  0.23129251223E+02  0.46105112675E+01  0.27923280129E+02  0.51100000000E-03 0.  1.
        -12    1    3    3    0    0 -0.11436469034E+02  0.86313949132E+01  0.52103969582E+01  0.15246049934E+02  0.00000000000E+00 0.  1.
</event>
<event>
 7    1  0.2313935E-008  0.4614232E+02  0.7816164E-02  0.1320468E+00
        -11   -1    0    0    0    0  0.00000000000E+00  0.00000000000E+00  0.45593999997E+02  0.45594000000E+02  0.51100000000E-03 0.  1.
         11   -1    0    0    0    0 -0.00000000000E+00 -0.00000000000E+00 -0.45593999997E+02  0.45594000000E+02  0.51100000000E-03 0. -1.
    9900012    2    1    2    0    0 -0.31001281915E+02  0.12350992179E+02  0.30257015007E+02  0.46142318240E+02  0.10000004363E+02 0.  0.
         12    1    1    2    0    0  0.31001281915E+02 -0.12350992179E+02 -0.30257015007E+02  0.45045681760E+02  0.00000000000E+00 0. -1.
         11    1    3    3    0    0 -0.93568702520E+01  0.10519795500E+01  0.62058624806E+01  0.11276985913E+02  0.51100000000E-03 0. -1.
        -11    1    3    3    0    0 -0.10035874782E+02  0.28502985749E+01  0.69477645993E+01  0.12534529022E+02  0.51100000000E-03 0.  1.
         12    1    3    3    0    0 -0.11608536880E+02  0.84487140538E+01  0.17103387927E+02  0.22330803305E+02  0.00000000000E+00 0. -1.
</event>
<event>
 7    1  0.2313935E-008  0.4614232E+02  0.7816164E-02  0.1320468E+00
        -11   -1    0    0    0    0  0.00000000000E+00  0.00000000000E+00  0.45593999997E+02  0.45594000000E+02  0.51100000000E-03 0. -1.
         11   -1    0    0    0    0 -0.00000000000E+00 -0.00000000000E+00 -0.45593999997E+02  0.45594000000E+02  0.51100000000E-03 0.  1.
    9900012    2    1    2    0    0 -0.30830809849E+02  0.25182257767E+02 -0.21081472493E+02  0.46142318468E+02  0.10000006447E+02 0.  0.
         12    1    1    2    0    0  0.30830809849E+02 -0.25182257767E+02  0.21081472493E+02  0.45045681532E+02  0.00000000000E+00 0. -1.
         11    1    3    3    0    0 -0.19322276084E+00  0.68657787196E+00 -0.99554996136E-02  0.71331871044E+00  0.51100000000E-03 0. -1.
        -11    1    3    3    0    0 -0.14324851971E+02  0.15809261048E+02 -0.79661244802E+01  0.22772642762E+02  0.51100000000E-03 0.  1.
        -12    1    3    3    0    0 -0.16312735117E+02  0.86864188477E+01 -0.13105392514E+02  0.22656356996E+02  0.00000000000E+00 0.  1.
</event>
<event>
 7    1  0.2313935E-008  0.4614232E+02  0.7816164E-02  0.1320468E+00
        -11   -1    0    0    0    0  0.00000000000E+00  0.00000000000E+00  0.45593999997E+02  0.45594000000E+02  0.51100000000E-03 0. -1.
         11   -1    0    0    0    0 -0.00000000000E+00 -0.00000000000E+00 -0.45593999997E+02  0.45594000000E+02  0.51100000000E-03 0.  1.
    9900012    2    1    2    0    0 -0.19130561083E+02  0.39706248051E+02 -0.93031695079E+01  0.46142318025E+02  0.10000002411E+02 0.  0.
         12    1    1    2    0    0  0.19130561083E+02 -0.39706248051E+02  0.93031695079E+01  0.45045681975E+02  0.00000000000E+00 0. -1.
         11    1    3    3    0    0 -0.10559845708E+01  0.50290193330E+01 -0.10199168497E+01  0.52389282784E+01  0.51100000000E-03 0. -1.
        -11    1    3    3    0    0 -0.14305166500E+02  0.28778966732E+02 -0.10070269794E+02  0.33679029807E+02  0.51100000000E-03 0.  1.
         12    1    3    3    0    0 -0.37694100124E+01  0.58982619868E+01  0.17870171360E+01  0.72243599405E+01  0.00000000000E+00 0. -1.
</event>
<event>
 7    1  0.2313935E-008  0.4614232E+02  0.7816164E-02  0.1320468E+00
        -11   -1    0    0    0    0  0.00000000000E+00  0.00000000000E+00  0.45593999997E+02  0.45594000000E+02  0.51100000000E-03 0.  1.
         11   -1    0    0    0    0 -0.00000000000E+00 -0.00000000000E+00 -0.45593999997E+02  0.45594000000E+02  0.51100000000E-03 0. -1.
    9900012    2    1    2    0    0 -0.15775359167E+02  0.38445895415E+02  0.17382881419E+02  0.46142318769E+02  0.10000009194E+02 0.  0.
         12    1    1    2    0    0  0.15775359167E+02 -0.38445895415E+02 -0.17382881419E+02  0.45045681231E+02  0.00000000000E+00 0. -1.
         11    1    3    3    0    0  0.35810287996E+00  0.19844444364E+01  0.28063424343E+01  0.34556932031E+01  0.51100000000E-03 0. -1.
        -11    1    3    3    0    0 -0.54957963481E+00  0.26515820796E+01  0.49739552152E-02  0.27079420786E+01  0.51100000000E-03 0.  1.
        -12    1    3    3    0    0 -0.15583882412E+02  0.33809868899E+02  0.14571565029E+02  0.39978683488E+02  0.00000000000E+00 0.  1.
</event>
<event>
 7    1  0.2313935E-008  0.4614232E+02  0.7816164E-02  0.1320468E+00
        -11   -1    0    0    0    0  0.00000000000E+00  0.00000000000E+00  0.45593999997E+02  0.45594000000E+02  0.51100000000E-03 0.  1.
         11   -1    0    0    0    0 -0.00000000000E+00 -0.00000000000E+00 -0.45593999997E+02  0.45594000000E+02  0.51100000000E-03 0. -1.
    9900012    2    1    2    0    0 -0.71020089765E+01  0.22293549418E+02  0.38492500718E+02  0.46142317757E+02  0.99999999666E+01 0.  0.
         12    1    1    2    0    0  0.71020089765E+01 -0.22293549418E+02 -0.38492500718E+02  0.45045682243E+02  0.00000000000E+00 0. -1.
         11    1    3    3    0    0 -0.56346515531E+00  0.12902299970E+01  0.45225551350E+00  0.14787568215E+01  0.51100000000E-03 0. -1.
        -11    1    3    3    0    0 -0.61647823023E+01  0.92286809700E+01  0.13773783278E+02  0.17688702591E+02  0.51100000000E-03 0.  1.
        -12    1    3    3    0    0 -0.37376151895E+00  0.11774638451E+02  0.24266461927E+02  0.26974858345E+02  0.00000000000E+00 0.  1.
</event>
<event>
 7    1  0.2313935E-008  0.4614232E+02  0.7816164E-02  0.1320468E+00
        -11   -1    0    0    0    0  0.00000000000E+00  0.00000000000E+00  0.45593999997E+02  0.45594000000E+02  0.51100000000E-03 0.  1.
         11   -1    0    0    0    0 -0.00000000000E+00 -0.00000000000E+00 -0.45593999997E+02  0.45594000000E+02  0.51100000000E-03 0. -1.
    9900012    2    1    2    0    0 -0.37037891088E+02 -0.25166675009E+02 -0.48935198593E+01  0.46142318255E+02  0.10000004503E+02 0.  0.
         12    1    1    2    0    0  0.37037891088E+02  0.25166675009E+02  0.48935198593E+01  0.45045681745E+02  0.00000000000E+00 0. -1.
         11    1    3    3    0    0 -0.20809434910E+02 -0.10459718883E+02 -0.63769385477E+01  0.24147539126E+02  0.51100000000E-03 0. -1.
        -11    1    3    3    0    0 -0.30201226802E+01 -0.34557583618E+01  0.49025016396E+00  0.46155988066E+01  0.51100000000E-03 0.  1.
         12    1    3    3    0    0 -0.13208333498E+02 -0.11251197764E+02  0.99316852445E+00  0.17379180322E+02  0.00000000000E+00 0. -1.
</event>
<event>
 7    1  0.2313935E-008  0.4614232E+02  0.7816164E-02  0.1320468E+00
        -11   -1    0    0    0    0  0.00000000000E+00  0.00000000000E+00  0.45593999997E+02  0.45594000000E+02  0.51100000000E-03 0.  1.
         11   -1    0    0    0    0 -0.00000000000E+00 -0.00000000000E+00 -0.45593999997E+02  0.45594000000E+02  0.51100000000E-03 0. -1.
    9900012    2    1    2    0    0  0.53166482898E+01 -0.21127605657E+02  0.39426783616E+02  0.46142315011E+02  0.99999749192E+01 0.  0.
         12    1    1    2    0    0 -0.53166482898E+01  0.21127605657E+02 -0.39426783616E+02  0.45045684989E+02  0.00000000000E+00 0. -1.
         11    1    3    3    0    0 -0.11445080164E+01 -0.42993179128E+01  0.13214001912E+02  0.13942879183E+02  0.51100000000E-03 0. -1.
        -11    1    3    3    0    0  0.32078043631E+01 -0.12684815725E+02  0.15674471967E+02  0.20417728339E+02  0.51100000000E-03 0.  1.
        -12    1    3    3    0    0  0.32533519431E+01 -0.41434720191E+01  0.10538309737E+02  0.11781707489E+02  0.00000000000E+00 0.  1.
</event>
<event>
 7    1  0.2313935E-008  0.4614232E+02  0.7816164E-02  0.1320468E+00
        -11   -1    0    0    0    0  0.00000000000E+00  0.00000000000E+00  0.45593999997E+02  0.45594000000E+02  0.51100000000E-03 0. -1.
         11   -1    0    0    0    0 -0.00000000000E+00 -0.00000000000E+00 -0.45593999997E+02  0.45594000000E+02  0.51100000000E-03 0.  1.
    9900012    2    1    2    0    0 -0.16592348494E+02  0.38610113540E+02 -0.16219328440E+02  0.46142317508E+02  0.99999976907E+01 0.  0.
         12    1    1    2    0    0  0.16592348494E+02 -0.38610113540E+02  0.16219328440E+02  0.45045682492E+02  0.00000000000E+00 0. -1.
         11    1    3    3    0    0 -0.16470415425E+01  0.77582798053E+01 -0.65088184071E+01  0.10260037461E+02  0.51100000000E-03 0. -1.
        -11    1    3    3    0    0 -0.92507291564E+01  0.18895520027E+02 -0.80901477591E+01  0.22540345118E+02  0.51100000000E-03 0.  1.
         12    1    3    3    0    0 -0.56945777955E+01  0.11956313708E+02 -0.16203622736E+01  0.13341934929E+02  0.00000000000E+00 0. -1.
</event>
<event>
 7    1  0.2313935E-008  0.4614232E+02  0.7816164E-02  0.1320468E+00
        -11   -1    0    0    0    0  0.00000000000E+00  0.00000000000E+00  0.45593999997E+02  0.45594000000E+02  0.51100000000E-03 0.  1.
         11   -1    0    0    0    0 -0.00000000000E+00 -0.00000000000E+00 -0.45593999997E+02  0.45594000000E+02  0.51100000000E-03 0. -1.
    9900012    2    1    2    0    0  0.34244086023E+02  0.16474653024E+02  0.24187639462E+02  0.46142317381E+02  0.99999965382E+01 0.  0.
         12    1    1    2    0    0 -0.34244086023E+02 -0.16474653024E+02 -0.24187639462E+02  0.45045682619E+02  0.00000000000E+00 0. -1.
         11    1    3    3    0    0  0.24915294043E+00  0.17090528349E+01  0.24157819452E+00  0.17439320702E+01  0.51100000000E-03 0. -1.
        -11    1    3    3    0    0  0.17024407120E+02  0.80213969396E+01  0.14985222227E+02  0.24056810514E+02  0.51100000000E-03 0.  1.
        -12    1    3    3    0    0  0.16970525963E+02  0.67442032493E+01  0.89608390406E+01  0.20341574798E+02  0.00000000000E+00 0.  1.
</event>
<event>
 7    1  0.2313935E-008  0.4614232E+02  0.7816164E-02  0.1320468E+00
        -11   -1    0    0    0    0  0.00000000000E+00  0.00000000000E+00  0.45593999997E+02  0.45594000000E+02  0.51100000000E-03 0.  1.
         11   -1    0    0    0    0 -0.00000000000E+00 -0.00000000000E+00 -0.45593999997E+02  0.45594000000E+02  0.51100000000E-03 0. -1.
    9900012    2    1    2    0    0  0.13764596263E+00 -0.49738921586E+01  0.44770023463E+02  0.46142317071E+02  0.99999937087E+01 0.  0.
         12    1    1    2    0    0 -0.13764596263E+00  0.49738921586E+01 -0.44770023463E+02  0.45045682929E+02  0.00000000000E+00 0. -1.
         11    1    3    3    0    0  0.30446043261E+00  0.23869860402E+01  0.45096689100E+01  0.51115078451E+01  0.51100000000E-03 0. -1.
        -11    1    3    3    0    0  0.79778187295E+00 -0.41222640830E+01  0.28009018838E+02  0.28321981810E+02  0.51100000000E-03 0.  1.
         12    1    3    3    0    0 -0.96459634294E+00 -0.32386141159E+01  0.12251335715E+02  0.12708827416E+02  0.00000000000E+00 0. -1.
</event>
<event>
 7    1  0.2313935E-008  0.4614232E+02  0.7816164E-02  0.1320468E+00
        -11   -1    0    0    0    0  0.00000000000E+00  0.00000000000E+00  0.45593999997E+02  0.45594000000E+02  0.51100000000E-03 0.  1.
         11   -1    0    0    0    0 -0.00000000000E+00 -0.00000000000E+00 -0.45593999997E+02  0.45594000000E+02  0.51100000000E-03 0. -1.
    9900012    2    1    2    0    0  0.18697348514E+02 -0.19288406395E+02  0.36159092349E+02  0.46142318496E+02  0.10000006698E+02 0.  0.
         12    1    1    2    0    0 -0.18697348514E+02  0.19288406395E+02 -0.36159092349E+02  0.45045681504E+02  0.00000000000E+00 0. -1.
         11    1    3    3    0    0  0.12805184719E+02 -0.17039255189E+02  0.28768484488E+02  0.35804115309E+02  0.51100000000E-03 0. -1.
        -11    1    3    3    0    0  0.11413622082E+01 -0.21270244504E+01  0.31528244112E+01  0.39707987524E+01  0.51100000000E-03 0.  1.
         12    1    3    3    0    0  0.47508015868E+01 -0.12212675552E+00  0.42377834494E+01  0.63674044339E+01  0.00000000000E+00 0. -1.
</event>
<event>
 7    1  0.2313935E-008  0.4614232E+02  0.7816164E-02  0.1320468E+00
        -11   -1    0    0    0    0  0.00000000000E+00  0.00000000000E+00  0.45593999997E+02  0.45594000000E+02  0.51100000000E-03 0. -1.
         11   -1    0    0    0    0 -0.00000000000E+00 -0.00000000000E+00 -0.45593999997E+02  0.45594000000E+02  0.51100000000E-03 0.  1.
    9900012    2    1    2    0    0  0.27634106902E+02 -0.25968834748E+02 -0.24312326061E+02  0.46142318288E+02  0.10000004800E+02 0.  0.
         12    1    1    2    0    0 -0.27634106902E+02  0.25968834748E+02  0.24312326061E+02  0.45045681712E+02  0.00000000000E+00 0. -1.
         11    1    3    3    0    0 -0.19389662204E+00 -0.20503681169E+01 -0.28231525404E+01  0.34945380013E+01  0.51100000000E-03 0. -1.
        -11    1    3    3    0    0  0.11378841191E+02 -0.11228535384E+02 -0.79865955157E+01  0.17870191435E+02  0.51100000000E-03 0.  1.
         12    1    3    3    0    0  0.16449162333E+02 -0.12689931247E+02 -0.13502578005E+02  0.24777588851E+02  0.00000000000E+00 0. -1.
</event>
<event>
 7    1  0.2313935E-008  0.4614232E+02  0.7816164E-02  0.1320468E+00
        -11   -1    0    0    0    0  0.00000000000E+00  0.00000000000E+00  0.45593999997E+02  0.45594000000E+02  0.51100000000E-03 0. -1.
         11   -1    0    0    0    0 -0.00000000000E+00 -0.00000000000E+00 -0.45593999997E+02  0.45594000000E+02  0.51100000000E-03 0.  1.
    9900012    2    1    2    0    0 -0.91723174436E+01  0.30256484905E+02 -0.32086245831E+02  0.46142318102E+02  0.10000003107E+02 0.  0.
         12    1    1    2    0    0  0.91723174436E+01 -0.30256484905E+02  0.32086245831E+02  0.45045681898E+02  0.00000000000E+00 0. -1.
         11    1    3    3    0    0 -0.62133403054E+01  0.15757660711E+02 -0.11979780930E+02  0.20746677330E+02  0.51100000000E-03 0. -1.
        -11    1    3    3    0    0  0.74561316303E+00  0.17715712542E+01 -0.10731564484E+01  0.22013788228E+01  0.51100000000E-03 0.  1.
        -12    1    3    3    0    0 -0.37045903012E+01  0.12727252940E+02 -0.19033308453E+02  0.23194261949E+02  0.00000000000E+00 0.  1.
</event>
<event>
 7    1  0.2313935E-008  0.4614232E+02  0.7816164E-02  0.1320468E+00
        -11   -1    0    0    0    0  0.00000000000E+00  0.00000000000E+00  0.45593999997E+02  0.45594000000E+02  0.51100000000E-03 0.  1.
         11   -1    0    0    0    0 -0.00000000000E+00 -0.00000000000E+00 -0.45593999997E+02  0.45594000000E+02  0.51100000000E-03 0. -1.
    9900012    2    1    2    0    0 -0.23632421555E+02 -0.17974694056E+02  0.33875249937E+02  0.46142317263E+02  0.99999954586E+01 0.  0.
         12    1    1    2    0    0  0.23632421555E+02  0.17974694056E+02 -0.33875249937E+02  0.45045682737E+02  0.00000000000E+00 0. -1.
         11    1    3    3    0    0 -0.36345042741E+01  0.20397495448E+00  0.71560669118E+01  0.80287309712E+01  0.51100000000E-03 0. -1.
        -11    1    3    3    0    0 -0.96119232251E+01 -0.68527055844E+01  0.12065833902E+02  0.16879958232E+02  0.51100000000E-03 0.  1.
         12    1    3    3    0    0 -0.10385994056E+02 -0.11325963426E+02  0.14653349123E+02  0.21233628059E+02  0.00000000000E+00 0. -1.
</event>
<event>
 7    1  0.2313935E-008  0.4614232E+02  0.7816164E-02  0.1320468E+00
        -11   -1    0    0    0    0  0.00000000000E+00  0.00000000000E+00  0.45593999997E+02  0.45594000000E+02  0.51100000000E-03 0.  1.
         11   -1    0    0    0    0 -0.00000000000E+00 -0.00000000000E+00 -0.45593999997E+02  0.45594000000E+02  0.51100000000E-03 0. -1.
    9900012    2    1    2    0    0  0.10261906035E+00  0.45023291140E+02 -0.14164622857E+01  0.46142316065E+02  0.99999845366E+01 0.  0.
         12    1    1    2    0    0 -0.10261906035E+00 -0.45023291140E+02  0.14164622857E+01  0.45045683935E+02  0.00000000000E+00 0. -1.
         11    1    3    3    0    0 -0.20723036117E+01  0.31658702222E+01  0.13689769756E+01  0.40238383098E+01  0.51100000000E-03 0. -1.
        -11    1    3    3    0    0 -0.39813087067E+00  0.21860197299E+02 -0.13611950636E+01  0.21906154076E+02  0.51100000000E-03 0.  1.
        -12    1    3    3    0    0  0.25730535427E+01  0.19997223619E+02 -0.14242441977E+01  0.20212323679E+02  0.00000000000E+00 0.  1.
</event>
<event>
 7    1  0.2313935E-008  0.4614231E+02  0.7816164E-02  0.1320468E+00
        -11   -1    0    0    0    0  0.00000000000E+00  0.00000000000E+00  0.45593999997E+02  0.45594000000E+02  0.51100000000E-03 0. -1.
         11   -1    0    0    0    0 -0.00000000000E+00 -0.00000000000E+00 -0.45593999997E+02  0.45594000000E+02  0.51100000000E-03 0.  1.
    9900012    2    1    2    0    0 -0.61820331631E+01 -0.42541185883E+02 -0.13458971529E+02  0.46142312693E+02  0.99999537810E+01 0.  0.
         12    1    1    2    0    0  0.61820331631E+01  0.42541185883E+02  0.13458971529E+02  0.45045687307E+02  0.00000000000E+00 0. -1.
         11    1    3    3    0    0  0.54989553569E-01 -0.11762020792E+02 -0.28726703976E+01  0.12107864900E+02  0.51100000000E-03 0. -1.
        -11    1    3    3    0    0  0.37122968817E+00 -0.71079660130E+01 -0.53560516498E+01  0.89077652562E+01  0.51100000000E-03 0.  1.
         12    1    3    3    0    0 -0.66082524048E+01 -0.23671199078E+02 -0.52302494820E+01  0.25126682536E+02  0.00000000000E+00 0. -1.
</event>
<event>
 7    1  0.2313935E-008  0.4614232E+02  0.7816164E-02  0.1320468E+00
        -11   -1    0    0    0    0  0.00000000000E+00  0.00000000000E+00  0.45593999997E+02  0.45594000000E+02  0.51100000000E-03 0.  1.
         11   -1    0    0    0    0 -0.00000000000E+00 -0.00000000000E+00 -0.45593999997E+02  0.45594000000E+02  0.51100000000E-03 0. -1.
    9900012    2    1    2    0    0 -0.21199055434E+02 -0.37710696948E+02  0.12554561067E+02  0.46142316309E+02  0.99999867601E+01 0.  0.
         12    1    1    2    0    0  0.21199055434E+02  0.37710696948E+02 -0.12554561067E+02  0.45045683691E+02  0.00000000000E+00 0. -1.
         11    1    3    3    0    0 -0.50849947709E+01 -0.65196171052E+01  0.42693773560E+01  0.93053835111E+01  0.51100000000E-03 0. -1.
        -11    1    3    3    0    0 -0.96817575537E+01 -0.10979737272E+02  0.24865504274E+01  0.14848366684E+02  0.51100000000E-03 0.  1.
        -12    1    3    3    0    0 -0.64323031095E+01 -0.20211342571E+02  0.57986332833E+01  0.21988566114E+02  0.00000000000E+00 0.  1.
</event>
<event>
 7    1  0.2313935E-008  0.4614232E+02  0.7816164E-02  0.1320468E+00
        -11   -1    0    0    0    0  0.00000000000E+00  0.00000000000E+00  0.45593999997E+02  0.45594000000E+02  0.51100000000E-03 0. -1.
         11   -1    0    0    0    0 -0.00000000000E+00 -0.00000000000E+00 -0.45593999997E+02  0.45594000000E+02  0.51100000000E-03 0.  1.
    9900012    2    1    2    0    0  0.21511043148E+02 -0.28945933367E+02 -0.26991134676E+02  0.46142318887E+02  0.10000010267E+02 0.  0.
         12    1    1    2    0    0 -0.21511043148E+02  0.28945933367E+02  0.26991134676E+02  0.45045681113E+02  0.00000000000E+00 0. -1.
         11    1    3    3    0    0  0.50314485203E+01 -0.81100402615E+01 -0.44356379002E+01  0.10524405499E+02  0.51100000000E-03 0. -1.
        -11    1    3    3    0    0  0.87384909848E+01 -0.16508716389E+02 -0.14674960759E+02  0.23754018924E+02  0.51100000000E-03 0.  1.
        -12    1    3    3    0    0  0.77411036430E+01 -0.43271767169E+01 -0.78805360173E+01  0.11863894465E+02  0.00000000000E+00 0.  1.
</event>
<event>
 7    1  0.2313935E-008  0.4614232E+02  0.7816164E-02  0.1320468E+00
        -11   -1    0    0    0    0  0.00000000000E+00  0.00000000000E+00  0.45593999997E+02  0.45594000000E+02  0.51100000000E-03 0.  1.
         11   -1    0    0    0    0 -0.00000000000E+00 -0.00000000000E+00 -0.45593999997E+02  0.45594000000E+02  0.51100000000E-03 0. -1.
    9900012    2    1    2    0    0 -0.38963403102E+02  0.18956458289E+02  0.12313384601E+02  0.46142317271E+02  0.99999955352E+01 0.  0.
         12    1    1    2    0    0  0.38963403102E+02 -0.18956458289E+02 -0.12313384601E+02  0.45045682729E+02  0.00000000000E+00 0. -1.
         11    1    3    3    0    0 -0.48004400466E+00  0.19043824604E+01  0.75199787071E+00  0.21030016311E+01  0.51100000000E-03 0. -1.
        -11    1    3    3    0    0 -0.38688932318E+02  0.16828148608E+02  0.11494495494E+02  0.43728063031E+02  0.51100000000E-03 0.  1.
        -12    1    3    3    0    0  0.20557322104E+00  0.22392722113E+00  0.66891235951E-01  0.31125260966E+00  0.00000000000E+00 0.  1.
</event>
<event>
 7    1  0.2313935E-008  0.4614232E+02  0.7816164E-02  0.1320468E+00
        -11   -1    0    0    0    0  0.00000000000E+00  0.00000000000E+00  0.45593999997E+02  0.45594000000E+02  0.51100000000E-03 0.  1.
         11   -1    0    0    0    0 -0.00000000000E+00 -0.00000000000E+00 -0.45593999997E+02  0.45594000000E+02  0.51100000000E-03 0. -1.
    9900012    2    1    2    0    0 -0.38511832146E+02 -0.10720632876E+02  0.20761028583E+02  0.46142317717E+02  0.99999995950E+01 0.  0.
         12    1    1    2    0    0  0.38511832146E+02  0.10720632876E+02 -0.20761028583E+02  0.45045682283E+02  0.00000000000E+00 0. -1.
         11    1    3    3    0    0 -0.90992206530E+01 -0.18131002140E+01  0.44089243798E+01  0.10272378660E+02  0.51100000000E-03 0. -1.
        -11    1    3    3    0    0 -0.23331466814E+02 -0.76328512465E+01  0.87713636311E+01  0.26068267723E+02  0.51100000000E-03 0.  1.
         12    1    3    3    0    0 -0.60811446790E+01 -0.12746814158E+01  0.75807405727E+01  0.98016713345E+01  0.00000000000E+00 0. -1.
</event>
<event>
 7    1  0.2313935E-008  0.4614232E+02  0.7816164E-02  0.1320468E+00
        -11   -1    0    0    0    0  0.00000000000E+00  0.00000000000E+00  0.45593999997E+02  0.45594000000E+02  0.51100000000E-03 0. -1.
         11   -1    0    0    0    0 -0.00000000000E+00 -0.00000000000E+00 -0.45593999997E+02  0.45594000000E+02  0.51100000000E-03 0.  1.
    9900012    2    1    2    0    0  0.15649244491E+02  0.26975268629E+02 -0.32504608623E+02  0.46142317049E+02  0.99999935110E+01 0.  0.
         12    1    1    2    0    0 -0.15649244491E+02 -0.26975268629E+02  0.32504608623E+02  0.45045682951E+02  0.00000000000E+00 0. -1.
         11    1    3    3    0    0  0.24014219111E+01  0.46251012029E+01 -0.66884405098E+01  0.84790108531E+01  0.51100000000E-03 0. -1.
        -11    1    3    3    0    0  0.10019462322E+02  0.21855706609E+02 -0.21524207442E+02  0.32270002213E+02  0.51100000000E-03 0.  1.
         12    1    3    3    0    0  0.32283602576E+01  0.49446081798E+00 -0.42919606708E+01  0.53933039830E+01  0.00000000000E+00 0. -1.
</event>
<event>
 7    1  0.2313935E-008  0.4614232E+02  0.7816164E-02  0.1320468E+00
        -11   -1    0    0    0    0  0.00000000000E+00  0.00000000000E+00  0.45593999997E+02  0.45594000000E+02  0.51100000000E-03 0.  1.
         11   -1    0    0    0    0 -0.00000000000E+00 -0.00000000000E+00 -0.45593999997E+02  0.45594000000E+02  0.51100000000E-03 0. -1.
    9900012    2    1    2    0    0 -0.33205907916E+02  0.26728250400E+02  0.14563028537E+02  0.46142317741E+02  0.99999998204E+01 0.  0.
         12    1    1    2    0    0  0.33205907916E+02 -0.26728250400E+02 -0.14563028537E+02  0.45045682259E+02  0.00000000000E+00 0. -1.
         11    1    3    3    0    0 -0.39614645103E+01  0.41851631504E+01  0.18878927472E+00  0.57657985842E+01  0.51100000000E-03 0. -1.
        -11    1    3    3    0    0 -0.23401703687E+02  0.13717084198E+02  0.97320856625E+01  0.28818598611E+02  0.51100000000E-03 0.  1.
        -12    1    3    3    0    0 -0.58427397189E+01  0.88260030523E+01  0.46421535994E+01  0.11557920546E+02  0.00000000000E+00 0.  1.
</event>
<event>
 7    1  0.2313935E-008  0.4614232E+02  0.7816164E-02  0.1320468E+00
        -11   -1    0    0    0    0  0.00000000000E+00  0.00000000000E+00  0.45593999997E+02  0.45594000000E+02  0.51100000000E-03 0. -1.
         11   -1    0    0    0    0 -0.00000000000E+00 -0.00000000000E+00 -0.45593999997E+02  0.45594000000E+02  0.51100000000E-03 0.  1.
    9900012    2    1    2    0    0  0.44058569498E+02 -0.50774140642E+01 -0.78851577448E+01  0.46142318825E+02  0.10000009705E+02 0.  0.
         12    1    1    2    0    0 -0.44058569498E+02  0.50774140642E+01  0.78851577448E+01  0.45045681175E+02  0.00000000000E+00 0. -1.
         11    1    3    3    0    0  0.12792833373E+02 -0.38684193399E+01 -0.16393972498E+01  0.13465098496E+02  0.51100000000E-03 0. -1.
        -11    1    3    3    0    0  0.32701406453E+01 -0.66386532693E+00 -0.30030252248E+01  0.44891756230E+01  0.51100000000E-03 0.  1.
        -12    1    3    3    0    0  0.27995595480E+02 -0.54512939732E+00 -0.32427352703E+01  0.28188044706E+02  0.00000000000E+00 0.  1.
</event>
<event>
 7    1  0.2313935E-008  0.4614232E+02  0.7816164E-02  0.1320468E+00
        -11   -1    0    0    0    0  0.00000000000E+00  0.00000000000E+00  0.45593999997E+02  0.45594000000E+02  0.51100000000E-03 0.  1.
         11   -1    0    0    0    0 -0.00000000000E+00 -0.00000000000E+00 -0.45593999997E+02  0.45594000000E+02  0.51100000000E-03 0. -1.
    9900012    2    1    2    0    0  0.45217243093E+01 -0.31038707235E+02  0.32330577274E+02  0.46142316917E+02  0.99999923029E+01 0.  0.
         12    1    1    2    0    0 -0.45217243093E+01  0.31038707235E+02 -0.32330577274E+02  0.45045683083E+02  0.00000000000E+00 0. -1.
         11    1    3    3    0    0  0.70619017300E+01 -0.22446571383E+02  0.20355372756E+02  0.31113666180E+02  0.51100000000E-03 0. -1.
        -11    1    3    3    0    0 -0.16816017516E+01 -0.68666718413E+01  0.10185702759E+02  0.12398689752E+02  0.51100000000E-03 0.  1.
         12    1    3    3    0    0 -0.85857566910E+00 -0.17254640109E+01  0.17895017596E+01  0.26299609845E+01  0.00000000000E+00 0. -1.
</event>
<event>
 7    1  0.2313935E-008  0.4614232E+02  0.7816164E-02  0.1320468E+00
        -11   -1    0    0    0    0  0.00000000000E+00  0.00000000000E+00  0.45593999997E+02  0.45594000000E+02  0.51100000000E-03 0.  1.
         11   -1    0    0    0    0 -0.00000000000E+00 -0.00000000000E+00 -0.45593999997E+02  0.45594000000E+02  0.51100000000E-03 0. -1.
    9900012    2    1    2    0    0  0.11005752145E+02 -0.24856126829E+02  0.35918795835E+02  0.46142317460E+02  0.99999972553E+01 0.  0.
         12    1    1    2    0    0 -0.11005752145E+02  0.24856126829E+02 -0.35918795835E+02  0.45045682540E+02  0.00000000000E+00 0. -1.
         11    1    3    3    0    0  0.91607296635E+01 -0.12634179395E+02  0.14354991775E+02  0.21203944116E+02  0.51100000000E-03 0. -1.
        -11    1    3    3    0    0  0.11444807856E+00 -0.72812835553E+01  0.12056100111E+02  0.14084734244E+02  0.51100000000E-03 0.  1.
        -12    1    3    3    0    0  0.17305744031E+01 -0.49406638790E+01  0.95077039499E+01  0.10853639101E+02  0.00000000000E+00 0.  1.
</event>
<event>
 7    1  0.2313935E-008  0.4614232E+02  0.7816164E-02  0.1320468E+00
        -11   -1    0    0    0    0  0.00000000000E+00  0.00000000000E+00  0.45593999997E+02  0.45594000000E+02  0.51100000000E-03 0.  1.
         11   -1    0    0    0    0 -0.00000000000E+00 -0.00000000000E+00 -0.45593999997E+02  0.45594000000E+02  0.51100000000E-03 0. -1.
    9900012    2    1    2    0    0 -0.21036880683E+02 -0.39785727066E+02 -0.19128955726E+01  0.46142316560E+02  0.99999890516E+01 0.  0.
         12    1    1    2    0    0  0.21036880683E+02  0.39785727066E+02  0.19128955726E+01  0.45045683440E+02  0.00000000000E+00 0. -1.
         11    1    3    3    0    0 -0.45894569428E+00 -0.30997192266E+01  0.10205209861E+01  0.32955050870E+01  0.51100000000E-03 0. -1.
        -11    1    3    3    0    0 -0.62416321298E+01 -0.14333969698E+02  0.22382259352E+01  0.15793362990E+02  0.51100000000E-03 0.  1.
         12    1    3    3    0    0 -0.14336302858E+02 -0.22352038142E+02 -0.51716424939E+01  0.27053448483E+02  0.00000000000E+00 0. -1.
</event>
<event>
 7    1  0.2313935E-008  0.4614232E+02  0.7816164E-02  0.1320468E+00
        -11   -1    0    0    0    0  0.00000000000E+00  0.00000000000E+00  0.45593999997E+02  0.45594000000E+02  0.51100000000E-03 0.  1.
         11   -1    0    0    0    0 -0.00000000000E+00 -0.00000000000E+00 -0.45593999997E+02  0.45594000000E+02  0.51100000000E-03 0. -1.
    9900012    2    1    2    0    0  0.10698150296E+02  0.13339016615E+02  0.41674137248E+02  0.46142317639E+02  0.99999988871E+01 0.  0.
         12    1    1    2    0    0 -0.10698150296E+02 -0.13339016615E+02 -0.41674137248E+02  0.45045682361E+02  0.00000000000E+00 0. -1.
         11    1    3    3    0    0  0.63291297402E-02  0.24881716835E+01  0.17440245454E+01  0.30385292924E+01  0.51100000000E-03 0. -1.
        -11    1    3    3    0    0  0.49386459705E+01  0.78225603164E+01  0.28377678260E+02  0.29847534197E+02  0.51100000000E-03 0.  1.
        -12    1    3    3    0    0  0.57531751962E+01  0.30282846147E+01  0.11552434443E+02  0.13256254150E+02  0.00000000000E+00 0.  1.
</event>
<event>
 7    1  0.2313935E-008  0.4614232E+02  0.7816164E-02  0.1320468E+00
        -11   -1    0    0    0    0  0.00000000000E+00  0.00000000000E+00  0.45593999997E+02  0.45594000000E+02  0.51100000000E-03 0.  1.
         11   -1    0    0    0    0 -0.00000000000E+00 -0.00000000000E+00 -0.45593999997E+02  0.45594000000E+02  0.51100000000E-03 0. -1.
    9900012    2    1    2    0    0  0.83739673287E+01  0.35669135961E+02  0.26205017621E+02  0.46142317216E+02  0.99999950278E+01 0.  0.
         12    1    1    2    0    0 -0.83739673287E+01 -0.35669135961E+02 -0.26205017621E+02  0.45045682784E+02  0.00000000000E+00 0. -1.
         11    1    3    3    0    0  0.17013332502E+01  0.57886032970E+01  0.18345517216E+01  0.63061908660E+01  0.51100000000E-03 0. -1.
        -11    1    3    3    0    0  0.18614641898E+01  0.46181688430E+01  0.98281784539E+00  0.50752796544E+01  0.51100000000E-03 0.  1.
         12    1    3    3    0    0  0.48111698888E+01  0.25262363820E+02  0.23387648054E+02  0.34760846695E+02  0.00000000000E+00 0. -1.
</event>
<event>
 7    1  0.2313935E-008  0.4614232E+02  0.7816164E-02  0.1320468E+00
        -11   -1    0    0    0    0  0.00000000000E+00  0.00000000000E+00  0.45593999997E+02  0.45594000000E+02  0.51100000000E-03 0. -1.
         11   -1    0    0    0    0 -0.00000000000E+00 -0.00000000000E+00 -0.45593999997E+02  0.45594000000E+02  0.51100000000E-03 0.  1.
    9900012    2    1    2    0    0  0.16451168651E+02 -0.41924444136E+02 -0.90199285960E+00  0.46142316997E+02  0.99999930317E+01 0.  0.
         12    1    1    2    0    0 -0.16451168651E+02  0.41924444136E+02  0.90199285960E+00  0.45045683003E+02  0.00000000000E+00 0. -1.
         11    1    3    3    0    0  0.56549699961E+01 -0.23431737681E+02 -0.96825053918E+00  0.24123899473E+02  0.51100000000E-03 0. -1.
        -11    1    3    3    0    0  0.76243274984E+01 -0.16096560290E+02  0.12941294728E+01  0.17857894454E+02  0.51100000000E-03 0.  1.
         12    1    3    3    0    0  0.31718711562E+01 -0.23961461647E+01 -0.12278717932E+01  0.41605230698E+01  0.00000000000E+00 0. -1.
</event>
<event>
 7    1  0.2313935E-008  0.4614232E+02  0.7816164E-02  0.1320468E+00
        -11   -1    0    0    0    0  0.00000000000E+00  0.00000000000E+00  0.45593999997E+02  0.45594000000E+02  0.51100000000E-03 0.  1.
         11   -1    0    0    0    0 -0.00000000000E+00 -0.00000000000E+00 -0.45593999997E+02  0.45594000000E+02  0.51100000000E-03 0. -1.
    9900012    2    1    2    0    0 -0.19083786064E+02 -0.29619903454E+01  0.40695813670E+02  0.46142317326E+02  0.99999960279E+01 0.  0.
         12    1    1    2    0    0  0.19083786064E+02  0.29619903454E+01 -0.40695813670E+02  0.45045682674E+02  0.00000000000E+00 0. -1.
         11    1    3    3    0    0 -0.71712540574E+00 -0.18436249347E+01  0.49124074229E+01  0.52957500599E+01  0.51100000000E-03 0. -1.
        -11    1    3    3    0    0 -0.17566599300E+02  0.66319097114E+00  0.33574079398E+02  0.37897810503E+02  0.51100000000E-03 0.  1.
        -12    1    3    3    0    0 -0.80006135787E+00 -0.17815563818E+01  0.22093268489E+01  0.29487567623E+01  0.00000000000E+00 0.  1.
</event>
<event>
 7    1  0.2313935E-008  0.4614232E+02  0.7816164E-02  0.1320468E+00
        -11   -1    0    0    0    0  0.00000000000E+00  0.00000000000E+00  0.45593999997E+02  0.45594000000E+02  0.51100000000E-03 0.  1.
         11   -1    0    0    0    0 -0.00000000000E+00 -0.00000000000E+00 -0.45593999997E+02  0.45594000000E+02  0.51100000000E-03 0. -1.
    9900012    2    1    2    0    0  0.15606187830E+02 -0.18875691022E+02  0.37805669931E+02  0.46142317753E+02  0.99999999263E+01 0.  0.
         12    1    1    2    0    0 -0.15606187830E+02  0.18875691022E+02 -0.37805669931E+02  0.45045682247E+02  0.00000000000E+00 0. -1.
         11    1    3    3    0    0  0.13952836254E+01 -0.62273162155E+01  0.81812935903E+01  0.10375926403E+02  0.51100000000E-03 0. -1.
        -11    1    3    3    0    0  0.10433903166E+02 -0.95466498332E+01  0.16332866756E+02  0.21604800278E+02  0.51100000000E-03 0.  1.
         12    1    3    3    0    0  0.37770010380E+01 -0.31017249737E+01  0.13291509585E+02  0.14161591072E+02  0.00000000000E+00 0. -1.
</event>
<event>
 7    1  0.2313935E-008  0.4614232E+02  0.7816164E-02  0.1320468E+00
        -11   -1    0    0    0    0  0.00000000000E+00  0.00000000000E+00  0.45593999997E+02  0.45594000000E+02  0.51100000000E-03 0.  1.
         11   -1    0    0    0    0 -0.00000000000E+00 -0.00000000000E+00 -0.45593999997E+02  0.45594000000E+02  0.51100000000E-03 0. -1.
    9900012    2    1    2    0    0 -0.40414883079E+02  0.19882397538E+02  0.66404658522E+00  0.46142318032E+02  0.10000002466E+02 0.  0.
         12    1    1    2    0    0  0.40414883079E+02 -0.19882397538E+02 -0.66404658522E+00  0.45045681968E+02  0.00000000000E+00 0. -1.
         11    1    3    3    0    0 -0.10314629316E+02  0.17891339911E+01  0.14115614899E+00  0.10469599022E+02  0.51100000000E-03 0. -1.
        -11    1    3    3    0    0 -0.23699870466E+02  0.13623226505E+02  0.29555936295E+01  0.27495666831E+02  0.51100000000E-03 0.  1.
         12    1    3    3    0    0 -0.64003832966E+01  0.44700370415E+01 -0.24327031932E+01  0.81770521780E+01  0.00000000000E+00 0. -1.
</event>
<event>
 7    1  0.2313935E-008  0.4614231E+02  0.7816164E-02  0.1320468E+00
        -11   -1    0    0    0    0  0.00000000000E+00  0.00000000000E+00  0.45593999997E+02  0.45594000000E+02  0.51100000000E-03 0.  1.
         11   -1    0    0    0    0 -0.00000000000E+00 -0.00000000000E+00 -0.45593999997E+02  0.45594000000E+02  0.51100000000E-03 0. -1.
    9900012    2    1    2    0    0  0.12706870153E+02  0.34291516780E+02  0.26300973959E+02  0.46142313155E+02  0.99999579981E+01 0.  0.
         12    1    1    2    0    0 -0.12706870153E+02 -0.34291516780E+02 -0.26300973959E+02  0.45045686845E+02  0.00000000000E+00 0. -1.
         11    1    3    3    0    0  0.13624577472E+01  0.42950746450E+01  0.18348039393E+01  0.48652300126E+01  0.51100000000E-03 0. -1.
        -11    1    3    3    0    0  0.11507824748E+02  0.29529272042E+02  0.25131751195E+02  0.40447655756E+02  0.51100000000E-03 0.  1.
        -12    1    3    3    0    0 -0.16341234217E+00  0.46717009249E+00 -0.66558117503E+00  0.82942738649E+00  0.00000000000E+00 0.  1.
</event>
<event>
 7    1  0.2313935E-008  0.4614232E+02  0.7816164E-02  0.1320468E+00
        -11   -1    0    0    0    0  0.00000000000E+00  0.00000000000E+00  0.45593999997E+02  0.45594000000E+02  0.51100000000E-03 0.  1.
         11   -1    0    0    0    0 -0.00000000000E+00 -0.00000000000E+00 -0.45593999997E+02  0.45594000000E+02  0.51100000000E-03 0. -1.
    9900012    2    1    2    0    0 -0.13021662690E+02 -0.16927274869E+02  0.39661280795E+02  0.46142317321E+02  0.99999959842E+01 0.  0.
         12    1    1    2    0    0  0.13021662690E+02  0.16927274869E+02 -0.39661280795E+02  0.45045682679E+02  0.00000000000E+00 0. -1.
         11    1    3    3    0    0 -0.71349251942E+01 -0.57455536312E+01  0.10540225824E+02  0.13964773709E+02  0.51100000000E-03 0. -1.
        -11    1    3    3    0    0 -0.36316391532E+01 -0.85526125404E+01  0.25618705794E+02  0.27251680151E+02  0.51100000000E-03 0.  1.
        -12    1    3    3    0    0 -0.22550983425E+01 -0.26291086978E+01  0.35023491765E+01  0.49258634607E+01  0.00000000000E+00 0.  1.
</event>
<event>
 7    1  0.2313935E-008  0.4614232E+02  0.7816164E-02  0.1320468E+00
        -11   -1    0    0    0    0  0.00000000000E+00  0.00000000000E+00  0.45593999997E+02  0.45594000000E+02  0.51100000000E-03 0.  1.
         11   -1    0    0    0    0 -0.00000000000E+00 -0.00000000000E+00 -0.45593999997E+02  0.45594000000E+02  0.51100000000E-03 0. -1.
    9900012    2    1    2    0    0 -0.91861082070E+01 -0.43615875996E+02  0.65103190546E+01  0.46142317886E+02  0.10000001140E+02 0.  0.
         12    1    1    2    0    0  0.91861082070E+01  0.43615875996E+02 -0.65103190546E+01  0.45045682114E+02  0.00000000000E+00 0. -1.
         11    1    3    3    0    0 -0.21395826077E+01 -0.50762802773E+01  0.11672957352E+01  0.56310758105E+01  0.51100000000E-03 0. -1.
        -11    1    3    3    0    0  0.12664810569E+01 -0.17159798930E+02  0.27760349841E+01  0.17428971400E+02  0.51100000000E-03 0.  1.
        -12    1    3    3    0    0 -0.83130066562E+01 -0.21379796789E+02  0.25669883353E+01  0.23082270675E+02  0.00000000000E+00 0.  1.
</event>
<event>
 7    1  0.2313935E-008  0.4614232E+02  0.7816164E-02  0.1320468E+00
        -11   -1    0    0    0    0  0.00000000000E+00  0.00000000000E+00  0.45593999997E+02  0.45594000000E+02  0.51100000000E-03 0.  1.
         11   -1    0    0    0    0 -0.00000000000E+00 -0.00000000000E+00 -0.45593999997E+02  0.45594000000E+02  0.51100000000E-03 0. -1.
    9900012    2    1    2    0    0  0.14331047659E+02 -0.15591688497E+02  0.39757187240E+02  0.46142316362E+02  0.99999872425E+01 0.  0.
         12    1    1    2    0    0 -0.14331047659E+02  0.15591688497E+02 -0.39757187240E+02  0.45045683638E+02  0.00000000000E+00 0. -1.
         11    1    3    3    0    0  0.62918719683E+01 -0.10900435619E+02  0.25964140927E+02  0.28853834475E+02  0.51100000000E-03 0.  1.
        -11    1    3    3    0    0  0.50269237517E+00 -0.11975468036E+01  0.51074235629E+01  0.52699709376E+01  0.51100000000E-03 0. -1.
        -12    1    3    3    0    0  0.75364833154E+01 -0.34937060740E+01  0.86856227495E+01  0.12018510949E+02  0.00000000000E+00 0.  1.
</event>
<event>
 7    1  0.2313935E-008  0.4614232E+02  0.7816164E-02  0.1320468E+00
        -11   -1    0    0    0    0  0.00000000000E+00  0.00000000000E+00  0.45593999997E+02  0.45594000000E+02  0.51100000000E-03 0.  1.
         11   -1    0    0    0    0 -0.00000000000E+00 -0.00000000000E+00 -0.45593999997E+02  0.45594000000E+02  0.51100000000E-03 0. -1.
    9900012    2    1    2    0    0 -0.12269617567E+02 -0.38082189259E+01  0.43174844014E+02  0.46142320937E+02  0.10000028958E+02 0.  0.
         12    1    1    2    0    0  0.12269617567E+02  0.38082189259E+01 -0.43174844014E+02  0.45045679063E+02  0.00000000000E+00 0. -1.
         11    1    3    3    0    0  0.85945707467E+00 -0.16248060283E+01  0.11603657549E+02  0.11748341579E+02  0.51100000000E-03 0. -1.
        -11    1    3    3    0    0 -0.82885185318E+01  0.74509329076E-01  0.19994304445E+02  0.21644336478E+02  0.51100000000E-03 0.  1.
         12    1    3    3    0    0 -0.48405561094E+01 -0.22579222267E+01  0.11576882021E+02  0.12749642879E+02  0.00000000000E+00 0. -1.
</event>
<event>
 7    1  0.2313935E-008  0.4614232E+02  0.7816164E-02  0.1320468E+00
        -11   -1    0    0    0    0  0.00000000000E+00  0.00000000000E+00  0.45593999997E+02  0.45594000000E+02  0.51100000000E-03 0. -1.
         11   -1    0    0    0    0 -0.00000000000E+00 -0.00000000000E+00 -0.45593999997E+02  0.45594000000E+02  0.51100000000E-03 0.  1.
    9900012    2    1    2    0    0 -0.23996109033E+02  0.16626403208E+02 -0.34305435658E+02  0.46142318209E+02  0.10000004088E+02 0.  0.
         12    1    1    2    0    0  0.23996109033E+02 -0.16626403208E+02  0.34305435658E+02  0.45045681791E+02  0.00000000000E+00 0. -1.
         11    1    3    3    0    0 -0.12756926670E+00  0.10450475041E+01 -0.62112195138E-01  0.10546356667E+01  0.51100000000E-03 0. -1.
        -11    1    3    3    0    0 -0.57847965367E+01  0.70290732087E+01 -0.82292997085E+01  0.12271638648E+02  0.51100000000E-03 0.  1.
        -12    1    3    3    0    0 -0.18083743229E+02  0.85522824950E+01 -0.26014023754E+02  0.32816043895E+02  0.00000000000E+00 0.  1.
</event>
<event>
 7    1  0.2313935E-008  0.4614232E+02  0.7816164E-02  0.1320468E+00
        -11   -1    0    0    0    0  0.00000000000E+00  0.00000000000E+00  0.45593999997E+02  0.45594000000E+02  0.51100000000E-03 0.  1.
         11   -1    0    0    0    0 -0.00000000000E+00 -0.00000000000E+00 -0.45593999997E+02  0.45594000000E+02  0.51100000000E-03 0. -1.
    9900012    2    1    2    0    0  0.10186856510E+02  0.30713787145E+01  0.43771085730E+02  0.46142319200E+02  0.10000013118E+02 0.  0.
         12    1    1    2    0    0 -0.10186856510E+02 -0.30713787145E+01 -0.43771085730E+02  0.45045680800E+02  0.00000000000E+00 0. -1.
         11    1    3    3    0    0 -0.25996364678E+00  0.19911910296E+01  0.20575188964E+02  0.20672949088E+02  0.51100000000E-03 0. -1.
        -11    1    3    3    0    0  0.53370734511E+01  0.84079784325E+00  0.12005908952E+02  0.13165604584E+02  0.51100000000E-03 0.  1.
         12    1    3    3    0    0  0.51097467052E+01  0.23938984170E+00  0.11189987814E+02  0.12303765528E+02  0.00000000000E+00 0. -1.
</event>
<event>
 7    1  0.2313935E-008  0.4614232E+02  0.7816164E-02  0.1320468E+00
        -11   -1    0    0    0    0  0.00000000000E+00  0.00000000000E+00  0.45593999997E+02  0.45594000000E+02  0.51100000000E-03 0.  1.
         11   -1    0    0    0    0 -0.00000000000E+00 -0.00000000000E+00 -0.45593999997E+02  0.45594000000E+02  0.51100000000E-03 0. -1.
    9900012    2    1    2    0    0 -0.29893268579E+02  0.74232989576E+01  0.32869448056E+02  0.46142317751E+02  0.99999999105E+01 0.  0.
         12    1    1    2    0    0  0.29893268579E+02 -0.74232989576E+01 -0.32869448056E+02  0.45045682249E+02  0.00000000000E+00 0. -1.
         11    1    3    3    0    0 -0.73177321524E+01  0.25167779212E+00  0.55328210784E+01  0.91773991366E+01  0.51100000000E-03 0. -1.
        -11    1    3    3    0    0 -0.15414210177E+02  0.77010645363E+01  0.15813218462E+02  0.23387221912E+02  0.51100000000E-03 0.  1.
         12    1    3    3    0    0 -0.71613262494E+01 -0.52944337086E+00  0.11523408515E+02  0.13577696702E+02  0.00000000000E+00 0. -1.
</event>
<event>
 7    1  0.2313935E-008  0.4614232E+02  0.7816164E-02  0.1320468E+00
        -11   -1    0    0    0    0  0.00000000000E+00  0.00000000000E+00  0.45593999997E+02  0.45594000000E+02  0.51100000000E-03 0.  1.
         11   -1    0    0    0    0 -0.00000000000E+00 -0.00000000000E+00 -0.45593999997E+02  0.45594000000E+02  0.51100000000E-03 0. -1.
    9900012    2    1    2    0    0 -0.24855317790E+02  0.21577594835E+02  0.30752793454E+02  0.46142315117E+02  0.99999758904E+01 0.  0.
         12    1    1    2    0    0  0.24855317790E+02 -0.21577594835E+02 -0.30752793454E+02  0.45045684883E+02  0.00000000000E+00 0. -1.
         11    1    3    3    0    0 -0.15758981353E+02  0.80425098045E+01  0.14203020580E+02  0.22688174257E+02  0.51100000000E-03 0. -1.
        -11    1    3    3    0    0 -0.64474561606E+01  0.69333946589E+01  0.86589628001E+01  0.12830404883E+02  0.51100000000E-03 0.  1.
        -12    1    3    3    0    0 -0.26488802766E+01  0.66016903715E+01  0.78908100745E+01  0.10623735977E+02  0.00000000000E+00 0.  1.
</event>
<event>
 7    1  0.2313935E-008  0.4614232E+02  0.7816164E-02  0.1320468E+00
        -11   -1    0    0    0    0  0.00000000000E+00  0.00000000000E+00  0.45593999997E+02  0.45594000000E+02  0.51100000000E-03 0.  1.
         11   -1    0    0    0    0 -0.00000000000E+00 -0.00000000000E+00 -0.45593999997E+02  0.45594000000E+02  0.51100000000E-03 0. -1.
    9900012    2    1    2    0    0 -0.31821956532E+02  0.16758013555E+01  0.31838157688E+02  0.46142317491E+02  0.99999975398E+01 0.  0.
         12    1    1    2    0    0  0.31821956532E+02 -0.16758013555E+01 -0.31838157688E+02  0.45045682509E+02  0.00000000000E+00 0. -1.
         11    1    3    3    0    0 -0.10844071400E+02 -0.28648452473E+00  0.83661435604E+01  0.13699208599E+02  0.51100000000E-03 0. -1.
        -11    1    3    3    0    0 -0.97705932033E+01  0.70101753893E+00  0.16486023073E+02  0.19176675264E+02  0.51100000000E-03 0.  1.
        -12    1    3    3    0    0 -0.11207291929E+02  0.12612683413E+01  0.69859910540E+01  0.13266433628E+02  0.00000000000E+00 0.  1.
</event>
<event>
 7    1  0.2313935E-008  0.4614232E+02  0.7816164E-02  0.1320468E+00
        -11   -1    0    0    0    0  0.00000000000E+00  0.00000000000E+00  0.45593999997E+02  0.45594000000E+02  0.51100000000E-03 0. -1.
         11   -1    0    0    0    0 -0.00000000000E+00 -0.00000000000E+00 -0.45593999997E+02  0.45594000000E+02  0.51100000000E-03 0.  1.
    9900012    2    1    2    0    0 -0.25685303054E+02 -0.29889093649E+02 -0.21817899285E+02  0.46142318283E+02  0.10000004762E+02 0.  0.
         12    1    1    2    0    0  0.25685303054E+02  0.29889093649E+02  0.21817899285E+02  0.45045681717E+02  0.00000000000E+00 0. -1.
         11    1    3    3    0    0 -0.95400396143E+01 -0.11888966437E+02 -0.86915653323E+01  0.17547170341E+02  0.51100000000E-03 0. -1.
        -11    1    3    3    0    0 -0.10094493165E+02 -0.15754164110E+02 -0.11415196498E+02  0.21918010640E+02  0.51100000000E-03 0.  1.
         12    1    3    3    0    0 -0.60507702745E+01 -0.22459631020E+01 -0.17111374546E+01  0.66771373027E+01  0.00000000000E+00 0. -1.
</event>
<event>
 7    1  0.2313935E-008  0.4614232E+02  0.7816164E-02  0.1320468E+00
        -11   -1    0    0    0    0  0.00000000000E+00  0.00000000000E+00  0.45593999997E+02  0.45594000000E+02  0.51100000000E-03 0.  1.
         11   -1    0    0    0    0 -0.00000000000E+00 -0.00000000000E+00 -0.45593999997E+02  0.45594000000E+02  0.51100000000E-03 0. -1.
    9900012    2    1    2    0    0  0.53385081910E+00  0.26383441280E+02  0.36506747294E+02  0.46142316872E+02  0.99999918915E+01 0.  0.
         12    1    1    2    0    0 -0.53385081910E+00 -0.26383441280E+02 -0.36506747294E+02  0.45045683128E+02  0.00000000000E+00 0. -1.
         11    1    3    3    0    0  0.56963011922E-01  0.32054322337E+01  0.11936485137E+01  0.34209410438E+01  0.51100000000E-03 0. -1.
        -11    1    3    3    0    0  0.15101991277E+01  0.12073322016E+02  0.13182716963E+02  0.17939616292E+02  0.51100000000E-03 0.  1.
        -12    1    3    3    0    0 -0.10333113206E+01  0.11104687030E+02  0.22130381818E+02  0.24781759536E+02  0.00000000000E+00 0.  1.
</event>
<event>
 7    1  0.2313935E-008  0.4614232E+02  0.7816164E-02  0.1320468E+00
        -11   -1    0    0    0    0  0.00000000000E+00  0.00000000000E+00  0.45593999997E+02  0.45594000000E+02  0.51100000000E-03 0. -1.
         11   -1    0    0    0    0 -0.00000000000E+00 -0.00000000000E+00 -0.45593999997E+02  0.45594000000E+02  0.51100000000E-03 0.  1.
    9900012    2    1    2    0    0 -0.43754382279E+02  0.56610771232E+01 -0.90895446973E+01  0.46142316681E+02  0.99999901548E+01 0.  0.
         12    1    1    2    0    0  0.43754382279E+02 -0.56610771232E+01  0.90895446973E+01  0.45045683319E+02  0.00000000000E+00 0. -1.
         11    1    3    3    0    0 -0.27985458471E+02  0.53918023204E+01 -0.10308033057E+02  0.30306978798E+02  0.51100000000E-03 0. -1.
        -11    1    3    3    0    0 -0.37882530119E+01  0.30252779274E+00  0.87001770869E-01  0.38013094477E+01  0.51100000000E-03 0.  1.
         12    1    3    3    0    0 -0.11980670796E+02 -0.33252989947E-01  0.11314865891E+01  0.12034028435E+02  0.00000000000E+00 0. -1.
</event>
<event>
 7    1  0.2326812E-008  0.4614232E+02  0.7816164E-02  0.1320468E+00
        -11   -1    0    0    0    0  0.00000000000E+00  0.00000000000E+00  0.45593999997E+02  0.45594000000E+02  0.51100000000E-03 0.  1.
         11   -1    0    0    0    0 -0.00000000000E+00 -0.00000000000E+00 -0.45593999997E+02  0.45594000000E+02  0.51100000000E-03 0. -1.
    9900012    2    1    2    0    0 -0.25905165532E+02 -0.14582415553E+02  0.33843596038E+02  0.46142318327E+02  0.10000005162E+02 0.  0.
         12    1    1    2    0    0  0.25905165532E+02  0.14582415553E+02 -0.33843596038E+02  0.45045681673E+02  0.00000000000E+00 0. -1.
         11    1    3    3    0    0 -0.14429585443E+02 -0.84957776379E+01  0.21665971687E+02  0.27382576634E+02  0.51100000000E-03 0. -1.
        -11    1    3    3    0    0 -0.96497514641E+01 -0.66707277336E+01  0.12082325119E+02  0.16840394662E+02  0.51100000000E-03 0.  1.
         12    1    3    3    0    0 -0.18258286248E+01  0.58408981888E+00  0.95299232268E-01  0.19193470315E+01  0.00000000000E+00 0. -1.
</event>
<event>
 7    1  0.2313935E-008  0.4614232E+02  0.7816164E-02  0.1320468E+00
        -11   -1    0    0    0    0  0.00000000000E+00  0.00000000000E+00  0.45593999997E+02  0.45594000000E+02  0.51100000000E-03 0.  1.
         11   -1    0    0    0    0 -0.00000000000E+00 -0.00000000000E+00 -0.45593999997E+02  0.45594000000E+02  0.51100000000E-03 0. -1.
    9900012    2    1    2    0    0  0.36437655555E+02  0.84743659210E+01  0.25091749932E+02  0.46142317246E+02  0.99999953028E+01 0.  0.
         12    1    1    2    0    0 -0.36437655555E+02 -0.84743659210E+01 -0.25091749932E+02  0.45045682754E+02  0.00000000000E+00 0. -1.
         11    1    3    3    0    0  0.15864308541E+02  0.11813871928E+01  0.11615983903E+02  0.19697792858E+02  0.51100000000E-03 0. -1.
        -11    1    3    3    0    0  0.10276549185E+02  0.70042632790E+01  0.68760360276E+01  0.14210807118E+02  0.51100000000E-03 0.  1.
        -12    1    3    3    0    0  0.10296797829E+02  0.28871544924E+00  0.65997300013E+01  0.12233717270E+02  0.00000000000E+00 0.  1.
</event>
<event>
 7    1  0.2313935E-008  0.4614232E+02  0.7816164E-02  0.1320468E+00
        -11   -1    0    0    0    0  0.00000000000E+00  0.00000000000E+00  0.45593999997E+02  0.45594000000E+02  0.51100000000E-03 0.  1.
         11   -1    0    0    0    0 -0.00000000000E+00 -0.00000000000E+00 -0.45593999997E+02  0.45594000000E+02  0.51100000000E-03 0. -1.
    9900012    2    1    2    0    0 -0.20964588264E+02 -0.39370164407E+02  0.62920390849E+01  0.46142316940E+02  0.99999925113E+01 0.  0.
         12    1    1    2    0    0  0.20964588264E+02  0.39370164407E+02 -0.62920390849E+01  0.45045683060E+02  0.00000000000E+00 0. -1.
         11    1    3    3    0    0 -0.15792616111E+01 -0.10561163895E+01  0.10384920762E+01  0.21651593747E+01  0.51100000000E-03 0. -1.
        -11    1    3    3    0    0 -0.77569522102E+01 -0.10461782017E+02  0.45205072903E+01  0.13786013818E+02  0.51100000000E-03 0.  1.
         12    1    3    3    0    0 -0.11628374443E+02 -0.27852266001E+02  0.73303971836E+00  0.30191143748E+02  0.00000000000E+00 0. -1.
</event>
<event>
 7    1  0.2313935E-008  0.4614232E+02  0.7816164E-02  0.1320468E+00
        -11   -1    0    0    0    0  0.00000000000E+00  0.00000000000E+00  0.45593999997E+02  0.45594000000E+02  0.51100000000E-03 0. -1.
         11   -1    0    0    0    0 -0.00000000000E+00 -0.00000000000E+00 -0.45593999997E+02  0.45594000000E+02  0.51100000000E-03 0.  1.
    9900012    2    1    2    0    0 -0.37280620988E+02 -0.25215436272E+02 -0.18575899952E+01  0.46142316875E+02  0.99999919162E+01 0.  0.
         12    1    1    2    0    0  0.37280620988E+02  0.25215436272E+02  0.18575899952E+01  0.45045683125E+02  0.00000000000E+00 0. -1.
         11    1    3    3    0    0 -0.24285075717E+02 -0.13858685503E+02  0.17870075364E+01  0.28018234467E+02  0.51100000000E-03 0. -1.
        -11    1    3    3    0    0 -0.10736835585E+02 -0.77781946593E+01 -0.13946075553E+01  0.13331349558E+02  0.51100000000E-03 0.  1.
        -12    1    3    3    0    0 -0.22587096859E+01 -0.35785561096E+01 -0.22499899763E+01  0.47927328497E+01  0.00000000000E+00 0.  1.
</event>
<event>
 7    1  0.2313935E-008  0.4614232E+02  0.7816164E-02  0.1320468E+00
        -11   -1    0    0    0    0  0.00000000000E+00  0.00000000000E+00  0.45593999997E+02  0.45594000000E+02  0.51100000000E-03 0.  1.
         11   -1    0    0    0    0 -0.00000000000E+00 -0.00000000000E+00 -0.45593999997E+02  0.45594000000E+02  0.51100000000E-03 0. -1.
    9900012    2    1    2    0    0  0.12805190166E+01 -0.20348329519E+02  0.40167391443E+02  0.46142316761E+02  0.99999908809E+01 0.  0.
         12    1    1    2    0    0 -0.12805190166E+01  0.20348329519E+02 -0.40167391443E+02  0.45045683239E+02  0.00000000000E+00 0. -1.
         11    1    3    3    0    0  0.35334831704E+01 -0.85323794843E+01  0.14717677340E+02  0.17375184302E+02  0.51100000000E-03 0. -1.
        -11    1    3    3    0    0 -0.40918719054E+01 -0.10087081821E+02  0.20475293214E+02  0.23189011791E+02  0.51100000000E-03 0.  1.
         12    1    3    3    0    0  0.18389077515E+01 -0.17288682134E+01  0.49744208888E+01  0.55781206689E+01  0.00000000000E+00 0. -1.
</event>
<event>
 7    1  0.2313935E-008  0.4614232E+02  0.7816164E-02  0.1320468E+00
        -11   -1    0    0    0    0  0.00000000000E+00  0.00000000000E+00  0.45593999997E+02  0.45594000000E+02  0.51100000000E-03 0. -1.
         11   -1    0    0    0    0 -0.00000000000E+00 -0.00000000000E+00 -0.45593999997E+02  0.45594000000E+02  0.51100000000E-03 0.  1.
    9900012    2    1    2    0    0  0.56673392618E+01 -0.29608618346E+02 -0.33471249968E+02  0.46142316643E+02  0.99999898075E+01 0.  0.
         12    1    1    2    0    0 -0.56673392618E+01  0.29608618346E+02  0.33471249968E+02  0.45045683357E+02  0.00000000000E+00 0. -1.
         11    1    3    3    0    0 -0.31906486752E+00 -0.13257501987E+02 -0.11343138512E+02  0.17450786598E+02  0.51100000000E-03 0. -1.
        -11    1    3    3    0    0 -0.97346007514E+00 -0.35310841850E+01 -0.40147240782E+01  0.54345367534E+01  0.51100000000E-03 0.  1.
        -12    1    3    3    0    0  0.69598642045E+01 -0.12820032173E+02 -0.18113387378E+02  0.23256993292E+02  0.00000000000E+00 0.  1.
</event>
<event>
 7    1  0.2313935E-008  0.4614232E+02  0.7816164E-02  0.1320468E+00
        -11   -1    0    0    0    0  0.00000000000E+00  0.00000000000E+00  0.45593999997E+02  0.45594000000E+02  0.51100000000E-03 0.  1.
         11   -1    0    0    0    0 -0.00000000000E+00 -0.00000000000E+00 -0.45593999997E+02  0.45594000000E+02  0.51100000000E-03 0. -1.
    9900012    2    1    2    0    0 -0.13681094670E+02  0.35292741460E+02  0.24420555260E+02  0.46142317961E+02  0.10000001825E+02 0.  0.
         12    1    1    2    0    0  0.13681094670E+02 -0.35292741460E+02 -0.24420555260E+02  0.45045682039E+02  0.00000000000E+00 0. -1.
         11    1    3    3    0    0 -0.10772968409E+02  0.31017926030E+02  0.23957052166E+02  0.40646142896E+02  0.51100000000E-03 0. -1.
        -11    1    3    3    0    0 -0.19966559148E+01  0.22772040495E+01  0.10802569661E+01  0.32154701832E+01  0.51100000000E-03 0.  1.
         12    1    3    3    0    0 -0.91147034611E+00  0.19976113807E+01 -0.61675387268E+00  0.22807048822E+01  0.00000000000E+00 0. -1.
</event>
<event>
 7    1  0.2313935E-008  0.4614232E+02  0.7816164E-02  0.1320468E+00
        -11   -1    0    0    0    0  0.00000000000E+00  0.00000000000E+00  0.45593999997E+02  0.45594000000E+02  0.51100000000E-03 0.  1.
         11   -1    0    0    0    0 -0.00000000000E+00 -0.00000000000E+00 -0.45593999997E+02  0.45594000000E+02  0.51100000000E-03 0. -1.
    9900012    2    1    2    0    0 -0.76354482634E+01 -0.10826201257E+02  0.43053532822E+02  0.46142318828E+02  0.10000009725E+02 0.  0.
         12    1    1    2    0    0  0.76354482634E+01  0.10826201257E+02 -0.43053532822E+02  0.45045681172E+02  0.00000000000E+00 0. -1.
         11    1    3    3    0    0 -0.15911984949E+01 -0.30038245821E+01  0.35620552942E+01  0.49237295773E+01  0.51100000000E-03 0. -1.
        -11    1    3    3    0    0 -0.32043950633E+01 -0.82100374258E+01  0.32190669895E+02  0.33375321584E+02  0.51100000000E-03 0.  1.
         12    1    3    3    0    0 -0.28398547051E+01  0.38766075070E+00  0.73008076325E+01  0.78432676666E+01  0.00000000000E+00 0. -1.
</event>
<event>
 7    1  0.2313935E-008  0.4614232E+02  0.7816164E-02  0.1320468E+00
        -11   -1    0    0    0    0  0.00000000000E+00  0.00000000000E+00  0.45593999997E+02  0.45594000000E+02  0.51100000000E-03 0.  1.
         11   -1    0    0    0    0 -0.00000000000E+00 -0.00000000000E+00 -0.45593999997E+02  0.45594000000E+02  0.51100000000E-03 0. -1.
    9900012    2    1    2    0    0  0.13935571858E+02 -0.73032893047E+01  0.42208713359E+02  0.46142315622E+02  0.99999804958E+01 0.  0.
         12    1    1    2    0    0 -0.13935571858E+02  0.73032893047E+01 -0.42208713359E+02  0.45045684378E+02  0.00000000000E+00 0. -1.
         11    1    3    3    0    0  0.14329149436E+02 -0.49265122050E+01  0.30156091038E+02  0.33748849951E+02  0.51100000000E-03 0. -1.
        -11    1    3    3    0    0  0.56689549312E+00 -0.10588571042E+01  0.39585711564E+01  0.41367662164E+01  0.51100000000E-03 0.  1.
         12    1    3    3    0    0 -0.96047307158E+00 -0.13179199955E+01  0.80940511647E+01  0.82566994551E+01  0.00000000000E+00 0. -1.
</event>
<event>
 7    1  0.2313935E-008  0.4614232E+02  0.7816164E-02  0.1320468E+00
        -11   -1    0    0    0    0  0.00000000000E+00  0.00000000000E+00  0.45593999997E+02  0.45594000000E+02  0.51100000000E-03 0. -1.
         11   -1    0    0    0    0 -0.00000000000E+00 -0.00000000000E+00 -0.45593999997E+02  0.45594000000E+02  0.51100000000E-03 0.  1.
    9900012    2    1    2    0    0 -0.34599171319E+02  0.14596805947E+02 -0.24878586435E+02  0.46142318045E+02  0.10000002587E+02 0.  0.
         12    1    1    2    0    0  0.34599171319E+02 -0.14596805947E+02  0.24878586435E+02  0.45045681955E+02  0.00000000000E+00 0. -1.
         11    1    3    3    0    0 -0.30284055038E+01 -0.21112759063E+00 -0.42434524207E+01  0.52175380653E+01  0.51100000000E-03 0. -1.
        -11    1    3    3    0    0 -0.56834648379E+00  0.12312946728E+01 -0.15287937788E+00  0.13647258561E+01  0.51100000000E-03 0.  1.
        -12    1    3    3    0    0 -0.31002419331E+02  0.13576638865E+02 -0.20482254636E+02  0.39560054123E+02  0.00000000000E+00 0.  1.
</event>
<event>
 7    1  0.2313935E-008  0.4614232E+02  0.7816164E-02  0.1320468E+00
        -11   -1    0    0    0    0  0.00000000000E+00  0.00000000000E+00  0.45593999997E+02  0.45594000000E+02  0.51100000000E-03 0.  1.
         11   -1    0    0    0    0 -0.00000000000E+00 -0.00000000000E+00 -0.45593999997E+02  0.45594000000E+02  0.51100000000E-03 0. -1.
    9900012    2    1    2    0    0  0.90933338088E+01 -0.43959214481E+02 -0.37432908362E+01  0.46142317811E+02  0.10000000459E+02 0.  0.
         12    1    1    2    0    0 -0.90933338088E+01  0.43959214481E+02  0.37432908362E+01  0.45045682189E+02  0.00000000000E+00 0. -1.
         11    1    3    3    0    0  0.36657746750E+01 -0.28043448540E+02 -0.21657966667E+01  0.28364830080E+02  0.51100000000E-03 0. -1.
        -11    1    3    3    0    0  0.22594609883E+01 -0.11453720748E+02  0.10219946542E+01  0.11719102195E+02  0.51100000000E-03 0.  1.
         12    1    3    3    0    0  0.31680981455E+01 -0.44620451931E+01 -0.25994888237E+01  0.60583855365E+01  0.00000000000E+00 0. -1.
</event>
<event>
 7    1  0.2313935E-008  0.4614232E+02  0.7816164E-02  0.1320468E+00
        -11   -1    0    0    0    0  0.00000000000E+00  0.00000000000E+00  0.45593999997E+02  0.45594000000E+02  0.51100000000E-03 0. -1.
         11   -1    0    0    0    0 -0.00000000000E+00 -0.00000000000E+00 -0.45593999997E+02  0.45594000000E+02  0.51100000000E-03 0.  1.
    9900012    2    1    2    0    0  0.18258079532E+01  0.24302606519E+02 -0.37883547285E+02  0.46142318596E+02  0.10000007611E+02 0.  0.
         12    1    1    2    0    0 -0.18258079532E+01 -0.24302606519E+02  0.37883547285E+02  0.45045681404E+02  0.00000000000E+00 0. -1.
         11    1    3    3    0    0 -0.14481160960E+01  0.19236398797E+01 -0.67684198247E+01  0.71839360938E+01  0.51100000000E-03 0. -1.
        -11    1    3    3    0    0 -0.14398720508E+01  0.11393748789E+02 -0.15664398485E+02  0.19423288166E+02  0.51100000000E-03 0.  1.
        -12    1    3    3    0    0  0.47137960999E+01  0.10985217850E+02 -0.15450728974E+02  0.19535094336E+02  0.00000000000E+00 0.  1.
</event>
<event>
 7    1  0.2313935E-008  0.4614232E+02  0.7816164E-02  0.1320468E+00
        -11   -1    0    0    0    0  0.00000000000E+00  0.00000000000E+00  0.45593999997E+02  0.45594000000E+02  0.51100000000E-03 0.  1.
         11   -1    0    0    0    0 -0.00000000000E+00 -0.00000000000E+00 -0.45593999997E+02  0.45594000000E+02  0.51100000000E-03 0. -1.
    9900012    2    1    2    0    0 -0.78768411793E+01 -0.23455438653E+02  0.37641882471E+02  0.46142317129E+02  0.99999942331E+01 0.  0.
         12    1    1    2    0    0  0.78768411793E+01  0.23455438653E+02 -0.37641882471E+02  0.45045682871E+02  0.00000000000E+00 0. -1.
         11    1    3    3    0    0 -0.64939338248E+00 -0.34566986340E+01  0.11930641354E+01  0.37140112417E+01  0.51100000000E-03 0. -1.
        -11    1    3    3    0    0 -0.73161222622E+01 -0.18581500249E+02  0.31647588195E+02  0.37421486279E+02  0.51100000000E-03 0.  1.
         12    1    3    3    0    0  0.88674465377E-01 -0.14172397691E+01  0.48012301409E+01  0.50068196083E+01  0.00000000000E+00 0. -1.
</event>
<event>
 7    1  0.2313935E-008  0.4614232E+02  0.7816164E-02  0.1320468E+00
        -11   -1    0    0    0    0  0.00000000000E+00  0.00000000000E+00  0.45593999997E+02  0.45594000000E+02  0.51100000000E-03 0.  1.
         11   -1    0    0    0    0 -0.00000000000E+00 -0.00000000000E+00 -0.45593999997E+02  0.45594000000E+02  0.51100000000E-03 0. -1.
    9900012    2    1    2    0    0  0.19819962979E+02  0.31281976624E+02  0.25646061957E+02  0.46142317767E+02  0.10000000051E+02 0.  0.
         12    1    1    2    0    0 -0.19819962979E+02 -0.31281976624E+02 -0.25646061957E+02  0.45045682233E+02  0.00000000000E+00 0. -1.
         11    1    3    3    0    0 -0.44495837314E+00  0.17575572016E+01 -0.51781180782E-01  0.18137466257E+01  0.51100000000E-03 0. -1.
        -11    1    3    3    0    0  0.15087904168E+02  0.18094819920E+02  0.16208052069E+02  0.28596648619E+02  0.51100000000E-03 0.  1.
         12    1    3    3    0    0  0.51770171840E+01  0.11429599503E+02  0.94897910684E+01  0.15731922522E+02  0.00000000000E+00 0. -1.
</event>
<event>
 7    1  0.2313935E-008  0.4614232E+02  0.7816164E-02  0.1320468E+00
        -11   -1    0    0    0    0  0.00000000000E+00  0.00000000000E+00  0.45593999997E+02  0.45594000000E+02  0.51100000000E-03 0.  1.
         11   -1    0    0    0    0 -0.00000000000E+00 -0.00000000000E+00 -0.45593999997E+02  0.45594000000E+02  0.51100000000E-03 0. -1.
    9900012    2    1    2    0    0 -0.73780031383E+01 -0.12426825354E+02  0.42664416990E+02  0.46142318789E+02  0.10000009373E+02 0.  0.
         12    1    1    2    0    0  0.73780031383E+01  0.12426825354E+02 -0.42664416990E+02  0.45045681211E+02  0.00000000000E+00 0. -1.
         11    1    3    3    0    0 -0.81847503555E+01 -0.10034838699E+02  0.28748551367E+02  0.31530419155E+02  0.51100000000E-03 0. -1.
        -11    1    3    3    0    0 -0.55994868027E+00 -0.27723238435E+01  0.69576164222E+01  0.75105092076E+01  0.51100000000E-03 0.  1.
         12    1    3    3    0    0  0.13666958974E+01  0.38033718936E+00  0.69582492005E+01  0.71013904266E+01  0.00000000000E+00 0. -1.
</event>
<event>
 7    1  0.2313935E-008  0.4614232E+02  0.7816164E-02  0.1320468E+00
        -11   -1    0    0    0    0  0.00000000000E+00  0.00000000000E+00  0.45593999997E+02  0.45594000000E+02  0.51100000000E-03 0.  1.
         11   -1    0    0    0    0 -0.00000000000E+00 -0.00000000000E+00 -0.45593999997E+02  0.45594000000E+02  0.51100000000E-03 0. -1.
    9900012    2    1    2    0    0 -0.32845703062E+02  0.22126990518E+02  0.21463211531E+02  0.46142319094E+02  0.10000012158E+02 0.  0.
         12    1    1    2    0    0  0.32845703062E+02 -0.22126990518E+02 -0.21463211531E+02  0.45045680906E+02  0.00000000000E+00 0. -1.
         11    1    3    3    0    0 -0.15670535186E+02  0.93926110369E+01  0.70202087969E+01  0.19572177879E+02  0.51100000000E-03 0. -1.
        -11    1    3    3    0    0 -0.83410337200E+01  0.10053300174E+02  0.87856231112E+01  0.15742581161E+02  0.51100000000E-03 0.  1.
         12    1    3    3    0    0 -0.88341341557E+01  0.26810793076E+01  0.56573796232E+01  0.10827560055E+02  0.00000000000E+00 0. -1.
</event>
<event>
 7    1  0.2313935E-008  0.4614232E+02  0.7816164E-02  0.1320468E+00
        -11   -1    0    0    0    0  0.00000000000E+00  0.00000000000E+00  0.45593999997E+02  0.45594000000E+02  0.51100000000E-03 0.  1.
         11   -1    0    0    0    0 -0.00000000000E+00 -0.00000000000E+00 -0.45593999997E+02  0.45594000000E+02  0.51100000000E-03 0. -1.
    9900012    2    1    2    0    0  0.10574619551E+02 -0.38024146249E+02  0.21713018972E+02  0.46142317970E+02  0.10000001908E+02 0.  0.
         12    1    1    2    0    0 -0.10574619551E+02  0.38024146249E+02 -0.21713018972E+02  0.45045682030E+02  0.00000000000E+00 0. -1.
         11    1    3    3    0    0  0.25515590900E+01 -0.37846985897E+01  0.54492053443E+01  0.71083216268E+01  0.51100000000E-03 0. -1.
        -11    1    3    3    0    0  0.13620371227E+01 -0.15483117584E+02  0.80234306393E+01  0.17491641281E+02  0.51100000000E-03 0.  1.
         12    1    3    3    0    0  0.66610233379E+01 -0.18756330076E+02  0.82403829889E+01  0.21542355062E+02  0.00000000000E+00 0. -1.
</event>
<event>
 7    1  0.2313935E-008  0.4614232E+02  0.7816164E-02  0.1320468E+00
        -11   -1    0    0    0    0  0.00000000000E+00  0.00000000000E+00  0.45593999997E+02  0.45594000000E+02  0.51100000000E-03 0. -1.
         11   -1    0    0    0    0 -0.00000000000E+00 -0.00000000000E+00 -0.45593999997E+02  0.45594000000E+02  0.51100000000E-03 0.  1.
    9900012    2    1    2    0    0  0.22169671272E+02  0.37076639975E+02 -0.12764867408E+02  0.46142318786E+02  0.10000009344E+02 0.  0.
         12    1    1    2    0    0 -0.22169671272E+02 -0.37076639975E+02  0.12764867408E+02  0.45045681214E+02  0.00000000000E+00 0. -1.
         11    1    3    3    0    0  0.77499744289E+00  0.93204067435E+00 -0.14692071009E+01  0.19047022396E+01  0.51100000000E-03 0. -1.
        -11    1    3    3    0    0  0.15859989382E+02  0.29383438058E+02 -0.11976758391E+02  0.35473489215E+02  0.51100000000E-03 0.  1.
        -12    1    3    3    0    0  0.55346844466E+01  0.67611612428E+01  0.68109808366E+00  0.87641273310E+01  0.00000000000E+00 0.  1.
</event>
<event>
 7    1  0.2313935E-008  0.4614232E+02  0.7816164E-02  0.1320468E+00
        -11   -1    0    0    0    0  0.00000000000E+00  0.00000000000E+00  0.45593999997E+02  0.45594000000E+02  0.51100000000E-03 0.  1.
         11   -1    0    0    0    0 -0.00000000000E+00 -0.00000000000E+00 -0.45593999997E+02  0.45594000000E+02  0.51100000000E-03 0. -1.
    9900012    2    1    2    0    0 -0.28120955884E+01  0.27702831913E+02  0.35408455042E+02  0.46142318009E+02  0.10000002256E+02 0.  0.
         12    1    1    2    0    0  0.28120955884E+01 -0.27702831913E+02 -0.35408455042E+02  0.45045681991E+02  0.00000000000E+00 0. -1.
         11    1    3    3    0    0 -0.17210138151E+01  0.17642771237E+02  0.20250976168E+02  0.26913403752E+02  0.51100000000E-03 0. -1.
        -11    1    3    3    0    0 -0.11939842330E+01  0.10904786291E+02  0.14271792002E+02  0.18000666921E+02  0.51100000000E-03 0.  1.
         12    1    3    3    0    0  0.10290245966E+00 -0.84472561544E+00  0.88568687227E+00  0.12282473356E+01  0.00000000000E+00 0. -1.
</event>
<event>
 7    1  0.2313935E-008  0.4614232E+02  0.7816164E-02  0.1320468E+00
        -11   -1    0    0    0    0  0.00000000000E+00  0.00000000000E+00  0.45593999997E+02  0.45594000000E+02  0.51100000000E-03 0.  1.
         11   -1    0    0    0    0 -0.00000000000E+00 -0.00000000000E+00 -0.45593999997E+02  0.45594000000E+02  0.51100000000E-03 0. -1.
    9900012    2    1    2    0    0 -0.19572870444E+01 -0.23519683016E+02  0.38368048391E+02  0.46142316533E+02  0.99999887977E+01 0.  0.
         12    1    1    2    0    0  0.19572870444E+01  0.23519683016E+02 -0.38368048391E+02  0.45045683467E+02  0.00000000000E+00 0. -1.
         11    1    3    3    0    0  0.17963472863E+01 -0.96787275748E+01  0.16645495461E+02  0.19338488836E+02  0.51100000000E-03 0. -1.
        -11    1    3    3    0    0 -0.12764146440E+00 -0.58530075851E+00  0.55443405539E+01  0.55766102393E+01  0.51100000000E-03 0.  1.
         12    1    3    3    0    0 -0.36259928662E+01 -0.13255654682E+02  0.16178212375E+02  0.21227217458E+02  0.00000000000E+00 0. -1.
</event>
<event>
 7    1  0.2313935E-008  0.4614232E+02  0.7816164E-02  0.1320468E+00
        -11   -1    0    0    0    0  0.00000000000E+00  0.00000000000E+00  0.45593999997E+02  0.45594000000E+02  0.51100000000E-03 0.  1.
         11   -1    0    0    0    0 -0.00000000000E+00 -0.00000000000E+00 -0.45593999997E+02  0.45594000000E+02  0.51100000000E-03 0. -1.
    9900012    2    1    2    0    0  0.22672354446E+02 -0.23399484076E+02  0.31105336905E+02  0.46142317686E+02  0.99999993121E+01 0.  0.
         12    1    1    2    0    0 -0.22672354446E+02  0.23399484076E+02 -0.31105336905E+02  0.45045682314E+02  0.00000000000E+00 0. -1.
         11    1    3    3    0    0  0.47852653687E+01 -0.64937346901E+01  0.69653556443E+01  0.10657557618E+02  0.51100000000E-03 0. -1.
        -11    1    3    3    0    0  0.88188627692E+01 -0.13886458608E+02  0.15373694288E+02  0.22515695626E+02  0.51100000000E-03 0.  1.
         12    1    3    3    0    0  0.90682263083E+01 -0.30192907778E+01  0.87662869736E+01  0.12969064441E+02  0.00000000000E+00 0. -1.
</event>
<event>
 7    1  0.2313935E-008  0.4614232E+02  0.7816164E-02  0.1320468E+00
        -11   -1    0    0    0    0  0.00000000000E+00  0.00000000000E+00  0.45593999997E+02  0.45594000000E+02  0.51100000000E-03 0.  1.
         11   -1    0    0    0    0 -0.00000000000E+00 -0.00000000000E+00 -0.45593999997E+02  0.45594000000E+02  0.51100000000E-03 0. -1.
    9900012    2    1    2    0    0 -0.36416140820E+02  0.19373754996E+02  0.18100710002E+02  0.46142318770E+02  0.10000009202E+02 0.  0.
         12    1    1    2    0    0  0.36416140820E+02 -0.19373754996E+02 -0.18100710002E+02  0.45045681230E+02  0.00000000000E+00 0. -1.
         11    1    3    3    0    0 -0.60022176284E+01  0.18603796362E+01  0.53156458786E+01  0.82306573381E+01  0.51100000000E-03 0. -1.
        -11    1    3    3    0    0 -0.79964084656E+01  0.17367889218E+01  0.41248982040E+01  0.91637202904E+01  0.51100000000E-03 0.  1.
        -12    1    3    3    0    0 -0.22417514726E+02  0.15776586438E+02  0.86601659191E+01  0.28747941142E+02  0.00000000000E+00 0.  1.
</event>
<event>
 7    1  0.2313935E-008  0.4614232E+02  0.7816164E-02  0.1320468E+00
        -11   -1    0    0    0    0  0.00000000000E+00  0.00000000000E+00  0.45593999997E+02  0.45594000000E+02  0.51100000000E-03 0.  1.
         11   -1    0    0    0    0 -0.00000000000E+00 -0.00000000000E+00 -0.45593999997E+02  0.45594000000E+02  0.51100000000E-03 0. -1.
    9900012    2    1    2    0    0 -0.33206962588E+02 -0.21934031296E+02  0.21102348169E+02  0.46142321057E+02  0.10000030051E+02 0.  0.
         12    1    1    2    0    0  0.33206962588E+02  0.21934031296E+02 -0.21102348169E+02  0.45045678943E+02  0.00000000000E+00 0. -1.
         11    1    3    3    0    0 -0.10692074489E+02 -0.71774234652E+01  0.41376419222E+01  0.13526120856E+02  0.51100000000E-03 0. -1.
        -11    1    3    3    0    0 -0.16708872448E+02 -0.13795217183E+02  0.15216038196E+02  0.26476824852E+02  0.51100000000E-03 0.  1.
        -12    1    3    3    0    0 -0.58060156514E+01 -0.96139064832E+00  0.17486680508E+01  0.61393753489E+01  0.00000000000E+00 0.  1.
</event>
<event>
 7    1  0.2313935E-008  0.4614232E+02  0.7816164E-02  0.1320468E+00
        -11   -1    0    0    0    0  0.00000000000E+00  0.00000000000E+00  0.45593999997E+02  0.45594000000E+02  0.51100000000E-03 0.  1.
         11   -1    0    0    0    0 -0.00000000000E+00 -0.00000000000E+00 -0.45593999997E+02  0.45594000000E+02  0.51100000000E-03 0. -1.
    9900012    2    1    2    0    0  0.20528652850E+02  0.15828901805E+02  0.36839296872E+02  0.46142317474E+02  0.99999973845E+01 0.  0.
         12    1    1    2    0    0 -0.20528652850E+02 -0.15828901805E+02 -0.36839296872E+02  0.45045682526E+02  0.00000000000E+00 0. -1.
         11    1    3    3    0    0  0.66565198515E+01  0.18684652735E+01  0.60790264806E+01  0.92062469131E+01  0.51100000000E-03 0. -1.
        -11    1    3    3    0    0  0.60404202787E+01  0.32097380870E+01  0.75738666344E+01  0.10205515753E+02  0.51100000000E-03 0.  1.
        -12    1    3    3    0    0  0.78317127200E+01  0.10750698444E+02  0.23186403757E+02  0.26730554808E+02  0.00000000000E+00 0.  1.
</event>
<event>
 7    1  0.2313935E-008  0.4614232E+02  0.7816164E-02  0.1320468E+00
        -11   -1    0    0    0    0  0.00000000000E+00  0.00000000000E+00  0.45593999997E+02  0.45594000000E+02  0.51100000000E-03 0.  1.
         11   -1    0    0    0    0 -0.00000000000E+00 -0.00000000000E+00 -0.45593999997E+02  0.45594000000E+02  0.51100000000E-03 0. -1.
    9900012    2    1    2    0    0  0.40297276971E+01  0.35182193310E+02  0.27840405779E+02  0.46142316240E+02  0.99999861337E+01 0.  0.
         12    1    1    2    0    0 -0.40297276971E+01 -0.35182193310E+02 -0.27840405779E+02  0.45045683760E+02  0.00000000000E+00 0. -1.
         11    1    3    3    0    0  0.17491623204E+01  0.40240614101E+01  0.97969205522E+00  0.44958242670E+01  0.51100000000E-03 0. -1.
        -11    1    3    3    0    0  0.27832224179E+01  0.11336116853E+02  0.71529978925E+01  0.13690115100E+02  0.51100000000E-03 0.  1.
         12    1    3    3    0    0 -0.50265704125E+00  0.19822015047E+02  0.19707715831E+02  0.27956376874E+02  0.00000000000E+00 0. -1.
</event>
<event>
 7    1  0.2313935E-008  0.4614232E+02  0.7816164E-02  0.1320468E+00
        -11   -1    0    0    0    0  0.00000000000E+00  0.00000000000E+00  0.45593999997E+02  0.45594000000E+02  0.51100000000E-03 0.  1.
         11   -1    0    0    0    0 -0.00000000000E+00 -0.00000000000E+00 -0.45593999997E+02  0.45594000000E+02  0.51100000000E-03 0. -1.
    9900012    2    1    2    0    0 -0.23926220009E+02  0.24293717517E+02  0.29435773802E+02  0.46142317698E+02  0.99999994277E+01 0.  0.
         12    1    1    2    0    0  0.23926220009E+02 -0.24293717517E+02 -0.29435773802E+02  0.45045682302E+02  0.00000000000E+00 0. -1.
         11    1    3    3    0    0 -0.13156844762E+01  0.35357884378E+01  0.32436090263E+00  0.37865598865E+01  0.51100000000E-03 0. -1.
        -11    1    3    3    0    0 -0.75074360206E+01  0.81106641778E+01  0.98369807297E+01  0.14795629731E+02  0.51100000000E-03 0.  1.
         12    1    3    3    0    0 -0.15103099512E+02  0.12647264901E+02  0.19274432169E+02  0.27560128080E+02  0.00000000000E+00 0. -1.
</event>
<event>
 7    1  0.2313935E-008  0.4614232E+02  0.7816164E-02  0.1320468E+00
        -11   -1    0    0    0    0  0.00000000000E+00  0.00000000000E+00  0.45593999997E+02  0.45594000000E+02  0.51100000000E-03 0. -1.
         11   -1    0    0    0    0 -0.00000000000E+00 -0.00000000000E+00 -0.45593999997E+02  0.45594000000E+02  0.51100000000E-03 0.  1.
    9900012    2    1    2    0    0 -0.39443994278E+02 -0.52411040343E+01 -0.21114346884E+02  0.46142317627E+02  0.99999987768E+01 0.  0.
         12    1    1    2    0    0  0.39443994278E+02  0.52411040343E+01  0.21114346884E+02  0.45045682373E+02  0.00000000000E+00 0. -1.
         11    1    3    3    0    0 -0.35324529302E+01 -0.19800260857E+01 -0.40132486630E+00  0.40693720540E+01  0.51100000000E-03 0. -1.
        -11    1    3    3    0    0 -0.31091687443E+02 -0.25503975520E+01 -0.15156735755E+02  0.34683197585E+02  0.51100000000E-03 0.  1.
         12    1    3    3    0    0 -0.48198539050E+01 -0.71068039659E+00 -0.55562862625E+01  0.73897479877E+01  0.00000000000E+00 0. -1.
</event>
<event>
 7    1  0.2313935E-008  0.4614232E+02  0.7816164E-02  0.1320468E+00
        -11   -1    0    0    0    0  0.00000000000E+00  0.00000000000E+00  0.45593999997E+02  0.45594000000E+02  0.51100000000E-03 0. -1.
         11   -1    0    0    0    0 -0.00000000000E+00 -0.00000000000E+00 -0.45593999997E+02  0.45594000000E+02  0.51100000000E-03 0.  1.
    9900012    2    1    2    0    0  0.41188486138E+02  0.13543667046E+02  0.12214384136E+02  0.46142317773E+02  0.10000000113E+02 0.  0.
         12    1    1    2    0    0 -0.41188486138E+02 -0.13543667046E+02 -0.12214384136E+02  0.45045682227E+02  0.00000000000E+00 0. -1.
         11    1    3    3    0    0 -0.55862173282E-01  0.13964131820E+00 -0.21239264126E+00  0.26025213800E+00  0.51100000000E-03 0. -1.
        -11    1    3    3    0    0  0.39192810475E+02  0.12252700223E+02  0.13595075794E+02  0.43255417485E+02  0.51100000000E-03 0.  1.
        -12    1    3    3    0    0  0.20515378368E+01  0.11513255057E+01 -0.11682990169E+01  0.26266481509E+01  0.00000000000E+00 0.  1.
</event>
<event>
 7    1  0.2313935E-008  0.4614232E+02  0.7816164E-02  0.1320468E+00
        -11   -1    0    0    0    0  0.00000000000E+00  0.00000000000E+00  0.45593999997E+02  0.45594000000E+02  0.51100000000E-03 0.  1.
         11   -1    0    0    0    0 -0.00000000000E+00 -0.00000000000E+00 -0.45593999997E+02  0.45594000000E+02  0.51100000000E-03 0. -1.
    9900012    2    1    2    0    0  0.37107150525E+02 -0.25124976122E+02  0.45725767745E+01  0.46142317592E+02  0.99999984613E+01 0.  0.
         12    1    1    2    0    0 -0.37107150525E+02  0.25124976122E+02 -0.45725767745E+01  0.45045682408E+02  0.00000000000E+00 0. -1.
         11    1    3    3    0    0  0.84047335042E+01 -0.66661584830E+01  0.35094553710E+01  0.11286872528E+02  0.51100000000E-03 0. -1.
        -11    1    3    3    0    0  0.22102839957E+02 -0.11018578611E+02 -0.92016578333E+00  0.24714192565E+02  0.51100000000E-03 0.  1.
        -12    1    3    3    0    0  0.65995770637E+01 -0.74402390271E+01  0.19832871869E+01  0.10141252500E+02  0.00000000000E+00 0.  1.
</event>
<event>
 7    1  0.2313935E-008  0.4614232E+02  0.7816164E-02  0.1320468E+00
        -11   -1    0    0    0    0  0.00000000000E+00  0.00000000000E+00  0.45593999997E+02  0.45594000000E+02  0.51100000000E-03 0.  1.
         11   -1    0    0    0    0 -0.00000000000E+00 -0.00000000000E+00 -0.45593999997E+02  0.45594000000E+02  0.51100000000E-03 0. -1.
    9900012    2    1    2    0    0 -0.23591753642E+02 -0.13318670280E+02  0.35988270149E+02  0.46142318672E+02  0.10000008310E+02 0.  0.
         12    1    1    2    0    0  0.23591753642E+02  0.13318670280E+02 -0.35988270149E+02  0.45045681328E+02  0.00000000000E+00 0. -1.
         11    1    3    3    0    0 -0.17668713179E+02 -0.89804304118E+01  0.20231929193E+02  0.28322473672E+02  0.51100000000E-03 0.  1.
        -11    1    3    3    0    0 -0.27864620809E+01 -0.26657244007E+00  0.31955036205E+01  0.42481378796E+01  0.51100000000E-03 0. -1.
         12    1    3    3    0    0 -0.31365783822E+01 -0.40716674283E+01  0.12560837336E+02  0.13571707121E+02  0.00000000000E+00 0. -1.
</event>
<event>
 7    1  0.2313935E-008  0.4614232E+02  0.7816164E-02  0.1320468E+00
        -11   -1    0    0    0    0  0.00000000000E+00  0.00000000000E+00  0.45593999997E+02  0.45594000000E+02  0.51100000000E-03 0.  1.
         11   -1    0    0    0    0 -0.00000000000E+00 -0.00000000000E+00 -0.45593999997E+02  0.45594000000E+02  0.51100000000E-03 0. -1.
    9900012    2    1    2    0    0 -0.26831455371E+02 -0.26441379290E+02  0.24698986663E+02  0.46142317874E+02  0.10000001028E+02 0.  0.
         12    1    1    2    0    0  0.26831455371E+02  0.26441379290E+02 -0.24698986663E+02  0.45045682126E+02  0.00000000000E+00 0. -1.
         11    1    3    3    0    0 -0.11595390087E+01 -0.95942410090E+00  0.24543389565E+01  0.28790285327E+01  0.51100000000E-03 0. -1.
        -11    1    3    3    0    0 -0.17641819306E+02 -0.18089727682E+02  0.10893960450E+02  0.27516366231E+02  0.51100000000E-03 0.  1.
        -12    1    3    3    0    0 -0.80300970563E+01 -0.73922275073E+01  0.11350687256E+02  0.15746923110E+02  0.00000000000E+00 0.  1.
</event>
<event>
 7    1  0.2313935E-008  0.4614232E+02  0.7816164E-02  0.1320468E+00
        -11   -1    0    0    0    0  0.00000000000E+00  0.00000000000E+00  0.45593999997E+02  0.45594000000E+02  0.51100000000E-03 0.  1.
         11   -1    0    0    0    0 -0.00000000000E+00 -0.00000000000E+00 -0.45593999997E+02  0.45594000000E+02  0.51100000000E-03 0. -1.
    9900012    2    1    2    0    0  0.23182571510E+02  0.85678394881E+01  0.37659973906E+02  0.46142321740E+02  0.10000036284E+02 0.  0.
         12    1    1    2    0    0 -0.23182571510E+02 -0.85678394881E+01 -0.37659973906E+02  0.45045678260E+02  0.00000000000E+00 0. -1.
         11    1    3    3    0    0 -0.32675543659E+00 -0.25956650835E+00  0.44265271938E+01  0.44461541973E+01  0.51100000000E-03 0. -1.
        -11    1    3    3    0    0  0.63887734168E+01  0.16195311707E+01  0.93387032821E+01  0.11430253113E+02  0.51100000000E-03 0.  1.
         12    1    3    3    0    0  0.17120553530E+02  0.72078748258E+01  0.23894743430E+02  0.30265914429E+02  0.00000000000E+00 0. -1.
</event>
<event>
 7    1  0.2313935E-008  0.4614232E+02  0.7816164E-02  0.1320468E+00
        -11   -1    0    0    0    0  0.00000000000E+00  0.00000000000E+00  0.45593999997E+02  0.45594000000E+02  0.51100000000E-03 0.  1.
         11   -1    0    0    0    0 -0.00000000000E+00 -0.00000000000E+00 -0.45593999997E+02  0.45594000000E+02  0.51100000000E-03 0. -1.
    9900012    2    1    2    0    0  0.23804011204E+01 -0.41734172780E+02  0.16784099802E+02  0.46142317706E+02  0.99999995006E+01 0.  0.
         12    1    1    2    0    0 -0.23804011204E+01  0.41734172780E+02 -0.16784099802E+02  0.45045682294E+02  0.00000000000E+00 0. -1.
         11    1    3    3    0    0  0.19472694254E+00 -0.32558540409E-01  0.50830204200E+00  0.54529796233E+00  0.51100000000E-03 0. -1.
        -11    1    3    3    0    0 -0.80491334814E+00 -0.29544606912E+02  0.14602934355E+02  0.32966306664E+02  0.51100000000E-03 0.  1.
        -12    1    3    3    0    0  0.29905875260E+01 -0.12157007328E+02  0.16728634052E+01  0.12630713080E+02  0.00000000000E+00 0.  1.
</event>
<event>
 7    1  0.2313935E-008  0.4614232E+02  0.7816164E-02  0.1320468E+00
        -11   -1    0    0    0    0  0.00000000000E+00  0.00000000000E+00  0.45593999997E+02  0.45594000000E+02  0.51100000000E-03 0.  1.
         11   -1    0    0    0    0 -0.00000000000E+00 -0.00000000000E+00 -0.45593999997E+02  0.45594000000E+02  0.51100000000E-03 0. -1.
    9900012    2    1    2    0    0  0.32496895594E+02  0.28317307750E+02  0.13084164781E+02  0.46142317527E+02  0.99999978667E+01 0.  0.
         12    1    1    2    0    0 -0.32496895594E+02 -0.28317307750E+02 -0.13084164781E+02  0.45045682473E+02  0.00000000000E+00 0. -1.
         11    1    3    3    0    0  0.46919385604E+01  0.31523625434E+01 -0.35362410482E+00  0.56636319909E+01  0.51100000000E-03 0. -1.
        -11    1    3    3    0    0  0.21998063613E+02  0.15619313387E+02  0.87586248730E+01  0.28365317966E+02  0.51100000000E-03 0.  1.
         12    1    3    3    0    0  0.58068934206E+01  0.95456318198E+01  0.46791640125E+01  0.12113367570E+02  0.00000000000E+00 0. -1.
</event>
<event>
 7    1  0.2313935E-008  0.4614232E+02  0.7816164E-02  0.1320468E+00
        -11   -1    0    0    0    0  0.00000000000E+00  0.00000000000E+00  0.45593999997E+02  0.45594000000E+02  0.51100000000E-03 0. -1.
         11   -1    0    0    0    0 -0.00000000000E+00 -0.00000000000E+00 -0.45593999997E+02  0.45594000000E+02  0.51100000000E-03 0.  1.
    9900012    2    1    2    0    0 -0.19704481787E+02 -0.40240046626E+02  0.46459987352E+01  0.46142320305E+02  0.10000023193E+02 0.  0.
         12    1    1    2    0    0  0.19704481787E+02  0.40240046626E+02 -0.46459987352E+01  0.45045679695E+02  0.00000000000E+00 0. -1.
         11    1    3    3    0    0 -0.72745326530E+01 -0.13213893302E+02  0.49044138219E+01  0.15861244488E+02  0.51100000000E-03 0.  1.
        -11    1    3    3    0    0 -0.35688808156E+01 -0.69813674564E+01  0.24111842770E+01  0.82030611186E+01  0.51100000000E-03 0. -1.
        -12    1    3    3    0    0 -0.88610683182E+01 -0.20044785868E+02 -0.26695993637E+01  0.22078014698E+02  0.00000000000E+00 0.  1.
</event>
<event>
 7    1  0.2313935E-008  0.4614233E+02  0.7816164E-02  0.1320468E+00
        -11   -1    0    0    0    0  0.00000000000E+00  0.00000000000E+00  0.45593999997E+02  0.45594000000E+02  0.51100000000E-03 0. -1.
         11   -1    0    0    0    0 -0.00000000000E+00 -0.00000000000E+00 -0.45593999997E+02  0.45594000000E+02  0.51100000000E-03 0.  1.
    9900012    2    1    2    0    0 -0.15710456075E+02  0.41576328440E+02 -0.73282274535E+01  0.46142329462E+02  0.10000106697E+02 0.  0.
         12    1    1    2    0    0  0.15710456075E+02 -0.41576328440E+02  0.73282274535E+01  0.45045670538E+02  0.00000000000E+00 0. -1.
         11    1    3    3    0    0 -0.46073797873E+01  0.17189173777E+02 -0.41854218776E+01  0.18281504320E+02  0.51100000000E-03 0. -1.
        -11    1    3    3    0    0 -0.11484497022E+02  0.20395018320E+02 -0.12859958400E+01  0.23441506557E+02  0.51100000000E-03 0.  1.
         12    1    3    3    0    0  0.38142073465E+00  0.39921363425E+01 -0.18568097359E+01  0.44193185843E+01  0.00000000000E+00 0. -1.
</event>
<event>
 7    1  0.2313935E-008  0.4614232E+02  0.7816164E-02  0.1320468E+00
        -11   -1    0    0    0    0  0.00000000000E+00  0.00000000000E+00  0.45593999997E+02  0.45594000000E+02  0.51100000000E-03 0.  1.
         11   -1    0    0    0    0 -0.00000000000E+00 -0.00000000000E+00 -0.45593999997E+02  0.45594000000E+02  0.51100000000E-03 0. -1.
    9900012    2    1    2    0    0 -0.26376191730E+02 -0.56425377990E+01  0.36077302834E+02  0.46142317602E+02  0.99999985456E+01 0.  0.
         12    1    1    2    0    0  0.26376191730E+02  0.56425377990E+01 -0.36077302834E+02  0.45045682398E+02  0.00000000000E+00 0. -1.
         11    1    3    3    0    0 -0.14847940724E+02 -0.22756073768E+00  0.16723333188E+02  0.22364771424E+02  0.51100000000E-03 0. -1.
        -11    1    3    3    0    0 -0.27595411894E+01 -0.33490505349E+01  0.36383224985E+01  0.56629142608E+01  0.51100000000E-03 0.  1.
        -12    1    3    3    0    0 -0.87687098164E+01 -0.20659265265E+01  0.15715647147E+02  0.18114631917E+02  0.00000000000E+00 0.  1.
</event>
<event>
 7    1  0.2313935E-008  0.4614231E+02  0.7816164E-02  0.1320468E+00
        -11   -1    0    0    0    0  0.00000000000E+00  0.00000000000E+00  0.45593999997E+02  0.45594000000E+02  0.51100000000E-03 0. -1.
         11   -1    0    0    0    0 -0.00000000000E+00 -0.00000000000E+00 -0.45593999997E+02  0.45594000000E+02  0.51100000000E-03 0.  1.
    9900012    2    1    2    0    0 -0.33757153419E+02 -0.25305024390E+02 -0.15786832589E+02  0.46142314862E+02  0.99999735641E+01 0.  0.
         12    1    1    2    0    0  0.33757153419E+02  0.25305024390E+02  0.15786832589E+02  0.45045685138E+02  0.00000000000E+00 0. -1.
         11    1    3    3    0    0 -0.70493851108E+01 -0.49640808451E+01 -0.70616178341E-01  0.86221178363E+01  0.51100000000E-03 0. -1.
        -11    1    3    3    0    0 -0.11254097428E+02 -0.10259570507E+02 -0.43055540157E+01  0.15825652958E+02  0.51100000000E-03 0.  1.
        -12    1    3    3    0    0 -0.15453670881E+02 -0.10081373038E+02 -0.11410662395E+02  0.21694544068E+02  0.00000000000E+00 0.  1.
</event>
<event>
 7    1  0.2313935E-008  0.4614232E+02  0.7816164E-02  0.1320468E+00
        -11   -1    0    0    0    0  0.00000000000E+00  0.00000000000E+00  0.45593999997E+02  0.45594000000E+02  0.51100000000E-03 0.  1.
         11   -1    0    0    0    0 -0.00000000000E+00 -0.00000000000E+00 -0.45593999997E+02  0.45594000000E+02  0.51100000000E-03 0. -1.
    9900012    2    1    2    0    0 -0.14953228688E+01 -0.28059040706E+02  0.35207495696E+02  0.46142317532E+02  0.99999979085E+01 0.  0.
         12    1    1    2    0    0  0.14953228688E+01  0.28059040706E+02 -0.35207495696E+02  0.45045682468E+02  0.00000000000E+00 0. -1.
         11    1    3    3    0    0 -0.12609805068E+01 -0.34087409600E+01  0.48746853633E+01  0.60804723849E+01  0.51100000000E-03 0. -1.
        -11    1    3    3    0    0 -0.47427802833E+00 -0.18459424687E+02  0.27788366456E+02  0.33364181542E+02  0.51100000000E-03 0.  1.
         12    1    3    3    0    0  0.23993566630E+00 -0.61908750589E+01  0.25444438771E+01  0.66976636048E+01  0.00000000000E+00 0. -1.
</event>
<event>
 7    1  0.2313935E-008  0.4614232E+02  0.7816164E-02  0.1320468E+00
        -11   -1    0    0    0    0  0.00000000000E+00  0.00000000000E+00  0.45593999997E+02  0.45594000000E+02  0.51100000000E-03 0.  1.
         11   -1    0    0    0    0 -0.00000000000E+00 -0.00000000000E+00 -0.45593999997E+02  0.45594000000E+02  0.51100000000E-03 0. -1.
    9900012    2    1    2    0    0 -0.14060992888E+02 -0.35103887433E+02  0.24476907615E+02  0.46142318294E+02  0.10000004862E+02 0.  0.
         12    1    1    2    0    0  0.14060992888E+02  0.35103887433E+02 -0.24476907615E+02  0.45045681706E+02  0.00000000000E+00 0. -1.
         11    1    3    3    0    0 -0.87584162307E+00 -0.11710093952E+01 -0.15202563083E+00  0.14701950911E+01  0.51100000000E-03 0. -1.
        -11    1    3    3    0    0 -0.77051227155E+01 -0.11347404823E+02  0.11984538011E+02  0.18214325788E+02  0.51100000000E-03 0.  1.
         12    1    3    3    0    0 -0.54800285498E+01 -0.22585473215E+02  0.12644395235E+02  0.26457797416E+02  0.00000000000E+00 0. -1.
</event>
<event>
 7    1  0.2313935E-008  0.4614232E+02  0.7816164E-02  0.1320468E+00
        -11   -1    0    0    0    0  0.00000000000E+00  0.00000000000E+00  0.45593999997E+02  0.45594000000E+02  0.51100000000E-03 0.  1.
         11   -1    0    0    0    0 -0.00000000000E+00 -0.00000000000E+00 -0.45593999997E+02  0.45594000000E+02  0.51100000000E-03 0. -1.
    9900012    2    1    2    0    0  0.20719083628E+01  0.39890504959E+02  0.20822302683E+02  0.46142317863E+02  0.10000000929E+02 0.  0.
         12    1    1    2    0    0 -0.20719083628E+01 -0.39890504959E+02 -0.20822302683E+02  0.45045682137E+02  0.00000000000E+00 0. -1.
         11    1    3    3    0    0  0.47788158855E+00  0.24824715380E+02  0.17602554508E+02  0.30435912833E+02  0.51100000000E-03 0.  1.
        -11    1    3    3    0    0 -0.20161113467E-01  0.10773231620E+02  0.25592010071E+01  0.11073049990E+02  0.51100000000E-03 0. -1.
         12    1    3    3    0    0  0.16141878877E+01  0.42925579589E+01  0.66054716754E+00  0.46333550402E+01  0.00000000000E+00 0. -1.
</event>
<event>
 7    1  0.2313935E-008  0.4614232E+02  0.7816164E-02  0.1320468E+00
        -11   -1    0    0    0    0  0.00000000000E+00  0.00000000000E+00  0.45593999997E+02  0.45594000000E+02  0.51100000000E-03 0. -1.
         11   -1    0    0    0    0 -0.00000000000E+00 -0.00000000000E+00 -0.45593999997E+02  0.45594000000E+02  0.51100000000E-03 0.  1.
    9900012    2    1    2    0    0 -0.25405180330E+02  0.34493961612E+01 -0.37037709469E+02  0.46142318252E+02  0.10000004477E+02 0.  0.
         12    1    1    2    0    0  0.25405180330E+02 -0.34493961612E+01  0.37037709469E+02  0.45045681748E+02  0.00000000000E+00 0. -1.
         11    1    3    3    0    0 -0.56559268145E+00 -0.83275545302E+00 -0.73667297023E+00  0.12474229644E+01  0.51100000000E-03 0. -1.
        -11    1    3    3    0    0 -0.23623486354E+02  0.46234351452E+01 -0.36387268228E+02  0.43628872887E+02  0.51100000000E-03 0.  1.
        -12    1    3    3    0    0 -0.12161012945E+01 -0.34128353089E+00  0.86231729883E-01  0.12660224004E+01  0.00000000000E+00 0.  1.
</event>
<event>
 7    1  0.2313935E-008  0.4614232E+02  0.7816164E-02  0.1320468E+00
        -11   -1    0    0    0    0  0.00000000000E+00  0.00000000000E+00  0.45593999997E+02  0.45594000000E+02  0.51100000000E-03 0.  1.
         11   -1    0    0    0    0 -0.00000000000E+00 -0.00000000000E+00 -0.45593999997E+02  0.45594000000E+02  0.51100000000E-03 0. -1.
    9900012    2    1    2    0    0 -0.83206057303E+01 -0.15898428046E+02  0.41317320151E+02  0.46142318315E+02  0.10000005048E+02 0.  0.
         12    1    1    2    0    0  0.83206057303E+01  0.15898428046E+02 -0.41317320151E+02  0.45045681685E+02  0.00000000000E+00 0. -1.
         11    1    3    3    0    0 -0.19320010581E+01 -0.27319187533E+01  0.33347002187E+01  0.47240061360E+01  0.51100000000E-03 0. -1.
        -11    1    3    3    0    0 -0.28931407615E+01 -0.10468391683E+02  0.33094478130E+02  0.34831048949E+02  0.51100000000E-03 0.  1.
        -12    1    3    3    0    0 -0.34954639106E+01 -0.26981176102E+01  0.48881418016E+01  0.65872632300E+01  0.00000000000E+00 0.  1.
</event>
<event>
 7    1  0.2313935E-008  0.4614232E+02  0.7816164E-02  0.1320468E+00
        -11   -1    0    0    0    0  0.00000000000E+00  0.00000000000E+00  0.45593999997E+02  0.45594000000E+02  0.51100000000E-03 0.  1.
         11   -1    0    0    0    0 -0.00000000000E+00 -0.00000000000E+00 -0.45593999997E+02  0.45594000000E+02  0.51100000000E-03 0. -1.
    9900012    2    1    2    0    0  0.11875621544E+02  0.83684657404E+01  0.42638618775E+02  0.46142318554E+02  0.10000007232E+02 0.  0.
         12    1    1    2    0    0 -0.11875621544E+02 -0.83684657404E+01 -0.42638618775E+02  0.45045681446E+02  0.00000000000E+00 0. -1.
         11    1    3    3    0    0  0.84978096600E+01  0.42310516114E+01  0.23461431679E+02  0.25309155329E+02  0.51100000000E-03 0. -1.
        -11    1    3    3    0    0  0.44500736489E+01  0.49259894100E+01  0.14102429423E+02  0.15586758581E+02  0.51100000000E-03 0.  1.
        -12    1    3    3    0    0 -0.10722617648E+01 -0.78857528099E+00  0.50747576718E+01  0.52464046445E+01  0.00000000000E+00 0.  1.
</event>
<event>
 7    1  0.2313935E-008  0.4614232E+02  0.7816164E-02  0.1320468E+00
        -11   -1    0    0    0    0  0.00000000000E+00  0.00000000000E+00  0.45593999997E+02  0.45594000000E+02  0.51100000000E-03 0.  1.
         11   -1    0    0    0    0 -0.00000000000E+00 -0.00000000000E+00 -0.45593999997E+02  0.45594000000E+02  0.51100000000E-03 0. -1.
    9900012    2    1    2    0    0 -0.20638038373E+02 -0.31183322349E+02  0.25115436242E+02  0.46142319205E+02  0.10000013170E+02 0.  0.
         12    1    1    2    0    0  0.20638038373E+02  0.31183322349E+02 -0.25115436242E+02  0.45045680795E+02  0.00000000000E+00 0. -1.
         11    1    3    3    0    0 -0.12651831762E+02 -0.26013721626E+02  0.16707109869E+02  0.33405240310E+02  0.51100000000E-03 0. -1.
        -11    1    3    3    0    0 -0.39124713264E+01 -0.25130494638E+01  0.47856409844E+01  0.66727212875E+01  0.51100000000E-03 0.  1.
         12    1    3    3    0    0 -0.40737352849E+01 -0.26565512589E+01  0.36226853891E+01  0.60643576075E+01  0.00000000000E+00 0. -1.
</event>
<event>
 7    1  0.2313935E-008  0.4614232E+02  0.7816164E-02  0.1320468E+00
        -11   -1    0    0    0    0  0.00000000000E+00  0.00000000000E+00  0.45593999997E+02  0.45594000000E+02  0.51100000000E-03 0.  1.
         11   -1    0    0    0    0 -0.00000000000E+00 -0.00000000000E+00 -0.45593999997E+02  0.45594000000E+02  0.51100000000E-03 0. -1.
    9900012    2    1    2    0    0 -0.34654213947E+02 -0.23270544235E+02  0.16931650798E+02  0.46142316832E+02  0.99999915293E+01 0.  0.
         12    1    1    2    0    0  0.34654213947E+02  0.23270544235E+02 -0.16931650798E+02  0.45045683168E+02  0.00000000000E+00 0. -1.
         11    1    3    3    0    0 -0.37393701424E+01 -0.16035811278E+01 -0.33801733705E-01  0.40688455750E+01  0.51100000000E-03 0. -1.
        -11    1    3    3    0    0 -0.25483205048E+02 -0.16242640651E+02  0.16383955241E+02  0.34375152428E+02  0.51100000000E-03 0.  1.
        -12    1    3    3    0    0 -0.54316387563E+01 -0.54243224566E+01  0.58149729059E+00  0.76983188289E+01  0.00000000000E+00 0.  1.
</event>
<event>
 7    1  0.2313935E-008  0.4614232E+02  0.7816164E-02  0.1320468E+00
        -11   -1    0    0    0    0  0.00000000000E+00  0.00000000000E+00  0.45593999997E+02  0.45594000000E+02  0.51100000000E-03 0. -1.
         11   -1    0    0    0    0 -0.00000000000E+00 -0.00000000000E+00 -0.45593999997E+02  0.45594000000E+02  0.51100000000E-03 0.  1.
    9900012    2    1    2    0    0  0.11232496442E+02  0.42325310483E+02 -0.10559955464E+02  0.46142317153E+02  0.99999944522E+01 0.  0.
         12    1    1    2    0    0 -0.11232496442E+02 -0.42325310483E+02  0.10559955464E+02  0.45045682847E+02  0.00000000000E+00 0. -1.
         11    1    3    3    0    0 -0.22234567251E+00  0.47463379925E+01 -0.22748775069E+00  0.47569856921E+01  0.51100000000E-03 0. -1.
        -11    1    3    3    0    0  0.65996459714E+01  0.28391125663E+02 -0.45742833005E+01  0.29504837083E+02  0.51100000000E-03 0.  1.
        -12    1    3    3    0    0  0.48551961436E+01  0.91878468275E+01 -0.57581844128E+01  0.11880494377E+02  0.00000000000E+00 0.  1.
</event>
<event>
 7    1  0.2313935E-008  0.4614232E+02  0.7816164E-02  0.1320468E+00
        -11   -1    0    0    0    0  0.00000000000E+00  0.00000000000E+00  0.45593999997E+02  0.45594000000E+02  0.51100000000E-03 0. -1.
         11   -1    0    0    0    0 -0.00000000000E+00 -0.00000000000E+00 -0.45593999997E+02  0.45594000000E+02  0.51100000000E-03 0.  1.
    9900012    2    1    2    0    0 -0.25615550433E+02 -0.35020960494E+02 -0.12103280859E+02  0.46142317572E+02  0.99999982711E+01 0.  0.
         12    1    1    2    0    0  0.25615550433E+02  0.35020960494E+02  0.12103280859E+02  0.45045682428E+02  0.00000000000E+00 0. -1.
         11    1    3    3    0    0 -0.90693388144E+01 -0.10217801278E+02 -0.38295883463E+01  0.14188802509E+02  0.51100000000E-03 0.  1.
        -11    1    3    3    0    0 -0.32517967278E+01 -0.11657165576E+02 -0.42678733855E+01  0.12832709563E+02  0.51100000000E-03 0. -1.
         12    1    3    3    0    0 -0.13294414891E+02 -0.13145993640E+02 -0.40058191269E+01  0.19120805500E+02  0.00000000000E+00 0. -1.
</event>
<event>
 7    1  0.2313935E-008  0.4614232E+02  0.7816164E-02  0.1320468E+00
        -11   -1    0    0    0    0  0.00000000000E+00  0.00000000000E+00  0.45593999997E+02  0.45594000000E+02  0.51100000000E-03 0.  1.
         11   -1    0    0    0    0 -0.00000000000E+00 -0.00000000000E+00 -0.45593999997E+02  0.45594000000E+02  0.51100000000E-03 0. -1.
    9900012    2    1    2    0    0 -0.32673217375E+01 -0.43463137257E+02 -0.11375136927E+02  0.46142318391E+02  0.10000005740E+02 0.  0.
         12    1    1    2    0    0  0.32673217375E+01  0.43463137257E+02  0.11375136927E+02  0.45045681609E+02  0.00000000000E+00 0. -1.
         11    1    3    3    0    0  0.19989122041E+01 -0.10480165484E+02 -0.56181972329E+01  0.12057929299E+02  0.51100000000E-03 0. -1.
        -11    1    3    3    0    0 -0.40365754212E+01 -0.18071661785E+02 -0.45877264719E+01  0.19076848148E+02  0.51100000000E-03 0.  1.
         12    1    3    3    0    0 -0.12296585204E+01 -0.14911309987E+02 -0.11692132224E+01  0.15007540944E+02  0.00000000000E+00 0. -1.
</event>
<event>
 7    1  0.2313935E-008  0.4614232E+02  0.7816164E-02  0.1320468E+00
        -11   -1    0    0    0    0  0.00000000000E+00  0.00000000000E+00  0.45593999997E+02  0.45594000000E+02  0.51100000000E-03 0. -1.
         11   -1    0    0    0    0 -0.00000000000E+00 -0.00000000000E+00 -0.45593999997E+02  0.45594000000E+02  0.51100000000E-03 0.  1.
    9900012    2    1    2    0    0  0.36957247460E+02  0.25125182800E+02 -0.56569037873E+01  0.46142317510E+02  0.99999977071E+01 0.  0.
         12    1    1    2    0    0 -0.36957247460E+02 -0.25125182800E+02  0.56569037873E+01  0.45045682490E+02  0.00000000000E+00 0. -1.
         11    1    3    3    0    0  0.11698155559E+02  0.65503511401E+01  0.82710018543E-01  0.13407489875E+02  0.51100000000E-03 0. -1.
        -11    1    3    3    0    0  0.21523659811E+02  0.13114677079E+02 -0.66240440763E+01  0.26060327065E+02  0.51100000000E-03 0.  1.
        -12    1    3    3    0    0  0.37354320895E+01  0.54601545813E+01  0.88443027049E+00  0.66745005694E+01  0.00000000000E+00 0.  1.
</event>
<event>
 7    1  0.2313935E-008  0.4614232E+02  0.7816164E-02  0.1320468E+00
        -11   -1    0    0    0    0  0.00000000000E+00  0.00000000000E+00  0.45593999997E+02  0.45594000000E+02  0.51100000000E-03 0.  1.
         11   -1    0    0    0    0 -0.00000000000E+00 -0.00000000000E+00 -0.45593999997E+02  0.45594000000E+02  0.51100000000E-03 0. -1.
    9900012    2    1    2    0    0 -0.16874424540E+02  0.39806055781E+02  0.12642987222E+02  0.46142318672E+02  0.10000008305E+02 0.  0.
         12    1    1    2    0    0  0.16874424540E+02 -0.39806055781E+02 -0.12642987222E+02  0.45045681328E+02  0.00000000000E+00 0. -1.
         11    1    3    3    0    0 -0.29937820898E+00  0.73252237288E+01 -0.29641071113E+00  0.73373285029E+01  0.51100000000E-03 0. -1.
        -11    1    3    3    0    0 -0.74661660282E+01  0.14537495394E+02  0.73552755562E+01  0.17921564839E+02  0.51100000000E-03 0.  1.
        -12    1    3    3    0    0 -0.91088803031E+01  0.17943336658E+02  0.55841223766E+01  0.20883425330E+02  0.00000000000E+00 0.  1.
</event>
<event>
 7    1  0.2313935E-008  0.4614232E+02  0.7816164E-02  0.1320468E+00
        -11   -1    0    0    0    0  0.00000000000E+00  0.00000000000E+00  0.45593999997E+02  0.45594000000E+02  0.51100000000E-03 0. -1.
         11   -1    0    0    0    0 -0.00000000000E+00 -0.00000000000E+00 -0.45593999997E+02  0.45594000000E+02  0.51100000000E-03 0.  1.
    9900012    2    1    2    0    0 -0.49518131654E+01 -0.38149243417E+02 -0.23435620449E+02  0.46142317269E+02  0.99999955107E+01 0.  0.
         12    1    1    2    0    0  0.49518131654E+01  0.38149243417E+02  0.23435620449E+02  0.45045682731E+02  0.00000000000E+00 0. -1.
         11    1    3    3    0    0 -0.17969687383E+01 -0.26683954511E+01 -0.26696595134E+01  0.41804919696E+01  0.51100000000E-03 0. -1.
        -11    1    3    3    0    0 -0.27769375336E+00 -0.24894084589E+00  0.56376961453E+00  0.67595991360E+00  0.51100000000E-03 0.  1.
        -12    1    3    3    0    0 -0.28771506737E+01 -0.35231907120E+02 -0.21329730550E+02  0.41285865386E+02  0.00000000000E+00 0.  1.
</event>
<event>
 7    1  0.2313935E-008  0.4614232E+02  0.7816164E-02  0.1320468E+00
        -11   -1    0    0    0    0  0.00000000000E+00  0.00000000000E+00  0.45593999997E+02  0.45594000000E+02  0.51100000000E-03 0.  1.
         11   -1    0    0    0    0 -0.00000000000E+00 -0.00000000000E+00 -0.45593999997E+02  0.45594000000E+02  0.51100000000E-03 0. -1.
    9900012    2    1    2    0    0 -0.25990738943E+02  0.35945555901E+02  0.78429537171E+01  0.46142318489E+02  0.10000006634E+02 0.  0.
         12    1    1    2    0    0  0.25990738943E+02 -0.35945555901E+02 -0.78429537171E+01  0.45045681511E+02  0.00000000000E+00 0. -1.
         11    1    3    3    0    0 -0.12219471959E+02  0.17962955973E+02 -0.17631218947E+00  0.21725891662E+02  0.51100000000E-03 0. -1.
        -11    1    3    3    0    0 -0.32778678677E+01  0.66275438448E+01  0.10910054606E+01  0.74738911117E+01  0.51100000000E-03 0.  1.
        -12    1    3    3    0    0 -0.10493399116E+02  0.11355056083E+02  0.69282604459E+01  0.16942535715E+02  0.00000000000E+00 0.  1.
</event>
<event>
 7    1  0.2313935E-008  0.4614232E+02  0.7816164E-02  0.1320468E+00
        -11   -1    0    0    0    0  0.00000000000E+00  0.00000000000E+00  0.45593999997E+02  0.45594000000E+02  0.51100000000E-03 0.  1.
         11   -1    0    0    0    0 -0.00000000000E+00 -0.00000000000E+00 -0.45593999997E+02  0.45594000000E+02  0.51100000000E-03 0. -1.
    9900012    2    1    2    0    0  0.27307740970E+02 -0.35129123341E+02  0.70246318818E+01  0.46142317891E+02  0.10000001187E+02 0.  0.
         12    1    1    2    0    0 -0.27307740970E+02  0.35129123341E+02 -0.70246318818E+01  0.45045682109E+02  0.00000000000E+00 0. -1.
         11    1    3    3    0    0  0.64709068028E+01 -0.64979382858E+01 -0.42941688735E+00  0.91804267842E+01  0.51100000000E-03 0. -1.
        -11    1    3    3    0    0  0.62526543016E+01 -0.58424689507E+01 -0.10005211531E+01  0.86157513946E+01  0.51100000000E-03 0.  1.
        -12    1    3    3    0    0  0.14584179865E+02 -0.22788716104E+02  0.84545699222E+01  0.28346139712E+02  0.00000000000E+00 0.  1.
</event>
<event>
 7    1  0.2313935E-008  0.4614232E+02  0.7816164E-02  0.1320468E+00
        -11   -1    0    0    0    0  0.00000000000E+00  0.00000000000E+00  0.45593999997E+02  0.45594000000E+02  0.51100000000E-03 0.  1.
         11   -1    0    0    0    0 -0.00000000000E+00 -0.00000000000E+00 -0.45593999997E+02  0.45594000000E+02  0.51100000000E-03 0. -1.
    9900012    2    1    2    0    0 -0.36404635435E+02  0.26340593619E+02  0.31605596319E+01  0.46142317737E+02  0.99999997821E+01 0.  0.
         12    1    1    2    0    0  0.36404635435E+02 -0.26340593619E+02 -0.31605596319E+01  0.45045682263E+02  0.00000000000E+00 0. -1.
         11    1    3    3    0    0 -0.11239503932E+02  0.95279310230E+01  0.31080269352E+01  0.15058809711E+02  0.51100000000E-03 0. -1.
        -11    1    3    3    0    0 -0.12032193173E+02  0.41039538612E+01  0.12184426602E+01  0.12771088937E+02  0.51100000000E-03 0.  1.
        -12    1    3    3    0    0 -0.13132938330E+02  0.12708708735E+02 -0.11659099635E+01  0.18312419090E+02  0.00000000000E+00 0.  1.
</event>
<event>
 7    1  0.2313935E-008  0.4614233E+02  0.7816164E-02  0.1320468E+00
        -11   -1    0    0    0    0  0.00000000000E+00  0.00000000000E+00  0.45593999997E+02  0.45594000000E+02  0.51100000000E-03 0.  1.
         11   -1    0    0    0    0 -0.00000000000E+00 -0.00000000000E+00 -0.45593999997E+02  0.45594000000E+02  0.51100000000E-03 0. -1.
    9900012    2    1    2    0    0  0.94243327654E+01  0.17954102243E+02  0.40223683659E+02  0.46142328038E+02  0.10000093711E+02 0.  0.
         12    1    1    2    0    0 -0.94243327654E+01 -0.17954102243E+02 -0.40223683659E+02  0.45045671962E+02  0.00000000000E+00 0. -1.
         11    1    3    3    0    0  0.38137258246E+01  0.78300390108E+01  0.82594109213E+01  0.12002994818E+02  0.51100000000E-03 0. -1.
        -11    1    3    3    0    0  0.72637178164E+00  0.21193997867E+01  0.33700909042E+01  0.40468486980E+01  0.51100000000E-03 0.  1.
        -12    1    3    3    0    0  0.48842351592E+01  0.80046634459E+01  0.28594181833E+02  0.30092484522E+02  0.00000000000E+00 0.  1.
</event>
<event>
 7    1  0.2313935E-008  0.4614232E+02  0.7816164E-02  0.1320468E+00
        -11   -1    0    0    0    0  0.00000000000E+00  0.00000000000E+00  0.45593999997E+02  0.45594000000E+02  0.51100000000E-03 0.  1.
         11   -1    0    0    0    0 -0.00000000000E+00 -0.00000000000E+00 -0.45593999997E+02  0.45594000000E+02  0.51100000000E-03 0. -1.
    9900012    2    1    2    0    0  0.54818667127E+01 -0.44060960768E+02  0.75956817136E+01  0.46142317552E+02  0.99999980945E+01 0.  0.
         12    1    1    2    0    0 -0.54818667127E+01  0.44060960768E+02 -0.75956817136E+01  0.45045682448E+02  0.00000000000E+00 0. -1.
         11    1    3    3    0    0  0.26983016297E+01 -0.38380273025E+01  0.63003343303E+00  0.47337329506E+01  0.51100000000E-03 0. -1.
        -11    1    3    3    0    0  0.15721363932E+00 -0.21101583787E+02  0.69132742551E+00  0.21113490671E+02  0.51100000000E-03 0.  1.
        -12    1    3    3    0    0  0.26263514437E+01 -0.19121349679E+02  0.62743208551E+01  0.20295093930E+02  0.00000000000E+00 0.  1.
</event>
<event>
 7    1  0.2313935E-008  0.4614232E+02  0.7816164E-02  0.1320468E+00
        -11   -1    0    0    0    0  0.00000000000E+00  0.00000000000E+00  0.45593999997E+02  0.45594000000E+02  0.51100000000E-03 0.  1.
         11   -1    0    0    0    0 -0.00000000000E+00 -0.00000000000E+00 -0.45593999997E+02  0.45594000000E+02  0.51100000000E-03 0. -1.
    9900012    2    1    2    0    0  0.29116935652E+01  0.34554699186E+02  0.28750797235E+02  0.46142317223E+02  0.99999950922E+01 0.  0.
         12    1    1    2    0    0 -0.29116935652E+01 -0.34554699186E+02 -0.28750797235E+02  0.45045682777E+02  0.00000000000E+00 0. -1.
         11    1    3    3    0    0 -0.12967910271E+01  0.10459084394E+02  0.13436294303E+02  0.17076537066E+02  0.51100000000E-03 0. -1.
        -11    1    3    3    0    0  0.62489504516E+00  0.68175301552E+01  0.60473822600E+01  0.91345521890E+01  0.51100000000E-03 0.  1.
         12    1    3    3    0    0  0.35835895471E+01  0.17278084636E+02  0.92671206721E+01  0.19931227968E+02  0.00000000000E+00 0. -1.
</event>
<event>
 7    1  0.2313935E-008  0.4614232E+02  0.7816164E-02  0.1320468E+00
        -11   -1    0    0    0    0  0.00000000000E+00  0.00000000000E+00  0.45593999997E+02  0.45594000000E+02  0.51100000000E-03 0. -1.
         11   -1    0    0    0    0 -0.00000000000E+00 -0.00000000000E+00 -0.45593999997E+02  0.45594000000E+02  0.51100000000E-03 0.  1.
    9900012    2    1    2    0    0 -0.13683675963E+02  0.20654869774E+02 -0.37619766725E+02  0.46142317835E+02  0.10000000675E+02 0.  0.
         12    1    1    2    0    0  0.13683675963E+02 -0.20654869774E+02  0.37619766725E+02  0.45045682165E+02  0.00000000000E+00 0. -1.
         11    1    3    3    0    0 -0.80614003593E+01  0.10132994426E+02 -0.15680921653E+02  0.20336053107E+02  0.51100000000E-03 0. -1.
        -11    1    3    3    0    0  0.11097274669E+00  0.65291647334E+01 -0.11928262729E+02  0.13598741084E+02  0.51100000000E-03 0.  1.
         12    1    3    3    0    0 -0.57332483508E+01  0.39927106144E+01 -0.10010582343E+02  0.12207523645E+02  0.00000000000E+00 0. -1.
</event>
<event>
 7    1  0.2313935E-008  0.4614232E+02  0.7816164E-02  0.1320468E+00
        -11   -1    0    0    0    0  0.00000000000E+00  0.00000000000E+00  0.45593999997E+02  0.45594000000E+02  0.51100000000E-03 0. -1.
         11   -1    0    0    0    0 -0.00000000000E+00 -0.00000000000E+00 -0.45593999997E+02  0.45594000000E+02  0.51100000000E-03 0.  1.
    9900012    2    1    2    0    0 -0.31029072790E+02 -0.31668277578E+02 -0.79643142515E+01  0.46142318027E+02  0.10000002424E+02 0.  0.
         12    1    1    2    0    0  0.31029072790E+02  0.31668277578E+02  0.79643142515E+01  0.45045681973E+02  0.00000000000E+00 0. -1.
         11    1    3    3    0    0 -0.32335684174E+01 -0.64935987416E+01  0.10542883394E+00  0.72549227996E+01  0.51100000000E-03 0. -1.
        -11    1    3    3    0    0 -0.99114096267E+01 -0.12886336409E+02 -0.21745638195E+01  0.16401903392E+02  0.51100000000E-03 0.  1.
        -12    1    3    3    0    0 -0.17884094746E+02 -0.12288342427E+02 -0.58951792660E+01  0.22485491835E+02  0.00000000000E+00 0.  1.
</event>
<event>
 7    1  0.2313935E-008  0.4614232E+02  0.7816164E-02  0.1320468E+00
        -11   -1    0    0    0    0  0.00000000000E+00  0.00000000000E+00  0.45593999997E+02  0.45594000000E+02  0.51100000000E-03 0.  1.
         11   -1    0    0    0    0 -0.00000000000E+00 -0.00000000000E+00 -0.45593999997E+02  0.45594000000E+02  0.51100000000E-03 0. -1.
    9900012    2    1    2    0    0 -0.31411202231E+01 -0.35790324456E+02  0.27171667499E+02  0.46142317903E+02  0.10000001294E+02 0.  0.
         12    1    1    2    0    0  0.31411202231E+01  0.35790324456E+02 -0.27171667499E+02  0.45045682097E+02  0.00000000000E+00 0. -1.
         11    1    3    3    0    0  0.19680566185E+01 -0.13181691035E+02  0.14489986698E+02  0.19687304035E+02  0.51100000000E-03 0.  1.
        -11    1    3    3    0    0 -0.24506771493E+01 -0.11618032950E+02  0.57586613431E+01  0.13196465013E+02  0.51100000000E-03 0. -1.
        -12    1    3    3    0    0 -0.26584996923E+01 -0.10990600471E+02  0.69230194573E+01  0.13258548855E+02  0.00000000000E+00 0.  1.
</event>
<event>
 7    1  0.2313935E-008  0.4614232E+02  0.7816164E-02  0.1320468E+00
        -11   -1    0    0    0    0  0.00000000000E+00  0.00000000000E+00  0.45593999997E+02  0.45594000000E+02  0.51100000000E-03 0.  1.
         11   -1    0    0    0    0 -0.00000000000E+00 -0.00000000000E+00 -0.45593999997E+02  0.45594000000E+02  0.51100000000E-03 0. -1.
    9900012    2    1    2    0    0  0.18022869804E+01 -0.25505278414E+02  0.37085658340E+02  0.46142317411E+02  0.99999968102E+01 0.  0.
         12    1    1    2    0    0 -0.18022869804E+01  0.25505278414E+02 -0.37085658340E+02  0.45045682589E+02  0.00000000000E+00 0. -1.
         11    1    3    3    0    0 -0.24996969705E+01 -0.74314599048E+01  0.82833656255E+01  0.11405666469E+02  0.51100000000E-03 0. -1.
        -11    1    3    3    0    0 -0.76825765040E+00 -0.38682028667E+01  0.91465509242E+01  0.99605525602E+01  0.51100000000E-03 0.  1.
        -12    1    3    3    0    0  0.50702416013E+01 -0.14205615643E+02  0.19655741791E+02  0.24776098382E+02  0.00000000000E+00 0.  1.
</event>
<event>
 7    1  0.2313935E-008  0.4614232E+02  0.7816164E-02  0.1320468E+00
        -11   -1    0    0    0    0  0.00000000000E+00  0.00000000000E+00  0.45593999997E+02  0.45594000000E+02  0.51100000000E-03 0.  1.
         11   -1    0    0    0    0 -0.00000000000E+00 -0.00000000000E+00 -0.45593999997E+02  0.45594000000E+02  0.51100000000E-03 0. -1.
    9900012    2    1    2    0    0  0.16051402725E+02  0.11698680609E+02  0.40430271203E+02  0.46142317776E+02  0.10000000139E+02 0.  0.
         12    1    1    2    0    0 -0.16051402725E+02 -0.11698680609E+02 -0.40430271203E+02  0.45045682224E+02  0.00000000000E+00 0. -1.
         11    1    3    3    0    0  0.15266498338E+01  0.18397922313E+01  0.12901975765E+02  0.13121603335E+02  0.51100000000E-03 0. -1.
        -11    1    3    3    0    0  0.99448160872E-01  0.16202114645E+01  0.25384689735E+01  0.30131047305E+01  0.51100000000E-03 0.  1.
        -12    1    3    3    0    0  0.14425304731E+02  0.82386769130E+01  0.24989826464E+02  0.30007609711E+02  0.00000000000E+00 0.  1.
</event>
<event>
 7    1  0.2418671E-008  0.4614232E+02  0.7816164E-02  0.1320468E+00
        -11   -1    0    0    0    0  0.00000000000E+00  0.00000000000E+00  0.45593999997E+02  0.45594000000E+02  0.51100000000E-03 0.  1.
         11   -1    0    0    0    0 -0.00000000000E+00 -0.00000000000E+00 -0.45593999997E+02  0.45594000000E+02  0.51100000000E-03 0. -1.
    9900012    2    1    2    0    0  0.41649880008E+02 -0.14429542499E+02 -0.92838296881E+01  0.46142315466E+02  0.99999790750E+01 0.  0.
         12    1    1    2    0    0 -0.41649880008E+02  0.14429542499E+02  0.92838296881E+01  0.45045684534E+02  0.00000000000E+00 0. -1.
         11    1    3    3    0    0  0.12637755257E+02 -0.64103719372E+01 -0.39961686652E+01  0.14723283960E+02  0.51100000000E-03 0. -1.
        -11    1    3    3    0    0  0.11134318066E+02 -0.68109637462E+01 -0.22124131698E+01  0.13238468123E+02  0.51100000000E-03 0.  1.
         12    1    3    3    0    0  0.17877806685E+02 -0.12082068161E+01 -0.30752478531E+01  0.18180563384E+02  0.00000000000E+00 0. -1.
</event>
<event>
 7    1  0.2313935E-008  0.4614233E+02  0.7816164E-02  0.1320468E+00
        -11   -1    0    0    0    0  0.00000000000E+00  0.00000000000E+00  0.45593999997E+02  0.45594000000E+02  0.51100000000E-03 0.  1.
         11   -1    0    0    0    0 -0.00000000000E+00 -0.00000000000E+00 -0.45593999997E+02  0.45594000000E+02  0.51100000000E-03 0. -1.
    9900012    2    1    2    0    0  0.26437934605E+02  0.12591855488E+02  0.34228541248E+02  0.46142331542E+02  0.10000125667E+02 0.  0.
         12    1    1    2    0    0 -0.26437934605E+02 -0.12591855488E+02 -0.34228541248E+02  0.45045668458E+02  0.00000000000E+00 0. -1.
         11    1    3    3    0    0  0.13963198357E+01 -0.97566430682E+00  0.20435908323E+01  0.26604311069E+01  0.51100000000E-03 0. -1.
        -11    1    3    3    0    0  0.11185676951E+02  0.45643002136E+01  0.18143271149E+02  0.21797488239E+02  0.51100000000E-03 0.  1.
         12    1    3    3    0    0  0.13855937818E+02  0.90032195813E+01  0.14041679267E+02  0.21684412196E+02  0.00000000000E+00 0. -1.
</event>
<event>
 7    1  0.2313935E-008  0.4614232E+02  0.7816164E-02  0.1320468E+00
        -11   -1    0    0    0    0  0.00000000000E+00  0.00000000000E+00  0.45593999997E+02  0.45594000000E+02  0.51100000000E-03 0.  1.
         11   -1    0    0    0    0 -0.00000000000E+00 -0.00000000000E+00 -0.45593999997E+02  0.45594000000E+02  0.51100000000E-03 0. -1.
    9900012    2    1    2    0    0 -0.43047096867E+02  0.41934505982E+01 -0.12588720818E+02  0.46142317982E+02  0.10000002017E+02 0.  0.
         12    1    1    2    0    0  0.43047096867E+02 -0.41934505982E+01  0.12588720818E+02  0.45045682018E+02  0.00000000000E+00 0. -1.
         11    1    3    3    0    0 -0.34423082083E+02  0.30576308458E+01 -0.75965256384E+01  0.35383681105E+02  0.51100000000E-03 0. -1.
        -11    1    3    3    0    0 -0.47776593879E+01  0.73162053698E+00 -0.54347142381E+00  0.48638111895E+01  0.51100000000E-03 0.  1.
         12    1    3    3    0    0 -0.38463553965E+01  0.40419921537E+00 -0.44487237556E+01  0.58948256883E+01  0.00000000000E+00 0. -1.
</event>
<event>
 7    1  0.2313935E-008  0.4614231E+02  0.7816164E-02  0.1320468E+00
        -11   -1    0    0    0    0  0.00000000000E+00  0.00000000000E+00  0.45593999997E+02  0.45594000000E+02  0.51100000000E-03 0.  1.
         11   -1    0    0    0    0 -0.00000000000E+00 -0.00000000000E+00 -0.45593999997E+02  0.45594000000E+02  0.51100000000E-03 0. -1.
    9900012    2    1    2    0    0  0.40917340391E+02  0.91828320525E+01  0.16448729637E+02  0.46142313682E+02  0.99999628068E+01 0.  0.
         12    1    1    2    0    0 -0.40917340391E+02 -0.91828320525E+01 -0.16448729637E+02  0.45045686318E+02  0.00000000000E+00 0. -1.
         11    1    3    3    0    0  0.11162166746E+02  0.32313548988E+01  0.30595735271E+01  0.12016514111E+02  0.51100000000E-03 0.  1.
        -11    1    3    3    0    0  0.12557820478E+02  0.40494082821E+01  0.98490674459E+01  0.16465135663E+02  0.51100000000E-03 0. -1.
         12    1    3    3    0    0  0.17197353167E+02  0.19020688716E+01  0.35400886645E+01  0.17660663908E+02  0.00000000000E+00 0. -1.
</event>
<event>
 7    1  0.2313935E-008  0.4614232E+02  0.7816164E-02  0.1320468E+00
        -11   -1    0    0    0    0  0.00000000000E+00  0.00000000000E+00  0.45593999997E+02  0.45594000000E+02  0.51100000000E-03 0.  1.
         11   -1    0    0    0    0 -0.00000000000E+00 -0.00000000000E+00 -0.45593999997E+02  0.45594000000E+02  0.51100000000E-03 0. -1.
    9900012    2    1    2    0    0  0.13291023709E+02 -0.53840662768E+01  0.42702154437E+02  0.46142317916E+02  0.10000001408E+02 0.  0.
         12    1    1    2    0    0 -0.13291023709E+02  0.53840662768E+01 -0.42702154437E+02  0.45045682084E+02  0.00000000000E+00 0. -1.
         11    1    3    3    0    0  0.80359236877E+01  0.57805486570E+00  0.23839093102E+02  0.25163715487E+02  0.51100000000E-03 0.  1.
        -11    1    3    3    0    0  0.40216598898E+00  0.45674884602E+00  0.42770898787E+01  0.43201684091E+01  0.51100000000E-03 0. -1.
        -12    1    3    3    0    0  0.48529340323E+01 -0.64188699885E+01  0.14585971456E+02  0.16658434019E+02  0.00000000000E+00 0.  1.
</event>
<event>
 7    1  0.2313935E-008  0.4614232E+02  0.7816164E-02  0.1320468E+00
        -11   -1    0    0    0    0  0.00000000000E+00  0.00000000000E+00  0.45593999997E+02  0.45594000000E+02  0.51100000000E-03 0.  1.
         11   -1    0    0    0    0 -0.00000000000E+00 -0.00000000000E+00 -0.45593999997E+02  0.45594000000E+02  0.51100000000E-03 0. -1.
    9900012    2    1    2    0    0  0.22133482039E+02  0.18938999642E+02  0.34358940188E+02  0.46142317572E+02  0.99999982763E+01 0.  0.
         12    1    1    2    0    0 -0.22133482039E+02 -0.18938999642E+02 -0.34358940188E+02  0.45045682428E+02  0.00000000000E+00 0. -1.
         11    1    3    3    0    0  0.13229378004E+01  0.95412788526E+00  0.10829299381E+01  0.19578717928E+01  0.51100000000E-03 0. -1.
        -11    1    3    3    0    0  0.17550718030E+02  0.10510601343E+02  0.27104218554E+02  0.33957901991E+02  0.51100000000E-03 0.  1.
        -12    1    3    3    0    0  0.32598262085E+01  0.74742704130E+01  0.61717916956E+01  0.10226543788E+02  0.00000000000E+00 0.  1.
</event>
<event>
 7    1  0.2313935E-008  0.4614232E+02  0.7816164E-02  0.1320468E+00
        -11   -1    0    0    0    0  0.00000000000E+00  0.00000000000E+00  0.45593999997E+02  0.45594000000E+02  0.51100000000E-03 0.  1.
         11   -1    0    0    0    0 -0.00000000000E+00 -0.00000000000E+00 -0.45593999997E+02  0.45594000000E+02  0.51100000000E-03 0. -1.
    9900012    2    1    2    0    0  0.19477889768E+02 -0.84821680909E+01  0.39721253564E+02  0.46142319296E+02  0.10000013998E+02 0.  0.
         12    1    1    2    0    0 -0.19477889768E+02  0.84821680909E+01 -0.39721253564E+02  0.45045680704E+02  0.00000000000E+00 0. -1.
         11    1    3    3    0    0  0.18724040776E+00 -0.21766448742E+01  0.37478513874E+01  0.43381138945E+01  0.51100000000E-03 0. -1.
        -11    1    3    3    0    0  0.16583796335E+02 -0.74415803582E+01  0.28838329425E+02  0.34088834878E+02  0.51100000000E-03 0.  1.
         12    1    3    3    0    0  0.27068530253E+01  0.11360571414E+01  0.71350727524E+01  0.77153705233E+01  0.00000000000E+00 0. -1.
</event>
<event>
 7    1  0.2313935E-008  0.4614232E+02  0.7816164E-02  0.1320468E+00
        -11   -1    0    0    0    0  0.00000000000E+00  0.00000000000E+00  0.45593999997E+02  0.45594000000E+02  0.51100000000E-03 0.  1.
         11   -1    0    0    0    0 -0.00000000000E+00 -0.00000000000E+00 -0.45593999997E+02  0.45594000000E+02  0.51100000000E-03 0. -1.
    9900012    2    1    2    0    0  0.31309346639E+02 -0.24493518921E+02  0.21187398269E+02  0.46142317616E+02  0.99999986755E+01 0.  0.
         12    1    1    2    0    0 -0.31309346639E+02  0.24493518921E+02 -0.21187398269E+02  0.45045682384E+02  0.00000000000E+00 0. -1.
         11    1    3    3    0    0  0.53209483171E+01 -0.18809864106E+01  0.22323768396E+01  0.60691109303E+01  0.51100000000E-03 0. -1.
        -11    1    3    3    0    0  0.15291325814E+02 -0.14647400569E+02  0.74110889591E+01  0.22434242319E+02  0.51100000000E-03 0.  1.
         12    1    3    3    0    0  0.10697072507E+02 -0.79651319409E+01  0.11543932470E+02  0.17638964367E+02  0.00000000000E+00 0. -1.
</event>
<event>
 7    1  0.2313935E-008  0.4614232E+02  0.7816164E-02  0.1320468E+00
        -11   -1    0    0    0    0  0.00000000000E+00  0.00000000000E+00  0.45593999997E+02  0.45594000000E+02  0.51100000000E-03 0.  1.
         11   -1    0    0    0    0 -0.00000000000E+00 -0.00000000000E+00 -0.45593999997E+02  0.45594000000E+02  0.51100000000E-03 0. -1.
    9900012    2    1    2    0    0 -0.29513635544E+01 -0.10318610742E+02  0.43748475091E+02  0.46142319327E+02  0.10000014282E+02 0.  0.
         12    1    1    2    0    0  0.29513635544E+01  0.10318610742E+02 -0.43748475091E+02  0.45045680673E+02  0.00000000000E+00 0. -1.
         11    1    3    3    0    0  0.59743594688E+00  0.20125437009E+00  0.11394003634E+02  0.11411430765E+02  0.51100000000E-03 0. -1.
        -11    1    3    3    0    0 -0.21483826111E+01 -0.36587551598E+01  0.20733447008E+02  0.21163125059E+02  0.51100000000E-03 0.  1.
         12    1    3    3    0    0 -0.14004168902E+01 -0.68611099521E+01  0.11621024449E+02  0.13567763503E+02  0.00000000000E+00 0. -1.
</event>
<event>
 7    1  0.2313935E-008  0.4614231E+02  0.7816164E-02  0.1320468E+00
        -11   -1    0    0    0    0  0.00000000000E+00  0.00000000000E+00  0.45593999997E+02  0.45594000000E+02  0.51100000000E-03 0. -1.
         11   -1    0    0    0    0 -0.00000000000E+00 -0.00000000000E+00 -0.45593999997E+02  0.45594000000E+02  0.51100000000E-03 0.  1.
    9900012    2    1    2    0    0  0.16314555082E+02  0.38200960349E+02 -0.17425148106E+02  0.46142313573E+02  0.99999618102E+01 0.  0.
         12    1    1    2    0    0 -0.16314555082E+02 -0.38200960349E+02  0.17425148106E+02  0.45045686427E+02  0.00000000000E+00 0. -1.
         11    1    3    3    0    0 -0.18343493400E-01  0.27471386216E+01  0.47428410382E+00  0.27878401608E+01  0.51100000000E-03 0. -1.
        -11    1    3    3    0    0  0.11794418954E+02  0.29989714186E+02 -0.13125273120E+02  0.34796035265E+02  0.51100000000E-03 0.  1.
         12    1    3    3    0    0  0.45384796219E+01  0.54641075419E+01 -0.47741590903E+01  0.85584381477E+01  0.00000000000E+00 0. -1.
</event>
<event>
 7    1  0.2313935E-008  0.4614232E+02  0.7816164E-02  0.1320468E+00
        -11   -1    0    0    0    0  0.00000000000E+00  0.00000000000E+00  0.45593999997E+02  0.45594000000E+02  0.51100000000E-03 0.  1.
         11   -1    0    0    0    0 -0.00000000000E+00 -0.00000000000E+00 -0.45593999997E+02  0.45594000000E+02  0.51100000000E-03 0. -1.
    9900012    2    1    2    0    0 -0.36892862493E+01 -0.23161844126E+02  0.38458182728E+02  0.46142315688E+02  0.99999810999E+01 0.  0.
         12    1    1    2    0    0  0.36892862493E+01  0.23161844126E+02 -0.38458182728E+02  0.45045684312E+02  0.00000000000E+00 0. -1.
         11    1    3    3    0    0  0.11235195693E+01 -0.25837325817E+01  0.67484036330E+01  0.73129284238E+01  0.51100000000E-03 0. -1.
        -11    1    3    3    0    0  0.16722852791E+01 -0.83430615459E+01  0.13390063353E+02  0.15864961736E+02  0.51100000000E-03 0.  1.
         12    1    3    3    0    0 -0.64850910977E+01 -0.12235049998E+02  0.18319715742E+02  0.22964425529E+02  0.00000000000E+00 0. -1.
</event>
<event>
 7    1  0.2313935E-008  0.4614232E+02  0.7816164E-02  0.1320468E+00
        -11   -1    0    0    0    0  0.00000000000E+00  0.00000000000E+00  0.45593999997E+02  0.45594000000E+02  0.51100000000E-03 0.  1.
         11   -1    0    0    0    0 -0.00000000000E+00 -0.00000000000E+00 -0.45593999997E+02  0.45594000000E+02  0.51100000000E-03 0. -1.
    9900012    2    1    2    0    0  0.30355536088E+02  0.21615720204E+01  0.33211181916E+02  0.46142316865E+02  0.99999918324E+01 0.  0.
         12    1    1    2    0    0 -0.30355536088E+02 -0.21615720204E+01 -0.33211181916E+02  0.45045683135E+02  0.00000000000E+00 0. -1.
         11    1    3    3    0    0  0.33039975976E+01 -0.16902093739E+01  0.54671877159E+01  0.66078248792E+01  0.51100000000E-03 0. -1.
        -11    1    3    3    0    0  0.26610101442E+02  0.46150146270E+01  0.27644321278E+02  0.38647177878E+02  0.51100000000E-03 0.  1.
         12    1    3    3    0    0  0.44143704879E+00 -0.76323323277E+00  0.99672922529E-01  0.88731410849E+00  0.00000000000E+00 0. -1.
</event>
<event>
 7    1  0.2313935E-008  0.4614232E+02  0.7816164E-02  0.1320468E+00
        -11   -1    0    0    0    0  0.00000000000E+00  0.00000000000E+00  0.45593999997E+02  0.45594000000E+02  0.51100000000E-03 0. -1.
         11   -1    0    0    0    0 -0.00000000000E+00 -0.00000000000E+00 -0.45593999997E+02  0.45594000000E+02  0.51100000000E-03 0.  1.
    9900012    2    1    2    0    0  0.31379242134E+02  0.25726118563E+02  0.19560767611E+02  0.46142316047E+02  0.99999843716E+01 0.  0.
         12    1    1    2    0    0 -0.31379242134E+02 -0.25726118563E+02 -0.19560767611E+02  0.45045683953E+02  0.00000000000E+00 0. -1.
         11    1    3    3    0    0  0.53179440818E+00  0.45334315621E+00 -0.44791627200E+00  0.83003286543E+00  0.51100000000E-03 0. -1.
        -11    1    3    3    0    0  0.93174909209E+01  0.11490675179E+02  0.47317770152E+01  0.15531933786E+02  0.51100000000E-03 0.  1.
         12    1    3    3    0    0  0.21529956805E+02  0.13782100228E+02  0.15276906868E+02  0.29780349396E+02  0.00000000000E+00 0. -1.
</event>
<event>
 7    1  0.2313935E-008  0.4614232E+02  0.7816164E-02  0.1320468E+00
        -11   -1    0    0    0    0  0.00000000000E+00  0.00000000000E+00  0.45593999997E+02  0.45594000000E+02  0.51100000000E-03 0.  1.
         11   -1    0    0    0    0 -0.00000000000E+00 -0.00000000000E+00 -0.45593999997E+02  0.45594000000E+02  0.51100000000E-03 0. -1.
    9900012    2    1    2    0    0 -0.19617261917E+02  0.47785711391E+01  0.40267129595E+02  0.46142318375E+02  0.10000005595E+02 0.  0.
         12    1    1    2    0    0  0.19617261917E+02 -0.47785711391E+01 -0.40267129595E+02  0.45045681625E+02  0.00000000000E+00 0. -1.
         11    1    3    3    0    0 -0.65759246477E+00  0.98115124439E+00  0.26456292237E+01  0.28973159759E+01  0.51100000000E-03 0. -1.
        -11    1    3    3    0    0 -0.16530252161E+02 -0.13205842757E+00  0.26942929917E+02  0.31609937500E+02  0.51100000000E-03 0.  1.
        -12    1    3    3    0    0 -0.24294172909E+01  0.39294783223E+01  0.10678570454E+02  0.11635064899E+02  0.00000000000E+00 0.  1.
</event>
<event>
 7    1  0.2313935E-008  0.4614232E+02  0.7816164E-02  0.1320468E+00
        -11   -1    0    0    0    0  0.00000000000E+00  0.00000000000E+00  0.45593999997E+02  0.45594000000E+02  0.51100000000E-03 0.  1.
         11   -1    0    0    0    0 -0.00000000000E+00 -0.00000000000E+00 -0.45593999997E+02  0.45594000000E+02  0.51100000000E-03 0. -1.
    9900012    2    1    2    0    0 -0.34525469364E+02  0.15932818905E+02  0.24150585203E+02  0.46142317424E+02  0.99999969289E+01 0.  0.
         12    1    1    2    0    0  0.34525469364E+02 -0.15932818905E+02 -0.24150585203E+02  0.45045682576E+02  0.00000000000E+00 0. -1.
         11    1    3    3    0    0 -0.11495503681E+01  0.92666153414E+00 -0.46089211199E+00  0.15467997439E+01  0.51100000000E-03 0. -1.
        -11    1    3    3    0    0 -0.19315891458E+02  0.10669284977E+02  0.11479956818E+02  0.24874217848E+02  0.51100000000E-03 0.  1.
        -12    1    3    3    0    0 -0.14060027538E+02  0.43368723938E+01  0.13131520497E+02  0.19721299832E+02  0.00000000000E+00 0.  1.
</event>
<event>
 7    1  0.2313935E-008  0.4614232E+02  0.7816164E-02  0.1320468E+00
        -11   -1    0    0    0    0  0.00000000000E+00  0.00000000000E+00  0.45593999997E+02  0.45594000000E+02  0.51100000000E-03 0.  1.
         11   -1    0    0    0    0 -0.00000000000E+00 -0.00000000000E+00 -0.45593999997E+02  0.45594000000E+02  0.51100000000E-03 0. -1.
    9900012    2    1    2    0    0  0.29460596823E+02 -0.10528571516E+02  0.32408885044E+02  0.46142318597E+02  0.10000007618E+02 0.  0.
         12    1    1    2    0    0 -0.29460596823E+02  0.10528571516E+02 -0.32408885044E+02  0.45045681403E+02  0.00000000000E+00 0. -1.
         11    1    3    3    0    0  0.11339605130E+02 -0.29190357763E+00  0.12384754605E+02  0.16794463346E+02  0.51100000000E-03 0.  1.
        -11    1    3    3    0    0  0.47413283410E+01 -0.54306213627E+01  0.60193679591E+01  0.93917321997E+01  0.51100000000E-03 0. -1.
         12    1    3    3    0    0  0.13379663352E+02 -0.48060465760E+01  0.14004762479E+02  0.19956123051E+02  0.00000000000E+00 0. -1.
</event>
<event>
 7    1  0.2313935E-008  0.4614232E+02  0.7816164E-02  0.1320468E+00
        -11   -1    0    0    0    0  0.00000000000E+00  0.00000000000E+00  0.45593999997E+02  0.45594000000E+02  0.51100000000E-03 0.  1.
         11   -1    0    0    0    0 -0.00000000000E+00 -0.00000000000E+00 -0.45593999997E+02  0.45594000000E+02  0.51100000000E-03 0. -1.
    9900012    2    1    2    0    0  0.29160143502E+02  0.15172481592E+02  0.30799274389E+02  0.46142317969E+02  0.10000001900E+02 0.  0.
         12    1    1    2    0    0 -0.29160143502E+02 -0.15172481592E+02 -0.30799274389E+02  0.45045682031E+02  0.00000000000E+00 0. -1.
         11    1    3    3    0    0  0.44944683564E+01 -0.12411885556E+00  0.36338056772E+01  0.57810202610E+01  0.51100000000E-03 0.  1.
        -11    1    3    3    0    0  0.24596562592E+02  0.15645373146E+02  0.27339714711E+02  0.39965342398E+02  0.51100000000E-03 0. -1.
         12    1    3    3    0    0  0.69112552980E-01 -0.34877269808E+00 -0.17424599907E+00  0.39595531073E+00  0.00000000000E+00 0. -1.
</event>
<event>
 7    1  0.2313935E-008  0.4614232E+02  0.7816164E-02  0.1320468E+00
        -11   -1    0    0    0    0  0.00000000000E+00  0.00000000000E+00  0.45593999997E+02  0.45594000000E+02  0.51100000000E-03 0.  1.
         11   -1    0    0    0    0 -0.00000000000E+00 -0.00000000000E+00 -0.45593999997E+02  0.45594000000E+02  0.51100000000E-03 0. -1.
    9900012    2    1    2    0    0  0.15494247943E+02 -0.39200756794E+02  0.15885293160E+02  0.46142316618E+02  0.99999895788E+01 0.  0.
         12    1    1    2    0    0 -0.15494247943E+02  0.39200756794E+02 -0.15885293160E+02  0.45045683382E+02  0.00000000000E+00 0. -1.
         11    1    3    3    0    0  0.28814906924E+01 -0.14678182275E+02  0.57707741890E+01  0.16032899255E+02  0.51100000000E-03 0. -1.
        -11    1    3    3    0    0  0.11193457901E+02 -0.21536489237E+02  0.63288108293E+01  0.25083215807E+02  0.51100000000E-03 0.  1.
         12    1    3    3    0    0  0.14192993502E+01 -0.29860852817E+01  0.37857081416E+01  0.50262015567E+01  0.00000000000E+00 0. -1.
</event>
<event>
 7    1  0.2313935E-008  0.4614232E+02  0.7816164E-02  0.1320468E+00
        -11   -1    0    0    0    0  0.00000000000E+00  0.00000000000E+00  0.45593999997E+02  0.45594000000E+02  0.51100000000E-03 0.  1.
         11   -1    0    0    0    0 -0.00000000000E+00 -0.00000000000E+00 -0.45593999997E+02  0.45594000000E+02  0.51100000000E-03 0. -1.
    9900012    2    1    2    0    0 -0.30868139869E+02  0.11716228166E+01  0.32785648913E+02  0.46142317259E+02  0.99999954169E+01 0.  0.
         12    1    1    2    0    0  0.30868139869E+02 -0.11716228166E+01 -0.32785648913E+02  0.45045682741E+02  0.00000000000E+00 0. -1.
         11    1    3    3    0    0 -0.82901100721E+01  0.24554401319E+01  0.68228385475E+01  0.11013911084E+02  0.51100000000E-03 0. -1.
        -11    1    3    3    0    0 -0.12577339844E+02  0.30773714803E-01  0.19311404385E+02  0.23046057454E+02  0.51100000000E-03 0.  1.
         12    1    3    3    0    0 -0.10000689953E+02 -0.13145910301E+01  0.66514059807E+01  0.12082348721E+02  0.00000000000E+00 0. -1.
</event>
<event>
 7    1  0.2313935E-008  0.4614233E+02  0.7816164E-02  0.1320468E+00
        -11   -1    0    0    0    0  0.00000000000E+00  0.00000000000E+00  0.45593999997E+02  0.45594000000E+02  0.51100000000E-03 0. -1.
         11   -1    0    0    0    0 -0.00000000000E+00 -0.00000000000E+00 -0.45593999997E+02  0.45594000000E+02  0.51100000000E-03 0.  1.
    9900012    2    1    2    0    0  0.15871590230E+02 -0.38741928168E+02 -0.16621323667E+02  0.46142325679E+02  0.10000072198E+02 0.  0.
         12    1    1    2    0    0 -0.15871590230E+02  0.38741928168E+02  0.16621323667E+02  0.45045674321E+02  0.00000000000E+00 0. -1.
         11    1    3    3    0    0  0.49291888562E+01 -0.14168025389E+02 -0.96066232383E+01  0.17813395423E+02  0.51100000000E-03 0. -1.
        -11    1    3    3    0    0  0.65110396058E+01 -0.15667955843E+02 -0.70705410802E+01  0.18381268413E+02  0.51100000000E-03 0.  1.
         12    1    3    3    0    0  0.44313617680E+01 -0.89059469358E+01  0.55840651308E-01  0.99476618419E+01  0.00000000000E+00 0. -1.
</event>
<event>
 7    1  0.2313935E-008  0.4614232E+02  0.7816164E-02  0.1320468E+00
        -11   -1    0    0    0    0  0.00000000000E+00  0.00000000000E+00  0.45593999997E+02  0.45594000000E+02  0.51100000000E-03 0. -1.
         11   -1    0    0    0    0 -0.00000000000E+00 -0.00000000000E+00 -0.45593999997E+02  0.45594000000E+02  0.51100000000E-03 0.  1.
    9900012    2    1    2    0    0 -0.39033151157E+02  0.22153696098E+02 -0.38393195456E+01  0.46142317470E+02  0.99999973472E+01 0.  0.
         12    1    1    2    0    0  0.39033151157E+02 -0.22153696098E+02  0.38393195456E+01  0.45045682530E+02  0.00000000000E+00 0. -1.
         11    1    3    3    0    0 -0.19773067110E+02  0.89292956053E+01  0.73212058511E+00  0.21708120687E+02  0.51100000000E-03 0. -1.
        -11    1    3    3    0    0 -0.17195692074E+02  0.98473761613E+01 -0.50452315763E+01  0.20447909553E+02  0.51100000000E-03 0.  1.
        -12    1    3    3    0    0 -0.20643919727E+01  0.33770243312E+01  0.47379144554E+00  0.39862872305E+01  0.00000000000E+00 0.  1.
</event>
<event>
 7    1  0.2313935E-008  0.4614232E+02  0.7816164E-02  0.1320468E+00
        -11   -1    0    0    0    0  0.00000000000E+00  0.00000000000E+00  0.45593999997E+02  0.45594000000E+02  0.51100000000E-03 0.  1.
         11   -1    0    0    0    0 -0.00000000000E+00 -0.00000000000E+00 -0.45593999997E+02  0.45594000000E+02  0.51100000000E-03 0. -1.
    9900012    2    1    2    0    0  0.51323375089E+01 -0.12426570776E+02  0.42992471407E+02  0.46142321548E+02  0.10000034531E+02 0.  0.
         12    1    1    2    0    0 -0.51323375089E+01  0.12426570776E+02 -0.42992471407E+02  0.45045678452E+02  0.00000000000E+00 0. -1.
         11    1    3    3    0    0 -0.13425999712E+01 -0.31434982937E+00  0.12640482583E+01  0.18706172132E+01  0.51100000000E-03 0. -1.
        -11    1    3    3    0    0  0.71972935456E+00 -0.50072660136E+01  0.93955893987E+01  0.10670886734E+02  0.51100000000E-03 0.  1.
        -12    1    3    3    0    0  0.57552081255E+01 -0.71049549333E+01  0.32332833750E+02  0.33600817601E+02  0.00000000000E+00 0.  1.
</event>
<event>
 7    1  0.2313935E-008  0.4614232E+02  0.7816164E-02  0.1320468E+00
        -11   -1    0    0    0    0  0.00000000000E+00  0.00000000000E+00  0.45593999997E+02  0.45594000000E+02  0.51100000000E-03 0.  1.
         11   -1    0    0    0    0 -0.00000000000E+00 -0.00000000000E+00 -0.45593999997E+02  0.45594000000E+02  0.51100000000E-03 0. -1.
    9900012    2    1    2    0    0 -0.24129747326E+02  0.45842083592E+01  0.37760478003E+02  0.46142319061E+02  0.10000011849E+02 0.  0.
         12    1    1    2    0    0  0.24129747326E+02 -0.45842083592E+01 -0.37760478003E+02  0.45045680939E+02  0.00000000000E+00 0. -1.
         11    1    3    3    0    0 -0.11001960502E+02 -0.11396100542E+01  0.10938485551E+02  0.15556102094E+02  0.51100000000E-03 0. -1.
        -11    1    3    3    0    0 -0.71319975253E+01  0.15989040149E+01  0.15336606124E+02  0.16989213355E+02  0.51100000000E-03 0.  1.
         12    1    3    3    0    0 -0.59957892995E+01  0.41249143986E+01  0.11485386328E+02  0.13597003612E+02  0.00000000000E+00 0. -1.
</event>
<event>
 7    1  0.2313935E-008  0.4614232E+02  0.7816164E-02  0.1320468E+00
        -11   -1    0    0    0    0  0.00000000000E+00  0.00000000000E+00  0.45593999997E+02  0.45594000000E+02  0.51100000000E-03 0.  1.
         11   -1    0    0    0    0 -0.00000000000E+00 -0.00000000000E+00 -0.45593999997E+02  0.45594000000E+02  0.51100000000E-03 0. -1.
    9900012    2    1    2    0    0 -0.15582167805E+01 -0.31053470670E+02  0.32593978666E+02  0.46142317349E+02  0.99999962455E+01 0.  0.
         12    1    1    2    0    0  0.15582167805E+01  0.31053470670E+02 -0.32593978666E+02  0.45045682651E+02  0.00000000000E+00 0. -1.
         11    1    3    3    0    0 -0.53514878284E+01 -0.13944702928E+02  0.17491409171E+02  0.23000925128E+02  0.51100000000E-03 0. -1.
        -11    1    3    3    0    0  0.98346944615E+00 -0.56970630698E+01  0.49698196639E+01  0.76238341748E+01  0.51100000000E-03 0.  1.
         12    1    3    3    0    0  0.28098016017E+01 -0.11411704673E+02  0.10132749831E+02  0.15517558046E+02  0.00000000000E+00 0. -1.
</event>
<event>
 7    1  0.2313935E-008  0.4614232E+02  0.7816164E-02  0.1320468E+00
        -11   -1    0    0    0    0  0.00000000000E+00  0.00000000000E+00  0.45593999997E+02  0.45594000000E+02  0.51100000000E-03 0.  1.
         11   -1    0    0    0    0 -0.00000000000E+00 -0.00000000000E+00 -0.45593999997E+02  0.45594000000E+02  0.51100000000E-03 0. -1.
    9900012    2    1    2    0    0  0.19185413894E+02 -0.24309683433E+02  0.32711965241E+02  0.46142317800E+02  0.10000000356E+02 0.  0.
         12    1    1    2    0    0 -0.19185413894E+02  0.24309683433E+02 -0.32711965241E+02  0.45045682200E+02  0.00000000000E+00 0. -1.
         11    1    3    3    0    0  0.80715113927E+01 -0.10998288210E+02  0.88242652025E+01  0.16247439686E+02  0.51100000000E-03 0. -1.
        -11    1    3    3    0    0  0.43558256510E+01 -0.37494599487E+01  0.11457715877E+02  0.12818382128E+02  0.51100000000E-03 0.  1.
        -12    1    3    3    0    0  0.67580768506E+01 -0.95619352736E+01  0.12429984162E+02  0.17076495986E+02  0.00000000000E+00 0.  1.
</event>
<event>
 7    1  0.2313935E-008  0.4614232E+02  0.7816164E-02  0.1320468E+00
        -11   -1    0    0    0    0  0.00000000000E+00  0.00000000000E+00  0.45593999997E+02  0.45594000000E+02  0.51100000000E-03 0. -1.
         11   -1    0    0    0    0 -0.00000000000E+00 -0.00000000000E+00 -0.45593999997E+02  0.45594000000E+02  0.51100000000E-03 0.  1.
    9900012    2    1    2    0    0 -0.69111306016E+01  0.33497367031E+02 -0.29313412939E+02  0.46142317606E+02  0.99999985849E+01 0.  0.
         12    1    1    2    0    0  0.69111306016E+01 -0.33497367031E+02  0.29313412939E+02  0.45045682394E+02  0.00000000000E+00 0. -1.
         11    1    3    3    0    0  0.15640863719E+01  0.13185803128E+02 -0.10252051472E+02  0.16775468099E+02  0.51100000000E-03 0. -1.
        -11    1    3    3    0    0 -0.63874905536E+01  0.17036942237E+02 -0.13844664102E+02  0.22863336605E+02  0.51100000000E-03 0.  1.
         12    1    3    3    0    0 -0.20877264199E+01  0.32746216664E+01 -0.52166973653E+01  0.65035129018E+01  0.00000000000E+00 0. -1.
</event>
<event>
 7    1  0.2313935E-008  0.4614232E+02  0.7816164E-02  0.1320468E+00
        -11   -1    0    0    0    0  0.00000000000E+00  0.00000000000E+00  0.45593999997E+02  0.45594000000E+02  0.51100000000E-03 0. -1.
         11   -1    0    0    0    0 -0.00000000000E+00 -0.00000000000E+00 -0.45593999997E+02  0.45594000000E+02  0.51100000000E-03 0.  1.
    9900012    2    1    2    0    0 -0.25404319976E+02  0.36819220646E+02  0.52989621723E+01  0.46142317826E+02  0.10000000592E+02 0.  0.
         12    1    1    2    0    0  0.25404319976E+02 -0.36819220646E+02 -0.52989621723E+01  0.45045682174E+02  0.00000000000E+00 0. -1.
         11    1    3    3    0    0 -0.29820080185E+01  0.17786274681E+01  0.26542006353E+00  0.34822888398E+01  0.51100000000E-03 0. -1.
        -11    1    3    3    0    0 -0.22484446349E+02  0.35431814131E+02  0.49456281628E+01  0.42254266274E+02  0.51100000000E-03 0.  1.
         12    1    3    3    0    0  0.62134391070E-01 -0.39122095284E+00  0.87913945986E-01  0.40576271193E+00  0.00000000000E+00 0. -1.
</event>
<event>
 7    1  0.2313935E-008  0.4614232E+02  0.7816164E-02  0.1320468E+00
        -11   -1    0    0    0    0  0.00000000000E+00  0.00000000000E+00  0.45593999997E+02  0.45594000000E+02  0.51100000000E-03 0.  1.
         11   -1    0    0    0    0 -0.00000000000E+00 -0.00000000000E+00 -0.45593999997E+02  0.45594000000E+02  0.51100000000E-03 0. -1.
    9900012    2    1    2    0    0  0.28973985107E+02  0.15126293956E+02  0.30997046468E+02  0.46142317948E+02  0.10000001703E+02 0.  0.
         12    1    1    2    0    0 -0.28973985107E+02 -0.15126293956E+02 -0.30997046468E+02  0.45045682052E+02  0.00000000000E+00 0. -1.
         11    1    3    3    0    0  0.28293450642E+01  0.44562722559E+01  0.42648211985E+01  0.67861812551E+01  0.51100000000E-03 0. -1.
        -11    1    3    3    0    0  0.40454431697E+01  0.23722950851E+01  0.77785315748E+01  0.90828931587E+01  0.51100000000E-03 0.  1.
        -12    1    3    3    0    0  0.22099196873E+02  0.82977266150E+01  0.18953693694E+02  0.30273243534E+02  0.00000000000E+00 0.  1.
</event>
<event>
 7    1  0.2313935E-008  0.4614231E+02  0.7816164E-02  0.1320468E+00
        -11   -1    0    0    0    0  0.00000000000E+00  0.00000000000E+00  0.45593999997E+02  0.45594000000E+02  0.51100000000E-03 0.  1.
         11   -1    0    0    0    0 -0.00000000000E+00 -0.00000000000E+00 -0.45593999997E+02  0.45594000000E+02  0.51100000000E-03 0. -1.
    9900012    2    1    2    0    0 -0.70921481575E+00  0.37300508784E+02  0.25244461842E+02  0.46142314359E+02  0.99999689723E+01 0.  0.
         12    1    1    2    0    0  0.70921481575E+00 -0.37300508784E+02 -0.25244461842E+02  0.45045685641E+02  0.00000000000E+00 0. -1.
         11    1    3    3    0    0 -0.28313998198E+00  0.35664312942E+01  0.58309937990E+00  0.36248593868E+01  0.51100000000E-03 0. -1.
        -11    1    3    3    0    0 -0.63401937551E-01  0.27503856678E+02  0.15926966252E+02  0.31782611695E+02  0.51100000000E-03 0.  1.
        -12    1    3    3    0    0 -0.36267289622E+00  0.62302208123E+01  0.87343962107E+01  0.10734843276E+02  0.00000000000E+00 0.  1.
</event>
<event>
 7    1  0.2313935E-008  0.4614232E+02  0.7816164E-02  0.1320468E+00
        -11   -1    0    0    0    0  0.00000000000E+00  0.00000000000E+00  0.45593999997E+02  0.45594000000E+02  0.51100000000E-03 0.  1.
         11   -1    0    0    0    0 -0.00000000000E+00 -0.00000000000E+00 -0.45593999997E+02  0.45594000000E+02  0.51100000000E-03 0. -1.
    9900012    2    1    2    0    0 -0.29771772098E+02  0.24611080955E+02  0.23174330496E+02  0.46142319701E+02  0.10000017694E+02 0.  0.
         12    1    1    2    0    0  0.29771772098E+02 -0.24611080955E+02 -0.23174330496E+02  0.45045680299E+02  0.00000000000E+00 0. -1.
         11    1    3    3    0    0 -0.40433814068E+01  0.72399411327E+01  0.36067037404E+01  0.90428973752E+01  0.51100000000E-03 0. -1.
        -11    1    3    3    0    0 -0.88492662465E+01  0.89467966903E+01  0.90571848007E+01  0.15504427783E+02  0.51100000000E-03 0.  1.
        -12    1    3    3    0    0 -0.16879124444E+02  0.84243431320E+01  0.10510441955E+02  0.21594994543E+02  0.00000000000E+00 0.  1.
</event>
<event>
 7    1  0.2313935E-008  0.4614232E+02  0.7816164E-02  0.1320468E+00
        -11   -1    0    0    0    0  0.00000000000E+00  0.00000000000E+00  0.45593999997E+02  0.45594000000E+02  0.51100000000E-03 0.  1.
         11   -1    0    0    0    0 -0.00000000000E+00 -0.00000000000E+00 -0.45593999997E+02  0.45594000000E+02  0.51100000000E-03 0. -1.
    9900012    2    1    2    0    0  0.18976209723E+02  0.81523448259E+00  0.40845470895E+02  0.46142316130E+02  0.99999851240E+01 0.  0.
         12    1    1    2    0    0 -0.18976209723E+02 -0.81523448259E+00 -0.40845470895E+02  0.45045683870E+02  0.00000000000E+00 0. -1.
         11    1    3    3    0    0 -0.51407514722E+00 -0.11285161419E+01  0.97224119863E+00  0.15757776331E+01  0.51100000000E-03 0. -1.
        -11    1    3    3    0    0  0.92169740620E+01 -0.58807656969E+00  0.16473361724E+02  0.18885711309E+02  0.51100000000E-03 0.  1.
        -12    1    3    3    0    0  0.10273310809E+02  0.25318271942E+01  0.23399867972E+02  0.25680827187E+02  0.00000000000E+00 0.  1.
</event>
<event>
 7    1  0.2313935E-008  0.4614232E+02  0.7816164E-02  0.1320468E+00
        -11   -1    0    0    0    0  0.00000000000E+00  0.00000000000E+00  0.45593999997E+02  0.45594000000E+02  0.51100000000E-03 0. -1.
         11   -1    0    0    0    0 -0.00000000000E+00 -0.00000000000E+00 -0.45593999997E+02  0.45594000000E+02  0.51100000000E-03 0.  1.
    9900012    2    1    2    0    0 -0.25860604041E+02  0.23997054715E+02 -0.28008641065E+02  0.46142318179E+02  0.10000003813E+02 0.  0.
         12    1    1    2    0    0  0.25860604041E+02 -0.23997054715E+02  0.28008641065E+02  0.45045681821E+02  0.00000000000E+00 0. -1.
         11    1    3    3    0    0 -0.24215073297E+01  0.32416859164E+01 -0.36736719773E+01  0.54651707555E+01  0.51100000000E-03 0. -1.
        -11    1    3    3    0    0 -0.11163513333E+02  0.15616292618E+02 -0.15853361113E+02  0.24896218265E+02  0.51100000000E-03 0.  1.
         12    1    3    3    0    0 -0.12275583378E+02  0.51390761809E+01 -0.84816079746E+01  0.15780929159E+02  0.00000000000E+00 0. -1.
</event>
<event>
 7    1  0.2313935E-008  0.4614232E+02  0.7816164E-02  0.1320468E+00
        -11   -1    0    0    0    0  0.00000000000E+00  0.00000000000E+00  0.45593999997E+02  0.45594000000E+02  0.51100000000E-03 0.  1.
         11   -1    0    0    0    0 -0.00000000000E+00 -0.00000000000E+00 -0.45593999997E+02  0.45594000000E+02  0.51100000000E-03 0. -1.
    9900012    2    1    2    0    0  0.43660853924E+02 -0.10759009691E+02  0.26621438227E+01  0.46142318024E+02  0.10000002399E+02 0.  0.
         12    1    1    2    0    0 -0.43660853924E+02  0.10759009691E+02 -0.26621438227E+01  0.45045681976E+02  0.00000000000E+00 0. -1.
         11    1    3    3    0    0  0.12342411013E+02 -0.11729339047E+01 -0.48892641113E+00  0.12407656219E+02  0.51100000000E-03 0.  1.
        -11    1    3    3    0    0  0.17865205861E+02 -0.62017803735E+01 -0.18201695667E+01  0.18998438825E+02  0.51100000000E-03 0. -1.
         12    1    3    3    0    0  0.13453237050E+02 -0.33842954130E+01  0.49712398006E+01  0.14736222980E+02  0.00000000000E+00 0. -1.
</event>
<event>
 7    1  0.2313935E-008  0.4614232E+02  0.7816164E-02  0.1320468E+00
        -11   -1    0    0    0    0  0.00000000000E+00  0.00000000000E+00  0.45593999997E+02  0.45594000000E+02  0.51100000000E-03 0. -1.
         11   -1    0    0    0    0 -0.00000000000E+00 -0.00000000000E+00 -0.45593999997E+02  0.45594000000E+02  0.51100000000E-03 0.  1.
    9900012    2    1    2    0    0  0.21141581419E+02  0.33736797484E+02 -0.21070728151E+02  0.46142317031E+02  0.99999933402E+01 0.  0.
         12    1    1    2    0    0 -0.21141581419E+02 -0.33736797484E+02  0.21070728151E+02  0.45045682969E+02  0.00000000000E+00 0. -1.
         11    1    3    3    0    0  0.18207435571E+01  0.34135302325E+01 -0.43410987733E+01  0.58148460486E+01  0.51100000000E-03 0. -1.
        -11    1    3    3    0    0  0.76074945628E+01  0.60837665671E+01 -0.37145943954E+01  0.10425181099E+02  0.51100000000E-03 0.  1.
        -12    1    3    3    0    0  0.11713343299E+02  0.24239500684E+02 -0.13015034982E+02  0.29902289883E+02  0.00000000000E+00 0.  1.
</event>
<event>
 7    1  0.2313935E-008  0.4614232E+02  0.7816164E-02  0.1320468E+00
        -11   -1    0    0    0    0  0.00000000000E+00  0.00000000000E+00  0.45593999997E+02  0.45594000000E+02  0.51100000000E-03 0.  1.
         11   -1    0    0    0    0 -0.00000000000E+00 -0.00000000000E+00 -0.45593999997E+02  0.45594000000E+02  0.51100000000E-03 0. -1.
    9900012    2    1    2    0    0  0.24773473390E+02 -0.33008894596E+02  0.18049969249E+02  0.46142317675E+02  0.99999992143E+01 0.  0.
         12    1    1    2    0    0 -0.24773473390E+02  0.33008894596E+02 -0.18049969249E+02  0.45045682325E+02  0.00000000000E+00 0. -1.
         11    1    3    3    0    0  0.14035606156E+01 -0.86148280053E+00 -0.30911627395E+00  0.16756157523E+01  0.51100000000E-03 0. -1.
        -11    1    3    3    0    0  0.18676281530E+02 -0.28811220625E+02  0.17817670914E+02  0.38682803967E+02  0.51100000000E-03 0.  1.
        -12    1    3    3    0    0  0.46936312442E+01 -0.33361911699E+01  0.54141460897E+00  0.57838979553E+01  0.00000000000E+00 0.  1.
</event>
<event>
 7    1  0.2313935E-008  0.4614232E+02  0.7816164E-02  0.1320468E+00
        -11   -1    0    0    0    0  0.00000000000E+00  0.00000000000E+00  0.45593999997E+02  0.45594000000E+02  0.51100000000E-03 0.  1.
         11   -1    0    0    0    0 -0.00000000000E+00 -0.00000000000E+00 -0.45593999997E+02  0.45594000000E+02  0.51100000000E-03 0. -1.
    9900012    2    1    2    0    0  0.28763520992E+02  0.34584769654E+02 -0.23805746958E+01  0.46142316880E+02  0.99999919645E+01 0.  0.
         12    1    1    2    0    0 -0.28763520992E+02 -0.34584769654E+02  0.23805746958E+01  0.45045683120E+02  0.00000000000E+00 0. -1.
         11    1    3    3    0    0  0.54145108506E+01  0.76280088941E+01  0.17923732641E+01  0.95244973420E+01  0.51100000000E-03 0. -1.
        -11    1    3    3    0    0  0.84655679951E+01  0.99996878644E+01  0.19333578831E+01  0.13243771058E+02  0.51100000000E-03 0.  1.
         12    1    3    3    0    0  0.14883442146E+02  0.16957072896E+02 -0.61063058429E+01  0.23374048480E+02  0.00000000000E+00 0. -1.
</event>
<event>
 7    1  0.2313935E-008  0.4614232E+02  0.7816164E-02  0.1320468E+00
        -11   -1    0    0    0    0  0.00000000000E+00  0.00000000000E+00  0.45593999997E+02  0.45594000000E+02  0.51100000000E-03 0. -1.
         11   -1    0    0    0    0 -0.00000000000E+00 -0.00000000000E+00 -0.45593999997E+02  0.45594000000E+02  0.51100000000E-03 0.  1.
    9900012    2    1    2    0    0 -0.23208329407E+02  0.46074332690E+00 -0.38604074321E+02  0.46142318826E+02  0.10000009713E+02 0.  0.
         12    1    1    2    0    0  0.23208329407E+02 -0.46074332690E+00  0.38604074321E+02  0.45045681174E+02  0.00000000000E+00 0. -1.
         11    1    3    3    0    0 -0.11589196451E+02 -0.15802592001E+01 -0.19942197148E+02  0.23119211078E+02  0.51100000000E-03 0. -1.
        -11    1    3    3    0    0 -0.11270521791E+02  0.16699919220E+01 -0.19172263361E+02  0.22302224488E+02  0.51100000000E-03 0.  1.
         12    1    3    3    0    0 -0.34861116442E+00  0.37101060494E+00  0.51038618871E+00  0.72088326001E+00  0.00000000000E+00 0. -1.
</event>
<event>
 7    1  0.2313935E-008  0.4614232E+02  0.7816164E-02  0.1320468E+00
        -11   -1    0    0    0    0  0.00000000000E+00  0.00000000000E+00  0.45593999997E+02  0.45594000000E+02  0.51100000000E-03 0.  1.
         11   -1    0    0    0    0 -0.00000000000E+00 -0.00000000000E+00 -0.45593999997E+02  0.45594000000E+02  0.51100000000E-03 0. -1.
    9900012    2    1    2    0    0 -0.16590892082E+02  0.18095064997E+02  0.37768034251E+02  0.46142317760E+02  0.99999999895E+01 0.  0.
         12    1    1    2    0    0  0.16590892082E+02 -0.18095064997E+02 -0.37768034251E+02  0.45045682240E+02  0.00000000000E+00 0. -1.
         11    1    3    3    0    0 -0.32773573959E+01 -0.73007004933E+00  0.46764260092E+01  0.57569987196E+01  0.51100000000E-03 0. -1.
        -11    1    3    3    0    0 -0.45990557394E+01  0.49895247476E+01  0.91008224833E+01  0.11352164597E+02  0.51100000000E-03 0.  1.
        -12    1    3    3    0    0 -0.87144789469E+01  0.13835610298E+02  0.23990785758E+02  0.29033154443E+02  0.00000000000E+00 0.  1.
</event>
<event>
 7    1  0.2313935E-008  0.4614232E+02  0.7816164E-02  0.1320468E+00
        -11   -1    0    0    0    0  0.00000000000E+00  0.00000000000E+00  0.45593999997E+02  0.45594000000E+02  0.51100000000E-03 0. -1.
         11   -1    0    0    0    0 -0.00000000000E+00 -0.00000000000E+00 -0.45593999997E+02  0.45594000000E+02  0.51100000000E-03 0.  1.
    9900012    2    1    2    0    0 -0.36509267515E+02 -0.26363994519E+02  0.10612208319E+01  0.46142323058E+02  0.10000048303E+02 0.  0.
         12    1    1    2    0    0  0.36509267515E+02  0.26363994519E+02 -0.10612208319E+01  0.45045676942E+02  0.00000000000E+00 0. -1.
         11    1    3    3    0    0 -0.19406273006E+01 -0.64713900417E+00 -0.74823463697E+00  0.21782283039E+01  0.51100000000E-03 0. -1.
        -11    1    3    3    0    0 -0.83966926141E+01 -0.21490915509E+01  0.11057641082E+01  0.87376058434E+01  0.51100000000E-03 0.  1.
        -12    1    3    3    0    0 -0.26171947600E+02 -0.23567763964E+02  0.70369136073E+00  0.35226488911E+02  0.00000000000E+00 0.  1.
</event>
<event>
 7    1  0.2313935E-008  0.4614232E+02  0.7816164E-02  0.1320468E+00
        -11   -1    0    0    0    0  0.00000000000E+00  0.00000000000E+00  0.45593999997E+02  0.45594000000E+02  0.51100000000E-03 0. -1.
         11   -1    0    0    0    0 -0.00000000000E+00 -0.00000000000E+00 -0.45593999997E+02  0.45594000000E+02  0.51100000000E-03 0.  1.
    9900012    2    1    2    0    0 -0.40746254291E+02 -0.18281609615E+02 -0.58854955899E+01  0.46142317108E+02  0.99999940455E+01 0.  0.
         12    1    1    2    0    0  0.40746254291E+02  0.18281609615E+02  0.58854955899E+01  0.45045682892E+02  0.00000000000E+00 0. -1.
         11    1    3    3    0    0 -0.35130320395E+01 -0.37687321685E+01 -0.12683679974E+01  0.53059866101E+01  0.51100000000E-03 0. -1.
        -11    1    3    3    0    0 -0.15910240434E+01 -0.18609804346E+01  0.91294582776E+00  0.26130587498E+01  0.51100000000E-03 0.  1.
        -12    1    3    3    0    0 -0.35642198208E+02 -0.12651897011E+02 -0.55300734203E+01  0.38223271748E+02  0.00000000000E+00 0.  1.
</event>
<event>
 7    1  0.2313935E-008  0.4614232E+02  0.7816164E-02  0.1320468E+00
        -11   -1    0    0    0    0  0.00000000000E+00  0.00000000000E+00  0.45593999997E+02  0.45594000000E+02  0.51100000000E-03 0.  1.
         11   -1    0    0    0    0 -0.00000000000E+00 -0.00000000000E+00 -0.45593999997E+02  0.45594000000E+02  0.51100000000E-03 0. -1.
    9900012    2    1    2    0    0  0.19597419859E+02  0.24690877658E+02  0.32177868748E+02  0.46142317168E+02  0.99999945900E+01 0.  0.
         12    1    1    2    0    0 -0.19597419859E+02 -0.24690877658E+02 -0.32177868748E+02  0.45045682832E+02  0.00000000000E+00 0. -1.
         11    1    3    3    0    0  0.86092258839E+00  0.16194329826E+01  0.27143450288E+01  0.32758846263E+01  0.51100000000E-03 0. -1.
        -11    1    3    3    0    0  0.18083917430E+02  0.17979054596E+02  0.27110079236E+02  0.37218689798E+02  0.51100000000E-03 0.  1.
        -12    1    3    3    0    0  0.65257984005E+00  0.50923900792E+01  0.23534444833E+01  0.56477427440E+01  0.00000000000E+00 0.  1.
</event>
<event>
 7    1  0.2313935E-008  0.4614232E+02  0.7816164E-02  0.1320468E+00
        -11   -1    0    0    0    0  0.00000000000E+00  0.00000000000E+00  0.45593999997E+02  0.45594000000E+02  0.51100000000E-03 0.  1.
         11   -1    0    0    0    0 -0.00000000000E+00 -0.00000000000E+00 -0.45593999997E+02  0.45594000000E+02  0.51100000000E-03 0. -1.
    9900012    2    1    2    0    0 -0.35144858980E+01 -0.10754456624E+02  0.43601646433E+02  0.46142317409E+02  0.99999967881E+01 0.  0.
         12    1    1    2    0    0  0.35144858980E+01  0.10754456624E+02 -0.43601646433E+02  0.45045682591E+02  0.00000000000E+00 0. -1.
         11    1    3    3    0    0 -0.35061740443E+01 -0.42086656338E+01  0.22546148899E+02  0.23202046317E+02  0.51100000000E-03 0.  1.
        -11    1    3    3    0    0 -0.15080863092E+00  0.10721690723E+01  0.56587912767E+01  0.57614415503E+01  0.51100000000E-03 0. -1.
         12    1    3    3    0    0  0.14249677723E+00 -0.76179600626E+01  0.15396706257E+02  0.17178829542E+02  0.00000000000E+00 0. -1.
</event>
<event>
 7    1  0.2313935E-008  0.4614232E+02  0.7816164E-02  0.1320468E+00
        -11   -1    0    0    0    0  0.00000000000E+00  0.00000000000E+00  0.45593999997E+02  0.45594000000E+02  0.51100000000E-03 0.  1.
         11   -1    0    0    0    0 -0.00000000000E+00 -0.00000000000E+00 -0.45593999997E+02  0.45594000000E+02  0.51100000000E-03 0. -1.
    9900012    2    1    2    0    0 -0.42544013881E+02 -0.13465673929E+02  0.61478439451E+01  0.46142317891E+02  0.10000001188E+02 0.  0.
         12    1    1    2    0    0  0.42544013881E+02  0.13465673929E+02 -0.61478439451E+01  0.45045682109E+02  0.00000000000E+00 0. -1.
         11    1    3    3    0    0 -0.26494686615E+02 -0.65418606656E+01  0.43425798664E+01  0.27633717809E+02  0.51100000000E-03 0. -1.
        -11    1    3    3    0    0 -0.83545699932E+01 -0.35050351099E+01  0.38495410937E+01  0.98439360921E+01  0.51100000000E-03 0.  1.
         12    1    3    3    0    0 -0.76947572728E+01 -0.34187781536E+01 -0.20442770150E+01  0.86646639903E+01  0.00000000000E+00 0. -1.
</event>
<event>
 7    1  0.2313935E-008  0.4614232E+02  0.7816164E-02  0.1320468E+00
        -11   -1    0    0    0    0  0.00000000000E+00  0.00000000000E+00  0.45593999997E+02  0.45594000000E+02  0.51100000000E-03 0.  1.
         11   -1    0    0    0    0 -0.00000000000E+00 -0.00000000000E+00 -0.45593999997E+02  0.45594000000E+02  0.51100000000E-03 0. -1.
    9900012    2    1    2    0    0 -0.39913667558E+02 -0.13929941804E+02  0.15555368630E+02  0.46142316191E+02  0.99999856810E+01 0.  0.
         12    1    1    2    0    0  0.39913667558E+02  0.13929941804E+02 -0.15555368630E+02  0.45045683809E+02  0.00000000000E+00 0. -1.
         11    1    3    3    0    0 -0.14440064677E+01  0.36516368997E+00 -0.47759372776E+00  0.15641595920E+01  0.51100000000E-03 0. -1.
        -11    1    3    3    0    0 -0.32508496773E+01 -0.34254038039E+01  0.14494836697E+01  0.49398803644E+01  0.51100000000E-03 0.  1.
        -12    1    3    3    0    0 -0.35218811413E+02 -0.10869701690E+02  0.14583478688E+02  0.39638276234E+02  0.00000000000E+00 0.  1.
</event>
<event>
 7    1  0.2313935E-008  0.4614232E+02  0.7816164E-02  0.1320468E+00
        -11   -1    0    0    0    0  0.00000000000E+00  0.00000000000E+00  0.45593999997E+02  0.45594000000E+02  0.51100000000E-03 0.  1.
         11   -1    0    0    0    0 -0.00000000000E+00 -0.00000000000E+00 -0.45593999997E+02  0.45594000000E+02  0.51100000000E-03 0. -1.
    9900012    2    1    2    0    0  0.12450404103E+02  0.43184620474E+02 -0.30314050637E+01  0.46142318471E+02  0.10000006470E+02 0.  0.
         12    1    1    2    0    0 -0.12450404103E+02 -0.43184620474E+02  0.30314050637E+01  0.45045681529E+02  0.00000000000E+00 0. -1.
         11    1    3    3    0    0  0.94646112065E+00  0.52558358355E+01 -0.27566558398E+01  0.60098877413E+01  0.51100000000E-03 0. -1.
        -11    1    3    3    0    0  0.11063649508E+02  0.28369214922E+02  0.10681558345E+01  0.30468962124E+02  0.51100000000E-03 0.  1.
        -12    1    3    3    0    0  0.44029347405E+00  0.95595697159E+01 -0.13429050583E+01  0.96634686056E+01  0.00000000000E+00 0.  1.
</event>
<event>
 7    1  0.2313935E-008  0.4614231E+02  0.7816164E-02  0.1320468E+00
        -11   -1    0    0    0    0  0.00000000000E+00  0.00000000000E+00  0.45593999997E+02  0.45594000000E+02  0.51100000000E-03 0. -1.
         11   -1    0    0    0    0 -0.00000000000E+00 -0.00000000000E+00 -0.45593999997E+02  0.45594000000E+02  0.51100000000E-03 0.  1.
    9900012    2    1    2    0    0  0.16798986226E+02  0.37564632092E+02  0.18325023922E+02  0.46142311814E+02  0.99999457672E+01 0.  0.
         12    1    1    2    0    0 -0.16798986226E+02 -0.37564632092E+02 -0.18325023922E+02  0.45045688186E+02  0.00000000000E+00 0. -1.
         11    1    3    3    0    0  0.41466043615E+01  0.14354513037E+02  0.44696041473E+01  0.15595631880E+02  0.51100000000E-03 0. -1.
        -11    1    3    3    0    0  0.90064517688E+01  0.21126079839E+02  0.12416942463E+02  0.26107621171E+02  0.51100000000E-03 0.  1.
         12    1    3    3    0    0  0.36459300960E+01  0.20840392165E+01  0.14384773117E+01  0.44390587625E+01  0.00000000000E+00 0. -1.
</event>
<event>
 7    1  0.2313935E-008  0.4614232E+02  0.7816164E-02  0.1320468E+00
        -11   -1    0    0    0    0  0.00000000000E+00  0.00000000000E+00  0.45593999997E+02  0.45594000000E+02  0.51100000000E-03 0.  1.
         11   -1    0    0    0    0 -0.00000000000E+00 -0.00000000000E+00 -0.45593999997E+02  0.45594000000E+02  0.51100000000E-03 0. -1.
    9900012    2    1    2    0    0  0.19124351352E+02 -0.21175430723E+02  0.34856475433E+02  0.46142316960E+02  0.99999926961E+01 0.  0.
         12    1    1    2    0    0 -0.19124351352E+02  0.21175430723E+02 -0.34856475433E+02  0.45045683040E+02  0.00000000000E+00 0. -1.
         11    1    3    3    0    0  0.54403069806E+01 -0.91134866685E+01  0.16372581159E+02  0.19511893639E+02  0.51100000000E-03 0. -1.
        -11    1    3    3    0    0  0.11968204159E+02 -0.12458992348E+02  0.17591179717E+02  0.24655912176E+02  0.51100000000E-03 0.  1.
        -12    1    3    3    0    0  0.17158402126E+01  0.39704829423E+00  0.89271455616E+00  0.19745111450E+01  0.00000000000E+00 0.  1.
</event>
<event>
 7    1  0.2313935E-008  0.4614232E+02  0.7816164E-02  0.1320468E+00
        -11   -1    0    0    0    0  0.00000000000E+00  0.00000000000E+00  0.45593999997E+02  0.45594000000E+02  0.51100000000E-03 0. -1.
         11   -1    0    0    0    0 -0.00000000000E+00 -0.00000000000E+00 -0.45593999997E+02  0.45594000000E+02  0.51100000000E-03 0.  1.
    9900012    2    1    2    0    0 -0.26214894970E+02  0.35533426602E+02  0.89032785213E+01  0.46142317712E+02  0.99999995554E+01 0.  0.
         12    1    1    2    0    0  0.26214894970E+02 -0.35533426602E+02 -0.89032785213E+01  0.45045682288E+02  0.00000000000E+00 0. -1.
         11    1    3    3    0    0 -0.11922354856E+02  0.19573239342E+02  0.84809219680E+01  0.24437272380E+02  0.51100000000E-03 0. -1.
        -11    1    3    3    0    0 -0.47931824959E+01  0.44907969897E+01  0.16182838536E+01  0.67646654710E+01  0.51100000000E-03 0.  1.
        -12    1    3    3    0    0 -0.94993576176E+01  0.11469390270E+02 -0.11959273003E+01  0.14940379862E+02  0.00000000000E+00 0.  1.
</event>
<event>
 7    1  0.2313935E-008  0.4614232E+02  0.7816164E-02  0.1320468E+00
        -11   -1    0    0    0    0  0.00000000000E+00  0.00000000000E+00  0.45593999997E+02  0.45594000000E+02  0.51100000000E-03 0.  1.
         11   -1    0    0    0    0 -0.00000000000E+00 -0.00000000000E+00 -0.45593999997E+02  0.45594000000E+02  0.51100000000E-03 0. -1.
    9900012    2    1    2    0    0  0.26269217692E+02  0.13465746686E+02  0.34025216305E+02  0.46142317893E+02  0.10000001200E+02 0.  0.
         12    1    1    2    0    0 -0.26269217692E+02 -0.13465746686E+02 -0.34025216305E+02  0.45045682107E+02  0.00000000000E+00 0. -1.
         11    1    3    3    0    0  0.14030243400E+01  0.38816164311E+01  0.30708915109E+01  0.51444920400E+01  0.51100000000E-03 0. -1.
        -11    1    3    3    0    0  0.38747231255E+01  0.87329450890E+00  0.64640838119E+01  0.75868638044E+01  0.51100000000E-03 0.  1.
        -12    1    3    3    0    0  0.20991470226E+02  0.87108357457E+01  0.24490240982E+02  0.33410962048E+02  0.00000000000E+00 0.  1.
</event>
<event>
 7    1  0.2313935E-008  0.4614232E+02  0.7816164E-02  0.1320468E+00
        -11   -1    0    0    0    0  0.00000000000E+00  0.00000000000E+00  0.45593999997E+02  0.45594000000E+02  0.51100000000E-03 0.  1.
         11   -1    0    0    0    0 -0.00000000000E+00 -0.00000000000E+00 -0.45593999997E+02  0.45594000000E+02  0.51100000000E-03 0. -1.
    9900012    2    1    2    0    0 -0.19868925628E+02 -0.39504144724E+02 -0.85884837168E+01  0.46142315317E+02  0.99999777135E+01 0.  0.
         12    1    1    2    0    0  0.19868925628E+02  0.39504144724E+02  0.85884837168E+01  0.45045684683E+02  0.00000000000E+00 0. -1.
         11    1    3    3    0    0 -0.15773202426E+00 -0.59405140638E+00  0.60811944001E+00  0.86463054500E+00  0.51100000000E-03 0. -1.
        -11    1    3    3    0    0 -0.75374528175E+01 -0.74392960150E+01 -0.21447482642E+01  0.10805381324E+02  0.51100000000E-03 0.  1.
         12    1    3    3    0    0 -0.12173740786E+02 -0.31470797303E+02 -0.70518548926E+01  0.34472303448E+02  0.00000000000E+00 0. -1.
</event>
<event>
 7    1  0.2313935E-008  0.4614232E+02  0.7816164E-02  0.1320468E+00
        -11   -1    0    0    0    0  0.00000000000E+00  0.00000000000E+00  0.45593999997E+02  0.45594000000E+02  0.51100000000E-03 0.  1.
         11   -1    0    0    0    0 -0.00000000000E+00 -0.00000000000E+00 -0.45593999997E+02  0.45594000000E+02  0.51100000000E-03 0. -1.
    9900012    2    1    2    0    0 -0.37986563231E+02 -0.16136073755E+02  0.18048867676E+02  0.46142317780E+02  0.10000000170E+02 0.  0.
         12    1    1    2    0    0  0.37986563231E+02  0.16136073755E+02 -0.18048867676E+02  0.45045682220E+02  0.00000000000E+00 0. -1.
         11    1    3    3    0    0 -0.33934703759E+01 -0.43035085814E+01  0.21056098914E+01  0.58710663919E+01  0.51100000000E-03 0. -1.
        -11    1    3    3    0    0 -0.76704443804E+01 -0.33131193444E+01  0.12805682648E+01  0.84529481321E+01  0.51100000000E-03 0.  1.
        -12    1    3    3    0    0 -0.26922648474E+02 -0.85194458290E+01  0.14662689520E+02  0.31818303256E+02  0.00000000000E+00 0.  1.
</event>
<event>
 7    1  0.2313935E-008  0.4614232E+02  0.7816164E-02  0.1320468E+00
        -11   -1    0    0    0    0  0.00000000000E+00  0.00000000000E+00  0.45593999997E+02  0.45594000000E+02  0.51100000000E-03 0.  1.
         11   -1    0    0    0    0 -0.00000000000E+00 -0.00000000000E+00 -0.45593999997E+02  0.45594000000E+02  0.51100000000E-03 0. -1.
    9900012    2    1    2    0    0  0.91986810570E+01  0.37895418672E+02  0.22548492987E+02  0.46142322899E+02  0.10000046850E+02 0.  0.
         12    1    1    2    0    0 -0.91986810570E+01 -0.37895418672E+02 -0.22548492987E+02  0.45045677101E+02  0.00000000000E+00 0. -1.
         11    1    3    3    0    0  0.66048338165E+01  0.22961356107E+02  0.16061192602E+02  0.28789053685E+02  0.51100000000E-03 0.  1.
        -11    1    3    3    0    0  0.31835407533E+01  0.14619926094E+02  0.69923130602E+01  0.16515738340E+02  0.51100000000E-03 0. -1.
         12    1    3    3    0    0 -0.58969351280E+00  0.31413647140E+00 -0.50501267593E+00  0.83753087379E+00  0.00000000000E+00 0. -1.
</event>
<event>
 7    1  0.2313935E-008  0.4614232E+02  0.7816164E-02  0.1320468E+00
        -11   -1    0    0    0    0  0.00000000000E+00  0.00000000000E+00  0.45593999997E+02  0.45594000000E+02  0.51100000000E-03 0. -1.
         11   -1    0    0    0    0 -0.00000000000E+00 -0.00000000000E+00 -0.45593999997E+02  0.45594000000E+02  0.51100000000E-03 0.  1.
    9900012    2    1    2    0    0  0.30609241925E+02 -0.13098130011E+02 -0.30341831225E+02  0.46142318485E+02  0.10000006605E+02 0.  0.
         12    1    1    2    0    0 -0.30609241925E+02  0.13098130011E+02  0.30341831225E+02  0.45045681515E+02  0.00000000000E+00 0. -1.
         11    1    3    3    0    0  0.76711184439E+01 -0.22039848423E+00 -0.54717561529E+01  0.94252187948E+01  0.51100000000E-03 0. -1.
        -11    1    3    3    0    0  0.40097685238E+01  0.18258236477E+00 -0.35952405881E+01  0.53886301675E+01  0.51100000000E-03 0.  1.
        -12    1    3    3    0    0  0.18928354957E+02 -0.13060313892E+02 -0.21274834484E+02  0.31328469523E+02  0.00000000000E+00 0.  1.
</event>
<event>
 7    1  0.2313935E-008  0.4614232E+02  0.7816164E-02  0.1320468E+00
        -11   -1    0    0    0    0  0.00000000000E+00  0.00000000000E+00  0.45593999997E+02  0.45594000000E+02  0.51100000000E-03 0.  1.
         11   -1    0    0    0    0 -0.00000000000E+00 -0.00000000000E+00 -0.45593999997E+02  0.45594000000E+02  0.51100000000E-03 0. -1.
    9900012    2    1    2    0    0  0.50589106385E+01  0.14204929340E+01  0.44738161961E+02  0.46142317491E+02  0.99999975389E+01 0.  0.
         12    1    1    2    0    0 -0.50589106385E+01 -0.14204929340E+01 -0.44738161961E+02  0.45045682509E+02  0.00000000000E+00 0. -1.
         11    1    3    3    0    0  0.46214054895E+00  0.82466144152E+00 -0.46637298468E-01  0.94647539791E+00  0.51100000000E-03 0. -1.
        -11    1    3    3    0    0  0.18444925166E+01 -0.85439530476E+00  0.71692184854E+01  0.74518345347E+01  0.51100000000E-03 0.  1.
        -12    1    3    3    0    0  0.27522775729E+01  0.14502267972E+01  0.37615580774E+02  0.37744007559E+02  0.00000000000E+00 0.  1.
</event>
<event>
 7    1  0.2313935E-008  0.4614232E+02  0.7816164E-02  0.1320468E+00
        -11   -1    0    0    0    0  0.00000000000E+00  0.00000000000E+00  0.45593999997E+02  0.45594000000E+02  0.51100000000E-03 0.  1.
         11   -1    0    0    0    0 -0.00000000000E+00 -0.00000000000E+00 -0.45593999997E+02  0.45594000000E+02  0.51100000000E-03 0. -1.
    9900012    2    1    2    0    0 -0.53913642037E+01 -0.40080314907E+02  0.19839731006E+02  0.46142318993E+02  0.10000011230E+02 0.  0.
         12    1    1    2    0    0  0.53913642037E+01  0.40080314907E+02 -0.19839731006E+02  0.45045681007E+02  0.00000000000E+00 0. -1.
         11    1    3    3    0    0  0.51315337921E+00 -0.25734293785E+01  0.55432139805E+00  0.26820025411E+01  0.51100000000E-03 0. -1.
        -11    1    3    3    0    0 -0.20594421975E+01 -0.26760228627E+02  0.96442096099E+01  0.28519500654E+02  0.51100000000E-03 0.  1.
         12    1    3    3    0    0 -0.38450753854E+01 -0.10746656902E+02  0.96411999975E+01  0.14940815797E+02  0.00000000000E+00 0. -1.
</event>
<event>
 7    1  0.2313935E-008  0.4614232E+02  0.7816164E-02  0.1320468E+00
        -11   -1    0    0    0    0  0.00000000000E+00  0.00000000000E+00  0.45593999997E+02  0.45594000000E+02  0.51100000000E-03 0.  1.
         11   -1    0    0    0    0 -0.00000000000E+00 -0.00000000000E+00 -0.45593999997E+02  0.45594000000E+02  0.51100000000E-03 0. -1.
    9900012    2    1    2    0    0  0.38706559485E+02 -0.35980105248E+01  0.22758955025E+02  0.46142318068E+02  0.10000002799E+02 0.  0.
         12    1    1    2    0    0 -0.38706559485E+02  0.35980105248E+01 -0.22758955025E+02  0.45045681932E+02  0.00000000000E+00 0. -1.
         11    1    3    3    0    0  0.43063957999E+01 -0.28010898509E+01  0.41026340283E+01  0.65744015217E+01  0.51100000000E-03 0. -1.
        -11    1    3    3    0    0  0.17562010524E+02 -0.17451752506E+01  0.12447341974E+02  0.21596438891E+02  0.51100000000E-03 0.  1.
         12    1    3    3    0    0  0.16838153161E+02  0.94825457662E+00  0.62089790229E+01  0.17971477655E+02  0.00000000000E+00 0. -1.
</event>
<event>
 7    1  0.2313935E-008  0.4614232E+02  0.7816164E-02  0.1320468E+00
        -11   -1    0    0    0    0  0.00000000000E+00  0.00000000000E+00  0.45593999997E+02  0.45594000000E+02  0.51100000000E-03 0.  1.
         11   -1    0    0    0    0 -0.00000000000E+00 -0.00000000000E+00 -0.45593999997E+02  0.45594000000E+02  0.51100000000E-03 0. -1.
    9900012    2    1    2    0    0 -0.28752905263E+02 -0.22017447534E+02  0.26788355590E+02  0.46142317052E+02  0.99999935350E+01 0.  0.
         12    1    1    2    0    0  0.28752905263E+02  0.22017447534E+02 -0.26788355590E+02  0.45045682948E+02  0.00000000000E+00 0. -1.
         11    1    3    3    0    0 -0.23379369010E+01 -0.99953574215E+00  0.27429322147E+01  0.37401467950E+01  0.51100000000E-03 0. -1.
        -11    1    3    3    0    0 -0.89342296899E+01 -0.67265578706E+01  0.13358098711E+02  0.17421419069E+02  0.51100000000E-03 0.  1.
         12    1    3    3    0    0 -0.17480738672E+02 -0.14291353922E+02  0.10687324665E+02  0.24980751188E+02  0.00000000000E+00 0. -1.
</event>
<event>
 7    1  0.2313935E-008  0.4614232E+02  0.7816164E-02  0.1320468E+00
        -11   -1    0    0    0    0  0.00000000000E+00  0.00000000000E+00  0.45593999997E+02  0.45594000000E+02  0.51100000000E-03 0.  1.
         11   -1    0    0    0    0 -0.00000000000E+00 -0.00000000000E+00 -0.45593999997E+02  0.45594000000E+02  0.51100000000E-03 0. -1.
    9900012    2    1    2    0    0  0.42245671240E+02  0.10497580599E+02  0.11585228756E+02  0.46142318051E+02  0.10000002639E+02 0.  0.
         12    1    1    2    0    0 -0.42245671240E+02 -0.10497580599E+02 -0.11585228756E+02  0.45045681949E+02  0.00000000000E+00 0. -1.
         11    1    3    3    0    0  0.69621894237E-02 -0.20607782999E+00  0.10420415453E+01  0.10622463873E+01  0.51100000000E-03 0. -1.
        -11    1    3    3    0    0  0.59726662332E+01  0.32525278194E+01  0.18931700438E+01  0.70594456032E+01  0.51100000000E-03 0.  1.
        -12    1    3    3    0    0  0.36266042817E+02  0.74511306098E+01  0.86500171670E+01  0.38020626060E+02  0.00000000000E+00 0.  1.
</event>
<event>
 7    1  0.2313935E-008  0.4614232E+02  0.7816164E-02  0.1320468E+00
        -11   -1    0    0    0    0  0.00000000000E+00  0.00000000000E+00  0.45593999997E+02  0.45594000000E+02  0.51100000000E-03 0.  1.
         11   -1    0    0    0    0 -0.00000000000E+00 -0.00000000000E+00 -0.45593999997E+02  0.45594000000E+02  0.51100000000E-03 0. -1.
    9900012    2    1    2    0    0  0.35873882263E+01 -0.10568519060E+02  0.43641156458E+02  0.46142317783E+02  0.10000000199E+02 0.  0.
         12    1    1    2    0    0 -0.35873882263E+01  0.10568519060E+02 -0.43641156458E+02  0.45045682217E+02  0.00000000000E+00 0. -1.
         11    1    3    3    0    0 -0.17404490500E+01 -0.44670531402E+01  0.10033115130E+02  0.11119672933E+02  0.51100000000E-03 0. -1.
        -11    1    3    3    0    0 -0.92534918183E+00 -0.19923339399E+01  0.10713553572E+02  0.10936448054E+02  0.51100000000E-03 0.  1.
        -12    1    3    3    0    0  0.62531864581E+01 -0.41091319799E+01  0.22894487756E+02  0.24086196796E+02  0.00000000000E+00 0.  1.
</event>
<event>
 7    1  0.2313935E-008  0.4614233E+02  0.7816164E-02  0.1320468E+00
        -11   -1    0    0    0    0  0.00000000000E+00  0.00000000000E+00  0.45593999997E+02  0.45594000000E+02  0.51100000000E-03 0.  1.
         11   -1    0    0    0    0 -0.00000000000E+00 -0.00000000000E+00 -0.45593999997E+02  0.45594000000E+02  0.51100000000E-03 0. -1.
    9900012    2    1    2    0    0  0.16366009990E+02 -0.37356520050E+02  0.19124760676E+02  0.46142330462E+02  0.10000115816E+02 0.  0.
         12    1    1    2    0    0 -0.16366009990E+02  0.37356520050E+02 -0.19124760676E+02  0.45045669538E+02  0.00000000000E+00 0. -1.
         11    1    3    3    0    0  0.31782014154E+01 -0.35733186920E+01  0.46900254762E+01  0.66982019931E+01  0.51100000000E-03 0. -1.
        -11    1    3    3    0    0  0.71679789196E+01 -0.25121221804E+02  0.11065038835E+02  0.28370597304E+02  0.51100000000E-03 0.  1.
         12    1    3    3    0    0  0.60198296548E+01 -0.86619795533E+01  0.33696963655E+01  0.11073531164E+02  0.00000000000E+00 0. -1.
</event>
<event>
 7    1  0.2313935E-008  0.4614232E+02  0.7816164E-02  0.1320468E+00
        -11   -1    0    0    0    0  0.00000000000E+00  0.00000000000E+00  0.45593999997E+02  0.45594000000E+02  0.51100000000E-03 0.  1.
         11   -1    0    0    0    0 -0.00000000000E+00 -0.00000000000E+00 -0.45593999997E+02  0.45594000000E+02  0.51100000000E-03 0. -1.
    9900012    2    1    2    0    0  0.58362003524E+01 -0.13237676032E+02  0.42659304395E+02  0.46142317046E+02  0.99999934809E+01 0.  0.
         12    1    1    2    0    0 -0.58362003524E+01  0.13237676032E+02 -0.42659304395E+02  0.45045682954E+02  0.00000000000E+00 0. -1.
         11    1    3    3    0    0  0.13528500303E+01  0.52042296489E+00  0.14894905656E+01  0.20783709180E+01  0.51100000000E-03 0. -1.
        -11    1    3    3    0    0 -0.12032895918E+01 -0.45520788614E+01  0.96274550956E+01  0.10717146060E+02  0.51100000000E-03 0.  1.
        -12    1    3    3    0    0  0.56866399139E+01 -0.92060201357E+01  0.31542358734E+02  0.33346800068E+02  0.00000000000E+00 0.  1.
</event>
<event>
 7    1  0.2313935E-008  0.4614232E+02  0.7816164E-02  0.1320468E+00
        -11   -1    0    0    0    0  0.00000000000E+00  0.00000000000E+00  0.45593999997E+02  0.45594000000E+02  0.51100000000E-03 0. -1.
         11   -1    0    0    0    0 -0.00000000000E+00 -0.00000000000E+00 -0.45593999997E+02  0.45594000000E+02  0.51100000000E-03 0.  1.
    9900012    2    1    2    0    0 -0.31182765043E+02  0.35473905271E+01 -0.32313540600E+02  0.46142315175E+02  0.99999764158E+01 0.  0.
         12    1    1    2    0    0  0.31182765043E+02 -0.35473905271E+01  0.32313540600E+02  0.45045684825E+02  0.00000000000E+00 0. -1.
         11    1    3    3    0    0 -0.17531597040E+01  0.40646853100E+00 -0.49569782804E+00  0.18666821401E+01  0.51100000000E-03 0. -1.
        -11    1    3    3    0    0 -0.11843938780E+02 -0.23223577044E+01 -0.96227240213E+01  0.15435966085E+02  0.51100000000E-03 0.  1.
        -12    1    3    3    0    0 -0.17585666559E+02  0.54632797005E+01 -0.22195118750E+02  0.28839666949E+02  0.00000000000E+00 0.  1.
</event>
<event>
 7    1  0.2313935E-008  0.4614232E+02  0.7816164E-02  0.1320468E+00
        -11   -1    0    0    0    0  0.00000000000E+00  0.00000000000E+00  0.45593999997E+02  0.45594000000E+02  0.51100000000E-03 0.  1.
         11   -1    0    0    0    0 -0.00000000000E+00 -0.00000000000E+00 -0.45593999997E+02  0.45594000000E+02  0.51100000000E-03 0. -1.
    9900012    2    1    2    0    0 -0.97830034239E+01 -0.74306397354E+01  0.43338111838E+02  0.46142317626E+02  0.99999987645E+01 0.  0.
         12    1    1    2    0    0  0.97830034239E+01  0.74306397354E+01 -0.43338111838E+02  0.45045682374E+02  0.00000000000E+00 0. -1.
         11    1    3    3    0    0 -0.15041594204E+01 -0.11627811806E+01  0.15313899418E+02  0.15431463679E+02  0.51100000000E-03 0. -1.
        -11    1    3    3    0    0 -0.62828704729E+01 -0.27767093696E+01  0.24219637766E+02  0.25174896823E+02  0.51100000000E-03 0.  1.
         12    1    3    3    0    0 -0.19959735306E+01 -0.34911491852E+01  0.38045746550E+01  0.55359571236E+01  0.00000000000E+00 0. -1.
</event>
<event>
 7    1  0.2313935E-008  0.4614232E+02  0.7816164E-02  0.1320468E+00
        -11   -1    0    0    0    0  0.00000000000E+00  0.00000000000E+00  0.45593999997E+02  0.45594000000E+02  0.51100000000E-03 0.  1.
         11   -1    0    0    0    0 -0.00000000000E+00 -0.00000000000E+00 -0.45593999997E+02  0.45594000000E+02  0.51100000000E-03 0. -1.
    9900012    2    1    2    0    0 -0.43984785794E+02 -0.84759305726E+01  0.47550733515E+01  0.46142317598E+02  0.99999985163E+01 0.  0.
         12    1    1    2    0    0  0.43984785794E+02  0.84759305726E+01 -0.47550733515E+01  0.45045682402E+02  0.00000000000E+00 0. -1.
         11    1    3    3    0    0 -0.35289803913E+01 -0.43671922320E+00 -0.90391756555E-01  0.35570489472E+01  0.51100000000E-03 0. -1.
        -11    1    3    3    0    0 -0.87062190929E+01 -0.53707063298E+01 -0.66344612271E+00  0.10250994995E+02  0.51100000000E-03 0.  1.
        -12    1    3    3    0    0 -0.31749586310E+02 -0.26685050196E+01  0.55089112308E+01  0.32334273656E+02  0.00000000000E+00 0.  1.
</event>
<event>
 7    1  0.2313935E-008  0.4614232E+02  0.7816164E-02  0.1320468E+00
        -11   -1    0    0    0    0  0.00000000000E+00  0.00000000000E+00  0.45593999997E+02  0.45594000000E+02  0.51100000000E-03 0.  1.
         11   -1    0    0    0    0 -0.00000000000E+00 -0.00000000000E+00 -0.45593999997E+02  0.45594000000E+02  0.51100000000E-03 0. -1.
    9900012    2    1    2    0    0  0.41775156492E+02 -0.45322088125E+01  0.16229875661E+02  0.46142317847E+02  0.10000000785E+02 0.  0.
         12    1    1    2    0    0 -0.41775156492E+02  0.45322088125E+01 -0.16229875661E+02  0.45045682153E+02  0.00000000000E+00 0. -1.
         11    1    3    3    0    0  0.54476781576E+01  0.78775362537E+00  0.45135650476E+01  0.71182879110E+01  0.51100000000E-03 0. -1.
        -11    1    3    3    0    0  0.25297784923E+02 -0.27152366480E+01  0.10843455768E+02  0.27657385367E+02  0.51100000000E-03 0.  1.
         12    1    3    3    0    0  0.11029693411E+02 -0.26047257898E+01  0.87285484505E+00  0.11366644569E+02  0.00000000000E+00 0. -1.
</event>
<event>
 7    1  0.2313935E-008  0.4614232E+02  0.7816164E-02  0.1320468E+00
        -11   -1    0    0    0    0  0.00000000000E+00  0.00000000000E+00  0.45593999997E+02  0.45594000000E+02  0.51100000000E-03 0.  1.
         11   -1    0    0    0    0 -0.00000000000E+00 -0.00000000000E+00 -0.45593999997E+02  0.45594000000E+02  0.51100000000E-03 0. -1.
    9900012    2    1    2    0    0  0.16446542373E+01 -0.11875246765E+02  0.43421044997E+02  0.46142317389E+02  0.99999966042E+01 0.  0.
         12    1    1    2    0    0 -0.16446542373E+01  0.11875246765E+02 -0.43421044997E+02  0.45045682611E+02  0.00000000000E+00 0. -1.
         11    1    3    3    0    0 -0.12323049270E+01 -0.86753480824E-01  0.47523526112E+01  0.49102909488E+01  0.51100000000E-03 0. -1.
        -11    1    3    3    0    0  0.46763951155E+01 -0.99670607026E+01  0.35443699725E+02  0.37114240135E+02  0.51100000000E-03 0.  1.
        -12    1    3    3    0    0 -0.17994359513E+01 -0.18214325819E+01  0.32249926605E+01  0.41177863050E+01  0.00000000000E+00 0.  1.
</event>
<event>
 7    1  0.2313935E-008  0.4614232E+02  0.7816164E-02  0.1320468E+00
        -11   -1    0    0    0    0  0.00000000000E+00  0.00000000000E+00  0.45593999997E+02  0.45594000000E+02  0.51100000000E-03 0. -1.
         11   -1    0    0    0    0 -0.00000000000E+00 -0.00000000000E+00 -0.45593999997E+02  0.45594000000E+02  0.51100000000E-03 0.  1.
    9900012    2    1    2    0    0 -0.75950251345E+01 -0.37767765853E+02 -0.23345767222E+02  0.46142318836E+02  0.10000009802E+02 0.  0.
         12    1    1    2    0    0  0.75950251345E+01  0.37767765853E+02  0.23345767222E+02  0.45045681164E+02  0.00000000000E+00 0. -1.
         11    1    3    3    0    0  0.29211803701E+00 -0.67173135669E+01 -0.33643028375E+01  0.75183886802E+01  0.51100000000E-03 0. -1.
        -11    1    3    3    0    0 -0.27663476284E+01 -0.91054677196E+01 -0.18360385842E+01  0.96919172271E+01  0.51100000000E-03 0.  1.
        -12    1    3    3    0    0 -0.51207955431E+01 -0.21944984567E+02 -0.18145425800E+02  0.28932012929E+02  0.00000000000E+00 0.  1.
</event>
<event>
 7    1  0.2313935E-008  0.4614232E+02  0.7816164E-02  0.1320468E+00
        -11   -1    0    0    0    0  0.00000000000E+00  0.00000000000E+00  0.45593999997E+02  0.45594000000E+02  0.51100000000E-03 0.  1.
         11   -1    0    0    0    0 -0.00000000000E+00 -0.00000000000E+00 -0.45593999997E+02  0.45594000000E+02  0.51100000000E-03 0. -1.
    9900012    2    1    2    0    0  0.32332902068E+02  0.17006024147E+02  0.26353217455E+02  0.46142317813E+02  0.10000000474E+02 0.  0.
         12    1    1    2    0    0 -0.32332902068E+02 -0.17006024147E+02 -0.26353217455E+02  0.45045682187E+02  0.00000000000E+00 0. -1.
         11    1    3    3    0    0  0.97140739610E-01  0.69614231872E+00  0.27700029997E+01  0.28577906380E+01  0.51100000000E-03 0. -1.
        -11    1    3    3    0    0  0.13994893181E+02  0.54002391421E+01  0.10771573052E+02  0.18467441735E+02  0.51100000000E-03 0.  1.
        -12    1    3    3    0    0  0.18240868147E+02  0.10909642686E+02  0.12811641404E+02  0.24817085440E+02  0.00000000000E+00 0.  1.
</event>
<event>
 7    1  0.2313935E-008  0.4614232E+02  0.7816164E-02  0.1320468E+00
        -11   -1    0    0    0    0  0.00000000000E+00  0.00000000000E+00  0.45593999997E+02  0.45594000000E+02  0.51100000000E-03 0.  1.
         11   -1    0    0    0    0 -0.00000000000E+00 -0.00000000000E+00 -0.45593999997E+02  0.45594000000E+02  0.51100000000E-03 0. -1.
    9900012    2    1    2    0    0 -0.21075264051E+02  0.21840713670E+02  0.33285579986E+02  0.46142319148E+02  0.10000012650E+02 0.  0.
         12    1    1    2    0    0  0.21075264051E+02 -0.21840713670E+02 -0.33285579986E+02  0.45045680852E+02  0.00000000000E+00 0. -1.
         11    1    3    3    0    0 -0.19129831676E+02  0.15615074470E+02  0.27692331139E+02  0.37103183352E+02  0.51100000000E-03 0.  1.
        -11    1    3    3    0    0 -0.20192420519E+01  0.50953846364E+01  0.56924119052E+01  0.79021412679E+01  0.51100000000E-03 0. -1.
        -12    1    3    3    0    0  0.73809677419E-01  0.11302545630E+01 -0.99163058732E-01  0.11369945285E+01  0.00000000000E+00 0.  1.
</event>
<event>
 7    1  0.2313935E-008  0.4614232E+02  0.7816164E-02  0.1320468E+00
        -11   -1    0    0    0    0  0.00000000000E+00  0.00000000000E+00  0.45593999997E+02  0.45594000000E+02  0.51100000000E-03 0.  1.
         11   -1    0    0    0    0 -0.00000000000E+00 -0.00000000000E+00 -0.45593999997E+02  0.45594000000E+02  0.51100000000E-03 0. -1.
    9900012    2    1    2    0    0  0.30596218459E+02  0.80536706113E+01  0.32064358374E+02  0.46142320160E+02  0.10000021874E+02 0.  0.
         12    1    1    2    0    0 -0.30596218459E+02 -0.80536706113E+01 -0.32064358374E+02  0.45045679840E+02  0.00000000000E+00 0. -1.
         11    1    3    3    0    0  0.79768723326E+01 -0.85803959886E+00  0.40324621389E+01  0.89792803345E+01  0.51100000000E-03 0. -1.
        -11    1    3    3    0    0  0.96001621262E+01  0.31880936309E+01  0.10364525533E+02  0.14482763674E+02  0.51100000000E-03 0.  1.
        -12    1    3    3    0    0  0.13019184001E+02  0.57236165793E+01  0.17667370702E+02  0.22680276151E+02  0.00000000000E+00 0.  1.
</event>
<event>
 7    1  0.2313935E-008  0.4614232E+02  0.7816164E-02  0.1320468E+00
        -11   -1    0    0    0    0  0.00000000000E+00  0.00000000000E+00  0.45593999997E+02  0.45594000000E+02  0.51100000000E-03 0.  1.
         11   -1    0    0    0    0 -0.00000000000E+00 -0.00000000000E+00 -0.45593999997E+02  0.45594000000E+02  0.51100000000E-03 0. -1.
    9900012    2    1    2    0    0 -0.10255684112E+02 -0.26907336197E+02  0.34640001056E+02  0.46142317954E+02  0.10000001759E+02 0.  0.
         12    1    1    2    0    0  0.10255684112E+02  0.26907336197E+02 -0.34640001056E+02  0.45045682046E+02  0.00000000000E+00 0. -1.
         11    1    3    3    0    0 -0.13357099242E+01 -0.35742794733E+01  0.22511605812E+01  0.44302730140E+01  0.51100000000E-03 0. -1.
        -11    1    3    3    0    0 -0.40049386497E+01 -0.19305236948E+02  0.26643534898E+02  0.33145281102E+02  0.51100000000E-03 0.  1.
        -12    1    3    3    0    0 -0.49150355381E+01 -0.40278197760E+01  0.57453055768E+01  0.85667638382E+01  0.00000000000E+00 0.  1.
</event>
<event>
 7    1  0.2313935E-008  0.4614232E+02  0.7816164E-02  0.1320468E+00
        -11   -1    0    0    0    0  0.00000000000E+00  0.00000000000E+00  0.45593999997E+02  0.45594000000E+02  0.51100000000E-03 0.  1.
         11   -1    0    0    0    0 -0.00000000000E+00 -0.00000000000E+00 -0.45593999997E+02  0.45594000000E+02  0.51100000000E-03 0. -1.
    9900012    2    1    2    0    0 -0.20979037550E+02 -0.35716038642E+02  0.17701923221E+02  0.46142317427E+02  0.99999969490E+01 0.  0.
         12    1    1    2    0    0  0.20979037550E+02  0.35716038642E+02 -0.17701923221E+02  0.45045682573E+02  0.00000000000E+00 0. -1.
         11    1    3    3    0    0 -0.37656233565E+00 -0.19563475057E+01  0.20865154634E+01  0.28848989230E+01  0.51100000000E-03 0. -1.
        -11    1    3    3    0    0 -0.17895707984E+02 -0.24804575145E+02  0.14456495811E+02  0.33830660410E+02  0.51100000000E-03 0.  1.
         12    1    3    3    0    0 -0.27067672295E+01 -0.89551159912E+01  0.11589119466E+01  0.94267580934E+01  0.00000000000E+00 0. -1.
</event>
<event>
 7    1  0.2313935E-008  0.4614232E+02  0.7816164E-02  0.1320468E+00
        -11   -1    0    0    0    0  0.00000000000E+00  0.00000000000E+00  0.45593999997E+02  0.45594000000E+02  0.51100000000E-03 0. -1.
         11   -1    0    0    0    0 -0.00000000000E+00 -0.00000000000E+00 -0.45593999997E+02  0.45594000000E+02  0.51100000000E-03 0.  1.
    9900012    2    1    2    0    0  0.41088812782E+02  0.68757470254E+01 -0.17133209939E+02  0.46142319677E+02  0.10000017468E+02 0.  0.
         12    1    1    2    0    0 -0.41088812782E+02 -0.68757470254E+01  0.17133209939E+02  0.45045680323E+02  0.00000000000E+00 0. -1.
         11    1    3    3    0    0  0.86378550878E+01  0.51397361615E+01 -0.26640208682E+01  0.10398386210E+02  0.51100000000E-03 0. -1.
        -11    1    3    3    0    0  0.24812495117E+02  0.25708861588E+01 -0.11930075418E+02  0.27651330335E+02  0.51100000000E-03 0.  1.
         12    1    3    3    0    0  0.76384625774E+01 -0.83487529491E+00 -0.25391136532E+01  0.80926031318E+01  0.00000000000E+00 0. -1.
</event>
<event>
 7    1  0.2313935E-008  0.4614232E+02  0.7816164E-02  0.1320468E+00
        -11   -1    0    0    0    0  0.00000000000E+00  0.00000000000E+00  0.45593999997E+02  0.45594000000E+02  0.51100000000E-03 0. -1.
         11   -1    0    0    0    0 -0.00000000000E+00 -0.00000000000E+00 -0.45593999997E+02  0.45594000000E+02  0.51100000000E-03 0.  1.
    9900012    2    1    2    0    0  0.23631609235E+02 -0.20059811771E+02 -0.32684314467E+02  0.46142318570E+02  0.10000007378E+02 0.  0.
         12    1    1    2    0    0 -0.23631609235E+02  0.20059811771E+02  0.32684314467E+02  0.45045681430E+02  0.00000000000E+00 0. -1.
         11    1    3    3    0    0  0.33826427015E+01 -0.10738216102E+01 -0.47976527633E+01  0.59676491850E+01  0.51100000000E-03 0. -1.
        -11    1    3    3    0    0  0.31133022098E+00 -0.30205832916E+01 -0.51510101208E+01  0.59794444101E+01  0.51100000000E-03 0.  1.
        -12    1    3    3    0    0  0.19937636312E+02 -0.15965406869E+02 -0.22735651583E+02  0.34195224975E+02  0.00000000000E+00 0.  1.
</event>
<event>
 7    1  0.2313935E-008  0.4614232E+02  0.7816164E-02  0.1320468E+00
        -11   -1    0    0    0    0  0.00000000000E+00  0.00000000000E+00  0.45593999997E+02  0.45594000000E+02  0.51100000000E-03 0.  1.
         11   -1    0    0    0    0 -0.00000000000E+00 -0.00000000000E+00 -0.45593999997E+02  0.45594000000E+02  0.51100000000E-03 0. -1.
    9900012    2    1    2    0    0 -0.36582259445E+02 -0.17008050107E+02  0.20039413946E+02  0.46142316679E+02  0.99999901346E+01 0.  0.
         12    1    1    2    0    0  0.36582259445E+02  0.17008050107E+02 -0.20039413946E+02  0.45045683321E+02  0.00000000000E+00 0. -1.
         11    1    3    3    0    0 -0.25539242934E+01  0.27695044089E+00  0.44212332831E+00  0.26066653298E+01  0.51100000000E-03 0. -1.
        -11    1    3    3    0    0 -0.30887391790E+02 -0.16237589773E+02  0.15278194494E+02  0.38093483964E+02  0.51100000000E-03 0.  1.
         12    1    3    3    0    0 -0.31409433621E+01 -0.10474107739E+01  0.43190961232E+01  0.54421673858E+01  0.00000000000E+00 0. -1.
</event>
<event>
 7    1  0.2313935E-008  0.4614232E+02  0.7816164E-02  0.1320468E+00
        -11   -1    0    0    0    0  0.00000000000E+00  0.00000000000E+00  0.45593999997E+02  0.45594000000E+02  0.51100000000E-03 0.  1.
         11   -1    0    0    0    0 -0.00000000000E+00 -0.00000000000E+00 -0.45593999997E+02  0.45594000000E+02  0.51100000000E-03 0. -1.
    9900012    2    1    2    0    0 -0.22092145783E+02  0.20413669977E+02  0.33531070313E+02  0.46142317592E+02  0.99999984579E+01 0.  0.
         12    1    1    2    0    0  0.22092145783E+02 -0.20413669977E+02 -0.33531070313E+02  0.45045682408E+02  0.00000000000E+00 0. -1.
         11    1    3    3    0    0 -0.40109673268E+01  0.33971174455E+01  0.33278280287E+01  0.62211498523E+01  0.51100000000E-03 0. -1.
        -11    1    3    3    0    0 -0.42762724481E+01  0.83725548256E+01  0.14603207351E+02  0.17367781826E+02  0.51100000000E-03 0.  1.
         12    1    3    3    0    0 -0.13804906008E+02  0.86439977058E+01  0.15600034934E+02  0.22553385914E+02  0.00000000000E+00 0. -1.
</event>
<event>
 7    1  0.2313935E-008  0.4614232E+02  0.7816164E-02  0.1320468E+00
        -11   -1    0    0    0    0  0.00000000000E+00  0.00000000000E+00  0.45593999997E+02  0.45594000000E+02  0.51100000000E-03 0.  1.
         11   -1    0    0    0    0 -0.00000000000E+00 -0.00000000000E+00 -0.45593999997E+02  0.45594000000E+02  0.51100000000E-03 0. -1.
    9900012    2    1    2    0    0  0.48025389074E+01 -0.12869682025E+02  0.42900120415E+02  0.46142318443E+02  0.10000006214E+02 0.  0.
         12    1    1    2    0    0 -0.48025389074E+01  0.12869682025E+02 -0.42900120415E+02  0.45045681557E+02  0.00000000000E+00 0. -1.
         11    1    3    3    0    0  0.43733642116E+01 -0.60853019989E+01  0.10849298522E+02  0.13185768602E+02  0.51100000000E-03 0. -1.
        -11    1    3    3    0    0  0.13381525412E+01 -0.90560826911E+00  0.48222224174E+01  0.50857258936E+01  0.51100000000E-03 0.  1.
         12    1    3    3    0    0 -0.90897784544E+00 -0.58787717569E+01  0.27228599475E+02  0.27870823947E+02  0.00000000000E+00 0. -1.
</event>
<event>
 7    1  0.2313935E-008  0.4614231E+02  0.7816164E-02  0.1320468E+00
        -11   -1    0    0    0    0  0.00000000000E+00  0.00000000000E+00  0.45593999997E+02  0.45594000000E+02  0.51100000000E-03 0.  1.
         11   -1    0    0    0    0 -0.00000000000E+00 -0.00000000000E+00 -0.45593999997E+02  0.45594000000E+02  0.51100000000E-03 0. -1.
    9900012    2    1    2    0    0 -0.25823140403E+01 -0.39132450383E+02  0.22160702778E+02  0.46142314675E+02  0.99999718601E+01 0.  0.
         12    1    1    2    0    0  0.25823140403E+01  0.39132450383E+02 -0.22160702778E+02  0.45045685325E+02  0.00000000000E+00 0. -1.
         11    1    3    3    0    0 -0.13441296512E+01 -0.48538772702E+01 -0.26921985908E+00  0.50437375692E+01  0.51100000000E-03 0. -1.
        -11    1    3    3    0    0 -0.81453139164E+00 -0.20512705736E+01  0.15174372745E+01  0.26783928945E+01  0.51100000000E-03 0.  1.
        -12    1    3    3    0    0 -0.42365299744E+00 -0.32227302539E+02  0.20912485362E+02  0.38420184211E+02  0.00000000000E+00 0.  1.
</event>
<event>
 7    1  0.2313935E-008  0.4614232E+02  0.7816164E-02  0.1320468E+00
        -11   -1    0    0    0    0  0.00000000000E+00  0.00000000000E+00  0.45593999997E+02  0.45594000000E+02  0.51100000000E-03 0.  1.
         11   -1    0    0    0    0 -0.00000000000E+00 -0.00000000000E+00 -0.45593999997E+02  0.45594000000E+02  0.51100000000E-03 0. -1.
    9900012    2    1    2    0    0 -0.24645737223E+02 -0.29531642424E+02  0.23443195417E+02  0.46142315646E+02  0.99999807169E+01 0.  0.
         12    1    1    2    0    0  0.24645737223E+02  0.29531642424E+02 -0.23443195417E+02  0.45045684354E+02  0.00000000000E+00 0. -1.
         11    1    3    3    0    0 -0.37977870958E+00 -0.23202122072E+00  0.23586866069E+01  0.24003059150E+01  0.51100000000E-03 0. -1.
        -11    1    3    3    0    0 -0.73478102243E+01 -0.11076477979E+02  0.93178989302E+01  0.16232742228E+02  0.51100000000E-03 0.  1.
        -12    1    3    3    0    0 -0.16918148289E+02 -0.18223143224E+02  0.11766609880E+02  0.27509267503E+02  0.00000000000E+00 0.  1.
</event>
<event>
 7    1  0.2313935E-008  0.4614232E+02  0.7816164E-02  0.1320468E+00
        -11   -1    0    0    0    0  0.00000000000E+00  0.00000000000E+00  0.45593999997E+02  0.45594000000E+02  0.51100000000E-03 0.  1.
         11   -1    0    0    0    0 -0.00000000000E+00 -0.00000000000E+00 -0.45593999997E+02  0.45594000000E+02  0.51100000000E-03 0. -1.
    9900012    2    1    2    0    0  0.25675965006E+01 -0.41477420379E+02  0.17382303236E+02  0.46142318532E+02  0.10000007032E+02 0.  0.
         12    1    1    2    0    0 -0.25675965006E+01  0.41477420379E+02 -0.17382303236E+02  0.45045681468E+02  0.00000000000E+00 0. -1.
         11    1    3    3    0    0 -0.13617759869E+01 -0.16201762287E+01  0.16975349557E+01  0.27131218251E+01  0.51100000000E-03 0. -1.
        -11    1    3    3    0    0  0.31293579397E+01 -0.79341134079E+01  0.25688725868E+01  0.89074206879E+01  0.51100000000E-03 0.  1.
         12    1    3    3    0    0  0.80001454779E+00 -0.31923130743E+02  0.13115895694E+02  0.34521776019E+02  0.00000000000E+00 0. -1.
</event>
<event>
 7    1  0.2313935E-008  0.4614232E+02  0.7816164E-02  0.1320468E+00
        -11   -1    0    0    0    0  0.00000000000E+00  0.00000000000E+00  0.45593999997E+02  0.45594000000E+02  0.51100000000E-03 0.  1.
         11   -1    0    0    0    0 -0.00000000000E+00 -0.00000000000E+00 -0.45593999997E+02  0.45594000000E+02  0.51100000000E-03 0. -1.
    9900012    2    1    2    0    0  0.39604460252E+02  0.37372495754E+00  0.21458347340E+02  0.46142316381E+02  0.99999874133E+01 0.  0.
         12    1    1    2    0    0 -0.39604460252E+02 -0.37372495754E+00 -0.21458347340E+02  0.45045683619E+02  0.00000000000E+00 0. -1.
         11    1    3    3    0    0  0.52400903156E+01 -0.20854164025E+01  0.42793013844E+01  0.70795429716E+01  0.51100000000E-03 0. -1.
        -11    1    3    3    0    0  0.80636468541E+01  0.45957147497E+00  0.10477386311E+01  0.81444068556E+01  0.51100000000E-03 0.  1.
         12    1    3    3    0    0  0.26300723082E+02  0.19995698850E+01  0.16131307324E+02  0.30918366554E+02  0.00000000000E+00 0. -1.
</event>
<event>
 7    1  0.2313935E-008  0.4614232E+02  0.7816164E-02  0.1320468E+00
        -11   -1    0    0    0    0  0.00000000000E+00  0.00000000000E+00  0.45593999997E+02  0.45594000000E+02  0.51100000000E-03 0. -1.
         11   -1    0    0    0    0 -0.00000000000E+00 -0.00000000000E+00 -0.45593999997E+02  0.45594000000E+02  0.51100000000E-03 0.  1.
    9900012    2    1    2    0    0  0.32029875968E+02 -0.30260635614E+02  0.93538469362E+01  0.46142317911E+02  0.10000001370E+02 0.  0.
         12    1    1    2    0    0 -0.32029875968E+02  0.30260635614E+02 -0.93538469362E+01  0.45045682089E+02  0.00000000000E+00 0. -1.
         11    1    3    3    0    0  0.50486670146E+01 -0.14335195687E+01 -0.61664290856E+00  0.52843415594E+01  0.51100000000E-03 0. -1.
        -11    1    3    3    0    0  0.15602712726E+02 -0.14388558311E+02  0.47789515621E+01  0.21755772405E+02  0.51100000000E-03 0.  1.
         12    1    3    3    0    0  0.11378496228E+02 -0.14438557735E+02  0.51915382827E+01  0.19102203947E+02  0.00000000000E+00 0. -1.
</event>
<event>
 7    1  0.2313935E-008  0.4614232E+02  0.7816164E-02  0.1320468E+00
        -11   -1    0    0    0    0  0.00000000000E+00  0.00000000000E+00  0.45593999997E+02  0.45594000000E+02  0.51100000000E-03 0.  1.
         11   -1    0    0    0    0 -0.00000000000E+00 -0.00000000000E+00 -0.45593999997E+02  0.45594000000E+02  0.51100000000E-03 0. -1.
    9900012    2    1    2    0    0  0.20344243183E+01 -0.49794747126E+01  0.44723363295E+02  0.46142320128E+02  0.10000021579E+02 0.  0.
         12    1    1    2    0    0 -0.20344243183E+01  0.49794747126E+01 -0.44723363295E+02  0.45045679872E+02  0.00000000000E+00 0. -1.
         11    1    3    3    0    0  0.29188081118E+01 -0.88080485717E+00  0.18285279986E+02  0.18537710819E+02  0.51100000000E-03 0. -1.
        -11    1    3    3    0    0  0.10705709120E+01 -0.43303566230E+01  0.24268279556E+02  0.24674835429E+02  0.51100000000E-03 0.  1.
         12    1    3    3    0    0 -0.19549547054E+01  0.23168676754E+00  0.21698037534E+01  0.29297738798E+01  0.00000000000E+00 0. -1.
</event>
<event>
 7    1  0.2313935E-008  0.4614233E+02  0.7816164E-02  0.1320468E+00
        -11   -1    0    0    0    0  0.00000000000E+00  0.00000000000E+00  0.45593999997E+02  0.45594000000E+02  0.51100000000E-03 0. -1.
         11   -1    0    0    0    0 -0.00000000000E+00 -0.00000000000E+00 -0.45593999997E+02  0.45594000000E+02  0.51100000000E-03 0.  1.
    9900012    2    1    2    0    0  0.81122361887E+01  0.43740540095E+02 -0.70759355132E+01  0.46142333314E+02  0.10000141825E+02 0.  0.
         12    1    1    2    0    0 -0.81122361887E+01 -0.43740540095E+02  0.70759355132E+01  0.45045666686E+02  0.00000000000E+00 0. -1.
         11    1    3    3    0    0  0.63588283022E+00  0.81912004540E+01 -0.32994996338E+01  0.88536325848E+01  0.51100000000E-03 0. -1.
        -11    1    3    3    0    0  0.72095187249E+01  0.16112201022E+02 -0.21424452460E+01  0.17781176955E+02  0.51100000000E-03 0.  1.
        -12    1    3    3    0    0  0.26683463353E+00  0.19437138619E+02 -0.16339906333E+01  0.19507523775E+02  0.00000000000E+00 0.  1.
</event>
<event>
 7    1  0.2313935E-008  0.4614232E+02  0.7816164E-02  0.1320468E+00
        -11   -1    0    0    0    0  0.00000000000E+00  0.00000000000E+00  0.45593999997E+02  0.45594000000E+02  0.51100000000E-03 0. -1.
         11   -1    0    0    0    0 -0.00000000000E+00 -0.00000000000E+00 -0.45593999997E+02  0.45594000000E+02  0.51100000000E-03 0.  1.
    9900012    2    1    2    0    0  0.40952565736E+02  0.18388809040E+02 -0.37218845352E+01  0.46142319155E+02  0.10000012715E+02 0.  0.
         12    1    1    2    0    0 -0.40952565736E+02 -0.18388809040E+02  0.37218845352E+01  0.45045680845E+02  0.00000000000E+00 0. -1.
         11    1    3    3    0    0  0.13875601643E+02  0.26445335002E+01 -0.37964063400E+01  0.14626639387E+02  0.51100000000E-03 0. -1.
        -11    1    3    3    0    0  0.79262334452E+01  0.35984361490E+01 -0.12764476371E+01  0.87979110122E+01  0.51100000000E-03 0.  1.
         12    1    3    3    0    0  0.19150730647E+02  0.12145839391E+02  0.13509694420E+01  0.22717768756E+02  0.00000000000E+00 0. -1.
</event>
<event>
 7    1  0.2313935E-008  0.4614232E+02  0.7816164E-02  0.1320468E+00
        -11   -1    0    0    0    0  0.00000000000E+00  0.00000000000E+00  0.45593999997E+02  0.45594000000E+02  0.51100000000E-03 0. -1.
         11   -1    0    0    0    0 -0.00000000000E+00 -0.00000000000E+00 -0.45593999997E+02  0.45594000000E+02  0.51100000000E-03 0.  1.
    9900012    2    1    2    0    0  0.29481124294E+02 -0.34014056427E+02 -0.17380344442E+01  0.46142317765E+02  0.10000000037E+02 0.  0.
         12    1    1    2    0    0 -0.29481124294E+02  0.34014056427E+02  0.17380344442E+01  0.45045682235E+02  0.00000000000E+00 0. -1.
         11    1    3    3    0    0  0.58204555013E+01 -0.10759696246E+02  0.23152064123E+01  0.12450258895E+02  0.51100000000E-03 0. -1.
        -11    1    3    3    0    0  0.12854239419E+01 -0.30063837005E+01 -0.31805294387E+00  0.32850898924E+01  0.51100000000E-03 0.  1.
        -12    1    3    3    0    0  0.22375244851E+02 -0.20247976480E+02 -0.37351879126E+01  0.30406968978E+02  0.00000000000E+00 0.  1.
</event>
<event>
 7    1  0.2313935E-008  0.4614232E+02  0.7816164E-02  0.1320468E+00
        -11   -1    0    0    0    0  0.00000000000E+00  0.00000000000E+00  0.45593999997E+02  0.45594000000E+02  0.51100000000E-03 0.  1.
         11   -1    0    0    0    0 -0.00000000000E+00 -0.00000000000E+00 -0.45593999997E+02  0.45594000000E+02  0.51100000000E-03 0. -1.
    9900012    2    1    2    0    0  0.25311623802E+01 -0.42879625793E+02 -0.13566295100E+02  0.46142318144E+02  0.10000003489E+02 0.  0.
         12    1    1    2    0    0 -0.25311623802E+01  0.42879625793E+02  0.13566295100E+02  0.45045681856E+02  0.00000000000E+00 0. -1.
         11    1    3    3    0    0  0.18720286699E+01 -0.10830090202E+02 -0.43078366409E+01  0.11804778775E+02  0.51100000000E-03 0.  1.
        -11    1    3    3    0    0 -0.24056257579E+01 -0.20045622885E+02 -0.28511784878E+01  0.20389783009E+02  0.51100000000E-03 0. -1.
         12    1    3    3    0    0  0.30647594682E+01 -0.12003912706E+02 -0.64072799709E+01  0.13947756360E+02  0.00000000000E+00 0. -1.
</event>
<event>
 7    1  0.2313935E-008  0.4614232E+02  0.7816164E-02  0.1320468E+00
        -11   -1    0    0    0    0  0.00000000000E+00  0.00000000000E+00  0.45593999997E+02  0.45594000000E+02  0.51100000000E-03 0.  1.
         11   -1    0    0    0    0 -0.00000000000E+00 -0.00000000000E+00 -0.45593999997E+02  0.45594000000E+02  0.51100000000E-03 0. -1.
    9900012    2    1    2    0    0 -0.88201507721E+01 -0.42343587529E+02  0.12583285108E+02  0.46142317315E+02  0.99999959279E+01 0.  0.
         12    1    1    2    0    0  0.88201507721E+01  0.42343587529E+02 -0.12583285108E+02  0.45045682685E+02  0.00000000000E+00 0. -1.
         11    1    3    3    0    0 -0.10820023672E+01 -0.89593149841E+01  0.42861179324E+01  0.99905385890E+01  0.51100000000E-03 0.  1.
        -11    1    3    3    0    0 -0.76451974235E+01 -0.22313841958E+02  0.26845070791E+01  0.23739485359E+02  0.51100000000E-03 0. -1.
         12    1    3    3    0    0 -0.92950981441E-01 -0.11070430587E+02  0.56126600964E+01  0.12412293367E+02  0.00000000000E+00 0. -1.
</event>
<event>
 7    1  0.2313935E-008  0.4614232E+02  0.7816164E-02  0.1320468E+00
        -11   -1    0    0    0    0  0.00000000000E+00  0.00000000000E+00  0.45593999997E+02  0.45594000000E+02  0.51100000000E-03 0. -1.
         11   -1    0    0    0    0 -0.00000000000E+00 -0.00000000000E+00 -0.45593999997E+02  0.45594000000E+02  0.51100000000E-03 0.  1.
    9900012    2    1    2    0    0  0.35150680998E+02  0.25286391785E+02 -0.12415373855E+02  0.46142317720E+02  0.99999996257E+01 0.  0.
         12    1    1    2    0    0 -0.35150680998E+02 -0.25286391785E+02  0.12415373855E+02  0.45045682280E+02  0.00000000000E+00 0. -1.
         11    1    3    3    0    0  0.44138192019E+01  0.49613542469E+01 -0.11366719622E+01  0.67371254494E+01  0.51100000000E-03 0. -1.
        -11    1    3    3    0    0  0.29800136184E+02  0.17955616975E+02 -0.11921729604E+02  0.36777437847E+02  0.51100000000E-03 0.  1.
        -12    1    3    3    0    0  0.93672561145E+00  0.23694205633E+01  0.64302771071E+00  0.26277544241E+01  0.00000000000E+00 0.  1.
</event>
<event>
 7    1  0.2313935E-008  0.4614232E+02  0.7816164E-02  0.1320468E+00
        -11   -1    0    0    0    0  0.00000000000E+00  0.00000000000E+00  0.45593999997E+02  0.45594000000E+02  0.51100000000E-03 0. -1.
         11   -1    0    0    0    0 -0.00000000000E+00 -0.00000000000E+00 -0.45593999997E+02  0.45594000000E+02  0.51100000000E-03 0.  1.
    9900012    2    1    2    0    0  0.39413151452E+02  0.36105344346E+01 -0.21510020233E+02  0.46142318335E+02  0.10000005229E+02 0.  0.
         12    1    1    2    0    0 -0.39413151452E+02 -0.36105344346E+01  0.21510020233E+02  0.45045681665E+02  0.00000000000E+00 0. -1.
         11    1    3    3    0    0  0.14274178806E+02 -0.12330799531E+01 -0.82498802433E+01  0.16532791387E+02  0.51100000000E-03 0. -1.
        -11    1    3    3    0    0  0.60277597170E+00  0.16175302511E+01 -0.80773641171E+00  0.19058282601E+01  0.51100000000E-03 0.  1.
         12    1    3    3    0    0  0.24536196674E+02  0.32260841366E+01 -0.12452403578E+02  0.27703698687E+02  0.00000000000E+00 0. -1.
</event>
<event>
 7    1  0.2313935E-008  0.4614232E+02  0.7816164E-02  0.1320468E+00
        -11   -1    0    0    0    0  0.00000000000E+00  0.00000000000E+00  0.45593999997E+02  0.45594000000E+02  0.51100000000E-03 0.  1.
         11   -1    0    0    0    0 -0.00000000000E+00 -0.00000000000E+00 -0.45593999997E+02  0.45594000000E+02  0.51100000000E-03 0. -1.
    9900012    2    1    2    0    0  0.39777570789E+02 -0.18901727083E+02  0.94648338871E+01  0.46142317575E+02  0.99999983071E+01 0.  0.
         12    1    1    2    0    0 -0.39777570789E+02  0.18901727083E+02 -0.94648338871E+01  0.45045682425E+02  0.00000000000E+00 0. -1.
         11    1    3    3    0    0  0.19662918934E+02 -0.82465388461E+01  0.59140999865E+01  0.22127186059E+02  0.51100000000E-03 0. -1.
        -11    1    3    3    0    0  0.18323489777E+02 -0.88351988682E+01  0.94126426482E+00  0.20364110472E+02  0.51100000000E-03 0.  1.
        -12    1    3    3    0    0  0.17911620780E+01 -0.18199893683E+01  0.26094696358E+01  0.36510210450E+01  0.00000000000E+00 0.  1.
</event>
<event>
 7    1  0.2313935E-008  0.4614232E+02  0.7816164E-02  0.1320468E+00
        -11   -1    0    0    0    0  0.00000000000E+00  0.00000000000E+00  0.45593999997E+02  0.45594000000E+02  0.51100000000E-03 0. -1.
         11   -1    0    0    0    0 -0.00000000000E+00 -0.00000000000E+00 -0.45593999997E+02  0.45594000000E+02  0.51100000000E-03 0.  1.
    9900012    2    1    2    0    0 -0.39689307843E+02 -0.20782091730E+02  0.46879639420E+01  0.46142317636E+02  0.99999988589E+01 0.  0.
         12    1    1    2    0    0  0.39689307843E+02  0.20782091730E+02 -0.46879639420E+01  0.45045682364E+02  0.00000000000E+00 0. -1.
         11    1    3    3    0    0  0.30126636283E+00 -0.65283547192E+00  0.78037529257E+00  0.10611038748E+01  0.51100000000E-03 0. -1.
        -11    1    3    3    0    0 -0.23272007338E+02 -0.99871750887E+01  0.30575773498E+01  0.25508405895E+02  0.51100000000E-03 0.  1.
        -12    1    3    3    0    0 -0.16718566867E+02 -0.10142081170E+02  0.85001129966E+00  0.19572807866E+02  0.00000000000E+00 0.  1.
</event>
<event>
 7    1  0.2313935E-008  0.4614232E+02  0.7816164E-02  0.1320468E+00
        -11   -1    0    0    0    0  0.00000000000E+00  0.00000000000E+00  0.45593999997E+02  0.45594000000E+02  0.51100000000E-03 0.  1.
         11   -1    0    0    0    0 -0.00000000000E+00 -0.00000000000E+00 -0.45593999997E+02  0.45594000000E+02  0.51100000000E-03 0. -1.
    9900012    2    1    2    0    0  0.28742859796E+02  0.67788180313E+01  0.34014837229E+02  0.46142317467E+02  0.99999973167E+01 0.  0.
         12    1    1    2    0    0 -0.28742859796E+02 -0.67788180313E+01 -0.34014837229E+02  0.45045682533E+02  0.00000000000E+00 0. -1.
         11    1    3    3    0    0  0.36617474355E+01 -0.72488862662E+00  0.50021538240E+01  0.62414261946E+01  0.51100000000E-03 0. -1.
        -11    1    3    3    0    0  0.13493192507E+02  0.22885237303E+01  0.20341329352E+02  0.24516795569E+02  0.51100000000E-03 0.  1.
         12    1    3    3    0    0  0.11587919853E+02  0.52151829276E+01  0.86713540534E+01  0.15384095704E+02  0.00000000000E+00 0. -1.
</event>
<event>
 7    1  0.2313935E-008  0.4614232E+02  0.7816164E-02  0.1320468E+00
        -11   -1    0    0    0    0  0.00000000000E+00  0.00000000000E+00  0.45593999997E+02  0.45594000000E+02  0.51100000000E-03 0.  1.
         11   -1    0    0    0    0 -0.00000000000E+00 -0.00000000000E+00 -0.45593999997E+02  0.45594000000E+02  0.51100000000E-03 0. -1.
    9900012    2    1    2    0    0  0.26546665946E+02 -0.23872711566E+02  0.27467829452E+02  0.46142317797E+02  0.10000000328E+02 0.  0.
         12    1    1    2    0    0 -0.26546665946E+02  0.23872711566E+02 -0.27467829452E+02  0.45045682203E+02  0.00000000000E+00 0. -1.
         11    1    3    3    0    0  0.43658209726E+01 -0.48744102568E+01  0.91899797691E+01  0.11281666390E+02  0.51100000000E-03 0. -1.
        -11    1    3    3    0    0  0.51399531058E+00 -0.21918124916E+01  0.16614925440E+01  0.27979976613E+01  0.51100000000E-03 0.  1.
        -12    1    3    3    0    0  0.21666849662E+02 -0.16806488818E+02  0.16616357139E+02  0.32062653746E+02  0.00000000000E+00 0.  1.
</event>
<event>
 7    1  0.2313935E-008  0.4614232E+02  0.7816164E-02  0.1320468E+00
        -11   -1    0    0    0    0  0.00000000000E+00  0.00000000000E+00  0.45593999997E+02  0.45594000000E+02  0.51100000000E-03 0.  1.
         11   -1    0    0    0    0 -0.00000000000E+00 -0.00000000000E+00 -0.45593999997E+02  0.45594000000E+02  0.51100000000E-03 0. -1.
    9900012    2    1    2    0    0 -0.39028443600E+02 -0.18507158009E+02 -0.12781986433E+02  0.46142317803E+02  0.10000000384E+02 0.  0.
         12    1    1    2    0    0  0.39028443600E+02  0.18507158009E+02  0.12781986433E+02  0.45045682197E+02  0.00000000000E+00 0. -1.
         11    1    3    3    0    0 -0.22432141736E+01 -0.28522290824E+01 -0.13751692783E+01  0.38805040101E+01  0.51100000000E-03 0. -1.
        -11    1    3    3    0    0 -0.24631954767E+02 -0.12582776669E+02 -0.10857001314E+02  0.29714204383E+02  0.51100000000E-03 0.  1.
        -12    1    3    3    0    0 -0.12153274660E+02 -0.30721522573E+01 -0.54981584057E+00  0.12547609410E+02  0.00000000000E+00 0.  1.
</event>
<event>
 7    1  0.2313935E-008  0.4614232E+02  0.7816164E-02  0.1320468E+00
        -11   -1    0    0    0    0  0.00000000000E+00  0.00000000000E+00  0.45593999997E+02  0.45594000000E+02  0.51100000000E-03 0.  1.
         11   -1    0    0    0    0 -0.00000000000E+00 -0.00000000000E+00 -0.45593999997E+02  0.45594000000E+02  0.51100000000E-03 0. -1.
    9900012    2    1    2    0    0  0.13213356649E+02 -0.20210313674E+02  0.38027147859E+02  0.46142317110E+02  0.99999940612E+01 0.  0.
         12    1    1    2    0    0 -0.13213356649E+02  0.20210313674E+02 -0.38027147859E+02  0.45045682890E+02  0.00000000000E+00 0. -1.
         11    1    3    3    0    0  0.43794518337E+01 -0.91505738076E+00  0.56603172074E+01  0.72149926905E+01  0.51100000000E-03 0. -1.
        -11    1    3    3    0    0  0.30573442465E+01 -0.10266182299E+02  0.18795169757E+02  0.21633313646E+02  0.51100000000E-03 0.  1.
         12    1    3    3    0    0  0.57765605683E+01 -0.90290739938E+01  0.13571660895E+02  0.17294010773E+02  0.00000000000E+00 0. -1.
</event>
<event>
 7    1  0.2313935E-008  0.4614232E+02  0.7816164E-02  0.1320468E+00
        -11   -1    0    0    0    0  0.00000000000E+00  0.00000000000E+00  0.45593999997E+02  0.45594000000E+02  0.51100000000E-03 0.  1.
         11   -1    0    0    0    0 -0.00000000000E+00 -0.00000000000E+00 -0.45593999997E+02  0.45594000000E+02  0.51100000000E-03 0. -1.
    9900012    2    1    2    0    0 -0.15381597223E+02  0.36649130220E+02  0.21198141754E+02  0.46142317711E+02  0.99999995465E+01 0.  0.
         12    1    1    2    0    0  0.15381597223E+02 -0.36649130220E+02 -0.21198141754E+02  0.45045682289E+02  0.00000000000E+00 0. -1.
         11    1    3    3    0    0 -0.59937401505E+01  0.70291654075E+01  0.59768201314E+01  0.11002566358E+02  0.51100000000E-03 0. -1.
        -11    1    3    3    0    0 -0.84118563583E+01  0.21124930224E+02  0.85432449046E+01  0.24290101649E+02  0.51100000000E-03 0.  1.
        -12    1    3    3    0    0 -0.97600071463E+00  0.84950345886E+01  0.66780767182E+01  0.10849649705E+02  0.00000000000E+00 0.  1.
</event>
<event>
 7    1  0.2313935E-008  0.4614232E+02  0.7816164E-02  0.1320468E+00
        -11   -1    0    0    0    0  0.00000000000E+00  0.00000000000E+00  0.45593999997E+02  0.45594000000E+02  0.51100000000E-03 0.  1.
         11   -1    0    0    0    0 -0.00000000000E+00 -0.00000000000E+00 -0.45593999997E+02  0.45594000000E+02  0.51100000000E-03 0. -1.
    9900012    2    1    2    0    0  0.27076274374E+02 -0.21056308909E+02  0.29199669838E+02  0.46142317660E+02  0.99999990759E+01 0.  0.
         12    1    1    2    0    0 -0.27076274374E+02  0.21056308909E+02 -0.29199669838E+02  0.45045682340E+02  0.00000000000E+00 0. -1.
         11    1    3    3    0    0  0.80214262966E+01 -0.42633170792E+01  0.80117660294E+01  0.12112289111E+02  0.51100000000E-03 0. -1.
        -11    1    3    3    0    0  0.59082057553E+01 -0.28074561834E+01  0.95744645422E+01  0.11595649055E+02  0.51100000000E-03 0.  1.
         12    1    3    3    0    0  0.13146642322E+02 -0.13985535647E+02  0.11613439266E+02  0.22434379494E+02  0.00000000000E+00 0. -1.
</event>
<event>
 7    1  0.2313935E-008  0.4614232E+02  0.7816164E-02  0.1320468E+00
        -11   -1    0    0    0    0  0.00000000000E+00  0.00000000000E+00  0.45593999997E+02  0.45594000000E+02  0.51100000000E-03 0.  1.
         11   -1    0    0    0    0 -0.00000000000E+00 -0.00000000000E+00 -0.45593999997E+02  0.45594000000E+02  0.51100000000E-03 0. -1.
    9900012    2    1    2    0    0 -0.35151309686E+02  0.23580433165E+02  0.15409801749E+02  0.46142318844E+02  0.10000009873E+02 0.  0.
         12    1    1    2    0    0  0.35151309686E+02 -0.23580433165E+02 -0.15409801749E+02  0.45045681156E+02  0.00000000000E+00 0. -1.
         11    1    3    3    0    0 -0.69763013612E+00 -0.28948584150E+00  0.11144271657E+01  0.13462681858E+01  0.51100000000E-03 0. -1.
        -11    1    3    3    0    0 -0.24111119418E+02  0.13515952990E+02  0.73771447654E+01  0.28608553440E+02  0.51100000000E-03 0.  1.
         12    1    3    3    0    0 -0.10342560132E+02  0.10353966017E+02  0.69182298181E+01  0.16187497218E+02  0.00000000000E+00 0. -1.
</event>
<event>
 7    1  0.2313935E-008  0.4614232E+02  0.7816164E-02  0.1320468E+00
        -11   -1    0    0    0    0  0.00000000000E+00  0.00000000000E+00  0.45593999997E+02  0.45594000000E+02  0.51100000000E-03 0. -1.
         11   -1    0    0    0    0 -0.00000000000E+00 -0.00000000000E+00 -0.45593999997E+02  0.45594000000E+02  0.51100000000E-03 0.  1.
    9900012    2    1    2    0    0 -0.98613633263E+01 -0.37939593771E+01 -0.43788958125E+02  0.46142317986E+02  0.10000002052E+02 0.  0.
         12    1    1    2    0    0  0.98613633263E+01  0.37939593771E+01  0.43788958125E+02  0.45045682014E+02  0.00000000000E+00 0. -1.
         11    1    3    3    0    0 -0.41971583395E+01 -0.56451926248E+01 -0.21557088738E+02  0.22675811187E+02  0.51100000000E-03 0. -1.
        -11    1    3    3    0    0 -0.85572729824E+00 -0.13019036554E+01 -0.73299122538E+01  0.74936530641E+01  0.51100000000E-03 0.  1.
         12    1    3    3    0    0 -0.48084776885E+01  0.31531369032E+01 -0.14901957134E+02  0.15972853735E+02  0.00000000000E+00 0. -1.
</event>
<event>
 7    1  0.2313935E-008  0.4614232E+02  0.7816164E-02  0.1320468E+00
        -11   -1    0    0    0    0  0.00000000000E+00  0.00000000000E+00  0.45593999997E+02  0.45594000000E+02  0.51100000000E-03 0. -1.
         11   -1    0    0    0    0 -0.00000000000E+00 -0.00000000000E+00 -0.45593999997E+02  0.45594000000E+02  0.51100000000E-03 0.  1.
    9900012    2    1    2    0    0  0.17192950263E+02 -0.99861011152E+01 -0.40420214016E+02  0.46142318128E+02  0.10000003344E+02 0.  0.
         12    1    1    2    0    0 -0.17192950263E+02  0.99861011152E+01  0.40420214016E+02  0.45045681872E+02  0.00000000000E+00 0. -1.
         11    1    3    3    0    0  0.88854089664E+01 -0.92576141848E+01 -0.26531882378E+02  0.29471930641E+02  0.51100000000E-03 0. -1.
        -11    1    3    3    0    0  0.57933081399E+01  0.43825015310E-01 -0.12304407928E+02  0.13600102740E+02  0.51100000000E-03 0.  1.
        -12    1    3    3    0    0  0.25142331567E+01 -0.77231194575E+00 -0.15839237100E+01  0.30702847469E+01  0.00000000000E+00 0.  1.
</event>
<event>
 7    1  0.2313935E-008  0.4614232E+02  0.7816164E-02  0.1320468E+00
        -11   -1    0    0    0    0  0.00000000000E+00  0.00000000000E+00  0.45593999997E+02  0.45594000000E+02  0.51100000000E-03 0.  1.
         11   -1    0    0    0    0 -0.00000000000E+00 -0.00000000000E+00 -0.45593999997E+02  0.45594000000E+02  0.51100000000E-03 0. -1.
    9900012    2    1    2    0    0 -0.36395301043E+02 -0.12568016642E+02  0.23378210992E+02  0.46142315084E+02  0.99999755914E+01 0.  0.
         12    1    1    2    0    0  0.36395301043E+02  0.12568016642E+02 -0.23378210992E+02  0.45045684916E+02  0.00000000000E+00 0. -1.
         11    1    3    3    0    0 -0.80797228930E+01 -0.70986336485E+01  0.72031633029E+01  0.12944422874E+02  0.51100000000E-03 0.  1.
        -11    1    3    3    0    0 -0.24761552918E+02 -0.56870003140E+01  0.13733582110E+02  0.28880577441E+02  0.51100000000E-03 0. -1.
        -12    1    3    3    0    0 -0.35540252323E+01  0.21761732051E+00  0.24414655788E+01  0.43173147699E+01  0.00000000000E+00 0.  1.
</event>
<event>
 7    1  0.2313935E-008  0.4614231E+02  0.7816164E-02  0.1320468E+00
        -11   -1    0    0    0    0  0.00000000000E+00  0.00000000000E+00  0.45593999997E+02  0.45594000000E+02  0.51100000000E-03 0.  1.
         11   -1    0    0    0    0 -0.00000000000E+00 -0.00000000000E+00 -0.45593999997E+02  0.45594000000E+02  0.51100000000E-03 0. -1.
    9900012    2    1    2    0    0 -0.98015289689E+01  0.43254058124E+02  0.78822802393E+01  0.46142313679E+02  0.99999627785E+01 0.  0.
         12    1    1    2    0    0  0.98015289689E+01 -0.43254058124E+02 -0.78822802393E+01  0.45045686321E+02  0.00000000000E+00 0. -1.
         11    1    3    3    0    0  0.56425920544E+00  0.33432956742E+00 -0.35236723048E+00  0.74453182391E+00  0.51100000000E-03 0. -1.
        -11    1    3    3    0    0 -0.38609769462E+01  0.60130930862E+01  0.78391653380E+00  0.71888077479E+01  0.51100000000E-03 0.  1.
        -12    1    3    3    0    0 -0.65048112281E+01  0.36906635471E+02  0.74507309360E+01  0.38208974108E+02  0.00000000000E+00 0.  1.
</event>
<event>
 7    1  0.2313935E-008  0.4614232E+02  0.7816164E-02  0.1320468E+00
        -11   -1    0    0    0    0  0.00000000000E+00  0.00000000000E+00  0.45593999997E+02  0.45594000000E+02  0.51100000000E-03 0.  1.
         11   -1    0    0    0    0 -0.00000000000E+00 -0.00000000000E+00 -0.45593999997E+02  0.45594000000E+02  0.51100000000E-03 0. -1.
    9900012    2    1    2    0    0 -0.13005830067E+02 -0.31159691322E+02  0.29816698623E+02  0.46142317678E+02  0.99999992446E+01 0.  0.
         12    1    1    2    0    0  0.13005830067E+02  0.31159691322E+02 -0.29816698623E+02  0.45045682322E+02  0.00000000000E+00 0. -1.
         11    1    3    3    0    0 -0.51032716401E+00 -0.47195314337E+01  0.39371678109E+01  0.61673090891E+01  0.51100000000E-03 0. -1.
        -11    1    3    3    0    0 -0.43812065877E+00  0.56031211530E+00  0.14638492781E+01  0.16274994158E+01  0.51100000000E-03 0.  1.
        -12    1    3    3    0    0 -0.12057382244E+02 -0.27000472004E+02  0.24415681534E+02  0.38347509173E+02  0.00000000000E+00 0.  1.
</event>
<event>
 7    1  0.2313935E-008  0.4614232E+02  0.7816164E-02  0.1320468E+00
        -11   -1    0    0    0    0  0.00000000000E+00  0.00000000000E+00  0.45593999997E+02  0.45594000000E+02  0.51100000000E-03 0.  1.
         11   -1    0    0    0    0 -0.00000000000E+00 -0.00000000000E+00 -0.45593999997E+02  0.45594000000E+02  0.51100000000E-03 0. -1.
    9900012    2    1    2    0    0 -0.15666879296E+02 -0.24709861519E+02  0.34250330589E+02  0.46142317536E+02  0.99999979492E+01 0.  0.
         12    1    1    2    0    0  0.15666879296E+02  0.24709861519E+02 -0.34250330589E+02  0.45045682464E+02  0.00000000000E+00 0. -1.
         11    1    3    3    0    0 -0.80193246538E+01 -0.10162082050E+02  0.21281799811E+02  0.24909686528E+02  0.51100000000E-03 0. -1.
        -11    1    3    3    0    0  0.72847623396E-01 -0.21881737199E+01  0.11697708399E+01  0.24822923043E+01  0.51100000000E-03 0.  1.
        -12    1    3    3    0    0 -0.77204022659E+01 -0.12359605749E+02  0.11798759938E+02  0.18750338703E+02  0.00000000000E+00 0.  1.
</event>
<event>
 7    1  0.2313935E-008  0.4614232E+02  0.7816164E-02  0.1320468E+00
        -11   -1    0    0    0    0  0.00000000000E+00  0.00000000000E+00  0.45593999997E+02  0.45594000000E+02  0.51100000000E-03 0.  1.
         11   -1    0    0    0    0 -0.00000000000E+00 -0.00000000000E+00 -0.45593999997E+02  0.45594000000E+02  0.51100000000E-03 0. -1.
    9900012    2    1    2    0    0  0.31318379298E+02 -0.36813268691E+00  0.32374946925E+02  0.46142316612E+02  0.99999895181E+01 0.  0.
         12    1    1    2    0    0 -0.31318379298E+02  0.36813268691E+00 -0.32374946925E+02  0.45045683388E+02  0.00000000000E+00 0. -1.
         11    1    3    3    0    0  0.17555771786E+02 -0.38475366006E+00  0.15787630226E+02  0.23613606815E+02  0.51100000000E-03 0.  1.
        -11    1    3    3    0    0  0.10019485975E+02  0.19682232184E+01  0.14715053408E+02  0.17910801180E+02  0.51100000000E-03 0. -1.
        -12    1    3    3    0    0  0.37431215372E+01 -0.19516022453E+01  0.18722632905E+01  0.46179086170E+01  0.00000000000E+00 0.  1.
</event>
<event>
 7    1  0.2313935E-008  0.4614232E+02  0.7816164E-02  0.1320468E+00
        -11   -1    0    0    0    0  0.00000000000E+00  0.00000000000E+00  0.45593999997E+02  0.45594000000E+02  0.51100000000E-03 0. -1.
         11   -1    0    0    0    0 -0.00000000000E+00 -0.00000000000E+00 -0.45593999997E+02  0.45594000000E+02  0.51100000000E-03 0.  1.
    9900012    2    1    2    0    0  0.16695366551E+02 -0.12731161485E+02 -0.39853427199E+02  0.46142318780E+02  0.10000009295E+02 0.  0.
         12    1    1    2    0    0 -0.16695366551E+02  0.12731161485E+02  0.39853427199E+02  0.45045681220E+02  0.00000000000E+00 0. -1.
         11    1    3    3    0    0  0.22560415575E+01 -0.49852807047E+01 -0.62511364397E+01  0.83077947893E+01  0.51100000000E-03 0. -1.
        -11    1    3    3    0    0  0.17519802086E+00  0.68928121725E+00 -0.71748103092E+00  0.10102387014E+01  0.51100000000E-03 0.  1.
        -12    1    3    3    0    0  0.14264126973E+02 -0.84351619971E+01 -0.32884809728E+02  0.36824285290E+02  0.00000000000E+00 0.  1.
</event>
<event>
 7    1  0.2313935E-008  0.4614232E+02  0.7816164E-02  0.1320468E+00
        -11   -1    0    0    0    0  0.00000000000E+00  0.00000000000E+00  0.45593999997E+02  0.45594000000E+02  0.51100000000E-03 0. -1.
         11   -1    0    0    0    0 -0.00000000000E+00 -0.00000000000E+00 -0.45593999997E+02  0.45594000000E+02  0.51100000000E-03 0.  1.
    9900012    2    1    2    0    0 -0.43533633659E+02 -0.10529855699E+02  0.48019066629E+01  0.46142318429E+02  0.10000006088E+02 0.  0.
         12    1    1    2    0    0  0.43533633659E+02  0.10529855699E+02 -0.48019066629E+01  0.45045681571E+02  0.00000000000E+00 0. -1.
         11    1    3    3    0    0 -0.22023231734E+02 -0.80150261244E+01  0.14770377255E+01  0.23482866531E+02  0.51100000000E-03 0. -1.
        -11    1    3    3    0    0 -0.19450856014E+02 -0.37155099611E+01  0.19275292579E+01  0.19896134882E+02  0.51100000000E-03 0.  1.
         12    1    3    3    0    0 -0.20595459115E+01  0.12006803869E+01  0.13973396795E+01  0.27633170163E+01  0.00000000000E+00 0. -1.
</event>
<event>
 7    1  0.2313935E-008  0.4614232E+02  0.7816164E-02  0.1320468E+00
        -11   -1    0    0    0    0  0.00000000000E+00  0.00000000000E+00  0.45593999997E+02  0.45594000000E+02  0.51100000000E-03 0.  1.
         11   -1    0    0    0    0 -0.00000000000E+00 -0.00000000000E+00 -0.45593999997E+02  0.45594000000E+02  0.51100000000E-03 0. -1.
    9900012    2    1    2    0    0 -0.29859150155E+02 -0.35189433028E+01  0.33543431213E+02  0.46142316661E+02  0.99999899661E+01 0.  0.
         12    1    1    2    0    0  0.29859150155E+02  0.35189433028E+01 -0.33543431213E+02  0.45045683339E+02  0.00000000000E+00 0. -1.
         11    1    3    3    0    0 -0.71072109613E+01  0.26521882703E+01  0.88141729603E+01  0.11629109833E+02  0.51100000000E-03 0. -1.
        -11    1    3    3    0    0 -0.13389304200E+00  0.21222179145E+00  0.13147488413E+01  0.13384805610E+01  0.51100000000E-03 0.  1.
        -12    1    3    3    0    0 -0.22618046152E+02 -0.63833533645E+01  0.23414509411E+02  0.33174726267E+02  0.00000000000E+00 0.  1.
</event>
<event>
 7    1  0.2313935E-008  0.4614232E+02  0.7816164E-02  0.1320468E+00
        -11   -1    0    0    0    0  0.00000000000E+00  0.00000000000E+00  0.45593999997E+02  0.45594000000E+02  0.51100000000E-03 0. -1.
         11   -1    0    0    0    0 -0.00000000000E+00 -0.00000000000E+00 -0.45593999997E+02  0.45594000000E+02  0.51100000000E-03 0.  1.
    9900012    2    1    2    0    0  0.41533052422E+02 -0.15851226998E+02  0.72703298530E+01  0.46142317221E+02  0.99999950737E+01 0.  0.
         12    1    1    2    0    0 -0.41533052422E+02  0.15851226998E+02 -0.72703298530E+01  0.45045682779E+02  0.00000000000E+00 0. -1.
         11    1    3    3    0    0  0.12455751925E+02 -0.50877725204E+01 -0.11091077192E+01  0.13500418713E+02  0.51100000000E-03 0.  1.
        -11    1    3    3    0    0  0.26798453808E+02 -0.11436384337E+02  0.73314982004E+01  0.30044947651E+02  0.51100000000E-03 0. -1.
         12    1    3    3    0    0  0.22788466889E+01  0.67292985872E+00  0.10479393718E+01  0.25969508569E+01  0.00000000000E+00 0. -1.
</event>
<event>
 7    1  0.2313935E-008  0.4614232E+02  0.7816164E-02  0.1320468E+00
        -11   -1    0    0    0    0  0.00000000000E+00  0.00000000000E+00  0.45593999997E+02  0.45594000000E+02  0.51100000000E-03 0.  1.
         11   -1    0    0    0    0 -0.00000000000E+00 -0.00000000000E+00 -0.45593999997E+02  0.45594000000E+02  0.51100000000E-03 0. -1.
    9900012    2    1    2    0    0 -0.25026365894E+02  0.29026775094E+02  0.23669406643E+02  0.46142317930E+02  0.10000001545E+02 0.  0.
         12    1    1    2    0    0  0.25026365894E+02 -0.29026775094E+02 -0.23669406643E+02  0.45045682070E+02  0.00000000000E+00 0. -1.
         11    1    3    3    0    0 -0.76898691377E+01  0.12680029781E+02  0.90593160317E+01  0.17377814875E+02  0.51100000000E-03 0. -1.
        -11    1    3    3    0    0  0.49316550075E+00  0.14897861739E+01  0.89461857595E+00  0.18063824935E+01  0.51100000000E-03 0.  1.
        -12    1    3    3    0    0 -0.17829662257E+02  0.14856959140E+02  0.13715472036E+02  0.26958120562E+02  0.00000000000E+00 0.  1.
</event>
<event>
 7    1  0.2313935E-008  0.4614232E+02  0.7816164E-02  0.1320468E+00
        -11   -1    0    0    0    0  0.00000000000E+00  0.00000000000E+00  0.45593999997E+02  0.45594000000E+02  0.51100000000E-03 0. -1.
         11   -1    0    0    0    0 -0.00000000000E+00 -0.00000000000E+00 -0.45593999997E+02  0.45594000000E+02  0.51100000000E-03 0.  1.
    9900012    2    1    2    0    0 -0.19491576200E+02 -0.18654332829E+02 -0.36072258891E+02  0.46142317215E+02  0.99999950167E+01 0.  0.
         12    1    1    2    0    0  0.19491576200E+02  0.18654332829E+02  0.36072258891E+02  0.45045682785E+02  0.00000000000E+00 0. -1.
         11    1    3    3    0    0 -0.34605958759E+01 -0.17030158918E+01 -0.28273924747E+01  0.47822730381E+01  0.51100000000E-03 0. -1.
        -11    1    3    3    0    0 -0.33855666813E+01 -0.88520619034E+00 -0.20309418542E+01  0.40460322328E+01  0.51100000000E-03 0.  1.
        -12    1    3    3    0    0 -0.12645413643E+02 -0.16066110747E+02 -0.31213924562E+02  0.37314011944E+02  0.00000000000E+00 0.  1.
</event>
<event>
 7    1  0.2313935E-008  0.4614232E+02  0.7816164E-02  0.1320468E+00
        -11   -1    0    0    0    0  0.00000000000E+00  0.00000000000E+00  0.45593999997E+02  0.45594000000E+02  0.51100000000E-03 0.  1.
         11   -1    0    0    0    0 -0.00000000000E+00 -0.00000000000E+00 -0.45593999997E+02  0.45594000000E+02  0.51100000000E-03 0. -1.
    9900012    2    1    2    0    0  0.19630423840E+02  0.39018153356E+02  0.11015611055E+02  0.46142317428E+02  0.99999969651E+01 0.  0.
         12    1    1    2    0    0 -0.19630423840E+02 -0.39018153356E+02 -0.11015611055E+02  0.45045682572E+02  0.00000000000E+00 0. -1.
         11    1    3    3    0    0  0.18412841146E+01  0.99691934447E+00 -0.79016293422E+00  0.22379752219E+01  0.51100000000E-03 0. -1.
        -11    1    3    3    0    0  0.14679362874E+02  0.28678029769E+02  0.70961833412E+01  0.32988920930E+02  0.51100000000E-03 0.  1.
         12    1    3    3    0    0  0.31097768513E+01  0.93432042422E+01  0.47095906482E+01  0.10915421277E+02  0.00000000000E+00 0. -1.
</event>
<event>
 7    1  0.2313935E-008  0.4614232E+02  0.7816164E-02  0.1320468E+00
        -11   -1    0    0    0    0  0.00000000000E+00  0.00000000000E+00  0.45593999997E+02  0.45594000000E+02  0.51100000000E-03 0. -1.
         11   -1    0    0    0    0 -0.00000000000E+00 -0.00000000000E+00 -0.45593999997E+02  0.45594000000E+02  0.51100000000E-03 0.  1.
    9900012    2    1    2    0    0  0.45884650935E+01  0.42917735265E+02  0.12889044474E+02  0.46142317858E+02  0.10000000884E+02 0.  0.
         12    1    1    2    0    0 -0.45884650935E+01 -0.42917735265E+02 -0.12889044474E+02  0.45045682142E+02  0.00000000000E+00 0. -1.
         11    1    3    3    0    0  0.97081149867E+00  0.21036173863E+02  0.81517273890E+01  0.22581269792E+02  0.51100000000E-03 0.  1.
        -11    1    3    3    0    0 -0.17908247349E+01  0.37464337038E+01  0.99851463912E+00  0.42708137953E+01  0.51100000000E-03 0. -1.
        -12    1    3    3    0    0  0.54084783297E+01  0.18135127699E+02  0.37388024456E+01  0.19290234271E+02  0.00000000000E+00 0.  1.
</event>
<event>
 7    1  0.2313935E-008  0.4614232E+02  0.7816164E-02  0.1320468E+00
        -11   -1    0    0    0    0  0.00000000000E+00  0.00000000000E+00  0.45593999997E+02  0.45594000000E+02  0.51100000000E-03 0. -1.
         11   -1    0    0    0    0 -0.00000000000E+00 -0.00000000000E+00 -0.45593999997E+02  0.45594000000E+02  0.51100000000E-03 0.  1.
    9900012    2    1    2    0    0  0.26676063078E+02  0.36296102051E+02 -0.30685993060E+00  0.46142317316E+02  0.99999959417E+01 0.  0.
         12    1    1    2    0    0 -0.26676063078E+02 -0.36296102051E+02  0.30685993060E+00  0.45045682684E+02  0.00000000000E+00 0. -1.
         11    1    3    3    0    0  0.21253404753E+01  0.86041900601E+01  0.71944438811E+00  0.88919491235E+01  0.51100000000E-03 0. -1.
        -11    1    3    3    0    0  0.15364782807E+02  0.16888828091E+02 -0.26134129644E+01  0.22981274825E+02  0.51100000000E-03 0.  1.
         12    1    3    3    0    0  0.91859397956E+01  0.10803083900E+02  0.15871086457E+01  0.14269093367E+02  0.00000000000E+00 0. -1.
</event>
<event>
 7    1  0.2313935E-008  0.4614232E+02  0.7816164E-02  0.1320468E+00
        -11   -1    0    0    0    0  0.00000000000E+00  0.00000000000E+00  0.45593999997E+02  0.45594000000E+02  0.51100000000E-03 0.  1.
         11   -1    0    0    0    0 -0.00000000000E+00 -0.00000000000E+00 -0.45593999997E+02  0.45594000000E+02  0.51100000000E-03 0. -1.
    9900012    2    1    2    0    0 -0.19371186836E+01  0.33297894100E+02  0.30275588181E+02  0.46142318519E+02  0.10000006916E+02 0.  0.
         12    1    1    2    0    0  0.19371186836E+01 -0.33297894100E+02 -0.30275588181E+02  0.45045681481E+02  0.00000000000E+00 0. -1.
         11    1    3    3    0    0  0.14449293857E+01  0.72142144746E+01  0.10288958459E+02  0.12648927933E+02  0.51100000000E-03 0. -1.
        -11    1    3    3    0    0 -0.22907593393E+01  0.65342279077E+01  0.78036229921E+01  0.10432652815E+02  0.51100000000E-03 0.  1.
         12    1    3    3    0    0 -0.10912887300E+01  0.19549451718E+02  0.12183006730E+02  0.23060737771E+02  0.00000000000E+00 0. -1.
</event>
<event>
 7    1  0.2313935E-008  0.4614232E+02  0.7816164E-02  0.1320468E+00
        -11   -1    0    0    0    0  0.00000000000E+00  0.00000000000E+00  0.45593999997E+02  0.45594000000E+02  0.51100000000E-03 0. -1.
         11   -1    0    0    0    0 -0.00000000000E+00 -0.00000000000E+00 -0.45593999997E+02  0.45594000000E+02  0.51100000000E-03 0.  1.
    9900012    2    1    2    0    0  0.18008753530E+02  0.34069715414E+02 -0.23324927888E+02  0.46142323481E+02  0.10000052157E+02 0.  0.
         12    1    1    2    0    0 -0.18008753530E+02 -0.34069715414E+02  0.23324927888E+02  0.45045676519E+02  0.00000000000E+00 0. -1.
         11    1    3    3    0    0  0.11557473790E+01  0.57023425812E+01 -0.13518607147E+01  0.59732730199E+01  0.51100000000E-03 0. -1.
        -11    1    3    3    0    0  0.95102518896E+01  0.14871641895E+02 -0.79213251633E+01  0.19348333682E+02  0.51100000000E-03 0.  1.
        -12    1    3    3    0    0  0.73427542616E+01  0.13495730938E+02 -0.14051742010E+02  0.20820716779E+02  0.00000000000E+00 0.  1.
</event>
<event>
 7    1  0.2313935E-008  0.4614232E+02  0.7816164E-02  0.1320468E+00
        -11   -1    0    0    0    0  0.00000000000E+00  0.00000000000E+00  0.45593999997E+02  0.45594000000E+02  0.51100000000E-03 0.  1.
         11   -1    0    0    0    0 -0.00000000000E+00 -0.00000000000E+00 -0.45593999997E+02  0.45594000000E+02  0.51100000000E-03 0. -1.
    9900012    2    1    2    0    0  0.31321775301E+02 -0.27127129294E+02  0.17668580610E+02  0.46142317715E+02  0.99999995812E+01 0.  0.
         12    1    1    2    0    0 -0.31321775301E+02  0.27127129294E+02 -0.17668580610E+02  0.45045682285E+02  0.00000000000E+00 0. -1.
         11    1    3    3    0    0  0.61182341742E+01 -0.34229232516E+01  0.56230424236E+01  0.89870907059E+01  0.51100000000E-03 0. -1.
        -11    1    3    3    0    0  0.17778452866E+02 -0.12603810743E+02  0.73464199309E+01  0.22997811149E+02  0.51100000000E-03 0.  1.
        -12    1    3    3    0    0  0.74250882601E+01 -0.11100395299E+02  0.46991182560E+01  0.14157415860E+02  0.00000000000E+00 0.  1.
</event>
<event>
 7    1  0.2313935E-008  0.4614232E+02  0.7816164E-02  0.1320468E+00
        -11   -1    0    0    0    0  0.00000000000E+00  0.00000000000E+00  0.45593999997E+02  0.45594000000E+02  0.51100000000E-03 0.  1.
         11   -1    0    0    0    0 -0.00000000000E+00 -0.00000000000E+00 -0.45593999997E+02  0.45594000000E+02  0.51100000000E-03 0. -1.
    9900012    2    1    2    0    0 -0.31322889224E+02  0.26613931916E+02  0.18430646700E+02  0.46142317642E+02  0.99999989100E+01 0.  0.
         12    1    1    2    0    0  0.31322889224E+02 -0.26613931916E+02 -0.18430646700E+02  0.45045682358E+02  0.00000000000E+00 0. -1.
         11    1    3    3    0    0 -0.23541968146E+02  0.15259406586E+02  0.13551107911E+02  0.31156159574E+02  0.51100000000E-03 0. -1.
        -11    1    3    3    0    0 -0.39624177442E+01  0.30483660369E+01  0.12749303946E+01  0.51593350004E+01  0.51100000000E-03 0.  1.
         12    1    3    3    0    0 -0.38185033338E+01  0.83061592932E+01  0.36046083944E+01  0.98268230670E+01  0.00000000000E+00 0. -1.
</event>
<event>
 7    1  0.2313935E-008  0.4614232E+02  0.7816164E-02  0.1320468E+00
        -11   -1    0    0    0    0  0.00000000000E+00  0.00000000000E+00  0.45593999997E+02  0.45594000000E+02  0.51100000000E-03 0. -1.
         11   -1    0    0    0    0 -0.00000000000E+00 -0.00000000000E+00 -0.45593999997E+02  0.45594000000E+02  0.51100000000E-03 0.  1.
    9900012    2    1    2    0    0  0.10014560626E+02 -0.67172546345E+01 -0.43401619272E+02  0.46142317745E+02  0.99999998562E+01 0.  0.
         12    1    1    2    0    0 -0.10014560626E+02  0.67172546345E+01  0.43401619272E+02  0.45045682255E+02  0.00000000000E+00 0. -1.
         11    1    3    3    0    0  0.53125052995E+01 -0.10241590546E+01 -0.21007797456E+02  0.21693297779E+02  0.51100000000E-03 0. -1.
        -11    1    3    3    0    0  0.23642693001E+01 -0.29472125872E-01 -0.13137031332E+02  0.13348117111E+02  0.51100000000E-03 0.  1.
         12    1    3    3    0    0  0.23377860260E+01 -0.56636234540E+01 -0.92567904842E+01  0.11100902855E+02  0.00000000000E+00 0. -1.
</event>
<event>
 7    1  0.2313935E-008  0.4614232E+02  0.7816164E-02  0.1320468E+00
        -11   -1    0    0    0    0  0.00000000000E+00  0.00000000000E+00  0.45593999997E+02  0.45594000000E+02  0.51100000000E-03 0.  1.
         11   -1    0    0    0    0 -0.00000000000E+00 -0.00000000000E+00 -0.45593999997E+02  0.45594000000E+02  0.51100000000E-03 0. -1.
    9900012    2    1    2    0    0  0.18291172688E+02  0.40777368830E+02  0.56349587986E+01  0.46142316881E+02  0.99999919730E+01 0.  0.
         12    1    1    2    0    0 -0.18291172688E+02 -0.40777368830E+02 -0.56349587986E+01  0.45045683119E+02  0.00000000000E+00 0. -1.
         11    1    3    3    0    0  0.93223528440E+01  0.11409732545E+02  0.14756766427E+01  0.14807629152E+02  0.51100000000E-03 0. -1.
        -11    1    3    3    0    0  0.94548866736E+01  0.26473385165E+02  0.35150785646E+01  0.28330033210E+02  0.51100000000E-03 0.  1.
         12    1    3    3    0    0 -0.48606682959E+00  0.28942511198E+01  0.64420359132E+00  0.30046545183E+01  0.00000000000E+00 0. -1.
</event>
<event>
 7    1  0.2313935E-008  0.4614231E+02  0.7816164E-02  0.1320468E+00
        -11   -1    0    0    0    0  0.00000000000E+00  0.00000000000E+00  0.45593999997E+02  0.45594000000E+02  0.51100000000E-03 0.  1.
         11   -1    0    0    0    0 -0.00000000000E+00 -0.00000000000E+00 -0.45593999997E+02  0.45594000000E+02  0.51100000000E-03 0. -1.
    9900012    2    1    2    0    0  0.21073397168E+02  0.39717916379E+02 -0.27409533777E+01  0.46142314578E+02  0.99999709760E+01 0.  0.
         12    1    1    2    0    0 -0.21073397168E+02 -0.39717916379E+02  0.27409533777E+01  0.45045685422E+02  0.00000000000E+00 0. -1.
         11    1    3    3    0    0  0.79854510009E+01  0.90904515454E+01 -0.25753978746E+00  0.12102481729E+02  0.51100000000E-03 0. -1.
        -11    1    3    3    0    0 -0.70774658302E+00  0.24976013892E+01 -0.52148147432E+00  0.26478030732E+01  0.51100000000E-03 0.  1.
        -12    1    3    3    0    0  0.13795692750E+02  0.28129863444E+02 -0.19619321159E+01  0.31392029776E+02  0.00000000000E+00 0.  1.
</event>
<event>
 7    1  0.2313935E-008  0.4614232E+02  0.7816164E-02  0.1320468E+00
        -11   -1    0    0    0    0  0.00000000000E+00  0.00000000000E+00  0.45593999997E+02  0.45594000000E+02  0.51100000000E-03 0.  1.
         11   -1    0    0    0    0 -0.00000000000E+00 -0.00000000000E+00 -0.45593999997E+02  0.45594000000E+02  0.51100000000E-03 0. -1.
    9900012    2    1    2    0    0  0.35681878389E+02 -0.26925610105E+02  0.55613493323E+01  0.46142317285E+02  0.99999956555E+01 0.  0.
         12    1    1    2    0    0 -0.35681878389E+02  0.26925610105E+02 -0.55613493323E+01  0.45045682715E+02  0.00000000000E+00 0. -1.
         11    1    3    3    0    0  0.75412081694E+01 -0.79101124961E+01  0.37045319242E+01  0.11539638530E+02  0.51100000000E-03 0. -1.
        -11    1    3    3    0    0  0.17504533446E+02 -0.14780274082E+02  0.29642092209E+01  0.23100903222E+02  0.51100000000E-03 0.  1.
         12    1    3    3    0    0  0.10636136774E+02 -0.42352235269E+01 -0.11073918128E+01  0.11501775533E+02  0.00000000000E+00 0. -1.
</event>
<event>
 7    1  0.2313935E-008  0.4614232E+02  0.7816164E-02  0.1320468E+00
        -11   -1    0    0    0    0  0.00000000000E+00  0.00000000000E+00  0.45593999997E+02  0.45594000000E+02  0.51100000000E-03 0.  1.
         11   -1    0    0    0    0 -0.00000000000E+00 -0.00000000000E+00 -0.45593999997E+02  0.45594000000E+02  0.51100000000E-03 0. -1.
    9900012    2    1    2    0    0 -0.71109793731E+01  0.10414240555E+02  0.43244549110E+02  0.46142318057E+02  0.10000002695E+02 0.  0.
         12    1    1    2    0    0  0.71109793731E+01 -0.10414240555E+02 -0.43244549110E+02  0.45045681943E+02  0.00000000000E+00 0. -1.
         11    1    3    3    0    0 -0.44755590279E+01  0.19268112628E+01  0.22577852551E+02  0.23097676427E+02  0.51100000000E-03 0. -1.
        -11    1    3    3    0    0 -0.25294229255E+01  0.90195662323E+01  0.17672656077E+02  0.20001833126E+02  0.51100000000E-03 0.  1.
        -12    1    3    3    0    0 -0.10599741967E+00 -0.53213693959E+00  0.29940404828E+01  0.30428085033E+01  0.00000000000E+00 0.  1.
</event>
<event>
 7    1  0.2313935E-008  0.4614232E+02  0.7816164E-02  0.1320468E+00
        -11   -1    0    0    0    0  0.00000000000E+00  0.00000000000E+00  0.45593999997E+02  0.45594000000E+02  0.51100000000E-03 0. -1.
         11   -1    0    0    0    0 -0.00000000000E+00 -0.00000000000E+00 -0.45593999997E+02  0.45594000000E+02  0.51100000000E-03 0.  1.
    9900012    2    1    2    0    0 -0.44558157309E+02 -0.35076114093E+01 -0.56018504954E+01  0.46142318192E+02  0.10000003933E+02 0.  0.
         12    1    1    2    0    0  0.44558157309E+02  0.35076114093E+01  0.56018504954E+01  0.45045681808E+02  0.00000000000E+00 0. -1.
         11    1    3    3    0    0 -0.58997283844E+01  0.17003510768E+01 -0.27051658241E+01  0.67093897779E+01  0.51100000000E-03 0. -1.
        -11    1    3    3    0    0 -0.10848529082E+02  0.39039153276E+00 -0.20821839581E+01  0.11053437433E+02  0.51100000000E-03 0.  1.
         12    1    3    3    0    0 -0.27809899842E+02 -0.55983540189E+01 -0.81450071328E+00  0.28379490981E+02  0.00000000000E+00 0. -1.
</event>
<event>
 7    1  0.2496928E-008  0.4614232E+02  0.7816164E-02  0.1320468E+00
        -11   -1    0    0    0    0  0.00000000000E+00  0.00000000000E+00  0.45593999997E+02  0.45594000000E+02  0.51100000000E-03 0.  1.
         11   -1    0    0    0    0 -0.00000000000E+00 -0.00000000000E+00 -0.45593999997E+02  0.45594000000E+02  0.51100000000E-03 0. -1.
    9900012    2    1    2    0    0 -0.37959158733E+02 -0.15934942383E+02 -0.18283690771E+02  0.46142317980E+02  0.10000001993E+02 0.  0.
         12    1    1    2    0    0  0.37959158733E+02  0.15934942383E+02  0.18283690771E+02  0.45045682020E+02  0.00000000000E+00 0. -1.
         11    1    3    3    0    0 -0.85471860549E-01 -0.15252667879E+01 -0.94177654412E+00  0.17946274080E+01  0.51100000000E-03 0. -1.
        -11    1    3    3    0    0 -0.39389106202E+00 -0.81031776991E+00 -0.93076943506E-01  0.90577515725E+00  0.51100000000E-03 0.  1.
        -12    1    3    3    0    0 -0.37479795810E+02 -0.13599357825E+02 -0.17248837283E+02  0.43441915414E+02  0.00000000000E+00 0.  1.
</event>
<event>
 7    1  0.2313935E-008  0.4614232E+02  0.7816164E-02  0.1320468E+00
        -11   -1    0    0    0    0  0.00000000000E+00  0.00000000000E+00  0.45593999997E+02  0.45594000000E+02  0.51100000000E-03 0.  1.
         11   -1    0    0    0    0 -0.00000000000E+00 -0.00000000000E+00 -0.45593999997E+02  0.45594000000E+02  0.51100000000E-03 0. -1.
    9900012    2    1    2    0    0  0.29801489432E+02 -0.43689301925E+01  0.33494733236E+02  0.46142317877E+02  0.10000001057E+02 0.  0.
         12    1    1    2    0    0 -0.29801489432E+02  0.43689301925E+01 -0.33494733236E+02  0.45045682123E+02  0.00000000000E+00 0. -1.
         11    1    3    3    0    0 -0.55856045260E+00  0.91380142722E-01 -0.85760080402E-01  0.57244664572E+00  0.51100000000E-03 0. -1.
        -11    1    3    3    0    0  0.65362576713E+01 -0.20911715044E+01  0.73061720719E+01  0.10023762428E+02  0.51100000000E-03 0.  1.
        -12    1    3    3    0    0  0.23823792213E+02 -0.23691388307E+01  0.26274321245E+02  0.35546108803E+02  0.00000000000E+00 0.  1.
</event>
<event>
 7    1  0.2313935E-008  0.4614232E+02  0.7816164E-02  0.1320468E+00
        -11   -1    0    0    0    0  0.00000000000E+00  0.00000000000E+00  0.45593999997E+02  0.45594000000E+02  0.51100000000E-03 0.  1.
         11   -1    0    0    0    0 -0.00000000000E+00 -0.00000000000E+00 -0.45593999997E+02  0.45594000000E+02  0.51100000000E-03 0. -1.
    9900012    2    1    2    0    0  0.20890516998E+02  0.30662426055E+02 -0.25544380850E+02  0.46142318020E+02  0.10000002363E+02 0.  0.
         12    1    1    2    0    0 -0.20890516998E+02 -0.30662426055E+02  0.25544380850E+02  0.45045681980E+02  0.00000000000E+00 0. -1.
         11    1    3    3    0    0  0.49506628429E+01  0.60300951451E+01 -0.69361051632E+01  0.10439380496E+02  0.51100000000E-03 0. -1.
        -11    1    3    3    0    0  0.16342892582E+02  0.23862565903E+02 -0.16217144590E+02  0.33158829417E+02  0.51100000000E-03 0.  1.
         12    1    3    3    0    0 -0.40303842620E+00  0.76976500686E+00 -0.23911310969E+01  0.25441081073E+01  0.00000000000E+00 0. -1.
</event>
<event>
 7    1  0.2313935E-008  0.4614232E+02  0.7816164E-02  0.1320468E+00
        -11   -1    0    0    0    0  0.00000000000E+00  0.00000000000E+00  0.45593999997E+02  0.45594000000E+02  0.51100000000E-03 0.  1.
         11   -1    0    0    0    0 -0.00000000000E+00 -0.00000000000E+00 -0.45593999997E+02  0.45594000000E+02  0.51100000000E-03 0. -1.
    9900012    2    1    2    0    0  0.69572588907E+01 -0.98366354015E+01  0.43404499874E+02  0.46142318114E+02  0.10000003216E+02 0.  0.
         12    1    1    2    0    0 -0.69572588907E+01  0.98366354015E+01 -0.43404499874E+02  0.45045681886E+02  0.00000000000E+00 0. -1.
         11    1    3    3    0    0 -0.15464740510E+01 -0.87782331868E+00  0.23748260008E+01  0.29668088184E+01  0.51100000000E-03 0. -1.
        -11    1    3    3    0    0  0.68838103876E+01 -0.58940262192E+01  0.21363598779E+02  0.23206243633E+02  0.51100000000E-03 0.  1.
         12    1    3    3    0    0  0.16199225541E+01 -0.30647858636E+01  0.19666075094E+02  0.19969265662E+02  0.00000000000E+00 0. -1.
</event>
<event>
 7    1  0.2313935E-008  0.4614232E+02  0.7816164E-02  0.1320468E+00
        -11   -1    0    0    0    0  0.00000000000E+00  0.00000000000E+00  0.45593999997E+02  0.45594000000E+02  0.51100000000E-03 0.  1.
         11   -1    0    0    0    0 -0.00000000000E+00 -0.00000000000E+00 -0.45593999997E+02  0.45594000000E+02  0.51100000000E-03 0. -1.
    9900012    2    1    2    0    0 -0.38969768798E+02  0.13473923422E+02  0.18136260314E+02  0.46142318400E+02  0.10000005830E+02 0.  0.
         12    1    1    2    0    0  0.38969768798E+02 -0.13473923422E+02 -0.18136260314E+02  0.45045681600E+02  0.00000000000E+00 0. -1.
         11    1    3    3    0    0 -0.30880014539E+01  0.32029772364E+01  0.36435434629E+00  0.44640307466E+01  0.51100000000E-03 0. -1.
        -11    1    3    3    0    0 -0.24741126666E+02  0.95339618513E+01  0.11885024711E+02  0.29056386388E+02  0.51100000000E-03 0.  1.
         12    1    3    3    0    0 -0.11140640678E+02  0.73698433487E+00  0.58868812572E+01  0.12621901266E+02  0.00000000000E+00 0. -1.
</event>
<event>
 7    1  0.2313935E-008  0.4614232E+02  0.7816164E-02  0.1320468E+00
        -11   -1    0    0    0    0  0.00000000000E+00  0.00000000000E+00  0.45593999997E+02  0.45594000000E+02  0.51100000000E-03 0.  1.
         11   -1    0    0    0    0 -0.00000000000E+00 -0.00000000000E+00 -0.45593999997E+02  0.45594000000E+02  0.51100000000E-03 0. -1.
    9900012    2    1    2    0    0 -0.19495550167E+02 -0.74743247297E+00  0.40601457246E+02  0.46142318052E+02  0.10000002655E+02 0.  0.
         12    1    1    2    0    0  0.19495550167E+02  0.74743247297E+00 -0.40601457246E+02  0.45045681948E+02  0.00000000000E+00 0. -1.
         11    1    3    3    0    0 -0.21099915681E+00  0.15897805890E+01  0.18726596673E+01  0.24655176852E+01  0.51100000000E-03 0. -1.
        -11    1    3    3    0    0 -0.64267206243E+01 -0.91540941433E-01  0.18668188271E+02  0.19743666612E+02  0.51100000000E-03 0.  1.
         12    1    3    3    0    0 -0.12857830386E+02 -0.22456721205E+01  0.20060609309E+02  0.23933133755E+02  0.00000000000E+00 0. -1.
</event>
<event>
 7    1  0.2313935E-008  0.4614232E+02  0.7816164E-02  0.1320468E+00
        -11   -1    0    0    0    0  0.00000000000E+00  0.00000000000E+00  0.45593999997E+02  0.45594000000E+02  0.51100000000E-03 0.  1.
         11   -1    0    0    0    0 -0.00000000000E+00 -0.00000000000E+00 -0.45593999997E+02  0.45594000000E+02  0.51100000000E-03 0. -1.
    9900012    2    1    2    0    0  0.33660752545E+02  0.21331111033E+02 -0.21001213391E+02  0.46142317369E+02  0.99999964231E+01 0.  0.
         12    1    1    2    0    0 -0.33660752545E+02 -0.21331111033E+02  0.21001213391E+02  0.45045682631E+02  0.00000000000E+00 0. -1.
         11    1    3    3    0    0  0.19916367801E+02  0.15512396515E+02 -0.84914998419E+01  0.26634596333E+02  0.51100000000E-03 0.  1.
        -11    1    3    3    0    0  0.83012727858E+01  0.39432117759E+01 -0.71823585785E+01  0.11663889745E+02  0.51100000000E-03 0. -1.
        -12    1    3    3    0    0  0.54431119582E+01  0.18755027424E+01 -0.53273549709E+01  0.78438312904E+01  0.00000000000E+00 0.  1.
</event>
<event>
 7    1  0.2313935E-008  0.4614232E+02  0.7816164E-02  0.1320468E+00
        -11   -1    0    0    0    0  0.00000000000E+00  0.00000000000E+00  0.45593999997E+02  0.45594000000E+02  0.51100000000E-03 0.  1.
         11   -1    0    0    0    0 -0.00000000000E+00 -0.00000000000E+00 -0.45593999997E+02  0.45594000000E+02  0.51100000000E-03 0. -1.
    9900012    2    1    2    0    0  0.14908134218E+02 -0.24653375598E+02  0.34627620538E+02  0.46142317650E+02  0.99999989826E+01 0.  0.
         12    1    1    2    0    0 -0.14908134218E+02  0.24653375598E+02 -0.34627620538E+02  0.45045682350E+02  0.00000000000E+00 0. -1.
         11    1    3    3    0    0  0.83477304831E+01 -0.15758743527E+02  0.16302706785E+02  0.24161971164E+02  0.51100000000E-03 0.  1.
        -11    1    3    3    0    0  0.14073844825E+01 -0.27023829864E+01  0.16583961448E+01  0.34689887462E+01  0.51100000000E-03 0. -1.
        -12    1    3    3    0    0  0.51530192528E+01 -0.61922490854E+01  0.16666517609E+02  0.18511357739E+02  0.00000000000E+00 0.  1.
</event>
<event>
 7    1  0.2313935E-008  0.4614232E+02  0.7816164E-02  0.1320468E+00
        -11   -1    0    0    0    0  0.00000000000E+00  0.00000000000E+00  0.45593999997E+02  0.45594000000E+02  0.51100000000E-03 0.  1.
         11   -1    0    0    0    0 -0.00000000000E+00 -0.00000000000E+00 -0.45593999997E+02  0.45594000000E+02  0.51100000000E-03 0. -1.
    9900012    2    1    2    0    0 -0.94978599714E+00 -0.52077588726E+00  0.45032657643E+02  0.46142317018E+02  0.99999932233E+01 0.  0.
         12    1    1    2    0    0  0.94978599714E+00  0.52077588726E+00 -0.45032657643E+02  0.45045682982E+02  0.00000000000E+00 0. -1.
         11    1    3    3    0    0 -0.20369693327E+01  0.22510599075E+01  0.12234291514E+02  0.12605332359E+02  0.51100000000E-03 0. -1.
        -11    1    3    3    0    0 -0.17807262137E+01  0.85957184859E+00  0.15681803195E+02  0.15805973596E+02  0.51100000000E-03 0.  1.
         12    1    3    3    0    0  0.28679095493E+01 -0.36314076433E+01  0.17116562934E+02  0.17731011063E+02  0.00000000000E+00 0. -1.
</event>
<event>
 7    1  0.2313935E-008  0.4614232E+02  0.7816164E-02  0.1320468E+00
        -11   -1    0    0    0    0  0.00000000000E+00  0.00000000000E+00  0.45593999997E+02  0.45594000000E+02  0.51100000000E-03 0.  1.
         11   -1    0    0    0    0 -0.00000000000E+00 -0.00000000000E+00 -0.45593999997E+02  0.45594000000E+02  0.51100000000E-03 0. -1.
    9900012    2    1    2    0    0 -0.12574254868E+02 -0.35049751520E+02  0.25347910590E+02  0.46142317206E+02  0.99999949379E+01 0.  0.
         12    1    1    2    0    0  0.12574254868E+02  0.35049751520E+02 -0.25347910590E+02  0.45045682794E+02  0.00000000000E+00 0. -1.
         11    1    3    3    0    0 -0.10098309693E+02 -0.20717212344E+02  0.18422548816E+02  0.29505407151E+02  0.51100000000E-03 0.  1.
        -11    1    3    3    0    0 -0.15810798477E+01 -0.10586084274E+02  0.69913134613E+01  0.12784500691E+02  0.51100000000E-03 0. -1.
        -12    1    3    3    0    0 -0.89486532788E+00 -0.37464549016E+01 -0.65951687998E-01  0.38524093643E+01  0.00000000000E+00 0.  1.
</event>
<event>
 7    1  0.2313935E-008  0.4614231E+02  0.7816164E-02  0.1320468E+00
        -11   -1    0    0    0    0  0.00000000000E+00  0.00000000000E+00  0.45593999997E+02  0.45594000000E+02  0.51100000000E-03 0.  1.
         11   -1    0    0    0    0 -0.00000000000E+00 -0.00000000000E+00 -0.45593999997E+02  0.45594000000E+02  0.51100000000E-03 0. -1.
    9900012    2    1    2    0    0  0.40527774351E+02 -0.44256204078E+00  0.19657502240E+02  0.46142314865E+02  0.99999735890E+01 0.  0.
         12    1    1    2    0    0 -0.40527774351E+02  0.44256204078E+00 -0.19657502240E+02  0.45045685135E+02  0.00000000000E+00 0. -1.
         11    1    3    3    0    0  0.11098293412E+02  0.64587022877E+00  0.56427196509E+01  0.12467138819E+02  0.51100000000E-03 0.  1.
        -11    1    3    3    0    0  0.22894464449E+02 -0.47413834983E-01  0.67951433762E+01  0.23881639898E+02  0.51100000000E-03 0. -1.
         12    1    3    3    0    0  0.65350164894E+01 -0.10410184346E+01  0.72196392130E+01  0.97935361470E+01  0.00000000000E+00 0. -1.
</event>
<event>
 7    1  0.2313935E-008  0.4614232E+02  0.7816164E-02  0.1320468E+00
        -11   -1    0    0    0    0  0.00000000000E+00  0.00000000000E+00  0.45593999997E+02  0.45594000000E+02  0.51100000000E-03 0.  1.
         11   -1    0    0    0    0 -0.00000000000E+00 -0.00000000000E+00 -0.45593999997E+02  0.45594000000E+02  0.51100000000E-03 0. -1.
    9900012    2    1    2    0    0 -0.25537443750E+01 -0.37311430913E+02  0.25108743671E+02  0.46142317678E+02  0.99999992406E+01 0.  0.
         12    1    1    2    0    0  0.25537443750E+01  0.37311430913E+02 -0.25108743671E+02  0.45045682322E+02  0.00000000000E+00 0. -1.
         11    1    3    3    0    0 -0.25943915693E+00 -0.16266140221E+02  0.83311379359E+01  0.18277376342E+02  0.51100000000E-03 0.  1.
        -11    1    3    3    0    0 -0.22620580208E+01 -0.20338559967E+02  0.13509228801E+02  0.24520872560E+02  0.51100000000E-03 0. -1.
         12    1    3    3    0    0 -0.32247197188E-01 -0.70673072497E+00  0.32683769336E+01  0.33440687761E+01  0.00000000000E+00 0. -1.
</event>
<event>
 7    1  0.2313935E-008  0.4614232E+02  0.7816164E-02  0.1320468E+00
        -11   -1    0    0    0    0  0.00000000000E+00  0.00000000000E+00  0.45593999997E+02  0.45594000000E+02  0.51100000000E-03 0. -1.
         11   -1    0    0    0    0 -0.00000000000E+00 -0.00000000000E+00 -0.45593999997E+02  0.45594000000E+02  0.51100000000E-03 0.  1.
    9900012    2    1    2    0    0  0.37380034539E+02  0.24608865867E+02 -0.51234902367E+01  0.46142318591E+02  0.10000007566E+02 0.  0.
         12    1    1    2    0    0 -0.37380034539E+02 -0.24608865867E+02  0.51234902367E+01  0.45045681409E+02  0.00000000000E+00 0. -1.
         11    1    3    3    0    0  0.26948941734E+02  0.14949393457E+02 -0.35423239470E+01  0.31020604193E+02  0.51100000000E-03 0. -1.
        -11    1    3    3    0    0  0.47352862335E+01  0.45276983242E+01 -0.31918315880E+01  0.72877141118E+01  0.51100000000E-03 0.  1.
         12    1    3    3    0    0  0.56958065717E+01  0.51317740866E+01  0.16106652982E+01  0.78340002860E+01  0.00000000000E+00 0. -1.
</event>
<event>
 7    1  0.2313935E-008  0.4614232E+02  0.7816164E-02  0.1320468E+00
        -11   -1    0    0    0    0  0.00000000000E+00  0.00000000000E+00  0.45593999997E+02  0.45594000000E+02  0.51100000000E-03 0. -1.
         11   -1    0    0    0    0 -0.00000000000E+00 -0.00000000000E+00 -0.45593999997E+02  0.45594000000E+02  0.51100000000E-03 0.  1.
    9900012    2    1    2    0    0  0.24539851503E+02  0.35793613268E+02 -0.12071710040E+02  0.46142320453E+02  0.10000024546E+02 0.  0.
         12    1    1    2    0    0 -0.24539851503E+02 -0.35793613268E+02  0.12071710040E+02  0.45045679547E+02  0.00000000000E+00 0. -1.
         11    1    3    3    0    0  0.37576637153E+01  0.11890201251E+02 -0.48179900187E+01  0.13368244106E+02  0.51100000000E-03 0. -1.
        -11    1    3    3    0    0  0.15426529607E+02  0.19617908322E+02 -0.69577206322E+01  0.25908493189E+02  0.51100000000E-03 0.  1.
         12    1    3    3    0    0  0.53556581809E+01  0.42855036942E+01 -0.29599938888E+00  0.68655831582E+01  0.00000000000E+00 0. -1.
</event>
<event>
 7    1  0.2313935E-008  0.4614232E+02  0.7816164E-02  0.1320468E+00
        -11   -1    0    0    0    0  0.00000000000E+00  0.00000000000E+00  0.45593999997E+02  0.45594000000E+02  0.51100000000E-03 0.  1.
         11   -1    0    0    0    0 -0.00000000000E+00 -0.00000000000E+00 -0.45593999997E+02  0.45594000000E+02  0.51100000000E-03 0. -1.
    9900012    2    1    2    0    0 -0.39804616998E-01 -0.34052418785E+02  0.29488042961E+02  0.46142317775E+02  0.10000000123E+02 0.  0.
         12    1    1    2    0    0  0.39804616998E-01  0.34052418785E+02 -0.29488042961E+02  0.45045682225E+02  0.00000000000E+00 0. -1.
         11    1    3    3    0    0 -0.22084454153E+01 -0.78600558446E+01  0.73361552737E+01  0.10976196222E+02  0.51100000000E-03 0. -1.
        -11    1    3    3    0    0  0.69536664634E+00 -0.10997536377E+02  0.14135679182E+02  0.17923358148E+02  0.51100000000E-03 0.  1.
         12    1    3    3    0    0  0.14732741520E+01 -0.15194826564E+02  0.80162085051E+01  0.17242763405E+02  0.00000000000E+00 0. -1.
</event>
<event>
 7    1  0.2313935E-008  0.4614232E+02  0.7816164E-02  0.1320468E+00
        -11   -1    0    0    0    0  0.00000000000E+00  0.00000000000E+00  0.45593999997E+02  0.45594000000E+02  0.51100000000E-03 0.  1.
         11   -1    0    0    0    0 -0.00000000000E+00 -0.00000000000E+00 -0.45593999997E+02  0.45594000000E+02  0.51100000000E-03 0. -1.
    9900012    2    1    2    0    0  0.32163158983E+02  0.88116466446E+01  0.30282000319E+02  0.46142318123E+02  0.10000003304E+02 0.  0.
         12    1    1    2    0    0 -0.32163158983E+02 -0.88116466446E+01 -0.30282000319E+02  0.45045681877E+02  0.00000000000E+00 0. -1.
         11    1    3    3    0    0  0.12263642645E+02  0.18695763495E+01  0.89316071061E+01  0.15286132683E+02  0.51100000000E-03 0. -1.
        -11    1    3    3    0    0  0.10600713784E+02 -0.30500518701E-01  0.11255794868E+02  0.15461855690E+02  0.51100000000E-03 0.  1.
         12    1    3    3    0    0  0.92988025551E+01  0.69725708139E+01  0.10094598346E+02  0.15394329751E+02  0.00000000000E+00 0. -1.
</event>
<event>
 7    1  0.2313935E-008  0.4614232E+02  0.7816164E-02  0.1320468E+00
        -11   -1    0    0    0    0  0.00000000000E+00  0.00000000000E+00  0.45593999997E+02  0.45594000000E+02  0.51100000000E-03 0.  1.
         11   -1    0    0    0    0 -0.00000000000E+00 -0.00000000000E+00 -0.45593999997E+02  0.45594000000E+02  0.51100000000E-03 0. -1.
    9900012    2    1    2    0    0 -0.81803082031E+01  0.35006043062E+02  0.27143562575E+02  0.46142317827E+02  0.10000000598E+02 0.  0.
         12    1    1    2    0    0  0.81803082031E+01 -0.35006043062E+02 -0.27143562575E+02  0.45045682173E+02  0.00000000000E+00 0. -1.
         11    1    3    3    0    0  0.15458286948E+01  0.22336610265E+01  0.15654593760E+01  0.31352019479E+01  0.51100000000E-03 0. -1.
        -11    1    3    3    0    0 -0.21992520347E+01  0.13625241404E+02  0.80386835889E+01  0.15971986318E+02  0.51100000000E-03 0.  1.
         12    1    3    3    0    0 -0.75268848631E+01  0.19147140632E+02  0.17539419610E+02  0.27035129561E+02  0.00000000000E+00 0. -1.
</event>
<event>
 7    1  0.2313935E-008  0.4614232E+02  0.7816164E-02  0.1320468E+00
        -11   -1    0    0    0    0  0.00000000000E+00  0.00000000000E+00  0.45593999997E+02  0.45594000000E+02  0.51100000000E-03 0. -1.
         11   -1    0    0    0    0 -0.00000000000E+00 -0.00000000000E+00 -0.45593999997E+02  0.45594000000E+02  0.51100000000E-03 0.  1.
    9900012    2    1    2    0    0 -0.99670505274E+01 -0.43598315332E+02 -0.53812963599E+01  0.46142317116E+02  0.99999941138E+01 0.  0.
         12    1    1    2    0    0  0.99670505274E+01  0.43598315332E+02  0.53812963599E+01  0.45045682884E+02  0.00000000000E+00 0. -1.
         11    1    3    3    0    0 -0.22168782601E+01 -0.30776016900E+01  0.12903485205E+01  0.40063925105E+01  0.51100000000E-03 0. -1.
        -11    1    3    3    0    0 -0.18634379354E+01 -0.23360713949E+02 -0.45241437682E+01  0.23867618948E+02  0.51100000000E-03 0.  1.
        -12    1    3    3    0    0 -0.58867343318E+01 -0.17159999693E+02 -0.21475011122E+01  0.18268305657E+02  0.00000000000E+00 0.  1.
</event>
<event>
 7    1  0.2313935E-008  0.4614232E+02  0.7816164E-02  0.1320468E+00
        -11   -1    0    0    0    0  0.00000000000E+00  0.00000000000E+00  0.45593999997E+02  0.45594000000E+02  0.51100000000E-03 0.  1.
         11   -1    0    0    0    0 -0.00000000000E+00 -0.00000000000E+00 -0.45593999997E+02  0.45594000000E+02  0.51100000000E-03 0. -1.
    9900012    2    1    2    0    0  0.30498854733E+02  0.32166098035E+02 -0.80172009731E+01  0.46142317474E+02  0.99999973783E+01 0.  0.
         12    1    1    2    0    0 -0.30498854733E+02 -0.32166098035E+02  0.80172009731E+01  0.45045682526E+02  0.00000000000E+00 0. -1.
         11    1    3    3    0    0  0.20059739126E+02  0.17239796606E+02 -0.31995098862E+01  0.26642833645E+02  0.51100000000E-03 0. -1.
        -11    1    3    3    0    0  0.81052227700E+01  0.81627778113E+01 -0.14588361169E+01  0.11595420683E+02  0.51100000000E-03 0.  1.
         12    1    3    3    0    0  0.23338928363E+01  0.67635236176E+01 -0.33588549701E+01  0.79040631455E+01  0.00000000000E+00 0. -1.
</event>
<event>
 7    1  0.2313935E-008  0.4614232E+02  0.7816164E-02  0.1320468E+00
        -11   -1    0    0    0    0  0.00000000000E+00  0.00000000000E+00  0.45593999997E+02  0.45594000000E+02  0.51100000000E-03 0.  1.
         11   -1    0    0    0    0 -0.00000000000E+00 -0.00000000000E+00 -0.45593999997E+02  0.45594000000E+02  0.51100000000E-03 0. -1.
    9900012    2    1    2    0    0 -0.20976863999E+01 -0.44371941731E+02 -0.74728828238E+01  0.46142317866E+02  0.10000000958E+02 0.  0.
         12    1    1    2    0    0  0.20976863999E+01  0.44371941731E+02  0.74728828238E+01  0.45045682134E+02  0.00000000000E+00 0. -1.
         11    1    3    3    0    0  0.21321448424E+00 -0.16349602376E+01  0.82302818484E+00  0.18428052119E+01  0.51100000000E-03 0. -1.
        -11    1    3    3    0    0  0.19762810097E+01 -0.48262507526E+01 -0.22127931478E+01  0.56652305101E+01  0.51100000000E-03 0.  1.
        -12    1    3    3    0    0 -0.42871818939E+01 -0.37910730741E+02 -0.60831178608E+01  0.38634282144E+02  0.00000000000E+00 0.  1.
</event>
<event>
 7    1  0.2313935E-008  0.4614232E+02  0.7816164E-02  0.1320468E+00
        -11   -1    0    0    0    0  0.00000000000E+00  0.00000000000E+00  0.45593999997E+02  0.45594000000E+02  0.51100000000E-03 0.  1.
         11   -1    0    0    0    0 -0.00000000000E+00 -0.00000000000E+00 -0.45593999997E+02  0.45594000000E+02  0.51100000000E-03 0. -1.
    9900012    2    1    2    0    0 -0.40471706403E+02 -0.18105558437E+02  0.79588477860E+01  0.46142317370E+02  0.99999964368E+01 0.  0.
         12    1    1    2    0    0  0.40471706403E+02  0.18105558437E+02 -0.79588477860E+01  0.45045682630E+02  0.00000000000E+00 0. -1.
         11    1    3    3    0    0 -0.35689356267E+01 -0.17500506659E+01  0.90672933412E+00  0.40770255318E+01  0.51100000000E-03 0. -1.
        -11    1    3    3    0    0 -0.29579420837E+02 -0.92799398725E+01  0.74162674468E+01  0.31875703039E+02  0.51100000000E-03 0.  1.
         12    1    3    3    0    0 -0.73233499390E+01 -0.70755678988E+01 -0.36414899499E+00  0.10189588800E+02  0.00000000000E+00 0. -1.
</event>
<event>
 7    1  0.2313935E-008  0.4614232E+02  0.7816164E-02  0.1320468E+00
        -11   -1    0    0    0    0  0.00000000000E+00  0.00000000000E+00  0.45593999997E+02  0.45594000000E+02  0.51100000000E-03 0. -1.
         11   -1    0    0    0    0 -0.00000000000E+00 -0.00000000000E+00 -0.45593999997E+02  0.45594000000E+02  0.51100000000E-03 0.  1.
    9900012    2    1    2    0    0 -0.26196864499E+02  0.27739177453E+02 -0.23945267354E+02  0.46142317588E+02  0.99999984193E+01 0.  0.
         12    1    1    2    0    0  0.26196864499E+02 -0.27739177453E+02  0.23945267354E+02  0.45045682412E+02  0.00000000000E+00 0. -1.
         11    1    3    3    0    0 -0.42368963781E+01  0.56128872389E+01 -0.63074032200E+01  0.94466464799E+01  0.51100000000E-03 0. -1.
        -11    1    3    3    0    0 -0.12402382562E+02  0.15644705006E+02 -0.14663078414E+02  0.24770582488E+02  0.51100000000E-03 0.  1.
         12    1    3    3    0    0 -0.95575855585E+01  0.64815852083E+01 -0.29747857195E+01  0.11925088620E+02  0.00000000000E+00 0. -1.
</event>
<event>
 7    1  0.2313935E-008  0.4614232E+02  0.7816164E-02  0.1320468E+00
        -11   -1    0    0    0    0  0.00000000000E+00  0.00000000000E+00  0.45593999997E+02  0.45594000000E+02  0.51100000000E-03 0.  1.
         11   -1    0    0    0    0 -0.00000000000E+00 -0.00000000000E+00 -0.45593999997E+02  0.45594000000E+02  0.51100000000E-03 0. -1.
    9900012    2    1    2    0    0 -0.35559494162E+02  0.27017843534E+02 -0.58882846363E+01  0.46142318851E+02  0.10000009936E+02 0.  0.
         12    1    1    2    0    0  0.35559494162E+02 -0.27017843534E+02  0.58882846363E+01  0.45045681149E+02  0.00000000000E+00 0. -1.
         11    1    3    3    0    0 -0.15167023578E+02  0.63794921821E+01 -0.15578853621E+01  0.16527659597E+02  0.51100000000E-03 0. -1.
        -11    1    3    3    0    0 -0.11918830923E+02  0.11440715651E+02 -0.47528847846E+00  0.16527988522E+02  0.51100000000E-03 0.  1.
        -12    1    3    3    0    0 -0.84736396610E+01  0.91976357007E+01 -0.38551107958E+01  0.13086670732E+02  0.00000000000E+00 0.  1.
</event>
<event>
 7    1  0.2313935E-008  0.4614232E+02  0.7816164E-02  0.1320468E+00
        -11   -1    0    0    0    0  0.00000000000E+00  0.00000000000E+00  0.45593999997E+02  0.45594000000E+02  0.51100000000E-03 0.  1.
         11   -1    0    0    0    0 -0.00000000000E+00 -0.00000000000E+00 -0.45593999997E+02  0.45594000000E+02  0.51100000000E-03 0. -1.
    9900012    2    1    2    0    0 -0.17637291584E+02 -0.14799039238E+02  0.38717282776E+02  0.46142316496E+02  0.99999884595E+01 0.  0.
         12    1    1    2    0    0  0.17637291584E+02  0.14799039238E+02 -0.38717282776E+02  0.45045683504E+02  0.00000000000E+00 0. -1.
         11    1    3    3    0    0 -0.54592491737E+01 -0.57699690981E+01  0.17721635979E+02  0.19420410061E+02  0.51100000000E-03 0. -1.
        -11    1    3    3    0    0 -0.59904905760E+01 -0.83896213317E+01  0.12971350387E+02  0.16568876080E+02  0.51100000000E-03 0.  1.
         12    1    3    3    0    0 -0.61875518347E+01 -0.63944880827E+00  0.80242964106E+01  0.10153030354E+02  0.00000000000E+00 0. -1.
</event>
<event>
 7    1  0.2313935E-008  0.4614232E+02  0.7816164E-02  0.1320468E+00
        -11   -1    0    0    0    0  0.00000000000E+00  0.00000000000E+00  0.45593999997E+02  0.45594000000E+02  0.51100000000E-03 0.  1.
         11   -1    0    0    0    0 -0.00000000000E+00 -0.00000000000E+00 -0.45593999997E+02  0.45594000000E+02  0.51100000000E-03 0. -1.
    9900012    2    1    2    0    0 -0.40215909991E+02  0.22158445514E+01  0.20171368000E+02  0.46142317960E+02  0.10000001811E+02 0.  0.
         12    1    1    2    0    0  0.40215909991E+02 -0.22158445514E+01 -0.20171368000E+02  0.45045682040E+02  0.00000000000E+00 0. -1.
         11    1    3    3    0    0 -0.13399510194E+02  0.16978208577E+01  0.24784627586E+01  0.13732161047E+02  0.51100000000E-03 0. -1.
        -11    1    3    3    0    0 -0.74235805746E+01  0.20183189048E+01  0.54314928138E+01  0.94172328311E+01  0.51100000000E-03 0.  1.
         12    1    3    3    0    0 -0.19392819222E+02 -0.15002952111E+01  0.12261412428E+02  0.22992924081E+02  0.00000000000E+00 0. -1.
</event>
<event>
 7    1  0.3188952E-008  0.4614232E+02  0.7816164E-02  0.1320468E+00
        -11   -1    0    0    0    0  0.00000000000E+00  0.00000000000E+00  0.45593999997E+02  0.45594000000E+02  0.51100000000E-03 0.  1.
         11   -1    0    0    0    0 -0.00000000000E+00 -0.00000000000E+00 -0.45593999997E+02  0.45594000000E+02  0.51100000000E-03 0. -1.
    9900012    2    1    2    0    0  0.27318264168E+01  0.44657033200E+02  0.52344908237E+01  0.46142318919E+02  0.10000010562E+02 0.  0.
         12    1    1    2    0    0 -0.27318264168E+01 -0.44657033200E+02 -0.52344908237E+01  0.45045681081E+02  0.00000000000E+00 0. -1.
         11    1    3    3    0    0  0.12319342930E+01  0.81021974911E+01 -0.81314064346E+00  0.82355609557E+01  0.51100000000E-03 0. -1.
        -11    1    3    3    0    0  0.20360095413E+01  0.32044105115E+02  0.26185905438E+01  0.32215322816E+02  0.51100000000E-03 0.  1.
         12    1    3    3    0    0 -0.53611741754E+00  0.45107305944E+01  0.34290409234E+01  0.56914351472E+01  0.00000000000E+00 0. -1.
</event>
<event>
 7    1  0.2313935E-008  0.4614231E+02  0.7816164E-02  0.1320468E+00
        -11   -1    0    0    0    0  0.00000000000E+00  0.00000000000E+00  0.45593999997E+02  0.45594000000E+02  0.51100000000E-03 0. -1.
         11   -1    0    0    0    0 -0.00000000000E+00 -0.00000000000E+00 -0.45593999997E+02  0.45594000000E+02  0.51100000000E-03 0.  1.
    9900012    2    1    2    0    0  0.16817861004E+02  0.39199897441E+02 -0.14478996542E+02  0.46142314868E+02  0.99999736207E+01 0.  0.
         12    1    1    2    0    0 -0.16817861004E+02 -0.39199897441E+02  0.14478996542E+02  0.45045685132E+02  0.00000000000E+00 0. -1.
         11    1    3    3    0    0  0.32800730262E+01  0.28854383509E+01 -0.17357339062E+00  0.43720431742E+01  0.51100000000E-03 0. -1.
        -11    1    3    3    0    0  0.10835806796E+02  0.21070186955E+02 -0.98586904287E+01  0.25662448528E+02  0.51100000000E-03 0.  1.
         12    1    3    3    0    0  0.27019811818E+01  0.15244272135E+02 -0.44467327225E+01  0.16107823166E+02  0.00000000000E+00 0. -1.
</event>
<event>
 7    1  0.2313935E-008  0.4614232E+02  0.7816164E-02  0.1320468E+00
        -11   -1    0    0    0    0  0.00000000000E+00  0.00000000000E+00  0.45593999997E+02  0.45594000000E+02  0.51100000000E-03 0. -1.
         11   -1    0    0    0    0 -0.00000000000E+00 -0.00000000000E+00 -0.45593999997E+02  0.45594000000E+02  0.51100000000E-03 0.  1.
    9900012    2    1    2    0    0  0.35845457880E-01 -0.20878485840E+02 -0.39914923696E+02  0.46142316638E+02  0.99999897627E+01 0.  0.
         12    1    1    2    0    0 -0.35845457880E-01  0.20878485840E+02  0.39914923696E+02  0.45045683362E+02  0.00000000000E+00 0. -1.
         11    1    3    3    0    0 -0.18238017367E+01 -0.55265415273E+00 -0.52130691987E+01  0.55504747651E+01  0.51100000000E-03 0. -1.
        -11    1    3    3    0    0 -0.90331644504E+00 -0.37361725616E+01 -0.99518851003E+01  0.10668410534E+02  0.51100000000E-03 0.  1.
        -12    1    3    3    0    0  0.27629636396E+01 -0.16589659125E+02 -0.24749969397E+02  0.29923431339E+02  0.00000000000E+00 0.  1.
</event>
<event>
 7    1  0.2313935E-008  0.4614232E+02  0.7816164E-02  0.1320468E+00
        -11   -1    0    0    0    0  0.00000000000E+00  0.00000000000E+00  0.45593999997E+02  0.45594000000E+02  0.51100000000E-03 0.  1.
         11   -1    0    0    0    0 -0.00000000000E+00 -0.00000000000E+00 -0.45593999997E+02  0.45594000000E+02  0.51100000000E-03 0. -1.
    9900012    2    1    2    0    0  0.44086904667E+02  0.85793663867E+01 -0.34427826575E+01  0.46142318263E+02  0.10000004577E+02 0.  0.
         12    1    1    2    0    0 -0.44086904667E+02 -0.85793663867E+01  0.34427826575E+01  0.45045681737E+02  0.00000000000E+00 0. -1.
         11    1    3    3    0    0  0.46437109282E-02 -0.62297518306E+00  0.13803143328E-02  0.62299422883E+00  0.51100000000E-03 0. -1.
        -11    1    3    3    0    0  0.20358980305E+01 -0.68840516779E+00 -0.60219155782E+00  0.22319089137E+01  0.51100000000E-03 0.  1.
        -12    1    3    3    0    0  0.42046362926E+02  0.98907467375E+01 -0.28419714140E+01  0.43287415121E+02  0.00000000000E+00 0.  1.
</event>
<event>
 7    1  0.2313935E-008  0.4614232E+02  0.7816164E-02  0.1320468E+00
        -11   -1    0    0    0    0  0.00000000000E+00  0.00000000000E+00  0.45593999997E+02  0.45594000000E+02  0.51100000000E-03 0.  1.
         11   -1    0    0    0    0 -0.00000000000E+00 -0.00000000000E+00 -0.45593999997E+02  0.45594000000E+02  0.51100000000E-03 0. -1.
    9900012    2    1    2    0    0  0.26436083624E+02 -0.10803853290E+02  0.34835667654E+02  0.46142317585E+02  0.99999983981E+01 0.  0.
         12    1    1    2    0    0 -0.26436083624E+02  0.10803853290E+02 -0.34835667654E+02  0.45045682415E+02  0.00000000000E+00 0. -1.
         11    1    3    3    0    0  0.25993609489E+01  0.73570385964E+00  0.33496060773E+01  0.43032311867E+01  0.51100000000E-03 0. -1.
        -11    1    3    3    0    0  0.16889020543E+02 -0.74788572004E+01  0.16219435838E+02  0.24581342907E+02  0.51100000000E-03 0.  1.
         12    1    3    3    0    0  0.69477021319E+01 -0.40606999490E+01  0.15266625738E+02  0.17257743492E+02  0.00000000000E+00 0. -1.
</event>
<event>
 7    1  0.2313935E-008  0.4614232E+02  0.7816164E-02  0.1320468E+00
        -11   -1    0    0    0    0  0.00000000000E+00  0.00000000000E+00  0.45593999997E+02  0.45594000000E+02  0.51100000000E-03 0.  1.
         11   -1    0    0    0    0 -0.00000000000E+00 -0.00000000000E+00 -0.45593999997E+02  0.45594000000E+02  0.51100000000E-03 0. -1.
    9900012    2    1    2    0    0 -0.27689957801E+02  0.29672894731E+00  0.35528744250E+02  0.46142317864E+02  0.10000000942E+02 0.  0.
         12    1    1    2    0    0  0.27689957801E+02 -0.29672894731E+00 -0.35528744250E+02  0.45045682136E+02  0.00000000000E+00 0. -1.
         11    1    3    3    0    0  0.33822371451E-01 -0.62403034491E+00  0.13536864247E+01  0.14909812278E+01  0.51100000000E-03 0. -1.
        -11    1    3    3    0    0 -0.14273987154E+02 -0.10324691169E+01  0.12163310751E+02  0.18781875051E+02  0.51100000000E-03 0.  1.
        -12    1    3    3    0    0 -0.13449793018E+02  0.19532284092E+01  0.22011747075E+02  0.25869461586E+02  0.00000000000E+00 0.  1.
</event>
<event>
 7    1  0.2313935E-008  0.4614232E+02  0.7816164E-02  0.1320468E+00
        -11   -1    0    0    0    0  0.00000000000E+00  0.00000000000E+00  0.45593999997E+02  0.45594000000E+02  0.51100000000E-03 0. -1.
         11   -1    0    0    0    0 -0.00000000000E+00 -0.00000000000E+00 -0.45593999997E+02  0.45594000000E+02  0.51100000000E-03 0.  1.
    9900012    2    1    2    0    0 -0.44648604124E+02  0.56609354116E+01  0.18893215502E+01  0.46142316790E+02  0.99999911403E+01 0.  0.
         12    1    1    2    0    0  0.44648604124E+02 -0.56609354116E+01 -0.18893215502E+01  0.45045683210E+02  0.00000000000E+00 0. -1.
         11    1    3    3    0    0 -0.27475237708E+01  0.13281178989E+01 -0.11526151621E+01  0.32621014695E+01  0.51100000000E-03 0. -1.
        -11    1    3    3    0    0 -0.11934917782E+02 -0.84334113772E+00  0.35025256044E+01  0.12466802822E+02  0.51100000000E-03 0.  1.
        -12    1    3    3    0    0 -0.29966162571E+02  0.51761586505E+01 -0.46058889217E+00  0.30413412498E+02  0.00000000000E+00 0.  1.
</event>
<event>
 7    1  0.2313935E-008  0.4614232E+02  0.7816164E-02  0.1320468E+00
        -11   -1    0    0    0    0  0.00000000000E+00  0.00000000000E+00  0.45593999997E+02  0.45594000000E+02  0.51100000000E-03 0.  1.
         11   -1    0    0    0    0 -0.00000000000E+00 -0.00000000000E+00 -0.45593999997E+02  0.45594000000E+02  0.51100000000E-03 0. -1.
    9900012    2    1    2    0    0  0.39685946831E+02 -0.31766488052E+01  0.21072438051E+02  0.46142321861E+02  0.10000037390E+02 0.  0.
         12    1    1    2    0    0 -0.39685946831E+02  0.31766488052E+01 -0.21072438051E+02  0.45045678139E+02  0.00000000000E+00 0. -1.
         11    1    3    3    0    0  0.13712598480E+02 -0.18035937668E+01  0.61541929684E+01  0.15138110810E+02  0.51100000000E-03 0.  1.
        -11    1    3    3    0    0  0.18766251510E+02 -0.26731733391E+00  0.64874345689E+01  0.19857755710E+02  0.51100000000E-03 0. -1.
        -12    1    3    3    0    0  0.72070968416E+01 -0.11057377045E+01  0.84308105139E+01  0.11146455341E+02  0.00000000000E+00 0.  1.
</event>
<event>
 7    1  0.2313935E-008  0.4614232E+02  0.7816164E-02  0.1320468E+00
        -11   -1    0    0    0    0  0.00000000000E+00  0.00000000000E+00  0.45593999997E+02  0.45594000000E+02  0.51100000000E-03 0.  1.
         11   -1    0    0    0    0 -0.00000000000E+00 -0.00000000000E+00 -0.45593999997E+02  0.45594000000E+02  0.51100000000E-03 0. -1.
    9900012    2    1    2    0    0 -0.72474019517E+01 -0.37489706369E+02  0.23897923114E+02  0.46142315991E+02  0.99999838596E+01 0.  0.
         12    1    1    2    0    0  0.72474019517E+01  0.37489706369E+02 -0.23897923114E+02  0.45045684009E+02  0.00000000000E+00 0. -1.
         11    1    3    3    0    0 -0.54666114149E+01 -0.28047136498E+02  0.14590683444E+02  0.32084478330E+02  0.51100000000E-03 0. -1.
        -11    1    3    3    0    0  0.86621298059E+00 -0.58463720393E+01  0.40732127304E+01  0.71778446039E+01  0.51100000000E-03 0.  1.
        -12    1    3    3    0    0 -0.26470035174E+01 -0.35961978320E+01  0.52340269390E+01  0.68799930571E+01  0.00000000000E+00 0.  1.
</event>
<event>
 7    1  0.2313935E-008  0.4614232E+02  0.7816164E-02  0.1320468E+00
        -11   -1    0    0    0    0  0.00000000000E+00  0.00000000000E+00  0.45593999997E+02  0.45594000000E+02  0.51100000000E-03 0.  1.
         11   -1    0    0    0    0 -0.00000000000E+00 -0.00000000000E+00 -0.45593999997E+02  0.45594000000E+02  0.51100000000E-03 0. -1.
    9900012    2    1    2    0    0 -0.39204947683E+02  0.21892375616E+02 -0.35790246406E+01  0.46142318183E+02  0.10000003850E+02 0.  0.
         12    1    1    2    0    0  0.39204947683E+02 -0.21892375616E+02  0.35790246406E+01  0.45045681817E+02  0.00000000000E+00 0. -1.
         11    1    3    3    0    0 -0.19008515768E+01  0.15739438428E+01 -0.32724665238E-01  0.24681181297E+01  0.51100000000E-03 0. -1.
        -11    1    3    3    0    0 -0.26689127392E+02  0.96773822696E+01 -0.83774591864E+00  0.28401814502E+02  0.51100000000E-03 0.  1.
         12    1    3    3    0    0 -0.10614968714E+02  0.10641049504E+02 -0.27085540568E+01  0.15272385551E+02  0.00000000000E+00 0. -1.
</event>
<event>
 7    1  0.2313935E-008  0.4614232E+02  0.7816164E-02  0.1320468E+00
        -11   -1    0    0    0    0  0.00000000000E+00  0.00000000000E+00  0.45593999997E+02  0.45594000000E+02  0.51100000000E-03 0.  1.
         11   -1    0    0    0    0 -0.00000000000E+00 -0.00000000000E+00 -0.45593999997E+02  0.45594000000E+02  0.51100000000E-03 0. -1.
    9900012    2    1    2    0    0 -0.40390059598E+02  0.98504132428E+01  0.17341455383E+02  0.46142316187E+02  0.99999856492E+01 0.  0.
         12    1    1    2    0    0  0.40390059598E+02 -0.98504132428E+01 -0.17341455383E+02  0.45045683813E+02  0.00000000000E+00 0. -1.
         11    1    3    3    0    0 -0.14543969537E+02  0.51162864151E+01  0.38800375421E+01  0.15898368726E+02  0.51100000000E-03 0. -1.
        -11    1    3    3    0    0 -0.63925289577E+01  0.85595092540E+00  0.66673243665E+01  0.92763297123E+01  0.51100000000E-03 0.  1.
        -12    1    3    3    0    0 -0.19453561103E+02  0.38781759024E+01  0.67940934745E+01  0.20967617749E+02  0.00000000000E+00 0.  1.
</event>
<event>
 7    1  0.2313935E-008  0.4614232E+02  0.7816164E-02  0.1320468E+00
        -11   -1    0    0    0    0  0.00000000000E+00  0.00000000000E+00  0.45593999997E+02  0.45594000000E+02  0.51100000000E-03 0. -1.
         11   -1    0    0    0    0 -0.00000000000E+00 -0.00000000000E+00 -0.45593999997E+02  0.45594000000E+02  0.51100000000E-03 0.  1.
    9900012    2    1    2    0    0 -0.42743297129E+02  0.10219631809E+02  0.98834813708E+01  0.46142317324E+02  0.99999960139E+01 0.  0.
         12    1    1    2    0    0  0.42743297129E+02 -0.10219631809E+02 -0.98834813708E+01  0.45045682676E+02  0.00000000000E+00 0. -1.
         11    1    3    3    0    0 -0.20063583408E+02  0.54802105077E+01 -0.16406368169E+00  0.20799206800E+02  0.51100000000E-03 0.  1.
        -11    1    3    3    0    0 -0.16564919539E+02  0.31370970521E+01  0.63221749741E+01  0.18005772239E+02  0.51100000000E-03 0. -1.
        -12    1    3    3    0    0 -0.61147941816E+01  0.16023242488E+01  0.37253700784E+01  0.73373382846E+01  0.00000000000E+00 0.  1.
</event>
<event>
 7    1  0.2313935E-008  0.4614232E+02  0.7816164E-02  0.1320468E+00
        -11   -1    0    0    0    0  0.00000000000E+00  0.00000000000E+00  0.45593999997E+02  0.45594000000E+02  0.51100000000E-03 0.  1.
         11   -1    0    0    0    0 -0.00000000000E+00 -0.00000000000E+00 -0.45593999997E+02  0.45594000000E+02  0.51100000000E-03 0. -1.
    9900012    2    1    2    0    0  0.24038586133E+02  0.72579376036E+01  0.37397623636E+02  0.46142317242E+02  0.99999952650E+01 0.  0.
         12    1    1    2    0    0 -0.24038586133E+02 -0.72579376036E+01 -0.37397623636E+02  0.45045682758E+02  0.00000000000E+00 0. -1.
         11    1    3    3    0    0  0.13636735005E+01 -0.10073515811E+01  0.29574298010E+01  0.34089226909E+01  0.51100000000E-03 0. -1.
        -11    1    3    3    0    0  0.46573244045E+01  0.11625287125E+00  0.28408619136E+01  0.54566181845E+01  0.51100000000E-03 0.  1.
        -12    1    3    3    0    0  0.18017588228E+02  0.81490363134E+01  0.31599331922E+02  0.37276776366E+02  0.00000000000E+00 0.  1.
</event>
<event>
 7    1  0.2313935E-008  0.4614232E+02  0.7816164E-02  0.1320468E+00
        -11   -1    0    0    0    0  0.00000000000E+00  0.00000000000E+00  0.45593999997E+02  0.45594000000E+02  0.51100000000E-03 0. -1.
         11   -1    0    0    0    0 -0.00000000000E+00 -0.00000000000E+00 -0.45593999997E+02  0.45594000000E+02  0.51100000000E-03 0.  1.
    9900012    2    1    2    0    0  0.84546874277E+00 -0.21128490513E+02  0.39774183089E+02  0.46142316865E+02  0.99999918278E+01 0.  0.
         12    1    1    2    0    0 -0.84546874277E+00  0.21128490513E+02 -0.39774183089E+02  0.45045683135E+02  0.00000000000E+00 0. -1.
         11    1    3    3    0    0 -0.13338547667E+00 -0.66487732899E+00  0.53518062644E+01  0.53945976774E+01  0.51100000000E-03 0. -1.
        -11    1    3    3    0    0 -0.22427706116E+01 -0.78877069783E+01  0.18262727425E+02  0.20019319535E+02  0.51100000000E-03 0.  1.
         12    1    3    3    0    0  0.32216248311E+01 -0.12575906206E+02  0.16159649399E+02  0.20728399652E+02  0.00000000000E+00 0. -1.
</event>
<event>
 7    1  0.2313935E-008  0.4614232E+02  0.7816164E-02  0.1320468E+00
        -11   -1    0    0    0    0  0.00000000000E+00  0.00000000000E+00  0.45593999997E+02  0.45594000000E+02  0.51100000000E-03 0.  1.
         11   -1    0    0    0    0 -0.00000000000E+00 -0.00000000000E+00 -0.45593999997E+02  0.45594000000E+02  0.51100000000E-03 0. -1.
    9900012    2    1    2    0    0  0.46100405666E+01 -0.24569971787E+02  0.37472355435E+02  0.46142318637E+02  0.10000007987E+02 0.  0.
         12    1    1    2    0    0 -0.46100405666E+01  0.24569971787E+02 -0.37472355435E+02  0.45045681363E+02  0.00000000000E+00 0. -1.
         11    1    3    3    0    0  0.22217733434E+01 -0.17599293319E+02  0.31956201748E+02  0.36549558582E+02  0.51100000000E-03 0.  1.
        -11    1    3    3    0    0  0.59172692893E+00 -0.20216272424E+01  0.20860752920E+00  0.21167510076E+01  0.51100000000E-03 0. -1.
        -12    1    3    3    0    0  0.17965402942E+01 -0.49490512260E+01  0.53075461576E+01  0.74760090477E+01  0.00000000000E+00 0.  1.
</event>
<event>
 7    1  0.2313935E-008  0.4614232E+02  0.7816164E-02  0.1320468E+00
        -11   -1    0    0    0    0  0.00000000000E+00  0.00000000000E+00  0.45593999997E+02  0.45594000000E+02  0.51100000000E-03 0. -1.
         11   -1    0    0    0    0 -0.00000000000E+00 -0.00000000000E+00 -0.45593999997E+02  0.45594000000E+02  0.51100000000E-03 0.  1.
    9900012    2    1    2    0    0 -0.27304541159E+02 -0.37619533752E+01 -0.35628965328E+02  0.46142318393E+02  0.10000005758E+02 0.  0.
         12    1    1    2    0    0  0.27304541159E+02  0.37619533752E+01  0.35628965328E+02  0.45045681607E+02  0.00000000000E+00 0. -1.
         11    1    3    3    0    0 -0.24175291035E+01 -0.72133486371E-01 -0.56254716675E+00  0.24831652749E+01  0.51100000000E-03 0. -1.
        -11    1    3    3    0    0  0.31061574692E-01  0.13471069226E+00  0.23954226563E+00  0.27657286595E+00  0.51100000000E-03 0.  1.
        -12    1    3    3    0    0 -0.24918073630E+02 -0.38245305811E+01 -0.35305960427E+02  0.43382580252E+02  0.00000000000E+00 0.  1.
</event>
<event>
 7    1  0.2313935E-008  0.4614232E+02  0.7816164E-02  0.1320468E+00
        -11   -1    0    0    0    0  0.00000000000E+00  0.00000000000E+00  0.45593999997E+02  0.45594000000E+02  0.51100000000E-03 0. -1.
         11   -1    0    0    0    0 -0.00000000000E+00 -0.00000000000E+00 -0.45593999997E+02  0.45594000000E+02  0.51100000000E-03 0.  1.
    9900012    2    1    2    0    0 -0.16509502077E+02  0.38012370708E+02 -0.17652466131E+02  0.46142317120E+02  0.99999941500E+01 0.  0.
         12    1    1    2    0    0  0.16509502077E+02 -0.38012370708E+02  0.17652466131E+02  0.45045682880E+02  0.00000000000E+00 0. -1.
         11    1    3    3    0    0  0.39141346156E+00  0.80340093401E+00  0.42634439664E+00  0.99016532172E+00  0.51100000000E-03 0. -1.
        -11    1    3    3    0    0 -0.37943982887E+01  0.13761324022E+02 -0.86077669809E+01  0.16669287624E+02  0.51100000000E-03 0.  1.
         12    1    3    3    0    0 -0.13106517249E+02  0.23447645752E+02 -0.94710435470E+01  0.28482864174E+02  0.00000000000E+00 0. -1.
</event>
<event>
 7    1  0.2313935E-008  0.4614231E+02  0.7816164E-02  0.1320468E+00
        -11   -1    0    0    0    0  0.00000000000E+00  0.00000000000E+00  0.45593999997E+02  0.45594000000E+02  0.51100000000E-03 0. -1.
         11   -1    0    0    0    0 -0.00000000000E+00 -0.00000000000E+00 -0.45593999997E+02  0.45594000000E+02  0.51100000000E-03 0.  1.
    9900012    2    1    2    0    0  0.34871161934E+02 -0.13829128633E+01 -0.28481636402E+02  0.46142312140E+02  0.99999487459E+01 0.  0.
         12    1    1    2    0    0 -0.34871161934E+02  0.13829128633E+01  0.28481636402E+02  0.45045687860E+02  0.00000000000E+00 0. -1.
         11    1    3    3    0    0  0.20783143259E+02  0.37376884842E+01 -0.15185268633E+02  0.26009647107E+02  0.51100000000E-03 0. -1.
        -11    1    3    3    0    0  0.35687729785E+01 -0.10142254158E+01 -0.44102559443E+01  0.57632587589E+01  0.51100000000E-03 0.  1.
         12    1    3    3    0    0  0.10519245696E+02 -0.41063759316E+01 -0.88861118254E+01  0.14369406274E+02  0.00000000000E+00 0. -1.
</event>
<event>
 7    1  0.2313935E-008  0.4614232E+02  0.7816164E-02  0.1320468E+00
        -11   -1    0    0    0    0  0.00000000000E+00  0.00000000000E+00  0.45593999997E+02  0.45594000000E+02  0.51100000000E-03 0. -1.
         11   -1    0    0    0    0 -0.00000000000E+00 -0.00000000000E+00 -0.45593999997E+02  0.45594000000E+02  0.51100000000E-03 0.  1.
    9900012    2    1    2    0    0  0.24796477391E+02  0.33216174642E+02 -0.17633318991E+02  0.46142317771E+02  0.10000000091E+02 0.  0.
         12    1    1    2    0    0 -0.24796477391E+02 -0.33216174642E+02  0.17633318991E+02  0.45045682229E+02  0.00000000000E+00 0. -1.
         11    1    3    3    0    0  0.10666015876E+02  0.84093990712E+01 -0.60639670330E+01  0.14874595250E+02  0.51100000000E-03 0. -1.
        -11    1    3    3    0    0  0.18759866506E+01  0.84905361118E+00 -0.25105053606E+00  0.20744263256E+01  0.51100000000E-03 0.  1.
        -12    1    3    3    0    0  0.12254474864E+02  0.23957721960E+02 -0.11318301422E+02  0.29193296196E+02  0.00000000000E+00 0.  1.
</event>
<event>
 7    1  0.2313935E-008  0.4614232E+02  0.7816164E-02  0.1320468E+00
        -11   -1    0    0    0    0  0.00000000000E+00  0.00000000000E+00  0.45593999997E+02  0.45594000000E+02  0.51100000000E-03 0.  1.
         11   -1    0    0    0    0 -0.00000000000E+00 -0.00000000000E+00 -0.45593999997E+02  0.45594000000E+02  0.51100000000E-03 0. -1.
    9900012    2    1    2    0    0 -0.15142678431E+01  0.44599808005E+02  0.61382137032E+01  0.46142317092E+02  0.99999938962E+01 0.  0.
         12    1    1    2    0    0  0.15142678431E+01 -0.44599808005E+02 -0.61382137032E+01  0.45045682908E+02  0.00000000000E+00 0. -1.
         11    1    3    3    0    0  0.18543663586E+01  0.27542717866E+01 -0.25292035092E+00  0.33299634580E+01  0.51100000000E-03 0. -1.
        -11    1    3    3    0    0  0.10754446017E+01  0.36124353632E+01 -0.13972031643E+00  0.37717094761E+01  0.51100000000E-03 0.  1.
        -12    1    3    3    0    0 -0.44440788034E+01  0.38233100855E+02  0.65308543705E+01  0.39040644158E+02  0.00000000000E+00 0.  1.
</event>
<event>
 7    1  0.2313935E-008  0.4614231E+02  0.7816164E-02  0.1320468E+00
        -11   -1    0    0    0    0  0.00000000000E+00  0.00000000000E+00  0.45593999997E+02  0.45594000000E+02  0.51100000000E-03 0.  1.
         11   -1    0    0    0    0 -0.00000000000E+00 -0.00000000000E+00 -0.45593999997E+02  0.45594000000E+02  0.51100000000E-03 0. -1.
    9900012    2    1    2    0    0 -0.37393641179E+02  0.20674348610E+02  0.14261864913E+02  0.46142313393E+02  0.99999601715E+01 0.  0.
         12    1    1    2    0    0  0.37393641179E+02 -0.20674348610E+02 -0.14261864913E+02  0.45045686607E+02  0.00000000000E+00 0. -1.
         11    1    3    3    0    0 -0.66823531148E+01  0.58494890964E+01  0.15427628443E+01  0.90139049970E+01  0.51100000000E-03 0. -1.
        -11    1    3    3    0    0 -0.10801970296E+02  0.77667912752E+01  0.20427655672E+01  0.13460256328E+02  0.51100000000E-03 0.  1.
        -12    1    3    3    0    0 -0.19909317769E+02  0.70580682385E+01  0.10676336501E+02  0.23668152069E+02  0.00000000000E+00 0.  1.
</event>
<event>
 7    1  0.2313935E-008  0.4614232E+02  0.7816164E-02  0.1320468E+00
        -11   -1    0    0    0    0  0.00000000000E+00  0.00000000000E+00  0.45593999997E+02  0.45594000000E+02  0.51100000000E-03 0. -1.
         11   -1    0    0    0    0 -0.00000000000E+00 -0.00000000000E+00 -0.45593999997E+02  0.45594000000E+02  0.51100000000E-03 0.  1.
    9900012    2    1    2    0    0 -0.30472866716E+02  0.26704091938E+02 -0.19682712657E+02  0.46142319745E+02  0.10000018088E+02 0.  0.
         12    1    1    2    0    0  0.30472866716E+02 -0.26704091938E+02  0.19682712657E+02  0.45045680255E+02  0.00000000000E+00 0. -1.
         11    1    3    3    0    0 -0.18517397476E+02  0.12457734613E+02 -0.11082915452E+02  0.24918269927E+02  0.51100000000E-03 0. -1.
        -11    1    3    3    0    0 -0.42628989416E+01  0.64686684484E+01 -0.79865451639E+00  0.77880567653E+01  0.51100000000E-03 0.  1.
        -12    1    3    3    0    0 -0.76925702985E+01  0.77776888765E+01 -0.78011426889E+01  0.13435993053E+02  0.00000000000E+00 0.  1.
</event>
<event>
 7    1  0.2313935E-008  0.4614232E+02  0.7816164E-02  0.1320468E+00
        -11   -1    0    0    0    0  0.00000000000E+00  0.00000000000E+00  0.45593999997E+02  0.45594000000E+02  0.51100000000E-03 0.  1.
         11   -1    0    0    0    0 -0.00000000000E+00 -0.00000000000E+00 -0.45593999997E+02  0.45594000000E+02  0.51100000000E-03 0. -1.
    9900012    2    1    2    0    0 -0.12367535783E+02  0.36005331838E+02  0.24078490206E+02  0.46142317047E+02  0.99999934908E+01 0.  0.
         12    1    1    2    0    0  0.12367535783E+02 -0.36005331838E+02 -0.24078490206E+02  0.45045682953E+02  0.00000000000E+00 0. -1.
         11    1    3    3    0    0  0.22604275848E+00  0.95479780250E+01  0.42369629626E+01  0.10448293406E+02  0.51100000000E-03 0. -1.
        -11    1    3    3    0    0 -0.73719099074E+01  0.20128494227E+02  0.15061582283E+02  0.26198331944E+02  0.51100000000E-03 0.  1.
         12    1    3    3    0    0 -0.52216686343E+01  0.63288595859E+01  0.47799449603E+01  0.94956916972E+01  0.00000000000E+00 0. -1.
</event>
<event>
 7    1  0.2313935E-008  0.4614232E+02  0.7816164E-02  0.1320468E+00
        -11   -1    0    0    0    0  0.00000000000E+00  0.00000000000E+00  0.45593999997E+02  0.45594000000E+02  0.51100000000E-03 0. -1.
         11   -1    0    0    0    0 -0.00000000000E+00 -0.00000000000E+00 -0.45593999997E+02  0.45594000000E+02  0.51100000000E-03 0.  1.
    9900012    2    1    2    0    0 -0.40445857258E+02  0.93417444825E+01 -0.17492224921E+02  0.46142317721E+02  0.99999996298E+01 0.  0.
         12    1    1    2    0    0  0.40445857258E+02 -0.93417444825E+01  0.17492224921E+02  0.45045682279E+02  0.00000000000E+00 0. -1.
         11    1    3    3    0    0 -0.18932680264E+02  0.20329478906E+01 -0.97150965121E+01  0.21376677936E+02  0.51100000000E-03 0.  1.
        -11    1    3    3    0    0 -0.21207772333E+01 -0.45788152753E+00  0.61186940936E+00  0.22542706142E+01  0.51100000000E-03 0. -1.
         12    1    3    3    0    0 -0.19392399761E+02  0.77666781194E+01 -0.83889978180E+01  0.22511369170E+02  0.00000000000E+00 0. -1.
</event>
<event>
 7    1  0.2313935E-008  0.4614232E+02  0.7816164E-02  0.1320468E+00
        -11   -1    0    0    0    0  0.00000000000E+00  0.00000000000E+00  0.45593999997E+02  0.45594000000E+02  0.51100000000E-03 0. -1.
         11   -1    0    0    0    0 -0.00000000000E+00 -0.00000000000E+00 -0.45593999997E+02  0.45594000000E+02  0.51100000000E-03 0.  1.
    9900012    2    1    2    0    0 -0.42030464360E+02 -0.13715464721E+02 -0.86278429632E+01  0.46142316733E+02  0.99999906207E+01 0.  0.
         12    1    1    2    0    0  0.42030464360E+02  0.13715464721E+02  0.86278429632E+01  0.45045683267E+02  0.00000000000E+00 0. -1.
         11    1    3    3    0    0 -0.13379935746E+02 -0.56172732414E+01 -0.30330077297E+01  0.14824829691E+02  0.51100000000E-03 0. -1.
        -11    1    3    3    0    0 -0.27948640112E+02 -0.89748206949E+01 -0.62571049802E+01  0.30013751075E+02  0.51100000000E-03 0.  1.
         12    1    3    3    0    0 -0.70188850254E+00  0.87662921556E+00  0.66226974672E+00  0.13037359660E+01  0.00000000000E+00 0. -1.
</event>
<event>
 7    1  0.2313935E-008  0.4614232E+02  0.7816164E-02  0.1320468E+00
        -11   -1    0    0    0    0  0.00000000000E+00  0.00000000000E+00  0.45593999997E+02  0.45594000000E+02  0.51100000000E-03 0.  1.
         11   -1    0    0    0    0 -0.00000000000E+00 -0.00000000000E+00 -0.45593999997E+02  0.45594000000E+02  0.51100000000E-03 0. -1.
    9900012    2    1    2    0    0  0.28588401893E+02  0.29693586833E+02  0.18168868507E+02  0.46142316471E+02  0.99999882338E+01 0.  0.
         12    1    1    2    0    0 -0.28588401893E+02 -0.29693586833E+02 -0.18168868507E+02  0.45045683529E+02  0.00000000000E+00 0. -1.
         11    1    3    3    0    0  0.92572989247E+01  0.76397591601E+01  0.74480644912E+01  0.14125762575E+02  0.51100000000E-03 0. -1.
        -11    1    3    3    0    0  0.97915797020E+01  0.97514342916E+01  0.86719655230E+01  0.16314671008E+02  0.51100000000E-03 0.  1.
         12    1    3    3    0    0  0.95395232664E+01  0.12302393381E+02  0.20488384930E+01  0.15701882888E+02  0.00000000000E+00 0. -1.
</event>
<event>
 7    1  0.2313935E-008  0.4614232E+02  0.7816164E-02  0.1320468E+00
        -11   -1    0    0    0    0  0.00000000000E+00  0.00000000000E+00  0.45593999997E+02  0.45594000000E+02  0.51100000000E-03 0.  1.
         11   -1    0    0    0    0 -0.00000000000E+00 -0.00000000000E+00 -0.45593999997E+02  0.45594000000E+02  0.51100000000E-03 0. -1.
    9900012    2    1    2    0    0  0.44431911588E+02  0.98472424588E+00  0.73450025375E+01  0.46142317504E+02  0.99999976575E+01 0.  0.
         12    1    1    2    0    0 -0.44431911588E+02 -0.98472424588E+00 -0.73450025375E+01  0.45045682496E+02  0.00000000000E+00 0. -1.
         11    1    3    3    0    0  0.29718136786E+02  0.23878094296E+01  0.44895018482E+01  0.30150040050E+02  0.51100000000E-03 0. -1.
        -11    1    3    3    0    0  0.13520003261E+02 -0.57276514501E+00  0.90905089623E+00  0.13562629608E+02  0.51100000000E-03 0.  1.
        -12    1    3    3    0    0  0.11937715409E+01 -0.83032003872E+00  0.19464497931E+01  0.24296478460E+01  0.00000000000E+00 0.  1.
</event>
<event>
 7    1  0.2313935E-008  0.4614232E+02  0.7816164E-02  0.1320468E+00
        -11   -1    0    0    0    0  0.00000000000E+00  0.00000000000E+00  0.45593999997E+02  0.45594000000E+02  0.51100000000E-03 0.  1.
         11   -1    0    0    0    0 -0.00000000000E+00 -0.00000000000E+00 -0.45593999997E+02  0.45594000000E+02  0.51100000000E-03 0. -1.
    9900012    2    1    2    0    0 -0.17888510789E+02 -0.24149617207E+01  0.41270845335E+02  0.46142317265E+02  0.99999954791E+01 0.  0.
         12    1    1    2    0    0  0.17888510789E+02  0.24149617207E+01 -0.41270845335E+02  0.45045682735E+02  0.00000000000E+00 0. -1.
         11    1    3    3    0    0  0.34286586676E+00 -0.61816145351E+00  0.11831329814E+01  0.13782178703E+01  0.51100000000E-03 0. -1.
        -11    1    3    3    0    0 -0.65647166069E+01 -0.36030654877E+01  0.21269578361E+02  0.22549335887E+02  0.51100000000E-03 0.  1.
        -12    1    3    3    0    0 -0.11666660049E+02  0.18062652205E+01  0.18818133993E+02  0.22214763508E+02  0.00000000000E+00 0.  1.
</event>
<event>
 7    1  0.2313935E-008  0.4614232E+02  0.7816164E-02  0.1320468E+00
        -11   -1    0    0    0    0  0.00000000000E+00  0.00000000000E+00  0.45593999997E+02  0.45594000000E+02  0.51100000000E-03 0.  1.
         11   -1    0    0    0    0 -0.00000000000E+00 -0.00000000000E+00 -0.45593999997E+02  0.45594000000E+02  0.51100000000E-03 0. -1.
    9900012    2    1    2    0    0 -0.61289573848E+01 -0.34333588515E+02  0.28508836918E+02  0.46142320947E+02  0.10000029052E+02 0.  0.
         12    1    1    2    0    0  0.61289573848E+01  0.34333588515E+02 -0.28508836918E+02  0.45045679053E+02  0.00000000000E+00 0. -1.
         11    1    3    3    0    0  0.61717946580E+00 -0.84036428927E-01  0.63509925951E+00  0.88956390717E+00  0.51100000000E-03 0. -1.
        -11    1    3    3    0    0 -0.62919877261E+01 -0.25862108946E+02  0.24581001053E+02  0.36230696953E+02  0.51100000000E-03 0.  1.
        -12    1    3    3    0    0 -0.45414912453E+00 -0.83874431402E+01  0.32927366050E+01  0.90220600866E+01  0.00000000000E+00 0.  1.
</event>
<event>
 7    1  0.2313935E-008  0.4614232E+02  0.7816164E-02  0.1320468E+00
        -11   -1    0    0    0    0  0.00000000000E+00  0.00000000000E+00  0.45593999997E+02  0.45594000000E+02  0.51100000000E-03 0.  1.
         11   -1    0    0    0    0 -0.00000000000E+00 -0.00000000000E+00 -0.45593999997E+02  0.45594000000E+02  0.51100000000E-03 0. -1.
    9900012    2    1    2    0    0  0.20566853738E+02 -0.39877388233E+02 -0.39889194984E+01  0.46142322696E+02  0.10000045004E+02 0.  0.
         12    1    1    2    0    0 -0.20566853738E+02  0.39877388233E+02  0.39889194984E+01  0.45045677304E+02  0.00000000000E+00 0. -1.
         11    1    3    3    0    0  0.14099723296E+01 -0.87821276089E+01 -0.16070440370E+01  0.90386048761E+01  0.51100000000E-03 0. -1.
        -11    1    3    3    0    0  0.16782490440E+02 -0.28189711950E+02 -0.39356549174E+01  0.33042415546E+02  0.51100000000E-03 0.  1.
        -12    1    3    3    0    0  0.23743909684E+01 -0.29055486740E+01  0.15537794560E+01  0.40613022746E+01  0.00000000000E+00 0.  1.
</event>
<event>
 7    1  0.2313935E-008  0.4614232E+02  0.7816164E-02  0.1320468E+00
        -11   -1    0    0    0    0  0.00000000000E+00  0.00000000000E+00  0.45593999997E+02  0.45594000000E+02  0.51100000000E-03 0.  1.
         11   -1    0    0    0    0 -0.00000000000E+00 -0.00000000000E+00 -0.45593999997E+02  0.45594000000E+02  0.51100000000E-03 0. -1.
    9900012    2    1    2    0    0 -0.35383912666E+02  0.21679822133E+02  0.17523627889E+02  0.46142317658E+02  0.99999990623E+01 0.  0.
         12    1    1    2    0    0  0.35383912666E+02 -0.21679822133E+02 -0.17523627889E+02  0.45045682342E+02  0.00000000000E+00 0. -1.
         11    1    3    3    0    0 -0.87892665142E+01  0.85116636822E+01  0.48432419716E+01  0.13158898797E+02  0.51100000000E-03 0. -1.
        -11    1    3    3    0    0 -0.13866177928E+02  0.74270837192E+01  0.10343131676E+02  0.18825855519E+02  0.51100000000E-03 0.  1.
         12    1    3    3    0    0 -0.12728468224E+02  0.57410747316E+01  0.23372542409E+01  0.14157563342E+02  0.00000000000E+00 0. -1.
</event>
<event>
 7    1  0.2313935E-008  0.4614232E+02  0.7816164E-02  0.1320468E+00
        -11   -1    0    0    0    0  0.00000000000E+00  0.00000000000E+00  0.45593999997E+02  0.45594000000E+02  0.51100000000E-03 0. -1.
         11   -1    0    0    0    0 -0.00000000000E+00 -0.00000000000E+00 -0.45593999997E+02  0.45594000000E+02  0.51100000000E-03 0.  1.
    9900012    2    1    2    0    0 -0.94510139253E+00 -0.39568835216E+02  0.21506454192E+02  0.46142317533E+02  0.99999979180E+01 0.  0.
         12    1    1    2    0    0  0.94510139253E+00  0.39568835216E+02 -0.21506454192E+02  0.45045682467E+02  0.00000000000E+00 0. -1.
         11    1    3    3    0    0 -0.60058074228E+00 -0.46704709808E+01  0.55897245887E+01  0.73088314831E+01  0.51100000000E-03 0. -1.
        -11    1    3    3    0    0  0.80597999814E+00 -0.19798878836E+02  0.58919452036E+01  0.20672692748E+02  0.51100000000E-03 0.  1.
         12    1    3    3    0    0 -0.11505006484E+01 -0.15099485399E+02  0.10024784400E+02  0.18160793301E+02  0.00000000000E+00 0. -1.
</event>
<event>
 7    1  0.2313935E-008  0.4614232E+02  0.7816164E-02  0.1320468E+00
        -11   -1    0    0    0    0  0.00000000000E+00  0.00000000000E+00  0.45593999997E+02  0.45594000000E+02  0.51100000000E-03 0. -1.
         11   -1    0    0    0    0 -0.00000000000E+00 -0.00000000000E+00 -0.45593999997E+02  0.45594000000E+02  0.51100000000E-03 0.  1.
    9900012    2    1    2    0    0  0.20536452386E+02  0.18091457273E+02 -0.35778021110E+02  0.46142317661E+02  0.99999990894E+01 0.  0.
         12    1    1    2    0    0 -0.20536452386E+02 -0.18091457273E+02  0.35778021110E+02  0.45045682339E+02  0.00000000000E+00 0. -1.
         11    1    3    3    0    0  0.11151345224E+02  0.50792879585E+01 -0.14083713918E+02  0.18668226066E+02  0.51100000000E-03 0.  1.
        -11    1    3    3    0    0  0.48403349032E+01  0.43289724445E+01 -0.12243470589E+02  0.13858983250E+02  0.51100000000E-03 0. -1.
        -12    1    3    3    0    0  0.45447722589E+01  0.86831968697E+01 -0.94508366025E+01  0.13615108345E+02  0.00000000000E+00 0.  1.
</event>
<event>
 7    1  0.2313935E-008  0.4614232E+02  0.7816164E-02  0.1320468E+00
        -11   -1    0    0    0    0  0.00000000000E+00  0.00000000000E+00  0.45593999997E+02  0.45594000000E+02  0.51100000000E-03 0.  1.
         11   -1    0    0    0    0 -0.00000000000E+00 -0.00000000000E+00 -0.45593999997E+02  0.45594000000E+02  0.51100000000E-03 0. -1.
    9900012    2    1    2    0    0  0.37829268347E+02 -0.22163000776E+02  0.10337365554E+02  0.46142320144E+02  0.10000021734E+02 0.  0.
         12    1    1    2    0    0 -0.37829268347E+02  0.22163000776E+02 -0.10337365554E+02  0.45045679856E+02  0.00000000000E+00 0. -1.
         11    1    3    3    0    0  0.10515944403E+02 -0.81838079852E+01  0.62695725293E+01  0.14726416393E+02  0.51100000000E-03 0. -1.
        -11    1    3    3    0    0  0.15448449157E+02 -0.92685613953E+01 -0.69548175846E-02  0.18015572717E+02  0.51100000000E-03 0.  1.
        -12    1    3    3    0    0  0.11864874786E+02 -0.47106313957E+01  0.40747478419E+01  0.13400331034E+02  0.00000000000E+00 0.  1.
</event>
<event>
 7    1  0.2313935E-008  0.4614232E+02  0.7816164E-02  0.1320468E+00
        -11   -1    0    0    0    0  0.00000000000E+00  0.00000000000E+00  0.45593999997E+02  0.45594000000E+02  0.51100000000E-03 0. -1.
         11   -1    0    0    0    0 -0.00000000000E+00 -0.00000000000E+00 -0.45593999997E+02  0.45594000000E+02  0.51100000000E-03 0.  1.
    9900012    2    1    2    0    0  0.36907332548E+02 -0.22457527644E+02 -0.12752323730E+02  0.46142317585E+02  0.99999983973E+01 0.  0.
         12    1    1    2    0    0 -0.36907332548E+02  0.22457527644E+02  0.12752323730E+02  0.45045682415E+02  0.00000000000E+00 0. -1.
         11    1    3    3    0    0  0.94624939601E+01 -0.27748228331E+01 -0.28194260681E+01  0.10256100493E+02  0.51100000000E-03 0. -1.
        -11    1    3    3    0    0  0.14413552680E+02 -0.10227143813E+02 -0.15684839046E+01  0.17742748194E+02  0.51100000000E-03 0.  1.
         12    1    3    3    0    0  0.13031285908E+02 -0.94555609972E+01 -0.83644137577E+01  0.18143468899E+02  0.00000000000E+00 0. -1.
</event>
<event>
 7    1  0.2313935E-008  0.4614232E+02  0.7816164E-02  0.1320468E+00
        -11   -1    0    0    0    0  0.00000000000E+00  0.00000000000E+00  0.45593999997E+02  0.45594000000E+02  0.51100000000E-03 0.  1.
         11   -1    0    0    0    0 -0.00000000000E+00 -0.00000000000E+00 -0.45593999997E+02  0.45594000000E+02  0.51100000000E-03 0. -1.
    9900012    2    1    2    0    0 -0.41393239454E+02 -0.17723256087E+02 -0.12646710230E+01  0.46142317947E+02  0.10000001698E+02 0.  0.
         12    1    1    2    0    0  0.41393239454E+02  0.17723256087E+02  0.12646710230E+01  0.45045682053E+02  0.00000000000E+00 0. -1.
         11    1    3    3    0    0 -0.15366539582E+02 -0.59745096653E+01 -0.13390365072E+01  0.16541412379E+02  0.51100000000E-03 0. -1.
        -11    1    3    3    0    0 -0.22149207331E+02 -0.81135005205E+01  0.25719274203E+01  0.23728276107E+02  0.51100000000E-03 0.  1.
         12    1    3    3    0    0 -0.38774925403E+01 -0.36352459012E+01 -0.24975619361E+01  0.58726294611E+01  0.00000000000E+00 0. -1.
</event>
<event>
 7    1  0.2313935E-008  0.4614231E+02  0.7816164E-02  0.1320468E+00
        -11   -1    0    0    0    0  0.00000000000E+00  0.00000000000E+00  0.45593999997E+02  0.45594000000E+02  0.51100000000E-03 0.  1.
         11   -1    0    0    0    0 -0.00000000000E+00 -0.00000000000E+00 -0.45593999997E+02  0.45594000000E+02  0.51100000000E-03 0. -1.
    9900012    2    1    2    0    0 -0.44513309709E+02 -0.45730201109E+01  0.51736610329E+01  0.46142311831E+02  0.99999459220E+01 0.  0.
         12    1    1    2    0    0  0.44513309709E+02  0.45730201109E+01 -0.51736610329E+01  0.45045688169E+02  0.00000000000E+00 0. -1.
         11    1    3    3    0    0 -0.28676439824E+01  0.77809955542E+00  0.13152797923E+01  0.32494279683E+01  0.51100000000E-03 0. -1.
        -11    1    3    3    0    0 -0.30999578819E+02 -0.15494498122E+01  0.53313299735E+01  0.31492820788E+02  0.51100000000E-03 0.  1.
        -12    1    3    3    0    0 -0.10646086907E+02 -0.38016698541E+01 -0.14729487329E+01  0.11400063074E+02  0.00000000000E+00 0.  1.
</event>
<event>
 7    1  0.2313935E-008  0.4614232E+02  0.7816164E-02  0.1320468E+00
        -11   -1    0    0    0    0  0.00000000000E+00  0.00000000000E+00  0.45593999997E+02  0.45594000000E+02  0.51100000000E-03 0.  1.
         11   -1    0    0    0    0 -0.00000000000E+00 -0.00000000000E+00 -0.45593999997E+02  0.45594000000E+02  0.51100000000E-03 0. -1.
    9900012    2    1    2    0    0 -0.37028413205E+02 -0.25629829815E+02 -0.10592139105E+01  0.46142317688E+02  0.99999993342E+01 0.  0.
         12    1    1    2    0    0  0.37028413205E+02  0.25629829815E+02  0.10592139105E+01  0.45045682312E+02  0.00000000000E+00 0. -1.
         11    1    3    3    0    0 -0.17868829984E+02 -0.13327092089E+02 -0.46029372063E+01  0.22761667332E+02  0.51100000000E-03 0. -1.
        -11    1    3    3    0    0 -0.79175305053E+01 -0.72738616184E+01  0.93781458954E+00  0.10792397723E+02  0.51100000000E-03 0.  1.
         12    1    3    3    0    0 -0.11242052715E+02 -0.50288761078E+01  0.26059087063E+01  0.12588252633E+02  0.00000000000E+00 0. -1.
</event>
<event>
 7    1  0.2313935E-008  0.4614232E+02  0.7816164E-02  0.1320468E+00
        -11   -1    0    0    0    0  0.00000000000E+00  0.00000000000E+00  0.45593999997E+02  0.45594000000E+02  0.51100000000E-03 0.  1.
         11   -1    0    0    0    0 -0.00000000000E+00 -0.00000000000E+00 -0.45593999997E+02  0.45594000000E+02  0.51100000000E-03 0. -1.
    9900012    2    1    2    0    0 -0.24232911746E+02 -0.62686397345E+00  0.37966913193E+02  0.46142317993E+02  0.10000002111E+02 0.  0.
         12    1    1    2    0    0  0.24232911746E+02  0.62686397345E+00 -0.37966913193E+02  0.45045682007E+02  0.00000000000E+00 0. -1.
         11    1    3    3    0    0 -0.54939965916E+01 -0.18251786195E+01  0.76682928998E+01  0.96082252159E+01  0.51100000000E-03 0. -1.
        -11    1    3    3    0    0 -0.20847410659E+01 -0.10928666978E+01  0.63490937888E+00  0.24379526475E+01  0.51100000000E-03 0.  1.
         12    1    3    3    0    0 -0.16654174089E+02  0.22911813439E+01  0.29663710914E+02  0.34096140129E+02  0.00000000000E+00 0. -1.
</event>
<event>
 7    1  0.2313935E-008  0.4614232E+02  0.7816164E-02  0.1320468E+00
        -11   -1    0    0    0    0  0.00000000000E+00  0.00000000000E+00  0.45593999997E+02  0.45594000000E+02  0.51100000000E-03 0. -1.
         11   -1    0    0    0    0 -0.00000000000E+00 -0.00000000000E+00 -0.45593999997E+02  0.45594000000E+02  0.51100000000E-03 0.  1.
    9900012    2    1    2    0    0  0.38256451263E+02  0.21327187636E+02 -0.10521809948E+02  0.46142317851E+02  0.10000000819E+02 0.  0.
         12    1    1    2    0    0 -0.38256451263E+02 -0.21327187636E+02  0.10521809948E+02  0.45045682149E+02  0.00000000000E+00 0. -1.
         11    1    3    3    0    0  0.34120429762E+01  0.30460122747E+01 -0.30258042522E+01  0.54841334487E+01  0.51100000000E-03 0. -1.
        -11    1    3    3    0    0  0.24463860646E+02  0.98169947219E+01 -0.69132787614E+01  0.27251555673E+02  0.51100000000E-03 0.  1.
         12    1    3    3    0    0  0.10380547640E+02  0.84641806397E+01 -0.58272693460E+00  0.13406628730E+02  0.00000000000E+00 0. -1.
</event>
<event>
 7    1  0.2313935E-008  0.4614232E+02  0.7816164E-02  0.1320468E+00
        -11   -1    0    0    0    0  0.00000000000E+00  0.00000000000E+00  0.45593999997E+02  0.45594000000E+02  0.51100000000E-03 0. -1.
         11   -1    0    0    0    0 -0.00000000000E+00 -0.00000000000E+00 -0.45593999997E+02  0.45594000000E+02  0.51100000000E-03 0.  1.
    9900012    2    1    2    0    0 -0.23324093291E+00 -0.44413808826E+02 -0.75148292203E+01  0.46142317921E+02  0.10000001453E+02 0.  0.
         12    1    1    2    0    0  0.23324093291E+00  0.44413808826E+02  0.75148292203E+01  0.45045682079E+02  0.00000000000E+00 0. -1.
         11    1    3    3    0    0  0.29600145433E+01 -0.12307861062E+02 -0.26810817950E+01  0.12939603158E+02  0.51100000000E-03 0. -1.
        -11    1    3    3    0    0  0.20986985786E+00 -0.31463340684E+00 -0.91554382642E+00  0.99058583533E+00  0.51100000000E-03 0.  1.
        -12    1    3    3    0    0 -0.34031253341E+01 -0.31791314357E+02 -0.39182035989E+01  0.32212128927E+02  0.00000000000E+00 0.  1.
</event>
<event>
 7    1  0.2313935E-008  0.4614232E+02  0.7816164E-02  0.1320468E+00
        -11   -1    0    0    0    0  0.00000000000E+00  0.00000000000E+00  0.45593999997E+02  0.45594000000E+02  0.51100000000E-03 0. -1.
         11   -1    0    0    0    0 -0.00000000000E+00 -0.00000000000E+00 -0.45593999997E+02  0.45594000000E+02  0.51100000000E-03 0.  1.
    9900012    2    1    2    0    0  0.42471589879E+02  0.14854589146E+02  0.21490870030E+01  0.46142319402E+02  0.10000014967E+02 0.  0.
         12    1    1    2    0    0 -0.42471589879E+02 -0.14854589146E+02 -0.21490870030E+01  0.45045680598E+02  0.00000000000E+00 0. -1.
         11    1    3    3    0    0  0.12810902289E+02  0.76268829710E+01  0.19298239528E+01  0.15033721497E+02  0.51100000000E-03 0. -1.
        -11    1    3    3    0    0  0.18208260531E+02  0.22918158464E+01  0.21932700492E+01  0.18482521614E+02  0.51100000000E-03 0.  1.
         12    1    3    3    0    0  0.11452427059E+02  0.49358903290E+01 -0.19740069990E+01  0.12626076292E+02  0.00000000000E+00 0. -1.
</event>
<event>
 7    1  0.2313935E-008  0.4614232E+02  0.7816164E-02  0.1320468E+00
        -11   -1    0    0    0    0  0.00000000000E+00  0.00000000000E+00  0.45593999997E+02  0.45594000000E+02  0.51100000000E-03 0.  1.
         11   -1    0    0    0    0 -0.00000000000E+00 -0.00000000000E+00 -0.45593999997E+02  0.45594000000E+02  0.51100000000E-03 0. -1.
    9900012    2    1    2    0    0  0.19684836318E+02 -0.14538928702E+02  0.37818517986E+02  0.46142317284E+02  0.99999956504E+01 0.  0.
         12    1    1    2    0    0 -0.19684836318E+02  0.14538928702E+02 -0.37818517986E+02  0.45045682716E+02  0.00000000000E+00 0. -1.
         11    1    3    3    0    0  0.13774412860E+02 -0.10766393748E+02  0.24954914544E+02  0.30469615097E+02  0.51100000000E-03 0. -1.
        -11    1    3    3    0    0  0.68336566133E+01 -0.37837882713E+01  0.10159260790E+02  0.12815088624E+02  0.51100000000E-03 0.  1.
         12    1    3    3    0    0 -0.92323315552E+00  0.11253316682E-01  0.27043426520E+01  0.28576135631E+01  0.00000000000E+00 0. -1.
</event>
<event>
 7    1  0.2313935E-008  0.4614232E+02  0.7816164E-02  0.1320468E+00
        -11   -1    0    0    0    0  0.00000000000E+00  0.00000000000E+00  0.45593999997E+02  0.45594000000E+02  0.51100000000E-03 0. -1.
         11   -1    0    0    0    0 -0.00000000000E+00 -0.00000000000E+00 -0.45593999997E+02  0.45594000000E+02  0.51100000000E-03 0.  1.
    9900012    2    1    2    0    0  0.56800446373E+01  0.10466036319E+02 -0.43443213039E+02  0.46142316717E+02  0.99999904748E+01 0.  0.
         12    1    1    2    0    0 -0.56800446373E+01 -0.10466036319E+02  0.43443213039E+02  0.45045683283E+02  0.00000000000E+00 0. -1.
         11    1    3    3    0    0  0.45122021141E+01  0.63469608166E+01 -0.20507320640E+02  0.21936136388E+02  0.51100000000E-03 0. -1.
        -11    1    3    3    0    0 -0.89004530102E+00  0.43958423299E+01 -0.20592262284E+02  0.21075029695E+02  0.51100000000E-03 0.  1.
         12    1    3    3    0    0  0.20578878242E+01 -0.27676682712E+00 -0.23436301151E+01  0.31311506335E+01  0.00000000000E+00 0. -1.
</event>
<event>
 7    1  0.2313935E-008  0.4614232E+02  0.7816164E-02  0.1320468E+00
        -11   -1    0    0    0    0  0.00000000000E+00  0.00000000000E+00  0.45593999997E+02  0.45594000000E+02  0.51100000000E-03 0.  1.
         11   -1    0    0    0    0 -0.00000000000E+00 -0.00000000000E+00 -0.45593999997E+02  0.45594000000E+02  0.51100000000E-03 0. -1.
    9900012    2    1    2    0    0 -0.24747104809E+02  0.27337953202E+02  0.25871426195E+02  0.46142316799E+02  0.99999912282E+01 0.  0.
         12    1    1    2    0    0  0.24747104809E+02 -0.27337953202E+02 -0.25871426195E+02  0.45045683201E+02  0.00000000000E+00 0. -1.
         11    1    3    3    0    0 -0.63965866306E+01  0.20587055491E+01  0.47821949973E+01  0.82476650219E+01  0.51100000000E-03 0. -1.
        -11    1    3    3    0    0 -0.10712321365E+02  0.12131678801E+02  0.12337944783E+02  0.20350831464E+02  0.51100000000E-03 0.  1.
         12    1    3    3    0    0 -0.76381968135E+01  0.13147568852E+02  0.87512864146E+01  0.17543820313E+02  0.00000000000E+00 0. -1.
</event>
<event>
 7    1  0.2313935E-008  0.4614232E+02  0.7816164E-02  0.1320468E+00
        -11   -1    0    0    0    0  0.00000000000E+00  0.00000000000E+00  0.45593999997E+02  0.45594000000E+02  0.51100000000E-03 0.  1.
         11   -1    0    0    0    0 -0.00000000000E+00 -0.00000000000E+00 -0.45593999997E+02  0.45594000000E+02  0.51100000000E-03 0. -1.
    9900012    2    1    2    0    0 -0.42932131435E+02  0.96256579511E+01  0.96587944188E+01  0.46142317519E+02  0.99999977907E+01 0.  0.
         12    1    1    2    0    0  0.42932131435E+02 -0.96256579511E+01 -0.96587944188E+01  0.45045682481E+02  0.00000000000E+00 0. -1.
         11    1    3    3    0    0 -0.76045262943E+01 -0.12826963040E+01  0.49048437217E+00  0.77275290455E+01  0.51100000000E-03 0. -1.
        -11    1    3    3    0    0 -0.17361068950E+01  0.28092403020E+00  0.16020533459E+01  0.23789831118E+01  0.51100000000E-03 0.  1.
         12    1    3    3    0    0 -0.33591498246E+02  0.10627430225E+02  0.75662567007E+01  0.36035805361E+02  0.00000000000E+00 0. -1.
</event>
<event>
 7    1  0.2313935E-008  0.4614232E+02  0.7816164E-02  0.1320468E+00
        -11   -1    0    0    0    0  0.00000000000E+00  0.00000000000E+00  0.45593999997E+02  0.45594000000E+02  0.51100000000E-03 0. -1.
         11   -1    0    0    0    0 -0.00000000000E+00 -0.00000000000E+00 -0.45593999997E+02  0.45594000000E+02  0.51100000000E-03 0.  1.
    9900012    2    1    2    0    0 -0.27356187118E+02  0.35504215042E+02  0.44948006355E+01  0.46142317719E+02  0.99999996165E+01 0.  0.
         12    1    1    2    0    0  0.27356187118E+02 -0.35504215042E+02 -0.44948006355E+01  0.45045682281E+02  0.00000000000E+00 0. -1.
         11    1    3    3    0    0 -0.22443207413E+01  0.22741902783E+00 -0.86889071389E+00  0.24173676464E+01  0.51100000000E-03 0. -1.
        -11    1    3    3    0    0 -0.59955290173E+01  0.70790593982E+01  0.20221822364E+01  0.94946654190E+01  0.51100000000E-03 0.  1.
         12    1    3    3    0    0 -0.19116337359E+02  0.28197736616E+02  0.33415091130E+01  0.34230284654E+02  0.00000000000E+00 0. -1.
</event>
<event>
 7    1  0.2313935E-008  0.4614232E+02  0.7816164E-02  0.1320468E+00
        -11   -1    0    0    0    0  0.00000000000E+00  0.00000000000E+00  0.45593999997E+02  0.45594000000E+02  0.51100000000E-03 0. -1.
         11   -1    0    0    0    0 -0.00000000000E+00 -0.00000000000E+00 -0.45593999997E+02  0.45594000000E+02  0.51100000000E-03 0.  1.
    9900012    2    1    2    0    0  0.18837287530E+02 -0.40878649411E+02  0.17905887200E+01  0.46142316665E+02  0.99999900035E+01 0.  0.
         12    1    1    2    0    0 -0.18837287530E+02  0.40878649411E+02 -0.17905887200E+01  0.45045683335E+02  0.00000000000E+00 0. -1.
         11    1    3    3    0    0 -0.16068039036E+00 -0.71166884360E+01  0.33103756663E+00  0.71261952411E+01  0.51100000000E-03 0. -1.
        -11    1    3    3    0    0  0.41530422289E+01 -0.59934753221E+01 -0.13047177364E+01  0.74075498530E+01  0.51100000000E-03 0.  1.
        -12    1    3    3    0    0  0.14844925692E+02 -0.27768485653E+02  0.27642688898E+01  0.31608571571E+02  0.00000000000E+00 0.  1.
</event>
<event>
 7    1  0.2313935E-008  0.4614232E+02  0.7816164E-02  0.1320468E+00
        -11   -1    0    0    0    0  0.00000000000E+00  0.00000000000E+00  0.45593999997E+02  0.45594000000E+02  0.51100000000E-03 0.  1.
         11   -1    0    0    0    0 -0.00000000000E+00 -0.00000000000E+00 -0.45593999997E+02  0.45594000000E+02  0.51100000000E-03 0. -1.
    9900012    2    1    2    0    0  0.14906410753E+02  0.42496327883E+02  0.98720272587E+00  0.46142317251E+02  0.99999953492E+01 0.  0.
         12    1    1    2    0    0 -0.14906410753E+02 -0.42496327883E+02 -0.98720272587E+00  0.45045682749E+02  0.00000000000E+00 0. -1.
         11    1    3    3    0    0  0.13731106033E+01  0.38803025288E+01  0.46501106277E-01  0.41163506966E+01  0.51100000000E-03 0. -1.
        -11    1    3    3    0    0  0.64685471860E+01  0.29379444343E+02  0.29410414603E+01  0.30226537641E+02  0.51100000000E-03 0.  1.
         12    1    3    3    0    0  0.70647529632E+01  0.92365810112E+01 -0.20003398407E+01  0.11799428914E+02  0.00000000000E+00 0. -1.
</event>
<event>
 7    1  0.2313935E-008  0.4614232E+02  0.7816164E-02  0.1320468E+00
        -11   -1    0    0    0    0  0.00000000000E+00  0.00000000000E+00  0.45593999997E+02  0.45594000000E+02  0.51100000000E-03 0. -1.
         11   -1    0    0    0    0 -0.00000000000E+00 -0.00000000000E+00 -0.45593999997E+02  0.45594000000E+02  0.51100000000E-03 0.  1.
    9900012    2    1    2    0    0  0.12588327291E+02 -0.32351089945E+02 -0.28706349076E+02  0.46142317833E+02  0.10000000657E+02 0.  0.
         12    1    1    2    0    0 -0.12588327291E+02  0.32351089945E+02  0.28706349076E+02  0.45045682167E+02  0.00000000000E+00 0. -1.
         11    1    3    3    0    0  0.17288432388E+01 -0.79913470840E+01 -0.35548531112E+01  0.89155767096E+01  0.51100000000E-03 0. -1.
        -11    1    3    3    0    0  0.24754394328E+01 -0.11599151473E+02 -0.82362003937E+01  0.14439636853E+02  0.51100000000E-03 0.  1.
        -12    1    3    3    0    0  0.83840446194E+01 -0.12760591388E+02 -0.16915295572E+02  0.22787104270E+02  0.00000000000E+00 0.  1.
</event>
<event>
 7    1  0.2313935E-008  0.4614232E+02  0.7816164E-02  0.1320468E+00
        -11   -1    0    0    0    0  0.00000000000E+00  0.00000000000E+00  0.45593999997E+02  0.45594000000E+02  0.51100000000E-03 0.  1.
         11   -1    0    0    0    0 -0.00000000000E+00 -0.00000000000E+00 -0.45593999997E+02  0.45594000000E+02  0.51100000000E-03 0. -1.
    9900012    2    1    2    0    0 -0.31509738339E+01  0.78800254675E+01  0.44239010300E+02  0.46142317967E+02  0.10000001881E+02 0.  0.
         12    1    1    2    0    0  0.31509738339E+01 -0.78800254675E+01 -0.44239010300E+02  0.45045682033E+02  0.00000000000E+00 0. -1.
         11    1    3    3    0    0 -0.17608303759E+01  0.38315939663E+01  0.65500204979E+01  0.77900195583E+01  0.51100000000E-03 0. -1.
        -11    1    3    3    0    0 -0.67923574513E+00  0.26463223193E+01  0.56615122867E+01  0.62862631704E+01  0.51100000000E-03 0.  1.
         12    1    3    3    0    0 -0.71090771286E+00  0.14021091819E+01  0.32027477515E+02  0.32066035239E+02  0.00000000000E+00 0. -1.
</event>
<event>
 7    1  0.2313935E-008  0.4614232E+02  0.7816164E-02  0.1320468E+00
        -11   -1    0    0    0    0  0.00000000000E+00  0.00000000000E+00  0.45593999997E+02  0.45594000000E+02  0.51100000000E-03 0.  1.
         11   -1    0    0    0    0 -0.00000000000E+00 -0.00000000000E+00 -0.45593999997E+02  0.45594000000E+02  0.51100000000E-03 0. -1.
    9900012    2    1    2    0    0 -0.43989421454E+02 -0.19296924780E+01  0.95037172556E+01  0.46142317026E+02  0.99999932961E+01 0.  0.
         12    1    1    2    0    0  0.43989421454E+02  0.19296924780E+01 -0.95037172556E+01  0.45045682974E+02  0.00000000000E+00 0. -1.
         11    1    3    3    0    0 -0.79584810858E+01 -0.15191597000E+01  0.24604724834E+01  0.84675375695E+01  0.51100000000E-03 0. -1.
        -11    1    3    3    0    0 -0.25107791846E+02  0.25328141112E+01  0.75807164172E+01  0.26349262236E+02  0.51100000000E-03 0.  1.
         12    1    3    3    0    0 -0.10923148522E+02 -0.29433468893E+01 -0.53747164500E+00  0.11325517220E+02  0.00000000000E+00 0. -1.
</event>
<event>
 7    1  0.2313935E-008  0.4614232E+02  0.7816164E-02  0.1320468E+00
        -11   -1    0    0    0    0  0.00000000000E+00  0.00000000000E+00  0.45593999997E+02  0.45594000000E+02  0.51100000000E-03 0.  1.
         11   -1    0    0    0    0 -0.00000000000E+00 -0.00000000000E+00 -0.45593999997E+02  0.45594000000E+02  0.51100000000E-03 0. -1.
    9900012    2    1    2    0    0 -0.36807854722E+02  0.89027842997E+01  0.24393357566E+02  0.46142316179E+02  0.99999855748E+01 0.  0.
         12    1    1    2    0    0  0.36807854722E+02 -0.89027842997E+01 -0.24393357566E+02  0.45045683821E+02  0.00000000000E+00 0. -1.
         11    1    3    3    0    0 -0.97932452142E+01 -0.14972379233E+01  0.66111904781E+01  0.11910382573E+02  0.51100000000E-03 0. -1.
        -11    1    3    3    0    0 -0.13962212409E+02  0.32016358795E+01  0.80720344670E+01  0.16442371737E+02  0.51100000000E-03 0.  1.
         12    1    3    3    0    0 -0.13052397099E+02  0.71983863435E+01  0.97101326207E+01  0.17789561869E+02  0.00000000000E+00 0. -1.
</event>
<event>
 7    1  0.2313935E-008  0.4614232E+02  0.7816164E-02  0.1320468E+00
        -11   -1    0    0    0    0  0.00000000000E+00  0.00000000000E+00  0.45593999997E+02  0.45594000000E+02  0.51100000000E-03 0. -1.
         11   -1    0    0    0    0 -0.00000000000E+00 -0.00000000000E+00 -0.45593999997E+02  0.45594000000E+02  0.51100000000E-03 0.  1.
    9900012    2    1    2    0    0 -0.11160659602E+02 -0.13405451593E+02 -0.41531279071E+02  0.46142316561E+02  0.99999890605E+01 0.  0.
         12    1    1    2    0    0  0.11160659602E+02  0.13405451593E+02  0.41531279071E+02  0.45045683439E+02  0.00000000000E+00 0. -1.
         11    1    3    3    0    0 -0.12163704971E+01 -0.60847200154E+01 -0.77903633264E+01  0.99595750849E+01  0.51100000000E-03 0. -1.
        -11    1    3    3    0    0 -0.34494519104E+01 -0.89727445800E+00 -0.60253517318E+01  0.70006202360E+01  0.51100000000E-03 0.  1.
         12    1    3    3    0    0 -0.64948371944E+01 -0.64234571195E+01 -0.27715564013E+02  0.29182121241E+02  0.00000000000E+00 0. -1.
</event>
<event>
 7    1  0.2313935E-008  0.4614232E+02  0.7816164E-02  0.1320468E+00
        -11   -1    0    0    0    0  0.00000000000E+00  0.00000000000E+00  0.45593999997E+02  0.45594000000E+02  0.51100000000E-03 0.  1.
         11   -1    0    0    0    0 -0.00000000000E+00 -0.00000000000E+00 -0.45593999997E+02  0.45594000000E+02  0.51100000000E-03 0. -1.
    9900012    2    1    2    0    0  0.91806526775E+01  0.34960777280E+02  0.26880719726E+02  0.46142318469E+02  0.10000006457E+02 0.  0.
         12    1    1    2    0    0 -0.91806526775E+01 -0.34960777280E+02 -0.26880719726E+02  0.45045681531E+02  0.00000000000E+00 0. -1.
         11    1    3    3    0    0  0.54067810178E+01  0.15234678873E+02  0.13522946129E+02  0.21076024141E+02  0.51100000000E-03 0. -1.
        -11    1    3    3    0    0  0.48849829908E+01  0.14331343807E+02  0.12184267452E+02  0.19434681570E+02  0.51100000000E-03 0.  1.
         12    1    3    3    0    0 -0.11111113311E+01  0.53947545999E+01  0.11735061454E+01  0.56316127580E+01  0.00000000000E+00 0. -1.
</event>
<event>
 7    1  0.2313935E-008  0.4614232E+02  0.7816164E-02  0.1320468E+00
        -11   -1    0    0    0    0  0.00000000000E+00  0.00000000000E+00  0.45593999997E+02  0.45594000000E+02  0.51100000000E-03 0. -1.
         11   -1    0    0    0    0 -0.00000000000E+00 -0.00000000000E+00 -0.45593999997E+02  0.45594000000E+02  0.51100000000E-03 0.  1.
    9900012    2    1    2    0    0 -0.13554703588E+02  0.42951183037E+02 -0.76115469832E+00  0.46142317964E+02  0.10000001847E+02 0.  0.
         12    1    1    2    0    0  0.13554703588E+02 -0.42951183037E+02  0.76115469832E+00  0.45045682036E+02  0.00000000000E+00 0. -1.
         11    1    3    3    0    0 -0.12475272561E+02  0.36054973118E+02  0.36505610319E+00  0.38153987710E+02  0.51100000000E-03 0. -1.
        -11    1    3    3    0    0 -0.65434935852E+00  0.46499063746E+01  0.10722746480E+01  0.48165937713E+01  0.51100000000E-03 0.  1.
         12    1    3    3    0    0 -0.42508166941E+00  0.22463035444E+01 -0.21984854495E+01  0.31717364819E+01  0.00000000000E+00 0. -1.
</event>
<event>
 7    1  0.2313935E-008  0.4614232E+02  0.7816164E-02  0.1320468E+00
        -11   -1    0    0    0    0  0.00000000000E+00  0.00000000000E+00  0.45593999997E+02  0.45594000000E+02  0.51100000000E-03 0. -1.
         11   -1    0    0    0    0 -0.00000000000E+00 -0.00000000000E+00 -0.45593999997E+02  0.45594000000E+02  0.51100000000E-03 0.  1.
    9900012    2    1    2    0    0 -0.40134437967E+02  0.16854924845E+02  0.11586711074E+02  0.46142317899E+02  0.10000001255E+02 0.  0.
         12    1    1    2    0    0  0.40134437967E+02 -0.16854924845E+02 -0.11586711074E+02  0.45045682101E+02  0.00000000000E+00 0. -1.
         11    1    3    3    0    0 -0.32493971849E+00 -0.46500512144E+00  0.79988779100E+00  0.98063057414E+00  0.51100000000E-03 0. -1.
        -11    1    3    3    0    0 -0.21615489182E+02  0.66634547827E+01  0.74474268262E+01  0.23813760073E+02  0.51100000000E-03 0.  1.
         12    1    3    3    0    0 -0.18194009067E+02  0.10656475184E+02  0.33393964573E+01  0.21347927252E+02  0.00000000000E+00 0. -1.
</event>
<event>
 7    1  0.2313935E-008  0.4614232E+02  0.7816164E-02  0.1320468E+00
        -11   -1    0    0    0    0  0.00000000000E+00  0.00000000000E+00  0.45593999997E+02  0.45594000000E+02  0.51100000000E-03 0.  1.
         11   -1    0    0    0    0 -0.00000000000E+00 -0.00000000000E+00 -0.45593999997E+02  0.45594000000E+02  0.51100000000E-03 0. -1.
    9900012    2    1    2    0    0  0.18796459878E+02 -0.15364865431E+01  0.40907770737E+02  0.46142318725E+02  0.10000008789E+02 0.  0.
         12    1    1    2    0    0 -0.18796459878E+02  0.15364865431E+01 -0.40907770737E+02  0.45045681275E+02  0.00000000000E+00 0. -1.
         11    1    3    3    0    0  0.98154220812E+00 -0.13236967106E+01  0.13633786471E+01  0.21387846279E+01  0.51100000000E-03 0.  1.
        -11    1    3    3    0    0  0.18664092876E+01  0.22242160059E+01  0.37625431595E+01  0.47526152546E+01  0.51100000000E-03 0. -1.
        -12    1    3    3    0    0  0.15948508382E+02 -0.24370058385E+01  0.35781848931E+02  0.39250918842E+02  0.00000000000E+00 0.  1.
</event>
<event>
 7    1  0.2313935E-008  0.4614232E+02  0.7816164E-02  0.1320468E+00
        -11   -1    0    0    0    0  0.00000000000E+00  0.00000000000E+00  0.45593999997E+02  0.45594000000E+02  0.51100000000E-03 0. -1.
         11   -1    0    0    0    0 -0.00000000000E+00 -0.00000000000E+00 -0.45593999997E+02  0.45594000000E+02  0.51100000000E-03 0.  1.
    9900012    2    1    2    0    0  0.33758684120E+02  0.23664053777E+02 -0.18151509192E+02  0.46142317847E+02  0.10000000782E+02 0.  0.
         12    1    1    2    0    0 -0.33758684120E+02 -0.23664053777E+02  0.18151509192E+02  0.45045682153E+02  0.00000000000E+00 0. -1.
         11    1    3    3    0    0  0.19177816851E+01  0.41707348798E+01 -0.18217141838E+01  0.49387811105E+01  0.51100000000E-03 0. -1.
        -11    1    3    3    0    0  0.21943045891E+01  0.29974792567E+01 -0.29102650398E+01  0.47190568324E+01  0.51100000000E-03 0.  1.
        -12    1    3    3    0    0  0.29646597846E+02  0.16495839641E+02 -0.13419529968E+02  0.36484479904E+02  0.00000000000E+00 0.  1.
</event>
<event>
 7    1  0.2313935E-008  0.4614232E+02  0.7816164E-02  0.1320468E+00
        -11   -1    0    0    0    0  0.00000000000E+00  0.00000000000E+00  0.45593999997E+02  0.45594000000E+02  0.51100000000E-03 0.  1.
         11   -1    0    0    0    0 -0.00000000000E+00 -0.00000000000E+00 -0.45593999997E+02  0.45594000000E+02  0.51100000000E-03 0. -1.
    9900012    2    1    2    0    0 -0.18550177423E+02 -0.84689198180E+01  0.40165678526E+02  0.46142318556E+02  0.10000007249E+02 0.  0.
         12    1    1    2    0    0  0.18550177423E+02  0.84689198180E+01 -0.40165678526E+02  0.45045681444E+02  0.00000000000E+00 0. -1.
         11    1    3    3    0    0  0.74840110216E+00 -0.74437422987E+00  0.12521416891E+01  0.16376984687E+01  0.51100000000E-03 0. -1.
        -11    1    3    3    0    0 -0.82252046574E+01 -0.63052365049E+01  0.20506719221E+02  0.22976847749E+02  0.51100000000E-03 0.  1.
        -12    1    3    3    0    0 -0.11073373868E+02 -0.14193090832E+01  0.18406817616E+02  0.21527772338E+02  0.00000000000E+00 0.  1.
</event>
<event>
 7    1  0.2313935E-008  0.4614232E+02  0.7816164E-02  0.1320468E+00
        -11   -1    0    0    0    0  0.00000000000E+00  0.00000000000E+00  0.45593999997E+02  0.45594000000E+02  0.51100000000E-03 0. -1.
         11   -1    0    0    0    0 -0.00000000000E+00 -0.00000000000E+00 -0.45593999997E+02  0.45594000000E+02  0.51100000000E-03 0.  1.
    9900012    2    1    2    0    0  0.24782246056E+02  0.32775412259E+02  0.18458771831E+02  0.46142316235E+02  0.99999860825E+01 0.  0.
         12    1    1    2    0    0 -0.24782246056E+02 -0.32775412259E+02 -0.18458771831E+02  0.45045683765E+02  0.00000000000E+00 0. -1.
         11    1    3    3    0    0  0.88185730516E+01  0.65249799614E+01  0.62720012573E+01  0.12636478710E+02  0.51100000000E-03 0.  1.
        -11    1    3    3    0    0  0.30973428036E+01  0.54780303403E+01  0.21599096425E+00  0.62967452871E+01  0.51100000000E-03 0. -1.
         12    1    3    3    0    0  0.12866330201E+02  0.20772401958E+02  0.11970779609E+02  0.27209092238E+02  0.00000000000E+00 0. -1.
</event>
<event>
 7    1  0.2313935E-008  0.4614232E+02  0.7816164E-02  0.1320468E+00
        -11   -1    0    0    0    0  0.00000000000E+00  0.00000000000E+00  0.45593999997E+02  0.45594000000E+02  0.51100000000E-03 0.  1.
         11   -1    0    0    0    0 -0.00000000000E+00 -0.00000000000E+00 -0.45593999997E+02  0.45594000000E+02  0.51100000000E-03 0. -1.
    9900012    2    1    2    0    0  0.42542956866E+02 -0.74969036531E+01  0.12767406165E+02  0.46142318703E+02  0.10000008592E+02 0.  0.
         12    1    1    2    0    0 -0.42542956866E+02  0.74969036531E+01 -0.12767406165E+02  0.45045681297E+02  0.00000000000E+00 0. -1.
         11    1    3    3    0    0  0.82716177406E+01 -0.39498253497E+01  0.46152698774E+01  0.10262626206E+02  0.51100000000E-03 0. -1.
        -11    1    3    3    0    0  0.88588778449E+01 -0.53771201887E+00 -0.43902962073E+00  0.88860338821E+01  0.51100000000E-03 0.  1.
         12    1    3    3    0    0  0.25412461281E+02 -0.30093662845E+01  0.85911659078E+01  0.26993658615E+02  0.00000000000E+00 0. -1.
</event>
<event>
 7    1  0.2313935E-008  0.4614232E+02  0.7816164E-02  0.1320468E+00
        -11   -1    0    0    0    0  0.00000000000E+00  0.00000000000E+00  0.45593999997E+02  0.45594000000E+02  0.51100000000E-03 0.  1.
         11   -1    0    0    0    0 -0.00000000000E+00 -0.00000000000E+00 -0.45593999997E+02  0.45594000000E+02  0.51100000000E-03 0. -1.
    9900012    2    1    2    0    0  0.42569304854E+02 -0.92287233339E+01  0.11480350244E+02  0.46142317723E+02  0.99999996481E+01 0.  0.
         12    1    1    2    0    0 -0.42569304854E+02  0.92287233339E+01 -0.11480350244E+02  0.45045682277E+02  0.00000000000E+00 0. -1.
         11    1    3    3    0    0  0.87978815028E-01  0.57594217959E+00  0.20324051709E+00  0.61705480715E+00  0.51100000000E-03 0. -1.
        -11    1    3    3    0    0  0.78790307053E+01 -0.13106028444E+01 -0.49140256075E+00  0.80023922304E+01  0.51100000000E-03 0.  1.
        -12    1    3    3    0    0  0.34602295334E+02 -0.84940626690E+01  0.11768512287E+02  0.37522870685E+02  0.00000000000E+00 0.  1.
</event>
<event>
 7    1  0.2313935E-008  0.4614232E+02  0.7816164E-02  0.1320468E+00
        -11   -1    0    0    0    0  0.00000000000E+00  0.00000000000E+00  0.45593999997E+02  0.45594000000E+02  0.51100000000E-03 0. -1.
         11   -1    0    0    0    0 -0.00000000000E+00 -0.00000000000E+00 -0.45593999997E+02  0.45594000000E+02  0.51100000000E-03 0.  1.
    9900012    2    1    2    0    0 -0.43420938080E+02 -0.57885518556E+01 -0.10498956911E+02  0.46142319935E+02  0.10000019823E+02 0.  0.
         12    1    1    2    0    0  0.43420938080E+02  0.57885518556E+01  0.10498956911E+02  0.45045680065E+02  0.00000000000E+00 0. -1.
         11    1    3    3    0    0 -0.25059273616E+02 -0.17533677313E+01 -0.82877861527E+01  0.26452389157E+02  0.51100000000E-03 0.  1.
        -11    1    3    3    0    0 -0.10914815813E+02 -0.24624361016E+01 -0.39801254057E+01  0.11875950248E+02  0.51100000000E-03 0. -1.
         12    1    3    3    0    0 -0.74468486515E+01 -0.15727480228E+01  0.17689546478E+01  0.78139805303E+01  0.00000000000E+00 0. -1.
</event>
<event>
 7    1  0.2313935E-008  0.4614232E+02  0.7816164E-02  0.1320468E+00
        -11   -1    0    0    0    0  0.00000000000E+00  0.00000000000E+00  0.45593999997E+02  0.45594000000E+02  0.51100000000E-03 0.  1.
         11   -1    0    0    0    0 -0.00000000000E+00 -0.00000000000E+00 -0.45593999997E+02  0.45594000000E+02  0.51100000000E-03 0. -1.
    9900012    2    1    2    0    0 -0.21638576123E+02  0.33241583741E+02  0.21351407281E+02  0.46142318085E+02  0.10000002958E+02 0.  0.
         12    1    1    2    0    0  0.21638576123E+02 -0.33241583741E+02 -0.21351407281E+02  0.45045681915E+02  0.00000000000E+00 0. -1.
         11    1    3    3    0    0 -0.42158841315E+01  0.20832692135E+01  0.13793758544E+01  0.49006497156E+01  0.51100000000E-03 0. -1.
        -11    1    3    3    0    0 -0.97037006771E+01  0.14274010301E+02  0.71674962843E+01  0.18689092545E+02  0.51100000000E-03 0.  1.
         12    1    3    3    0    0 -0.77189913148E+01  0.16884304227E+02  0.12804535142E+02  0.22552575825E+02  0.00000000000E+00 0. -1.
</event>
<event>
 7    1  0.2313935E-008  0.4614232E+02  0.7816164E-02  0.1320468E+00
        -11   -1    0    0    0    0  0.00000000000E+00  0.00000000000E+00  0.45593999997E+02  0.45594000000E+02  0.51100000000E-03 0.  1.
         11   -1    0    0    0    0 -0.00000000000E+00 -0.00000000000E+00 -0.45593999997E+02  0.45594000000E+02  0.51100000000E-03 0. -1.
    9900012    2    1    2    0    0 -0.44666131386E+02  0.53540538618E+01  0.23203999618E+01  0.46142318278E+02  0.10000004718E+02 0.  0.
         12    1    1    2    0    0  0.44666131386E+02 -0.53540538618E+01 -0.23203999618E+01  0.45045681722E+02  0.00000000000E+00 0. -1.
         11    1    3    3    0    0 -0.29597814535E+02  0.32218669350E+01 -0.21065640335E+01  0.29847088034E+02  0.51100000000E-03 0. -1.
        -11    1    3    3    0    0 -0.69409666557E+01 -0.86527266532E+00  0.15194648501E+01  0.71578270860E+01  0.51100000000E-03 0.  1.
         12    1    3    3    0    0 -0.81273501954E+01  0.29974595921E+01  0.29074991452E+01  0.91374031587E+01  0.00000000000E+00 0. -1.
</event>
<event>
 7    1  0.2313935E-008  0.4614232E+02  0.7816164E-02  0.1320468E+00
        -11   -1    0    0    0    0  0.00000000000E+00  0.00000000000E+00  0.45593999997E+02  0.45594000000E+02  0.51100000000E-03 0.  1.
         11   -1    0    0    0    0 -0.00000000000E+00 -0.00000000000E+00 -0.45593999997E+02  0.45594000000E+02  0.51100000000E-03 0. -1.
    9900012    2    1    2    0    0  0.41825260409E+02  0.92566479748E+01  0.13931103636E+02  0.46142316649E+02  0.99999898601E+01 0.  0.
         12    1    1    2    0    0 -0.41825260409E+02 -0.92566479748E+01 -0.13931103636E+02  0.45045683351E+02  0.00000000000E+00 0. -1.
         11    1    3    3    0    0  0.77534194834E+01 -0.74888763859E-01  0.14532097934E+01  0.78887857734E+01  0.51100000000E-03 0. -1.
        -11    1    3    3    0    0  0.25070956477E+02  0.48816451933E+01  0.11949554323E+02  0.28198850460E+02  0.51100000000E-03 0.  1.
         12    1    3    3    0    0  0.90008844486E+01  0.44498915454E+01  0.52833952016E+00  0.10054680416E+02  0.00000000000E+00 0. -1.
</event>
<event>
 7    1  0.2313935E-008  0.4614232E+02  0.7816164E-02  0.1320468E+00
        -11   -1    0    0    0    0  0.00000000000E+00  0.00000000000E+00  0.45593999997E+02  0.45594000000E+02  0.51100000000E-03 0.  1.
         11   -1    0    0    0    0 -0.00000000000E+00 -0.00000000000E+00 -0.45593999997E+02  0.45594000000E+02  0.51100000000E-03 0. -1.
    9900012    2    1    2    0    0 -0.15787673304E+02  0.97581438991E+01  0.41044384571E+02  0.46142317570E+02  0.99999982601E+01 0.  0.
         12    1    1    2    0    0  0.15787673304E+02 -0.97581438991E+01 -0.41044384571E+02  0.45045682430E+02  0.00000000000E+00 0. -1.
         11    1    3    3    0    0 -0.86769539943E+01  0.60296461459E+01  0.13269741864E+02  0.16962671154E+02  0.51100000000E-03 0. -1.
        -11    1    3    3    0    0 -0.52034750291E+01  0.44390387036E+01  0.19745423689E+02  0.20896482334E+02  0.51100000000E-03 0.  1.
        -12    1    3    3    0    0 -0.19072442810E+01 -0.71054095046E+00  0.80292190177E+01  0.82831640829E+01  0.00000000000E+00 0.  1.
</event>
<event>
 7    1  0.2313935E-008  0.4614232E+02  0.7816164E-02  0.1320468E+00
        -11   -1    0    0    0    0  0.00000000000E+00  0.00000000000E+00  0.45593999997E+02  0.45594000000E+02  0.51100000000E-03 0.  1.
         11   -1    0    0    0    0 -0.00000000000E+00 -0.00000000000E+00 -0.45593999997E+02  0.45594000000E+02  0.51100000000E-03 0. -1.
    9900012    2    1    2    0    0 -0.91310599572E+01  0.44070317634E+02  0.18826145954E+01  0.46142318853E+02  0.10000009953E+02 0.  0.
         12    1    1    2    0    0  0.91310599572E+01 -0.44070317634E+02 -0.18826145954E+01  0.45045681147E+02  0.00000000000E+00 0. -1.
         11    1    3    3    0    0 -0.13057382388E+00  0.37709285587E+01  0.26155419604E+01  0.45910795817E+01  0.51100000000E-03 0. -1.
        -11    1    3    3    0    0 -0.55490405206E+01  0.22203470015E+02  0.17941743762E+01  0.22956589323E+02  0.51100000000E-03 0.  1.
        -12    1    3    3    0    0 -0.34514456127E+01  0.18095919061E+02 -0.25271017412E+01  0.18594649948E+02  0.00000000000E+00 0.  1.
</event>
<event>
 7    1  0.2313935E-008  0.4614233E+02  0.7816164E-02  0.1320468E+00
        -11   -1    0    0    0    0  0.00000000000E+00  0.00000000000E+00  0.45593999997E+02  0.45594000000E+02  0.51100000000E-03 0. -1.
         11   -1    0    0    0    0 -0.00000000000E+00 -0.00000000000E+00 -0.45593999997E+02  0.45594000000E+02  0.51100000000E-03 0.  1.
    9900012    2    1    2    0    0 -0.24296505923E+02  0.25107151962E+02 -0.28432780134E+02  0.46142331331E+02  0.10000123739E+02 0.  0.
         12    1    1    2    0    0  0.24296505923E+02 -0.25107151962E+02  0.28432780134E+02  0.45045668669E+02  0.00000000000E+00 0. -1.
         11    1    3    3    0    0 -0.17905330981E+02  0.13459790705E+02 -0.15787626216E+02  0.27404670864E+02  0.51100000000E-03 0. -1.
        -11    1    3    3    0    0 -0.64380158112E+01  0.84313621301E+01 -0.95403943998E+01  0.14267271656E+02  0.51100000000E-03 0.  1.
         12    1    3    3    0    0  0.46840869052E-01  0.32159991269E+01 -0.31047595183E+01  0.44703888106E+01  0.00000000000E+00 0. -1.
</event>
<event>
 7    1  0.2313935E-008  0.4614232E+02  0.7816164E-02  0.1320468E+00
        -11   -1    0    0    0    0  0.00000000000E+00  0.00000000000E+00  0.45593999997E+02  0.45594000000E+02  0.51100000000E-03 0.  1.
         11   -1    0    0    0    0 -0.00000000000E+00 -0.00000000000E+00 -0.45593999997E+02  0.45594000000E+02  0.51100000000E-03 0. -1.
    9900012    2    1    2    0    0 -0.41899022480E+02  0.15533905044E+02  0.56818407673E+01  0.46142316464E+02  0.99999881755E+01 0.  0.
         12    1    1    2    0    0  0.41899022480E+02 -0.15533905044E+02 -0.56818407673E+01  0.45045683536E+02  0.00000000000E+00 0. -1.
         11    1    3    3    0    0 -0.33832682263E+02  0.12419797280E+02  0.57367538878E+01  0.36494000863E+02  0.51100000000E-03 0. -1.
        -11    1    3    3    0    0 -0.77352976783E+01  0.35011558713E+01 -0.10252572593E+01  0.85524309595E+01  0.51100000000E-03 0.  1.
         12    1    3    3    0    0 -0.33104253898E+00 -0.38704810793E+00  0.97034413872E+00  0.10958846417E+01  0.00000000000E+00 0. -1.
</event>
<event>
 7    1  0.2313935E-008  0.4614232E+02  0.7816164E-02  0.1320468E+00
        -11   -1    0    0    0    0  0.00000000000E+00  0.00000000000E+00  0.45593999997E+02  0.45594000000E+02  0.51100000000E-03 0. -1.
         11   -1    0    0    0    0 -0.00000000000E+00 -0.00000000000E+00 -0.45593999997E+02  0.45594000000E+02  0.51100000000E-03 0.  1.
    9900012    2    1    2    0    0  0.31671945688E+01 -0.44915617389E+02  0.12921523817E+01  0.46142318024E+02  0.10000002400E+02 0.  0.
         12    1    1    2    0    0 -0.31671945688E+01  0.44915617389E+02 -0.12921523817E+01  0.45045681976E+02  0.00000000000E+00 0. -1.
         11    1    3    3    0    0 -0.13766715848E+01 -0.51280980174E+01 -0.11533779701E+01  0.54334974861E+01  0.51100000000E-03 0. -1.
        -11    1    3    3    0    0 -0.82050338365E+00 -0.22858545061E+02  0.16404207822E+01  0.22932014493E+02  0.51100000000E-03 0.  1.
         12    1    3    3    0    0  0.53643695372E+01 -0.16928974310E+02  0.80510956962E+00  0.17776806045E+02  0.00000000000E+00 0. -1.
</event>
<event>
 7    1  0.2313935E-008  0.4614232E+02  0.7816164E-02  0.1320468E+00
        -11   -1    0    0    0    0  0.00000000000E+00  0.00000000000E+00  0.45593999997E+02  0.45594000000E+02  0.51100000000E-03 0. -1.
         11   -1    0    0    0    0 -0.00000000000E+00 -0.00000000000E+00 -0.45593999997E+02  0.45594000000E+02  0.51100000000E-03 0.  1.
    9900012    2    1    2    0    0 -0.16040039060E+01 -0.20955560927E+02 -0.39842255945E+02  0.46142315178E+02  0.99999764425E+01 0.  0.
         12    1    1    2    0    0  0.16040039060E+01  0.20955560927E+02  0.39842255945E+02  0.45045684822E+02  0.00000000000E+00 0. -1.
         11    1    3    3    0    0 -0.21464997010E+01 -0.12721340206E+01 -0.88740963055E+01  0.92182086890E+01  0.51100000000E-03 0. -1.
        -11    1    3    3    0    0  0.11280305684E+00 -0.15056895503E+02 -0.26493302055E+02  0.30473232201E+02  0.51100000000E-03 0.  1.
         12    1    3    3    0    0  0.42969273818E+00 -0.46265314032E+01 -0.44748575845E+01  0.64508742877E+01  0.00000000000E+00 0. -1.
</event>
<event>
 7    1  0.2313935E-008  0.4614232E+02  0.7816164E-02  0.1320468E+00
        -11   -1    0    0    0    0  0.00000000000E+00  0.00000000000E+00  0.45593999997E+02  0.45594000000E+02  0.51100000000E-03 0.  1.
         11   -1    0    0    0    0 -0.00000000000E+00 -0.00000000000E+00 -0.45593999997E+02  0.45594000000E+02  0.51100000000E-03 0. -1.
    9900012    2    1    2    0    0  0.23242420404E+02  0.26378016003E+02  0.28162096499E+02  0.46142317480E+02  0.99999974366E+01 0.  0.
         12    1    1    2    0    0 -0.23242420404E+02 -0.26378016003E+02 -0.28162096499E+02  0.45045682520E+02  0.00000000000E+00 0. -1.
         11    1    3    3    0    0  0.29180804468E+00  0.28810994369E+01  0.43217001241E+01  0.52022089658E+01  0.51100000000E-03 0. -1.
        -11    1    3    3    0    0  0.13949224326E+02  0.10501536611E+02  0.13101082792E+02  0.21828914336E+02  0.51100000000E-03 0.  1.
        -12    1    3    3    0    0  0.90013880332E+01  0.12995379955E+02  0.10739313583E+02  0.19111194178E+02  0.00000000000E+00 0.  1.
</event>
<event>
 7    1  0.2313935E-008  0.4614232E+02  0.7816164E-02  0.1320468E+00
        -11   -1    0    0    0    0  0.00000000000E+00  0.00000000000E+00  0.45593999997E+02  0.45594000000E+02  0.51100000000E-03 0.  1.
         11   -1    0    0    0    0 -0.00000000000E+00 -0.00000000000E+00 -0.45593999997E+02  0.45594000000E+02  0.51100000000E-03 0. -1.
    9900012    2    1    2    0    0  0.65608753397E+00 -0.19035820339E+02  0.40820590256E+02  0.46142317680E+02  0.99999992580E+01 0.  0.
         12    1    1    2    0    0 -0.65608753397E+00  0.19035820339E+02 -0.40820590256E+02  0.45045682320E+02  0.00000000000E+00 0. -1.
         11    1    3    3    0    0  0.35134409977E+00 -0.10817756165E+01  0.24723070064E+00  0.11639606701E+01  0.51100000000E-03 0. -1.
        -11    1    3    3    0    0 -0.68939098809E+00 -0.10864039589E+02  0.15769538086E+02  0.19161966179E+02  0.51100000000E-03 0.  1.
         12    1    3    3    0    0  0.99413442229E+00 -0.70900051333E+01  0.24803821470E+02  0.25816390831E+02  0.00000000000E+00 0. -1.
</event>
<event>
 7    1  0.2313935E-008  0.4614232E+02  0.7816164E-02  0.1320468E+00
        -11   -1    0    0    0    0  0.00000000000E+00  0.00000000000E+00  0.45593999997E+02  0.45594000000E+02  0.51100000000E-03 0. -1.
         11   -1    0    0    0    0 -0.00000000000E+00 -0.00000000000E+00 -0.45593999997E+02  0.45594000000E+02  0.51100000000E-03 0.  1.
    9900012    2    1    2    0    0  0.12341793352E+01 -0.42714460619E+02 -0.14250092005E+02  0.46142318001E+02  0.10000002189E+02 0.  0.
         12    1    1    2    0    0 -0.12341793352E+01  0.42714460619E+02  0.14250092005E+02  0.45045681999E+02  0.00000000000E+00 0. -1.
         11    1    3    3    0    0 -0.22482378795E+01 -0.17683998088E+02 -0.37815432388E+01  0.18223019274E+02  0.51100000000E-03 0. -1.
        -11    1    3    3    0    0  0.36966637881E+00 -0.16204865292E+02 -0.86961794135E+01  0.18394505947E+02  0.51100000000E-03 0.  1.
         12    1    3    3    0    0  0.31127508358E+01 -0.88255972389E+01 -0.17723693525E+01  0.95247927805E+01  0.00000000000E+00 0. -1.
</event>
<event>
 7    1  0.2313935E-008  0.4614232E+02  0.7816164E-02  0.1320468E+00
        -11   -1    0    0    0    0  0.00000000000E+00  0.00000000000E+00  0.45593999997E+02  0.45594000000E+02  0.51100000000E-03 0.  1.
         11   -1    0    0    0    0 -0.00000000000E+00 -0.00000000000E+00 -0.45593999997E+02  0.45594000000E+02  0.51100000000E-03 0. -1.
    9900012    2    1    2    0    0  0.31964452909E+02 -0.19564639348E+02 -0.24992241219E+02  0.46142317812E+02  0.10000000464E+02 0.  0.
         12    1    1    2    0    0 -0.31964452909E+02  0.19564639348E+02  0.24992241219E+02  0.45045682188E+02  0.00000000000E+00 0. -1.
         11    1    3    3    0    0  0.85262829108E+01 -0.68682000645E+01 -0.99829652432E+01  0.14816520094E+02  0.51100000000E-03 0. -1.
        -11    1    3    3    0    0  0.22607378707E+02 -0.10360938304E+02 -0.14526429987E+02  0.28800343452E+02  0.51100000000E-03 0.  1.
         12    1    3    3    0    0  0.83079129127E+00 -0.23355009798E+01 -0.48284598923E+00  0.25254542652E+01  0.00000000000E+00 0. -1.
</event>
<event>
 7    1  0.2313935E-008  0.4614232E+02  0.7816164E-02  0.1320468E+00
        -11   -1    0    0    0    0  0.00000000000E+00  0.00000000000E+00  0.45593999997E+02  0.45594000000E+02  0.51100000000E-03 0.  1.
         11   -1    0    0    0    0 -0.00000000000E+00 -0.00000000000E+00 -0.45593999997E+02  0.45594000000E+02  0.51100000000E-03 0. -1.
    9900012    2    1    2    0    0  0.35159867221E+01 -0.43169700131E+02 -0.12374500483E+02  0.46142318362E+02  0.10000005478E+02 0.  0.
         12    1    1    2    0    0 -0.35159867221E+01  0.43169700131E+02  0.12374500483E+02  0.45045681638E+02  0.00000000000E+00 0. -1.
         11    1    3    3    0    0  0.15656867043E+01 -0.25286892637E+02 -0.41150500567E+01  0.25667332376E+02  0.51100000000E-03 0.  1.
        -11    1    3    3    0    0 -0.17039676434E+00  0.24509799249E+00  0.19896987398E+00  0.35874413597E+00  0.51100000000E-03 0. -1.
        -12    1    3    3    0    0  0.21206967821E+01 -0.18127905487E+02 -0.84584203003E+01  0.20116241850E+02  0.00000000000E+00 0.  1.
</event>
<event>
 7    1  0.2313935E-008  0.4614232E+02  0.7816164E-02  0.1320468E+00
        -11   -1    0    0    0    0  0.00000000000E+00  0.00000000000E+00  0.45593999997E+02  0.45594000000E+02  0.51100000000E-03 0.  1.
         11   -1    0    0    0    0 -0.00000000000E+00 -0.00000000000E+00 -0.45593999997E+02  0.45594000000E+02  0.51100000000E-03 0. -1.
    9900012    2    1    2    0    0 -0.38671680325E+02  0.16552376161E+00  0.23099507214E+02  0.46142317734E+02  0.99999997513E+01 0.  0.
         12    1    1    2    0    0  0.38671680325E+02 -0.16552376161E+00 -0.23099507214E+02  0.45045682266E+02  0.00000000000E+00 0. -1.
         11    1    3    3    0    0 -0.31506136925E+02  0.18944055052E+01  0.20245998902E+02  0.37498345402E+02  0.51100000000E-03 0. -1.
        -11    1    3    3    0    0 -0.48205255349E+01  0.30420234132E+00  0.27068401554E+01  0.55368754172E+01  0.51100000000E-03 0.  1.
         12    1    3    3    0    0 -0.23450178656E+01 -0.20330840849E+01  0.14666815712E+00  0.31070969142E+01  0.00000000000E+00 0. -1.
</event>
<event>
 7    1  0.2313935E-008  0.4614232E+02  0.7816164E-02  0.1320468E+00
        -11   -1    0    0    0    0  0.00000000000E+00  0.00000000000E+00  0.45593999997E+02  0.45594000000E+02  0.51100000000E-03 0.  1.
         11   -1    0    0    0    0 -0.00000000000E+00 -0.00000000000E+00 -0.45593999997E+02  0.45594000000E+02  0.51100000000E-03 0. -1.
    9900012    2    1    2    0    0 -0.13786950211E+02 -0.26393669340E+02  0.33799522564E+02  0.46142317600E+02  0.99999985283E+01 0.  0.
         12    1    1    2    0    0  0.13786950211E+02  0.26393669340E+02 -0.33799522564E+02  0.45045682400E+02  0.00000000000E+00 0. -1.
         11    1    3    3    0    0 -0.19379296010E+01 -0.10004983327E+02  0.10257115448E+02  0.14459034549E+02  0.51100000000E-03 0. -1.
        -11    1    3    3    0    0 -0.76326191352E+01 -0.13893826323E+02  0.14936712784E+02  0.21780740892E+02  0.51100000000E-03 0.  1.
        -12    1    3    3    0    0 -0.42164014751E+01 -0.24948596900E+01  0.86056943311E+01  0.99025421581E+01  0.00000000000E+00 0.  1.
</event>
<event>
 7    1  0.2313935E-008  0.4614232E+02  0.7816164E-02  0.1320468E+00
        -11   -1    0    0    0    0  0.00000000000E+00  0.00000000000E+00  0.45593999997E+02  0.45594000000E+02  0.51100000000E-03 0.  1.
         11   -1    0    0    0    0 -0.00000000000E+00 -0.00000000000E+00 -0.45593999997E+02  0.45594000000E+02  0.51100000000E-03 0. -1.
    9900012    2    1    2    0    0  0.12345379688E+02  0.89771717674E+01  0.42380602179E+02  0.46142318147E+02  0.10000003518E+02 0.  0.
         12    1    1    2    0    0 -0.12345379688E+02 -0.89771717674E+01 -0.42380602179E+02  0.45045681853E+02  0.00000000000E+00 0. -1.
         11    1    3    3    0    0  0.76920647066E+00 -0.15857108588E+01  0.87074432612E+01  0.88840151920E+01  0.51100000000E-03 0. -1.
        -11    1    3    3    0    0  0.55445385241E+01  0.31238489019E+01  0.13934817392E+02  0.15319251790E+02  0.51100000000E-03 0.  1.
        -12    1    3    3    0    0  0.60316346932E+01  0.74390337243E+01  0.19738341526E+02  0.21939051165E+02  0.00000000000E+00 0.  1.
</event>
<event>
 7    1  0.2313935E-008  0.4614232E+02  0.7816164E-02  0.1320468E+00
        -11   -1    0    0    0    0  0.00000000000E+00  0.00000000000E+00  0.45593999997E+02  0.45594000000E+02  0.51100000000E-03 0.  1.
         11   -1    0    0    0    0 -0.00000000000E+00 -0.00000000000E+00 -0.45593999997E+02  0.45594000000E+02  0.51100000000E-03 0. -1.
    9900012    2    1    2    0    0  0.16031185601E+02 -0.14187747119E+02  0.39633597172E+02  0.46142322018E+02  0.10000038818E+02 0.  0.
         12    1    1    2    0    0 -0.16031185601E+02  0.14187747119E+02 -0.39633597172E+02  0.45045677982E+02  0.00000000000E+00 0. -1.
         11    1    3    3    0    0  0.40011875597E+01 -0.75585650579E+01  0.12696654907E+02  0.15308378546E+02  0.51100000000E-03 0. -1.
        -11    1    3    3    0    0  0.40498508814E+01 -0.51472352034E+01  0.15331499420E+02  0.16671838445E+02  0.51100000000E-03 0.  1.
        -12    1    3    3    0    0  0.79801471598E+01 -0.14819468579E+01  0.11605442844E+02  0.14162105027E+02  0.00000000000E+00 0.  1.
</event>
<event>
 7    1  0.2313935E-008  0.4614232E+02  0.7816164E-02  0.1320468E+00
        -11   -1    0    0    0    0  0.00000000000E+00  0.00000000000E+00  0.45593999997E+02  0.45594000000E+02  0.51100000000E-03 0.  1.
         11   -1    0    0    0    0 -0.00000000000E+00 -0.00000000000E+00 -0.45593999997E+02  0.45594000000E+02  0.51100000000E-03 0. -1.
    9900012    2    1    2    0    0  0.31275636242E+02 -0.34658979952E+01  0.32232524410E+02  0.46142317620E+02  0.99999987119E+01 0.  0.
         12    1    1    2    0    0 -0.31275636242E+02  0.34658979952E+01 -0.32232524410E+02  0.45045682380E+02  0.00000000000E+00 0. -1.
         11    1    3    3    0    0  0.24924725561E+02 -0.10680852403E+01  0.26367979245E+02  0.36299491457E+02  0.51100000000E-03 0. -1.
        -11    1    3    3    0    0  0.10196774075E+01  0.10435016902E+01  0.17577138424E+01  0.22843371043E+01  0.51100000000E-03 0.  1.
         12    1    3    3    0    0  0.53312332734E+01 -0.34413144451E+01  0.41068313231E+01  0.75584890581E+01  0.00000000000E+00 0. -1.
</event>
<event>
 7    1  0.2313935E-008  0.4614232E+02  0.7816164E-02  0.1320468E+00
        -11   -1    0    0    0    0  0.00000000000E+00  0.00000000000E+00  0.45593999997E+02  0.45594000000E+02  0.51100000000E-03 0.  1.
         11   -1    0    0    0    0 -0.00000000000E+00 -0.00000000000E+00 -0.45593999997E+02  0.45594000000E+02  0.51100000000E-03 0. -1.
    9900012    2    1    2    0    0  0.85390693244E+01  0.40837341849E+02  0.16985561609E+02  0.46142317661E+02  0.99999990882E+01 0.  0.
         12    1    1    2    0    0 -0.85390693244E+01 -0.40837341849E+02 -0.16985561609E+02  0.45045682339E+02  0.00000000000E+00 0. -1.
         11    1    3    3    0    0  0.79549485159E+00  0.28932380716E+01  0.24942365412E+01  0.39019039945E+01  0.51100000000E-03 0. -1.
        -11    1    3    3    0    0  0.87364105879E+01  0.28043587127E+02  0.13214863367E+02  0.32208698561E+02  0.51100000000E-03 0.  1.
         12    1    3    3    0    0 -0.99283611510E+00  0.99005166503E+01  0.12764617012E+01  0.10031715106E+02  0.00000000000E+00 0. -1.
</event>
<event>
 7    1  0.2313935E-008  0.4614232E+02  0.7816164E-02  0.1320468E+00
        -11   -1    0    0    0    0  0.00000000000E+00  0.00000000000E+00  0.45593999997E+02  0.45594000000E+02  0.51100000000E-03 0. -1.
         11   -1    0    0    0    0 -0.00000000000E+00 -0.00000000000E+00 -0.45593999997E+02  0.45594000000E+02  0.51100000000E-03 0.  1.
    9900012    2    1    2    0    0  0.27569323092E+01  0.37861849000E+02 -0.24248571511E+02  0.46142317568E+02  0.99999982380E+01 0.  0.
         12    1    1    2    0    0 -0.27569323092E+01 -0.37861849000E+02  0.24248571511E+02  0.45045682432E+02  0.00000000000E+00 0. -1.
         11    1    3    3    0    0 -0.24104839522E+01  0.17907435881E+02 -0.90048187464E+01  0.20188448520E+02  0.51100000000E-03 0. -1.
        -11    1    3    3    0    0  0.97027176472E+00  0.11342244391E+02 -0.74638996382E+01  0.13612410999E+02  0.51100000000E-03 0.  1.
         12    1    3    3    0    0  0.41971444966E+01  0.86121687279E+01 -0.77798531260E+01  0.12341458049E+02  0.00000000000E+00 0. -1.
</event>
<event>
 7    1  0.2313935E-008  0.4614232E+02  0.7816164E-02  0.1320468E+00
        -11   -1    0    0    0    0  0.00000000000E+00  0.00000000000E+00  0.45593999997E+02  0.45594000000E+02  0.51100000000E-03 0. -1.
         11   -1    0    0    0    0 -0.00000000000E+00 -0.00000000000E+00 -0.45593999997E+02  0.45594000000E+02  0.51100000000E-03 0.  1.
    9900012    2    1    2    0    0 -0.14233392097E+02 -0.38485320344E+02  0.18585051526E+02  0.46142317934E+02  0.10000001573E+02 0.  0.
         12    1    1    2    0    0  0.14233392097E+02  0.38485320344E+02 -0.18585051526E+02  0.45045682066E+02  0.00000000000E+00 0. -1.
         11    1    3    3    0    0 -0.12909058882E+01 -0.10487029704E+02  0.75680346183E+01  0.12996898794E+02  0.51100000000E-03 0. -1.
        -11    1    3    3    0    0 -0.13962823685E+00 -0.44839108706E+01  0.16726717968E+01  0.47877744246E+01  0.51100000000E-03 0.  1.
         12    1    3    3    0    0 -0.12802857972E+02 -0.23514379770E+02  0.93443451112E+01  0.28357644715E+02  0.00000000000E+00 0. -1.
</event>
<event>
 7    1  0.2313935E-008  0.4614232E+02  0.7816164E-02  0.1320468E+00
        -11   -1    0    0    0    0  0.00000000000E+00  0.00000000000E+00  0.45593999997E+02  0.45594000000E+02  0.51100000000E-03 0.  1.
         11   -1    0    0    0    0 -0.00000000000E+00 -0.00000000000E+00 -0.45593999997E+02  0.45594000000E+02  0.51100000000E-03 0. -1.
    9900012    2    1    2    0    0 -0.58662755928E+01  0.34194392673E+02  0.28730538975E+02  0.46142317083E+02  0.99999938209E+01 0.  0.
         12    1    1    2    0    0  0.58662755928E+01 -0.34194392673E+02 -0.28730538975E+02  0.45045682917E+02  0.00000000000E+00 0. -1.
         11    1    3    3    0    0 -0.48120249895E+00  0.76242852286E+01  0.93491171600E+01  0.12073411822E+02  0.51100000000E-03 0. -1.
        -11    1    3    3    0    0  0.89366562561E+00  0.10411505622E+02  0.94556939396E+01  0.14092843422E+02  0.51100000000E-03 0.  1.
        -12    1    3    3    0    0 -0.62787387194E+01  0.16158601823E+02  0.99257278754E+01  0.19976061840E+02  0.00000000000E+00 0.  1.
</event>
<event>
 7    1  0.2313935E-008  0.4614232E+02  0.7816164E-02  0.1320468E+00
        -11   -1    0    0    0    0  0.00000000000E+00  0.00000000000E+00  0.45593999997E+02  0.45594000000E+02  0.51100000000E-03 0.  1.
         11   -1    0    0    0    0 -0.00000000000E+00 -0.00000000000E+00 -0.45593999997E+02  0.45594000000E+02  0.51100000000E-03 0. -1.
    9900012    2    1    2    0    0 -0.36107718891E+02  0.92273411119E+01  0.25302217774E+02  0.46142318611E+02  0.10000007749E+02 0.  0.
         12    1    1    2    0    0  0.36107718891E+02 -0.92273411119E+01 -0.25302217774E+02  0.45045681389E+02  0.00000000000E+00 0. -1.
         11    1    3    3    0    0 -0.14192954920E+02 -0.90421979119E+00  0.10934595461E+02  0.17939424767E+02  0.51100000000E-03 0. -1.
        -11    1    3    3    0    0 -0.70824328889E+01  0.37667992096E+01  0.60360630342E+01  0.10039107985E+02  0.51100000000E-03 0.  1.
         12    1    3    3    0    0 -0.14832331082E+02  0.63647616935E+01  0.83315592790E+01  0.18163785860E+02  0.00000000000E+00 0. -1.
</event>
<event>
 7    1  0.2313935E-008  0.4614232E+02  0.7816164E-02  0.1320468E+00
        -11   -1    0    0    0    0  0.00000000000E+00  0.00000000000E+00  0.45593999997E+02  0.45594000000E+02  0.51100000000E-03 0. -1.
         11   -1    0    0    0    0 -0.00000000000E+00 -0.00000000000E+00 -0.45593999997E+02  0.45594000000E+02  0.51100000000E-03 0.  1.
    9900012    2    1    2    0    0 -0.32870264753E+02 -0.24275446310E+02  0.18956839931E+02  0.46142318979E+02  0.10000011108E+02 0.  0.
         12    1    1    2    0    0  0.32870264753E+02  0.24275446310E+02 -0.18956839931E+02  0.45045681021E+02  0.00000000000E+00 0. -1.
         11    1    3    3    0    0 -0.12397732297E+02 -0.74374914934E+01  0.10061495549E+02  0.17614021084E+02  0.51100000000E-03 0. -1.
        -11    1    3    3    0    0 -0.91295318794E+01 -0.49705346915E+01  0.55154880102E+01  0.11767547566E+02  0.51100000000E-03 0.  1.
        -12    1    3    3    0    0 -0.11343000577E+02 -0.11867420125E+02  0.33798563712E+01  0.16760750329E+02  0.00000000000E+00 0.  1.
</event>
<event>
 7    1  0.2506311E-008  0.4614232E+02  0.7816164E-02  0.1320468E+00
        -11   -1    0    0    0    0  0.00000000000E+00  0.00000000000E+00  0.45593999997E+02  0.45594000000E+02  0.51100000000E-03 0. -1.
         11   -1    0    0    0    0 -0.00000000000E+00 -0.00000000000E+00 -0.45593999997E+02  0.45594000000E+02  0.51100000000E-03 0.  1.
    9900012    2    1    2    0    0  0.16754829576E+02 -0.41554136460E+02 -0.46521707741E+01  0.46142320253E+02  0.10000022719E+02 0.  0.
         12    1    1    2    0    0 -0.16754829576E+02  0.41554136460E+02  0.46521707741E+01  0.45045679747E+02  0.00000000000E+00 0. -1.
         11    1    3    3    0    0  0.60903394059E+01 -0.18154425029E+02 -0.33922558748E+01  0.19446922183E+02  0.51100000000E-03 0. -1.
        -11    1    3    3    0    0  0.83143535339E+01 -0.21506350869E+02 -0.29352159379E+01  0.23243646341E+02  0.51100000000E-03 0.  1.
         12    1    3    3    0    0  0.23501366358E+01 -0.18933605621E+01  0.16753010386E+01  0.34517517285E+01  0.00000000000E+00 0. -1.
</event>
<event>
 7    1  0.2313935E-008  0.4614232E+02  0.7816164E-02  0.1320468E+00
        -11   -1    0    0    0    0  0.00000000000E+00  0.00000000000E+00  0.45593999997E+02  0.45594000000E+02  0.51100000000E-03 0. -1.
         11   -1    0    0    0    0 -0.00000000000E+00 -0.00000000000E+00 -0.45593999997E+02  0.45594000000E+02  0.51100000000E-03 0.  1.
    9900012    2    1    2    0    0  0.10261652148E+01  0.31286405965E+02 -0.32391685194E+02  0.46142317821E+02  0.10000000543E+02 0.  0.
         12    1    1    2    0    0 -0.10261652148E+01 -0.31286405965E+02  0.32391685194E+02  0.45045682179E+02  0.00000000000E+00 0. -1.
         11    1    3    3    0    0 -0.14959146040E+01  0.20647818251E+02 -0.19046276480E+02  0.28130602679E+02  0.51100000000E-03 0. -1.
        -11    1    3    3    0    0 -0.36480432662E+00  0.59366495553E+01 -0.97667487029E+01  0.11435308069E+02  0.51100000000E-03 0.  1.
         12    1    3    3    0    0  0.28868841454E+01  0.47019381590E+01 -0.35786600112E+01  0.65764070734E+01  0.00000000000E+00 0. -1.
</event>
<event>
 7    1  0.2313935E-008  0.4614231E+02  0.7816164E-02  0.1320468E+00
        -11   -1    0    0    0    0  0.00000000000E+00  0.00000000000E+00  0.45593999997E+02  0.45594000000E+02  0.51100000000E-03 0.  1.
         11   -1    0    0    0    0 -0.00000000000E+00 -0.00000000000E+00 -0.45593999997E+02  0.45594000000E+02  0.51100000000E-03 0. -1.
    9900012    2    1    2    0    0 -0.42311068270E+02 -0.12554822476E+02  0.90146447544E+01  0.46142313352E+02  0.99999597925E+01 0.  0.
         12    1    1    2    0    0  0.42311068270E+02  0.12554822476E+02 -0.90146447544E+01  0.45045686648E+02  0.00000000000E+00 0. -1.
         11    1    3    3    0    0 -0.34734663171E+02 -0.77141451868E+01  0.98680897025E+01  0.36924030877E+02  0.51100000000E-03 0. -1.
        -11    1    3    3    0    0 -0.46376517476E+01 -0.38249426364E+01 -0.70578980171E-01  0.60119033224E+01  0.51100000000E-03 0.  1.
         12    1    3    3    0    0 -0.29387533510E+01 -0.10157346531E+01 -0.78286596793E+00  0.32063791521E+01  0.00000000000E+00 0. -1.
</event>
<event>
 7    1  0.2313935E-008  0.4614232E+02  0.7816164E-02  0.1320468E+00
        -11   -1    0    0    0    0  0.00000000000E+00  0.00000000000E+00  0.45593999997E+02  0.45594000000E+02  0.51100000000E-03 0.  1.
         11   -1    0    0    0    0 -0.00000000000E+00 -0.00000000000E+00 -0.45593999997E+02  0.45594000000E+02  0.51100000000E-03 0. -1.
    9900012    2    1    2    0    0  0.67432217055E+01  0.24545120640E+02  0.37164222450E+02  0.46142318558E+02  0.10000007271E+02 0.  0.
         12    1    1    2    0    0 -0.67432217055E+01 -0.24545120640E+02 -0.37164222450E+02  0.45045681442E+02  0.00000000000E+00 0. -1.
         11    1    3    3    0    0  0.54557436577E+01  0.10223909760E+02  0.16917904862E+02  0.20506315486E+02  0.51100000000E-03 0. -1.
        -11    1    3    3    0    0  0.12726564145E+01  0.11873227698E+02  0.19837235818E+02  0.23154030221E+02  0.51100000000E-03 0.  1.
         12    1    3    3    0    0  0.14821633361E-01  0.24479831825E+01  0.40908177079E+00  0.24819728520E+01  0.00000000000E+00 0. -1.
</event>
<event>
 7    1  0.2313935E-008  0.4614232E+02  0.7816164E-02  0.1320468E+00
        -11   -1    0    0    0    0  0.00000000000E+00  0.00000000000E+00  0.45593999997E+02  0.45594000000E+02  0.51100000000E-03 0.  1.
         11   -1    0    0    0    0 -0.00000000000E+00 -0.00000000000E+00 -0.45593999997E+02  0.45594000000E+02  0.51100000000E-03 0. -1.
    9900012    2    1    2    0    0  0.11252774960E+02  0.14455040687E+02  0.41152646752E+02  0.46142317851E+02  0.10000000817E+02 0.  0.
         12    1    1    2    0    0 -0.11252774960E+02 -0.14455040687E+02 -0.41152646752E+02  0.45045682149E+02  0.00000000000E+00 0. -1.
         11    1    3    3    0    0  0.36464365775E+01  0.57446309192E+01  0.10175596217E+02  0.12240916744E+02  0.51100000000E-03 0. -1.
        -11    1    3    3    0    0  0.76524803022E+01  0.40484578748E+01  0.23965866527E+02  0.25481625235E+02  0.51100000000E-03 0.  1.
         12    1    3    3    0    0 -0.46141919907E-01  0.46619518932E+01  0.70111840081E+01  0.84197758715E+01  0.00000000000E+00 0. -1.
</event>
<event>
 7    1  0.2313935E-008  0.4614232E+02  0.7816164E-02  0.1320468E+00
        -11   -1    0    0    0    0  0.00000000000E+00  0.00000000000E+00  0.45593999997E+02  0.45594000000E+02  0.51100000000E-03 0.  1.
         11   -1    0    0    0    0 -0.00000000000E+00 -0.00000000000E+00 -0.45593999997E+02  0.45594000000E+02  0.51100000000E-03 0. -1.
    9900012    2    1    2    0    0  0.51581253052E+01 -0.35289711016E+02  0.27516238708E+02  0.46142319265E+02  0.10000013710E+02 0.  0.
         12    1    1    2    0    0 -0.51581253052E+01  0.35289711016E+02 -0.27516238708E+02  0.45045680735E+02  0.00000000000E+00 0. -1.
         11    1    3    3    0    0  0.13926654933E+01 -0.48904833407E+01  0.12198259011E+01  0.52291796653E+01  0.51100000000E-03 0. -1.
        -11    1    3    3    0    0  0.29674515892E+01 -0.43452629278E+01  0.48978434908E+01  0.71885986095E+01  0.51100000000E-03 0.  1.
        -12    1    3    3    0    0  0.79800822274E+00 -0.26053964748E+02  0.21398569316E+02  0.33724540990E+02  0.00000000000E+00 0.  1.
</event>
<event>
 7    1  0.2313935E-008  0.4614232E+02  0.7816164E-02  0.1320468E+00
        -11   -1    0    0    0    0  0.00000000000E+00  0.00000000000E+00  0.45593999997E+02  0.45594000000E+02  0.51100000000E-03 0. -1.
         11   -1    0    0    0    0 -0.00000000000E+00 -0.00000000000E+00 -0.45593999997E+02  0.45594000000E+02  0.51100000000E-03 0.  1.
    9900012    2    1    2    0    0  0.40425077653E+01  0.19135013592E+02 -0.40578600051E+02  0.46142318783E+02  0.10000009322E+02 0.  0.
         12    1    1    2    0    0 -0.40425077653E+01 -0.19135013592E+02  0.40578600051E+02  0.45045681217E+02  0.00000000000E+00 0. -1.
         11    1    3    3    0    0  0.54284015343E+01  0.77529085466E+01 -0.16524392739E+02  0.19042864538E+02  0.51100000000E-03 0. -1.
        -11    1    3    3    0    0  0.63711121703E+00  0.51237108772E+01 -0.15313750194E+02  0.16160732320E+02  0.51100000000E-03 0.  1.
         12    1    3    3    0    0 -0.20230049860E+01  0.62583941677E+01 -0.87404571175E+01  0.10938721925E+02  0.00000000000E+00 0. -1.
</event>
<event>
 7    1  0.2313935E-008  0.4614231E+02  0.7816164E-02  0.1320468E+00
        -11   -1    0    0    0    0  0.00000000000E+00  0.00000000000E+00  0.45593999997E+02  0.45594000000E+02  0.51100000000E-03 0.  1.
         11   -1    0    0    0    0 -0.00000000000E+00 -0.00000000000E+00 -0.45593999997E+02  0.45594000000E+02  0.51100000000E-03 0. -1.
    9900012    2    1    2    0    0 -0.18692834137E+02 -0.40387970165E+02  0.69644606480E+01  0.46142313256E+02  0.99999589219E+01 0.  0.
         12    1    1    2    0    0  0.18692834137E+02  0.40387970165E+02 -0.69644606480E+01  0.45045686744E+02  0.00000000000E+00 0. -1.
         11    1    3    3    0    0 -0.10793459436E+02 -0.20985232165E+02  0.56529965570E+01  0.24265924791E+02  0.51100000000E-03 0. -1.
        -11    1    3    3    0    0 -0.42572071324E+01 -0.14594130117E+02  0.32391067849E+01  0.15543624399E+02  0.51100000000E-03 0.  1.
         12    1    3    3    0    0 -0.36421675680E+01 -0.48086078829E+01 -0.19276426939E+01  0.63327640664E+01  0.00000000000E+00 0. -1.
</event>
<event>
 7    1  0.2313935E-008  0.4614232E+02  0.7816164E-02  0.1320468E+00
        -11   -1    0    0    0    0  0.00000000000E+00  0.00000000000E+00  0.45593999997E+02  0.45594000000E+02  0.51100000000E-03 0. -1.
         11   -1    0    0    0    0 -0.00000000000E+00 -0.00000000000E+00 -0.45593999997E+02  0.45594000000E+02  0.51100000000E-03 0.  1.
    9900012    2    1    2    0    0  0.15343573337E+02 -0.67595320296E+01 -0.41809050029E+02  0.46142321180E+02  0.10000031179E+02 0.  0.
         12    1    1    2    0    0 -0.15343573337E+02  0.67595320296E+01  0.41809050029E+02  0.45045678820E+02  0.00000000000E+00 0. -1.
         11    1    3    3    0    0 -0.24012408646E+00 -0.19031074002E+01 -0.44064031314E+01  0.48058158694E+01  0.51100000000E-03 0. -1.
        -11    1    3    3    0    0  0.15065764480E+02 -0.55255152405E+01 -0.37127108868E+02  0.40446641285E+02  0.51100000000E-03 0.  1.
        -12    1    3    3    0    0  0.51793294286E+00  0.66909061115E+00 -0.27553802945E+00  0.88986402607E+00  0.00000000000E+00 0.  1.
</event>
<event>
 7    1  0.2313935E-008  0.4614232E+02  0.7816164E-02  0.1320468E+00
        -11   -1    0    0    0    0  0.00000000000E+00  0.00000000000E+00  0.45593999997E+02  0.45594000000E+02  0.51100000000E-03 0.  1.
         11   -1    0    0    0    0 -0.00000000000E+00 -0.00000000000E+00 -0.45593999997E+02  0.45594000000E+02  0.51100000000E-03 0. -1.
    9900012    2    1    2    0    0  0.11768182138E+02  0.42979599625E+02  0.65861471596E+01  0.46142318419E+02  0.10000005996E+02 0.  0.
         12    1    1    2    0    0 -0.11768182138E+02 -0.42979599625E+02 -0.65861471596E+01  0.45045681581E+02  0.00000000000E+00 0. -1.
         11    1    3    3    0    0  0.65451854051E+01  0.30161267480E+02  0.40398353673E+01  0.31126544589E+02  0.51100000000E-03 0. -1.
        -11    1    3    3    0    0  0.33752933828E+01  0.12279417783E+02  0.28949426590E+01  0.13059762623E+02  0.51100000000E-03 0.  1.
         12    1    3    3    0    0  0.18477033503E+01  0.53891436160E+00 -0.34863086670E+00  0.19560112068E+01  0.00000000000E+00 0. -1.
</event>
<event>
 7    1  0.2313935E-008  0.4614232E+02  0.7816164E-02  0.1320468E+00
        -11   -1    0    0    0    0  0.00000000000E+00  0.00000000000E+00  0.45593999997E+02  0.45594000000E+02  0.51100000000E-03 0.  1.
         11   -1    0    0    0    0 -0.00000000000E+00 -0.00000000000E+00 -0.45593999997E+02  0.45594000000E+02  0.51100000000E-03 0. -1.
    9900012    2    1    2    0    0 -0.10013526483E+02  0.38209919908E+02  0.21652825024E+02  0.46142317371E+02  0.99999964403E+01 0.  0.
         12    1    1    2    0    0  0.10013526483E+02 -0.38209919908E+02 -0.21652825024E+02  0.45045682629E+02  0.00000000000E+00 0. -1.
         11    1    3    3    0    0 -0.99143532985E+00  0.92092263771E+01  0.69569470857E+01  0.11584123078E+02  0.51100000000E-03 0. -1.
        -11    1    3    3    0    0 -0.46895113781E+01  0.23133522883E+02  0.13425102153E+02  0.27154829516E+02  0.51100000000E-03 0.  1.
        -12    1    3    3    0    0 -0.43325797749E+01  0.58671706485E+01  0.12707757848E+01  0.74033647769E+01  0.00000000000E+00 0.  1.
</event>
<event>
 7    1  0.2313935E-008  0.4614232E+02  0.7816164E-02  0.1320468E+00
        -11   -1    0    0    0    0  0.00000000000E+00  0.00000000000E+00  0.45593999997E+02  0.45594000000E+02  0.51100000000E-03 0.  1.
         11   -1    0    0    0    0 -0.00000000000E+00 -0.00000000000E+00 -0.45593999997E+02  0.45594000000E+02  0.51100000000E-03 0. -1.
    9900012    2    1    2    0    0 -0.29589475177E+01 -0.26235872500E+02  0.36497084119E+02  0.46142317350E+02  0.99999962516E+01 0.  0.
         12    1    1    2    0    0  0.29589475177E+01  0.26235872500E+02 -0.36497084119E+02  0.45045682650E+02  0.00000000000E+00 0. -1.
         11    1    3    3    0    0  0.15133051001E+01 -0.22401875990E+01  0.32107767694E+01  0.41973349316E+01  0.51100000000E-03 0. -1.
        -11    1    3    3    0    0 -0.52032330655E+01 -0.23918602463E+02  0.30743331284E+02  0.39297908300E+02  0.51100000000E-03 0.  1.
        -12    1    3    3    0    0  0.73098044767E+00 -0.77082438303E-01  0.25429760655E+01  0.26470741181E+01  0.00000000000E+00 0.  1.
</event>
<event>
 7    1  0.2313935E-008  0.4614232E+02  0.7816164E-02  0.1320468E+00
        -11   -1    0    0    0    0  0.00000000000E+00  0.00000000000E+00  0.45593999997E+02  0.45594000000E+02  0.51100000000E-03 0. -1.
         11   -1    0    0    0    0 -0.00000000000E+00 -0.00000000000E+00 -0.45593999997E+02  0.45594000000E+02  0.51100000000E-03 0.  1.
    9900012    2    1    2    0    0  0.25015123657E+02  0.52354695814E+01 -0.37093756266E+02  0.46142319771E+02  0.10000018331E+02 0.  0.
         12    1    1    2    0    0 -0.25015123657E+02 -0.52354695814E+01  0.37093756266E+02  0.45045680229E+02  0.00000000000E+00 0. -1.
         11    1    3    3    0    0  0.67260503680E+00 -0.17286336152E+01 -0.14622012280E+01  0.23619069422E+01  0.51100000000E-03 0. -1.
        -11    1    3    3    0    0  0.92541279899E+01  0.38182246765E+01 -0.13306220175E+02  0.16651523058E+02  0.51100000000E-03 0.  1.
        -12    1    3    3    0    0  0.15088390630E+02  0.31458785202E+01 -0.22325334863E+02  0.27128889771E+02  0.00000000000E+00 0.  1.
</event>
<event>
 7    1  0.2313935E-008  0.4614232E+02  0.7816164E-02  0.1320468E+00
        -11   -1    0    0    0    0  0.00000000000E+00  0.00000000000E+00  0.45593999997E+02  0.45594000000E+02  0.51100000000E-03 0.  1.
         11   -1    0    0    0    0 -0.00000000000E+00 -0.00000000000E+00 -0.45593999997E+02  0.45594000000E+02  0.51100000000E-03 0. -1.
    9900012    2    1    2    0    0 -0.34143360180E+02 -0.27280932630E+02  0.10913044121E+02  0.46142324719E+02  0.10000063449E+02 0.  0.
         12    1    1    2    0    0  0.34143360180E+02  0.27280932630E+02 -0.10913044121E+02  0.45045675281E+02  0.00000000000E+00 0. -1.
         11    1    3    3    0    0 -0.64621135919E+01 -0.47149675720E+01  0.18539915083E+01  0.82114015889E+01  0.51100000000E-03 0. -1.
        -11    1    3    3    0    0 -0.19901727210E+02 -0.20628745508E+02  0.56318616975E+01  0.29212013858E+02  0.51100000000E-03 0.  1.
         12    1    3    3    0    0 -0.77795193776E+01 -0.19372195498E+01  0.34271909155E+01  0.87189092725E+01  0.00000000000E+00 0. -1.
</event>
<event>
 7    1  0.2313935E-008  0.4614232E+02  0.7816164E-02  0.1320468E+00
        -11   -1    0    0    0    0  0.00000000000E+00  0.00000000000E+00  0.45593999997E+02  0.45594000000E+02  0.51100000000E-03 0. -1.
         11   -1    0    0    0    0 -0.00000000000E+00 -0.00000000000E+00 -0.45593999997E+02  0.45594000000E+02  0.51100000000E-03 0.  1.
    9900012    2    1    2    0    0  0.42032672319E+02  0.12366290112E+02 -0.10461501888E+02  0.46142315466E+02  0.99999790715E+01 0.  0.
         12    1    1    2    0    0 -0.42032672319E+02 -0.12366290112E+02  0.10461501888E+02  0.45045684534E+02  0.00000000000E+00 0. -1.
         11    1    3    3    0    0  0.52882118136E+01  0.32725529607E+01 -0.25733453692E+01  0.67302967035E+01  0.51100000000E-03 0. -1.
        -11    1    3    3    0    0  0.32307832130E+02  0.52475056228E+01 -0.70339709659E+01  0.33478486824E+02  0.51100000000E-03 0.  1.
        -12    1    3    3    0    0  0.44366283749E+01  0.38462315284E+01 -0.85418555265E+00  0.59335319385E+01  0.00000000000E+00 0.  1.
</event>
<event>
 7    1  0.2313935E-008  0.4614232E+02  0.7816164E-02  0.1320468E+00
        -11   -1    0    0    0    0  0.00000000000E+00  0.00000000000E+00  0.45593999997E+02  0.45594000000E+02  0.51100000000E-03 0. -1.
         11   -1    0    0    0    0 -0.00000000000E+00 -0.00000000000E+00 -0.45593999997E+02  0.45594000000E+02  0.51100000000E-03 0.  1.
    9900012    2    1    2    0    0 -0.29446908401E+02  0.29832130666E+01 -0.33957230887E+02  0.46142317586E+02  0.99999984056E+01 0.  0.
         12    1    1    2    0    0  0.29446908401E+02 -0.29832130666E+01  0.33957230887E+02  0.45045682414E+02  0.00000000000E+00 0. -1.
         11    1    3    3    0    0 -0.44825939444E+00 -0.68270374473E+00 -0.64449315400E+00  0.10403809756E+01  0.51100000000E-03 0. -1.
        -11    1    3    3    0    0 -0.82843042446E+01  0.35848081970E+01 -0.60676972555E+01  0.10876465275E+02  0.51100000000E-03 0.  1.
        -12    1    3    3    0    0 -0.20714344762E+02  0.81108614334E-01 -0.27245040478E+02  0.34225471336E+02  0.00000000000E+00 0.  1.
</event>
<event>
 7    1  0.2313935E-008  0.4614232E+02  0.7816164E-02  0.1320468E+00
        -11   -1    0    0    0    0  0.00000000000E+00  0.00000000000E+00  0.45593999997E+02  0.45594000000E+02  0.51100000000E-03 0.  1.
         11   -1    0    0    0    0 -0.00000000000E+00 -0.00000000000E+00 -0.45593999997E+02  0.45594000000E+02  0.51100000000E-03 0. -1.
    9900012    2    1    2    0    0 -0.22014889593E+02 -0.36926998469E+02  0.13448233046E+02  0.46142317057E+02  0.99999935755E+01 0.  0.
         12    1    1    2    0    0  0.22014889593E+02  0.36926998469E+02 -0.13448233046E+02  0.45045682943E+02  0.00000000000E+00 0. -1.
         11    1    3    3    0    0 -0.50359460862E+01 -0.34890513830E+01  0.19299595106E+01  0.64233150717E+01  0.51100000000E-03 0. -1.
        -11    1    3    3    0    0 -0.89203659610E+01 -0.23750305441E+02  0.85573070907E+01  0.26774567080E+02  0.51100000000E-03 0.  1.
        -12    1    3    3    0    0 -0.80585775462E+01 -0.96876416457E+01  0.29609664451E+01  0.12944434905E+02  0.00000000000E+00 0.  1.
</event>
<event>
 7    1  0.2313935E-008  0.4614231E+02  0.7816164E-02  0.1320468E+00
        -11   -1    0    0    0    0  0.00000000000E+00  0.00000000000E+00  0.45593999997E+02  0.45594000000E+02  0.51100000000E-03 0.  1.
         11   -1    0    0    0    0 -0.00000000000E+00 -0.00000000000E+00 -0.45593999997E+02  0.45594000000E+02  0.51100000000E-03 0. -1.
    9900012    2    1    2    0    0  0.23980036574E+02  0.18384408647E+02  0.33407866063E+02  0.46142310414E+02  0.99999330025E+01 0.  0.
         12    1    1    2    0    0 -0.23980036574E+02 -0.18384408647E+02 -0.33407866063E+02  0.45045689586E+02  0.00000000000E+00 0. -1.
         11    1    3    3    0    0  0.27643199476E+01  0.68435639260E+01  0.96484764092E+01  0.12147795243E+02  0.51100000000E-03 0. -1.
        -11    1    3    3    0    0  0.73304179663E+01  0.25521315411E+01  0.80495305152E+01  0.11182278155E+02  0.51100000000E-03 0.  1.
        -12    1    3    3    0    0  0.13885298660E+02  0.89887131795E+01  0.15709859139E+02  0.22812237016E+02  0.00000000000E+00 0.  1.
</event>
<event>
 7    1  0.2313935E-008  0.4614230E+02  0.7816164E-02  0.1320468E+00
        -11   -1    0    0    0    0  0.00000000000E+00  0.00000000000E+00  0.45593999997E+02  0.45594000000E+02  0.51100000000E-03 0.  1.
         11   -1    0    0    0    0 -0.00000000000E+00 -0.00000000000E+00 -0.45593999997E+02  0.45594000000E+02  0.51100000000E-03 0. -1.
    9900012    2    1    2    0    0 -0.37715212086E+02  0.95613675754E+01  0.22699289806E+02  0.46142303976E+02  0.99998742923E+01 0.  0.
         12    1    1    2    0    0  0.37715212086E+02 -0.95613675754E+01 -0.22699289806E+02  0.45045696024E+02  0.00000000000E+00 0. -1.
         11    1    3    3    0    0 -0.20076754984E+00 -0.24582750642E+00  0.19051347373E+01  0.19313926064E+01  0.51100000000E-03 0. -1.
        -11    1    3    3    0    0 -0.73134934384E+01  0.24985486649E+01  0.60639820839E+01  0.98235335129E+01  0.51100000000E-03 0.  1.
        -12    1    3    3    0    0 -0.30200951098E+02  0.73086464169E+01  0.14730172985E+02  0.34387377856E+02  0.00000000000E+00 0.  1.
</event>
<event>
 7    1  0.2313935E-008  0.4614232E+02  0.7816164E-02  0.1320468E+00
        -11   -1    0    0    0    0  0.00000000000E+00  0.00000000000E+00  0.45593999997E+02  0.45594000000E+02  0.51100000000E-03 0. -1.
         11   -1    0    0    0    0 -0.00000000000E+00 -0.00000000000E+00 -0.45593999997E+02  0.45594000000E+02  0.51100000000E-03 0.  1.
    9900012    2    1    2    0    0 -0.60207319569E+00 -0.30537284385E+02 -0.33109291557E+02  0.46142318552E+02  0.10000007214E+02 0.  0.
         12    1    1    2    0    0  0.60207319569E+00  0.30537284385E+02  0.33109291557E+02  0.45045681448E+02  0.00000000000E+00 0. -1.
         11    1    3    3    0    0 -0.57345522310E+00 -0.13932864963E+01  0.34817689591E+00  0.15463911425E+01  0.51100000000E-03 0. -1.
        -11    1    3    3    0    0  0.21587054908E+01 -0.17629066378E+02 -0.19799321195E+02  0.26598065922E+02  0.51100000000E-03 0.  1.
        -12    1    3    3    0    0 -0.21873234634E+01 -0.11514931511E+02 -0.13658147258E+02  0.17997861488E+02  0.00000000000E+00 0.  1.
</event>
<event>
 7    1  0.2313935E-008  0.4614232E+02  0.7816164E-02  0.1320468E+00
        -11   -1    0    0    0    0  0.00000000000E+00  0.00000000000E+00  0.45593999997E+02  0.45594000000E+02  0.51100000000E-03 0.  1.
         11   -1    0    0    0    0 -0.00000000000E+00 -0.00000000000E+00 -0.45593999997E+02  0.45594000000E+02  0.51100000000E-03 0. -1.
    9900012    2    1    2    0    0 -0.18672366432E+02  0.39739487863E+02  0.10061277654E+02  0.46142317945E+02  0.10000001675E+02 0.  0.
         12    1    1    2    0    0  0.18672366432E+02 -0.39739487863E+02 -0.10061277654E+02  0.45045682055E+02  0.00000000000E+00 0. -1.
         11    1    3    3    0    0 -0.81114397576E+00  0.51918757209E+01  0.19181894466E+01  0.55940127873E+01  0.51100000000E-03 0. -1.
        -11    1    3    3    0    0 -0.54110788742E+01  0.19153841609E+02  0.34329127519E+01  0.20197383821E+02  0.51100000000E-03 0.  1.
         12    1    3    3    0    0 -0.12450143582E+02  0.15393770533E+02  0.47101754556E+01  0.20350921337E+02  0.00000000000E+00 0. -1.
</event>
<event>
 7    1  0.2313935E-008  0.4614232E+02  0.7816164E-02  0.1320468E+00
        -11   -1    0    0    0    0  0.00000000000E+00  0.00000000000E+00  0.45593999997E+02  0.45594000000E+02  0.51100000000E-03 0. -1.
         11   -1    0    0    0    0 -0.00000000000E+00 -0.00000000000E+00 -0.45593999997E+02  0.45594000000E+02  0.51100000000E-03 0.  1.
    9900012    2    1    2    0    0 -0.21991101798E+02  0.36422178031E+02 -0.14796276093E+02  0.46142318775E+02  0.10000009243E+02 0.  0.
         12    1    1    2    0    0  0.21991101798E+02 -0.36422178031E+02  0.14796276093E+02  0.45045681225E+02  0.00000000000E+00 0. -1.
         11    1    3    3    0    0 -0.10954711672E+02  0.11702375350E+02 -0.33419712898E+01  0.16374372324E+02  0.51100000000E-03 0. -1.
        -11    1    3    3    0    0 -0.86274761807E+00  0.24276185855E+00 -0.11310887114E-01  0.89632302756E+00  0.51100000000E-03 0.  1.
        -12    1    3    3    0    0 -0.10173642508E+02  0.24477040823E+02 -0.11442993916E+02  0.28871623423E+02  0.00000000000E+00 0.  1.
</event>
<event>
 7    1  0.2313935E-008  0.4614232E+02  0.7816164E-02  0.1320468E+00
        -11   -1    0    0    0    0  0.00000000000E+00  0.00000000000E+00  0.45593999997E+02  0.45594000000E+02  0.51100000000E-03 0. -1.
         11   -1    0    0    0    0 -0.00000000000E+00 -0.00000000000E+00 -0.45593999997E+02  0.45594000000E+02  0.51100000000E-03 0.  1.
    9900012    2    1    2    0    0  0.28785500723E+02 -0.28811786937E+02 -0.19245501259E+02  0.46142318330E+02  0.10000005191E+02 0.  0.
         12    1    1    2    0    0 -0.28785500723E+02  0.28811786937E+02  0.19245501259E+02  0.45045681670E+02  0.00000000000E+00 0. -1.
         11    1    3    3    0    0  0.21269977051E+01 -0.54782851345E+01 -0.14331027514E+01  0.60489264345E+01  0.51100000000E-03 0. -1.
        -11    1    3    3    0    0  0.19112846993E+02 -0.14278975572E+02 -0.95438794202E+01  0.25695830366E+02  0.51100000000E-03 0.  1.
        -12    1    3    3    0    0  0.75456560254E+01 -0.90545262304E+01 -0.82685190874E+01  0.14397561530E+02  0.00000000000E+00 0.  1.
</event>
<event>
 7    1  0.2313935E-008  0.4614232E+02  0.7816164E-02  0.1320468E+00
        -11   -1    0    0    0    0  0.00000000000E+00  0.00000000000E+00  0.45593999997E+02  0.45594000000E+02  0.51100000000E-03 0.  1.
         11   -1    0    0    0    0 -0.00000000000E+00 -0.00000000000E+00 -0.45593999997E+02  0.45594000000E+02  0.51100000000E-03 0. -1.
    9900012    2    1    2    0    0  0.19231573184E+02 -0.34585777573E+02  0.21519386781E+02  0.46142318466E+02  0.10000006424E+02 0.  0.
         12    1    1    2    0    0 -0.19231573184E+02  0.34585777573E+02 -0.21519386781E+02  0.45045681534E+02  0.00000000000E+00 0. -1.
         11    1    3    3    0    0  0.33784295726E+01 -0.99016728764E+01  0.88640921655E+01  0.13712368224E+02  0.51100000000E-03 0. -1.
        -11    1    3    3    0    0  0.15800946003E+02 -0.24156446090E+02  0.13136514141E+02  0.31713905253E+02  0.51100000000E-03 0.  1.
         12    1    3    3    0    0  0.52197608546E-01 -0.52765860584E+00 -0.48121952551E+00  0.71604498908E+00  0.00000000000E+00 0. -1.
</event>
<event>
 7    1  0.2313935E-008  0.4614232E+02  0.7816164E-02  0.1320468E+00
        -11   -1    0    0    0    0  0.00000000000E+00  0.00000000000E+00  0.45593999997E+02  0.45594000000E+02  0.51100000000E-03 0.  1.
         11   -1    0    0    0    0 -0.00000000000E+00 -0.00000000000E+00 -0.45593999997E+02  0.45594000000E+02  0.51100000000E-03 0. -1.
    9900012    2    1    2    0    0 -0.20270736688E+02  0.28171561403E+02  0.28715393475E+02  0.46142318074E+02  0.10000002850E+02 0.  0.
         12    1    1    2    0    0  0.20270736688E+02 -0.28171561403E+02 -0.28715393475E+02  0.45045681926E+02  0.00000000000E+00 0. -1.
         11    1    3    3    0    0 -0.11327721751E+02  0.13501305127E+02  0.12838409727E+02  0.21804295100E+02  0.51100000000E-03 0. -1.
        -11    1    3    3    0    0 -0.39083578599E+01  0.19207745212E+01  0.18688108570E+01  0.47388912420E+01  0.51100000000E-03 0.  1.
        -12    1    3    3    0    0 -0.50346570770E+01  0.12749481755E+02  0.14008172891E+02  0.19599131732E+02  0.00000000000E+00 0.  1.
</event>
<event>
 7    1  0.2313935E-008  0.4614232E+02  0.7816164E-02  0.1320468E+00
        -11   -1    0    0    0    0  0.00000000000E+00  0.00000000000E+00  0.45593999997E+02  0.45594000000E+02  0.51100000000E-03 0. -1.
         11   -1    0    0    0    0 -0.00000000000E+00 -0.00000000000E+00 -0.45593999997E+02  0.45594000000E+02  0.51100000000E-03 0.  1.
    9900012    2    1    2    0    0 -0.14721449030E+01 -0.35458659647E+00 -0.45020225154E+02  0.46142316354E+02  0.99999871674E+01 0.  0.
         12    1    1    2    0    0  0.14721449030E+01  0.35458659647E+00  0.45020225154E+02  0.45045683646E+02  0.00000000000E+00 0. -1.
         11    1    3    3    0    0 -0.52428398531E+01  0.12805953857E+01 -0.24823700143E+02  0.25403609651E+02  0.51100000000E-03 0. -1.
        -11    1    3    3    0    0  0.22080092588E+01 -0.19408367365E+01 -0.10163620362E+02  0.10580233043E+02  0.51100000000E-03 0.  1.
         12    1    3    3    0    0  0.15626856913E+01  0.30565475430E+00 -0.10032904648E+02  0.10158473659E+02  0.00000000000E+00 0. -1.
</event>
<event>
 7    1  0.2313935E-008  0.4614232E+02  0.7816164E-02  0.1320468E+00
        -11   -1    0    0    0    0  0.00000000000E+00  0.00000000000E+00  0.45593999997E+02  0.45594000000E+02  0.51100000000E-03 0.  1.
         11   -1    0    0    0    0 -0.00000000000E+00 -0.00000000000E+00 -0.45593999997E+02  0.45594000000E+02  0.51100000000E-03 0. -1.
    9900012    2    1    2    0    0 -0.20477329735E+02 -0.95862884920E+01  0.38960178329E+02  0.46142318125E+02  0.10000003316E+02 0.  0.
         12    1    1    2    0    0  0.20477329735E+02  0.95862884920E+01 -0.38960178329E+02  0.45045681875E+02  0.00000000000E+00 0. -1.
         11    1    3    3    0    0 -0.12604787655E+01  0.92289048782E+00  0.11938622550E+01  0.19661741825E+01  0.51100000000E-03 0. -1.
        -11    1    3    3    0    0 -0.18794717611E+02 -0.81781980631E+01  0.34697351065E+02  0.40299261840E+02  0.51100000000E-03 0.  1.
        -12    1    3    3    0    0 -0.42213335866E+00 -0.23309809168E+01  0.30689650093E+01  0.38768821023E+01  0.00000000000E+00 0.  1.
</event>
<event>
 7    1  0.2313935E-008  0.4614232E+02  0.7816164E-02  0.1320468E+00
        -11   -1    0    0    0    0  0.00000000000E+00  0.00000000000E+00  0.45593999997E+02  0.45594000000E+02  0.51100000000E-03 0. -1.
         11   -1    0    0    0    0 -0.00000000000E+00 -0.00000000000E+00 -0.45593999997E+02  0.45594000000E+02  0.51100000000E-03 0.  1.
    9900012    2    1    2    0    0  0.22621169312E+02 -0.57022155531E+01 -0.38534152082E+02  0.46142318299E+02  0.10000004904E+02 0.  0.
         12    1    1    2    0    0 -0.22621169312E+02  0.57022155531E+01  0.38534152082E+02  0.45045681701E+02  0.00000000000E+00 0. -1.
         11    1    3    3    0    0  0.11361326679E+01  0.10312568778E+01 -0.30958712600E+01  0.34552434512E+01  0.51100000000E-03 0.  1.
        -11    1    3    3    0    0  0.12458366154E+01  0.13100960999E+01 -0.14401866019E+01  0.23114061463E+01  0.51100000000E-03 0. -1.
        -12    1    3    3    0    0  0.20239200029E+02 -0.80435685309E+01 -0.33998094220E+02  0.40375668701E+02  0.00000000000E+00 0.  1.
</event>
<event>
 7    1  0.2313935E-008  0.4614232E+02  0.7816164E-02  0.1320468E+00
        -11   -1    0    0    0    0  0.00000000000E+00  0.00000000000E+00  0.45593999997E+02  0.45594000000E+02  0.51100000000E-03 0.  1.
         11   -1    0    0    0    0 -0.00000000000E+00 -0.00000000000E+00 -0.45593999997E+02  0.45594000000E+02  0.51100000000E-03 0. -1.
    9900012    2    1    2    0    0 -0.54270539644E+01  0.41620407673E+02  0.16352443610E+02  0.46142315838E+02  0.99999824597E+01 0.  0.
         12    1    1    2    0    0  0.54270539644E+01 -0.41620407673E+02 -0.16352443610E+02  0.45045684162E+02  0.00000000000E+00 0. -1.
         11    1    3    3    0    0  0.69888951932E+00  0.19142457650E+01 -0.52094505911E+00  0.21033704915E+01  0.51100000000E-03 0. -1.
        -11    1    3    3    0    0 -0.19158788896E+00  0.14585783158E+02  0.36485045243E+01  0.15036401224E+02  0.51100000000E-03 0.  1.
         12    1    3    3    0    0 -0.59343555948E+01  0.25120378751E+02  0.13224884145E+02  0.29002544122E+02  0.00000000000E+00 0. -1.
</event>
<event>
 7    1  0.2313935E-008  0.4614232E+02  0.7816164E-02  0.1320468E+00
        -11   -1    0    0    0    0  0.00000000000E+00  0.00000000000E+00  0.45593999997E+02  0.45594000000E+02  0.51100000000E-03 0.  1.
         11   -1    0    0    0    0 -0.00000000000E+00 -0.00000000000E+00 -0.45593999997E+02  0.45594000000E+02  0.51100000000E-03 0. -1.
    9900012    2    1    2    0    0  0.27482477275E+02  0.33908772058E+02 -0.11136532352E+02  0.46142315052E+02  0.99999752934E+01 0.  0.
         12    1    1    2    0    0 -0.27482477275E+02 -0.33908772058E+02  0.11136532352E+02  0.45045684948E+02  0.00000000000E+00 0. -1.
         11    1    3    3    0    0  0.17555573805E+02  0.18143924256E+02 -0.10638610150E+02  0.27396718512E+02  0.51100000000E-03 0. -1.
        -11    1    3    3    0    0  0.71529892561E+01  0.12073344772E+02 -0.11588875843E+01  0.14080977593E+02  0.51100000000E-03 0.  1.
         12    1    3    3    0    0  0.27739142136E+01  0.36915030299E+01  0.66096538199E+00  0.46646189469E+01  0.00000000000E+00 0. -1.
</event>
<event>
 7    1  0.2313935E-008  0.4614233E+02  0.7816164E-02  0.1320468E+00
        -11   -1    0    0    0    0  0.00000000000E+00  0.00000000000E+00  0.45593999997E+02  0.45594000000E+02  0.51100000000E-03 0.  1.
         11   -1    0    0    0    0 -0.00000000000E+00 -0.00000000000E+00 -0.45593999997E+02  0.45594000000E+02  0.51100000000E-03 0. -1.
    9900012    2    1    2    0    0  0.20648804306E+02 -0.26399923483E+02  0.30096237175E+02  0.46142327940E+02  0.10000092823E+02 0.  0.
         12    1    1    2    0    0 -0.20648804306E+02  0.26399923483E+02 -0.30096237175E+02  0.45045672060E+02  0.00000000000E+00 0. -1.
         11    1    3    3    0    0  0.17245067988E+01  0.71791291517E-01  0.89424780595E+00  0.19439025409E+01  0.51100000000E-03 0. -1.
        -11    1    3    3    0    0  0.16472174069E+02 -0.24409678413E+02  0.28365267798E+02  0.40887080310E+02  0.51100000000E-03 0.  1.
        -12    1    3    3    0    0  0.24521234378E+01 -0.20620363617E+01  0.83672157141E+00  0.33113450891E+01  0.00000000000E+00 0.  1.
</event>
<event>
 7    1  0.2313935E-008  0.4614232E+02  0.7816164E-02  0.1320468E+00
        -11   -1    0    0    0    0  0.00000000000E+00  0.00000000000E+00  0.45593999997E+02  0.45594000000E+02  0.51100000000E-03 0.  1.
         11   -1    0    0    0    0 -0.00000000000E+00 -0.00000000000E+00 -0.45593999997E+02  0.45594000000E+02  0.51100000000E-03 0. -1.
    9900012    2    1    2    0    0 -0.25426057237E+02 -0.25295094687E+02  0.27254125061E+02  0.46142317247E+02  0.99999953093E+01 0.  0.
         12    1    1    2    0    0  0.25426057237E+02  0.25295094687E+02 -0.27254125061E+02  0.45045682753E+02  0.00000000000E+00 0. -1.
         11    1    3    3    0    0 -0.62418389388E+01 -0.26593354128E+01  0.48466523656E+01  0.83380248015E+01  0.51100000000E-03 0.  1.
        -11    1    3    3    0    0 -0.18982924411E+02 -0.19744684341E+02  0.19019166489E+02  0.33345654486E+02  0.51100000000E-03 0. -1.
         12    1    3    3    0    0 -0.20129388724E+00 -0.28910749332E+01  0.33883062066E+01  0.44586379589E+01  0.00000000000E+00 0. -1.
</event>
<event>
 7    1  0.2313935E-008  0.4614232E+02  0.7816164E-02  0.1320468E+00
        -11   -1    0    0    0    0  0.00000000000E+00  0.00000000000E+00  0.45593999997E+02  0.45594000000E+02  0.51100000000E-03 0. -1.
         11   -1    0    0    0    0 -0.00000000000E+00 -0.00000000000E+00 -0.45593999997E+02  0.45594000000E+02  0.51100000000E-03 0.  1.
    9900012    2    1    2    0    0 -0.18533649984E+01  0.19129269678E+02 -0.40740023692E+02  0.46142318180E+02  0.10000003819E+02 0.  0.
         12    1    1    2    0    0  0.18533649984E+01 -0.19129269678E+02  0.40740023692E+02  0.45045681820E+02  0.00000000000E+00 0. -1.
         11    1    3    3    0    0 -0.78731762766E+00  0.17726764147E+01 -0.90331216653E+01  0.92390225673E+01  0.51100000000E-03 0. -1.
        -11    1    3    3    0    0 -0.31623912825E+01  0.10105052734E+02 -0.23370253046E+02  0.25656997818E+02  0.51100000000E-03 0.  1.
         12    1    3    3    0    0  0.20963439117E+01  0.72515405297E+01 -0.83366489809E+01  0.11246297794E+02  0.00000000000E+00 0. -1.
</event>
<event>
 7    1  0.2313935E-008  0.4614232E+02  0.7816164E-02  0.1320468E+00
        -11   -1    0    0    0    0  0.00000000000E+00  0.00000000000E+00  0.45593999997E+02  0.45594000000E+02  0.51100000000E-03 0. -1.
         11   -1    0    0    0    0 -0.00000000000E+00 -0.00000000000E+00 -0.45593999997E+02  0.45594000000E+02  0.51100000000E-03 0.  1.
    9900012    2    1    2    0    0  0.43656174888E+02 -0.40446920243E+01  0.10338876519E+02  0.46142317553E+02  0.99999981014E+01 0.  0.
         12    1    1    2    0    0 -0.43656174888E+02  0.40446920243E+01 -0.10338876519E+02  0.45045682447E+02  0.00000000000E+00 0. -1.
         11    1    3    3    0    0  0.77958930768E+00 -0.20596822462E+00 -0.26730691259E+00  0.84949140363E+00  0.51100000000E-03 0. -1.
        -11    1    3    3    0    0  0.27992984627E+02  0.86252917048E+00  0.97718638684E+01  0.29662104926E+02  0.51100000000E-03 0.  1.
        -12    1    3    3    0    0  0.14883600954E+02 -0.47012529702E+01  0.83431956310E+00  0.15630721223E+02  0.00000000000E+00 0.  1.
</event>
<event>
 7    1  0.2313935E-008  0.4614232E+02  0.7816164E-02  0.1320468E+00
        -11   -1    0    0    0    0  0.00000000000E+00  0.00000000000E+00  0.45593999997E+02  0.45594000000E+02  0.51100000000E-03 0. -1.
         11   -1    0    0    0    0 -0.00000000000E+00 -0.00000000000E+00 -0.45593999997E+02  0.45594000000E+02  0.51100000000E-03 0.  1.
    9900012    2    1    2    0    0 -0.44116515422E+02  0.17821248027E+01  0.89258214047E+01  0.46142321078E+02  0.10000030244E+02 0.  0.
         12    1    1    2    0    0  0.44116515422E+02 -0.17821248027E+01 -0.89258214047E+01  0.45045678922E+02  0.00000000000E+00 0. -1.
         11    1    3    3    0    0 -0.18681924959E+02  0.15902106349E+01  0.33710421308E+01  0.19050118513E+02  0.51100000000E-03 0. -1.
        -11    1    3    3    0    0 -0.88105589095E+01  0.31510003380E+01  0.38601857553E+01  0.10122044544E+02  0.51100000000E-03 0.  1.
         12    1    3    3    0    0 -0.16624031553E+02 -0.29590861702E+01  0.16945935186E+01  0.16970158020E+02  0.00000000000E+00 0. -1.
</event>
<event>
 7    1  0.2313935E-008  0.4614232E+02  0.7816164E-02  0.1320468E+00
        -11   -1    0    0    0    0  0.00000000000E+00  0.00000000000E+00  0.45593999997E+02  0.45594000000E+02  0.51100000000E-03 0.  1.
         11   -1    0    0    0    0 -0.00000000000E+00 -0.00000000000E+00 -0.45593999997E+02  0.45594000000E+02  0.51100000000E-03 0. -1.
    9900012    2    1    2    0    0 -0.54549763902E+01 -0.74420845597E+01  0.44090498400E+02  0.46142318307E+02  0.10000004981E+02 0.  0.
         12    1    1    2    0    0  0.54549763902E+01  0.74420845597E+01 -0.44090498400E+02  0.45045681693E+02  0.00000000000E+00 0. -1.
         11    1    3    3    0    0 -0.60569907411E+01 -0.44160642026E+01  0.37672403431E+02  0.38410919547E+02  0.51100000000E-03 0.  1.
        -11    1    3    3    0    0 -0.92186003472E+00 -0.24944656178E+01  0.44739512669E+01  0.52046541520E+01  0.51100000000E-03 0. -1.
        -12    1    3    3    0    0  0.15238743857E+01 -0.53155473928E+00  0.19441437015E+01  0.25267446084E+01  0.00000000000E+00 0.  1.
</event>
<event>
 7    1  0.2313935E-008  0.4614232E+02  0.7816164E-02  0.1320468E+00
        -11   -1    0    0    0    0  0.00000000000E+00  0.00000000000E+00  0.45593999997E+02  0.45594000000E+02  0.51100000000E-03 0. -1.
         11   -1    0    0    0    0 -0.00000000000E+00 -0.00000000000E+00 -0.45593999997E+02  0.45594000000E+02  0.51100000000E-03 0.  1.
    9900012    2    1    2    0    0 -0.34259580902E+02  0.11404535892E+02 -0.26931972952E+02  0.46142317748E+02  0.99999998787E+01 0.  0.
         12    1    1    2    0    0  0.34259580902E+02 -0.11404535892E+02  0.26931972952E+02  0.45045682252E+02  0.00000000000E+00 0. -1.
         11    1    3    3    0    0 -0.23336774664E+02  0.86715022079E+01 -0.22651707196E+02  0.33658577531E+02  0.51100000000E-03 0. -1.
        -11    1    3    3    0    0 -0.20574790058E+01  0.18942406965E+01 -0.67708972530E+00  0.28774673644E+01  0.51100000000E-03 0.  1.
         12    1    3    3    0    0 -0.88653272325E+01  0.83879298773E+00 -0.36031760308E+01  0.96062728529E+01  0.00000000000E+00 0. -1.
</event>
<event>
 7    1  0.2313935E-008  0.4614232E+02  0.7816164E-02  0.1320468E+00
        -11   -1    0    0    0    0  0.00000000000E+00  0.00000000000E+00  0.45593999997E+02  0.45594000000E+02  0.51100000000E-03 0. -1.
         11   -1    0    0    0    0 -0.00000000000E+00 -0.00000000000E+00 -0.45593999997E+02  0.45594000000E+02  0.51100000000E-03 0.  1.
    9900012    2    1    2    0    0  0.11519403552E+02 -0.43546202639E+02 -0.38089220480E+00  0.46142317617E+02  0.99999986888E+01 0.  0.
         12    1    1    2    0    0 -0.11519403552E+02  0.43546202639E+02  0.38089220480E+00  0.45045682383E+02  0.00000000000E+00 0. -1.
         11    1    3    3    0    0  0.20279472239E+01 -0.32680869450E+01 -0.17928704707E+01  0.42435064520E+01  0.51100000000E-03 0. -1.
        -11    1    3    3    0    0  0.56183634283E+01 -0.11204455237E+02 -0.31514077651E-02  0.12534186650E+02  0.51100000000E-03 0.  1.
        -12    1    3    3    0    0  0.38730929002E+01 -0.29073660456E+02  0.14151296736E+01  0.29364624516E+02  0.00000000000E+00 0.  1.
</event>
<event>
 7    1  0.2313935E-008  0.4614231E+02  0.7816164E-02  0.1320468E+00
        -11   -1    0    0    0    0  0.00000000000E+00  0.00000000000E+00  0.45593999997E+02  0.45594000000E+02  0.51100000000E-03 0.  1.
         11   -1    0    0    0    0 -0.00000000000E+00 -0.00000000000E+00 -0.45593999997E+02  0.45594000000E+02  0.51100000000E-03 0. -1.
    9900012    2    1    2    0    0 -0.26880680496E+02  0.21776197248E+02  0.28850306877E+02  0.46142312555E+02  0.99999525232E+01 0.  0.
         12    1    1    2    0    0  0.26880680496E+02 -0.21776197248E+02 -0.28850306877E+02  0.45045687445E+02  0.00000000000E+00 0. -1.
         11    1    3    3    0    0 -0.80736072958E+01  0.84444537622E+01  0.91541698071E+01  0.14842195229E+02  0.51100000000E-03 0. -1.
        -11    1    3    3    0    0 -0.17760156161E+02  0.14369301191E+02  0.18317828634E+02  0.29282124406E+02  0.51100000000E-03 0.  1.
         12    1    3    3    0    0 -0.10469170395E+01 -0.10375577052E+01  0.13783084357E+01  0.20179929195E+01  0.00000000000E+00 0. -1.
</event>
<event>
 7    1  0.2313935E-008  0.4614232E+02  0.7816164E-02  0.1320468E+00
        -11   -1    0    0    0    0  0.00000000000E+00  0.00000000000E+00  0.45593999997E+02  0.45594000000E+02  0.51100000000E-03 0.  1.
         11   -1    0    0    0    0 -0.00000000000E+00 -0.00000000000E+00 -0.45593999997E+02  0.45594000000E+02  0.51100000000E-03 0. -1.
    9900012    2    1    2    0    0 -0.53267271623E+01 -0.16903558329E+02  0.41412670244E+02  0.46142316930E+02  0.99999924258E+01 0.  0.
         12    1    1    2    0    0  0.53267271623E+01  0.16903558329E+02 -0.41412670244E+02  0.45045683070E+02  0.00000000000E+00 0. -1.
         11    1    3    3    0    0 -0.32193234067E+01 -0.42424700141E+01  0.18049650354E+02  0.18818939215E+02  0.51100000000E-03 0. -1.
        -11    1    3    3    0    0  0.12609100504E+01 -0.82849526325E+01  0.16571870413E+02  0.18570331810E+02  0.51100000000E-03 0.  1.
         12    1    3    3    0    0 -0.33683138059E+01 -0.43761356821E+01  0.67911494773E+01  0.87530459057E+01  0.00000000000E+00 0. -1.
</event>
<event>
 7    1  0.2313935E-008  0.4614232E+02  0.7816164E-02  0.1320468E+00
        -11   -1    0    0    0    0  0.00000000000E+00  0.00000000000E+00  0.45593999997E+02  0.45594000000E+02  0.51100000000E-03 0. -1.
         11   -1    0    0    0    0 -0.00000000000E+00 -0.00000000000E+00 -0.45593999997E+02  0.45594000000E+02  0.51100000000E-03 0.  1.
    9900012    2    1    2    0    0  0.20493906276E+02  0.69095197120E-02 -0.40113754687E+02  0.46142316996E+02  0.99999930241E+01 0.  0.
         12    1    1    2    0    0 -0.20493906276E+02 -0.69095197120E-02  0.40113754687E+02  0.45045683004E+02  0.00000000000E+00 0. -1.
         11    1    3    3    0    0  0.77228466217E+01  0.21588526926E+01 -0.20336739223E+02  0.21860603088E+02  0.51100000000E-03 0. -1.
        -11    1    3    3    0    0  0.16208132270E+01 -0.87474110349E+00 -0.39328631681E+00  0.18833167294E+01  0.51100000000E-03 0.  1.
        -12    1    3    3    0    0  0.11150246428E+02 -0.12772020694E+01 -0.19383729147E+02  0.22398397179E+02  0.00000000000E+00 0.  1.
</event>
<event>
 7    1  0.2313935E-008  0.4614232E+02  0.7816164E-02  0.1320468E+00
        -11   -1    0    0    0    0  0.00000000000E+00  0.00000000000E+00  0.45593999997E+02  0.45594000000E+02  0.51100000000E-03 0. -1.
         11   -1    0    0    0    0 -0.00000000000E+00 -0.00000000000E+00 -0.45593999997E+02  0.45594000000E+02  0.51100000000E-03 0.  1.
    9900012    2    1    2    0    0 -0.30376734704E+02  0.33162743884E+02 -0.25690283309E+01  0.46142317635E+02  0.99999988508E+01 0.  0.
         12    1    1    2    0    0  0.30376734704E+02 -0.33162743884E+02  0.25690283309E+01  0.45045682365E+02  0.00000000000E+00 0. -1.
         11    1    3    3    0    0 -0.11481239594E+02  0.11021437885E+02  0.31108821694E+01  0.16216304875E+02  0.51100000000E-03 0. -1.
        -11    1    3    3    0    0 -0.27698552529E-01  0.11624323950E+01 -0.13011216104E+00  0.11700195376E+01  0.51100000000E-03 0.  1.
        -12    1    3    3    0    0 -0.18867796557E+02  0.20978873604E+02 -0.55497983392E+01  0.28755993222E+02  0.00000000000E+00 0.  1.
</event>
<event>
 7    1  0.2313935E-008  0.4614232E+02  0.7816164E-02  0.1320468E+00
        -11   -1    0    0    0    0  0.00000000000E+00  0.00000000000E+00  0.45593999997E+02  0.45594000000E+02  0.51100000000E-03 0.  1.
         11   -1    0    0    0    0 -0.00000000000E+00 -0.00000000000E+00 -0.45593999997E+02  0.45594000000E+02  0.51100000000E-03 0. -1.
    9900012    2    1    2    0    0 -0.32083214401E+02 -0.31381619257E+02 -0.38697274341E+01  0.46142318033E+02  0.10000002478E+02 0.  0.
         12    1    1    2    0    0  0.32083214401E+02  0.31381619257E+02  0.38697274341E+01  0.45045681967E+02  0.00000000000E+00 0. -1.
         11    1    3    3    0    0 -0.14424948367E+02 -0.11336428501E+02 -0.50456134390E+01  0.19027663067E+02  0.51100000000E-03 0. -1.
        -11    1    3    3    0    0 -0.16787390823E+02 -0.18042330790E+02  0.21473285666E-01  0.24644322924E+02  0.51100000000E-03 0.  1.
         12    1    3    3    0    0 -0.87087521093E+00 -0.20028599655E+01  0.11544127193E+01  0.24703320426E+01  0.00000000000E+00 0. -1.
</event>
<event>
 7    1  0.2313935E-008  0.4614232E+02  0.7816164E-02  0.1320468E+00
        -11   -1    0    0    0    0  0.00000000000E+00  0.00000000000E+00  0.45593999997E+02  0.45594000000E+02  0.51100000000E-03 0.  1.
         11   -1    0    0    0    0 -0.00000000000E+00 -0.00000000000E+00 -0.45593999997E+02  0.45594000000E+02  0.51100000000E-03 0. -1.
    9900012    2    1    2    0    0  0.19854382433E+02 -0.36019694881E+01  0.40273350690E+02  0.46142318056E+02  0.10000002689E+02 0.  0.
         12    1    1    2    0    0 -0.19854382433E+02  0.36019694881E+01 -0.40273350690E+02  0.45045681944E+02  0.00000000000E+00 0. -1.
         11    1    3    3    0    0  0.81782037105E+01 -0.40326559675E+01  0.23353303087E+02  0.25070342946E+02  0.51100000000E-03 0. -1.
        -11    1    3    3    0    0  0.78992849129E+01 -0.15249535594E+01  0.12998832827E+02  0.15287048133E+02  0.51100000000E-03 0.  1.
        -12    1    3    3    0    0  0.37768938098E+01  0.19556400389E+01  0.39212147761E+01  0.57849269773E+01  0.00000000000E+00 0.  1.
</event>
<event>
 7    1  0.2313935E-008  0.4614232E+02  0.7816164E-02  0.1320468E+00
        -11   -1    0    0    0    0  0.00000000000E+00  0.00000000000E+00  0.45593999997E+02  0.45594000000E+02  0.51100000000E-03 0. -1.
         11   -1    0    0    0    0 -0.00000000000E+00 -0.00000000000E+00 -0.45593999997E+02  0.45594000000E+02  0.51100000000E-03 0.  1.
    9900012    2    1    2    0    0 -0.35058892953E+02 -0.98223161433E+01 -0.26523755771E+02  0.46142317747E+02  0.99999998671E+01 0.  0.
         12    1    1    2    0    0  0.35058892953E+02  0.98223161433E+01  0.26523755771E+02  0.45045682253E+02  0.00000000000E+00 0. -1.
         11    1    3    3    0    0 -0.35750365314E+01 -0.22229191263E+01 -0.13518060014E+01  0.44214969603E+01  0.51100000000E-03 0. -1.
        -11    1    3    3    0    0 -0.75279226110E+01 -0.19814742111E+01 -0.22760509407E+01  0.81102569030E+01  0.51100000000E-03 0.  1.
        -12    1    3    3    0    0 -0.23955933810E+02 -0.56179228059E+01 -0.22895898829E+02  0.33610563883E+02  0.00000000000E+00 0.  1.
</event>
<event>
 7    1  0.2313935E-008  0.4614232E+02  0.7816164E-02  0.1320468E+00
        -11   -1    0    0    0    0  0.00000000000E+00  0.00000000000E+00  0.45593999997E+02  0.45594000000E+02  0.51100000000E-03 0.  1.
         11   -1    0    0    0    0 -0.00000000000E+00 -0.00000000000E+00 -0.45593999997E+02  0.45594000000E+02  0.51100000000E-03 0. -1.
    9900012    2    1    2    0    0  0.13400274881E+02  0.42227393678E+02 -0.81482135935E+01  0.46142317316E+02  0.99999959393E+01 0.  0.
         12    1    1    2    0    0 -0.13400274881E+02 -0.42227393678E+02  0.81482135935E+01  0.45045682684E+02  0.00000000000E+00 0. -1.
         11    1    3    3    0    0 -0.14720752569E+00  0.17003024837E+01  0.10374290940E+01  0.19972375867E+01  0.51100000000E-03 0. -1.
        -11    1    3    3    0    0  0.94246557445E+01  0.28354687716E+02 -0.34735645653E+01  0.30081191838E+02  0.51100000000E-03 0.  1.
         12    1    3    3    0    0  0.41228266617E+01  0.12172403479E+02 -0.57120781222E+01  0.14063887891E+02  0.00000000000E+00 0. -1.
</event>
<event>
 7    1  0.2313935E-008  0.4614232E+02  0.7816164E-02  0.1320468E+00
        -11   -1    0    0    0    0  0.00000000000E+00  0.00000000000E+00  0.45593999997E+02  0.45594000000E+02  0.51100000000E-03 0.  1.
         11   -1    0    0    0    0 -0.00000000000E+00 -0.00000000000E+00 -0.45593999997E+02  0.45594000000E+02  0.51100000000E-03 0. -1.
    9900012    2    1    2    0    0  0.20388188895E+02  0.39797773193E+02  0.54380590215E+01  0.46142317815E+02  0.10000000493E+02 0.  0.
         12    1    1    2    0    0 -0.20388188895E+02 -0.39797773193E+02 -0.54380590215E+01  0.45045682185E+02  0.00000000000E+00 0. -1.
         11    1    3    3    0    0  0.41614150903E+01  0.15828588585E+02  0.20075509362E+01  0.16489143494E+02  0.51100000000E-03 0. -1.
        -11    1    3    3    0    0  0.37774163536E+01  0.77656012058E+01  0.32254229553E+01  0.92182856268E+01  0.51100000000E-03 0.  1.
        -12    1    3    3    0    0  0.12449357451E+02  0.16203583403E+02  0.20508513003E+00  0.20434888694E+02  0.00000000000E+00 0.  1.
</event>
<event>
 7    1  0.2313935E-008  0.4614232E+02  0.7816164E-02  0.1320468E+00
        -11   -1    0    0    0    0  0.00000000000E+00  0.00000000000E+00  0.45593999997E+02  0.45594000000E+02  0.51100000000E-03 0.  1.
         11   -1    0    0    0    0 -0.00000000000E+00 -0.00000000000E+00 -0.45593999997E+02  0.45594000000E+02  0.51100000000E-03 0. -1.
    9900012    2    1    2    0    0  0.37952848457E+02 -0.16109137904E+02  0.18143603518E+02  0.46142318979E+02  0.10000011107E+02 0.  0.
         12    1    1    2    0    0 -0.37952848457E+02  0.16109137904E+02 -0.18143603518E+02  0.45045681021E+02  0.00000000000E+00 0. -1.
         11    1    3    3    0    0  0.14531327808E+02 -0.99450352108E+01  0.70186762325E+01  0.18955870582E+02  0.51100000000E-03 0. -1.
        -11    1    3    3    0    0  0.13014398458E+02 -0.18525169825E+01  0.83882860930E+01  0.15593900418E+02  0.51100000000E-03 0.  1.
         12    1    3    3    0    0  0.10407122191E+02 -0.43115857110E+01  0.27366411929E+01  0.11592547980E+02  0.00000000000E+00 0. -1.
</event>
<event>
 7    1  0.2313935E-008  0.4614232E+02  0.7816164E-02  0.1320468E+00
        -11   -1    0    0    0    0  0.00000000000E+00  0.00000000000E+00  0.45593999997E+02  0.45594000000E+02  0.51100000000E-03 0. -1.
         11   -1    0    0    0    0 -0.00000000000E+00 -0.00000000000E+00 -0.45593999997E+02  0.45594000000E+02  0.51100000000E-03 0.  1.
    9900012    2    1    2    0    0 -0.11546421589E+02 -0.33364214604E+02 -0.27975396892E+02  0.46142317644E+02  0.99999989332E+01 0.  0.
         12    1    1    2    0    0  0.11546421589E+02  0.33364214604E+02  0.27975396892E+02  0.45045682356E+02  0.00000000000E+00 0. -1.
         11    1    3    3    0    0 -0.95162848052E+01 -0.26717742632E+02 -0.25912885649E+02  0.38417119762E+02  0.51100000000E-03 0. -1.
        -11    1    3    3    0    0 -0.22642245197E+01 -0.28622894083E+01 -0.88847755184E+00  0.37561690529E+01  0.51100000000E-03 0.  1.
         12    1    3    3    0    0  0.23408773618E+00 -0.37841825636E+01 -0.11740336908E+01  0.39690288296E+01  0.00000000000E+00 0. -1.
</event>
<event>
 7    1  0.2313935E-008  0.4614233E+02  0.7816164E-02  0.1320468E+00
        -11   -1    0    0    0    0  0.00000000000E+00  0.00000000000E+00  0.45593999997E+02  0.45594000000E+02  0.51100000000E-03 0.  1.
         11   -1    0    0    0    0 -0.00000000000E+00 -0.00000000000E+00 -0.45593999997E+02  0.45594000000E+02  0.51100000000E-03 0. -1.
    9900012    2    1    2    0    0 -0.40640686010E+02  0.16834290649E+02 -0.96981501915E+01  0.46142325200E+02  0.10000067835E+02 0.  0.
         12    1    1    2    0    0  0.40640686010E+02 -0.16834290649E+02  0.96981501915E+01  0.45045674800E+02  0.00000000000E+00 0. -1.
         11    1    3    3    0    0 -0.10185237874E+02  0.75897250863E+01 -0.19501697949E+01  0.12850920587E+02  0.51100000000E-03 0.  1.
        -11    1    3    3    0    0 -0.31999348970E+01  0.82880786874E+00  0.10024932656E+01  0.34542001732E+01  0.51100000000E-03 0. -1.
        -12    1    3    3    0    0 -0.27255513239E+02  0.84157576941E+01 -0.87504736622E+01  0.29837204440E+02  0.00000000000E+00 0.  1.
</event>
<event>
 7    1  0.2313935E-008  0.4614232E+02  0.7816164E-02  0.1320468E+00
        -11   -1    0    0    0    0  0.00000000000E+00  0.00000000000E+00  0.45593999997E+02  0.45594000000E+02  0.51100000000E-03 0. -1.
         11   -1    0    0    0    0 -0.00000000000E+00 -0.00000000000E+00 -0.45593999997E+02  0.45594000000E+02  0.51100000000E-03 0.  1.
    9900012    2    1    2    0    0 -0.17394457936E+02 -0.40766299927E+02 -0.80408390444E+01  0.46142317974E+02  0.10000001946E+02 0.  0.
         12    1    1    2    0    0  0.17394457936E+02  0.40766299927E+02  0.80408390444E+01  0.45045682026E+02  0.00000000000E+00 0. -1.
         11    1    3    3    0    0 -0.50938360403E+01 -0.20277992591E+02 -0.17848874197E+01  0.20984040900E+02  0.51100000000E-03 0. -1.
        -11    1    3    3    0    0 -0.70204431825E+01 -0.12201130403E+02 -0.60712332929E+01  0.15330168934E+02  0.51100000000E-03 0.  1.
         12    1    3    3    0    0 -0.52801787134E+01 -0.82871769320E+01 -0.18471833176E+00  0.98281081399E+01  0.00000000000E+00 0. -1.
</event>
<event>
 7    1  0.2313935E-008  0.4614232E+02  0.7816164E-02  0.1320468E+00
        -11   -1    0    0    0    0  0.00000000000E+00  0.00000000000E+00  0.45593999997E+02  0.45594000000E+02  0.51100000000E-03 0. -1.
         11   -1    0    0    0    0 -0.00000000000E+00 -0.00000000000E+00 -0.45593999997E+02  0.45594000000E+02  0.51100000000E-03 0.  1.
    9900012    2    1    2    0    0 -0.22039244843E+01 -0.83809640729E+01 -0.44204248912E+02  0.46142318034E+02  0.10000002488E+02 0.  0.
         12    1    1    2    0    0  0.22039244843E+01  0.83809640729E+01  0.44204248912E+02  0.45045681966E+02  0.00000000000E+00 0. -1.
         11    1    3    3    0    0  0.11243520238E+00 -0.38562892090E+01 -0.44202471752E+01  0.58670429936E+01  0.51100000000E-03 0. -1.
        -11    1    3    3    0    0  0.92471480108E+00 -0.10012775354E+01 -0.59405341213E+01  0.60948831058E+01  0.51100000000E-03 0.  1.
         12    1    3    3    0    0 -0.32410744878E+01 -0.35233973286E+01 -0.33843467615E+02  0.34180391935E+02  0.00000000000E+00 0. -1.
</event>
<event>
 7    1  0.2313935E-008  0.4614232E+02  0.7816164E-02  0.1320468E+00
        -11   -1    0    0    0    0  0.00000000000E+00  0.00000000000E+00  0.45593999997E+02  0.45594000000E+02  0.51100000000E-03 0.  1.
         11   -1    0    0    0    0 -0.00000000000E+00 -0.00000000000E+00 -0.45593999997E+02  0.45594000000E+02  0.51100000000E-03 0. -1.
    9900012    2    1    2    0    0 -0.17347492207E+02  0.34205895719E+02  0.23624874867E+02  0.46142317629E+02  0.99999987969E+01 0.  0.
         12    1    1    2    0    0  0.17347492207E+02 -0.34205895719E+02 -0.23624874867E+02  0.45045682371E+02  0.00000000000E+00 0. -1.
         11    1    3    3    0    0 -0.42195372159E+01  0.16313903110E+02  0.66093385802E+01  0.18100587994E+02  0.51100000000E-03 0. -1.
        -11    1    3    3    0    0 -0.18767216207E+01  0.35982666947E+01  0.37747408032E+01  0.55424070259E+01  0.51100000000E-03 0.  1.
         12    1    3    3    0    0 -0.11251233370E+02  0.14293725915E+02  0.13240795483E+02  0.22499322610E+02  0.00000000000E+00 0. -1.
</event>
<event>
 7    1  0.2313935E-008  0.4614232E+02  0.7816164E-02  0.1320468E+00
        -11   -1    0    0    0    0  0.00000000000E+00  0.00000000000E+00  0.45593999997E+02  0.45594000000E+02  0.51100000000E-03 0.  1.
         11   -1    0    0    0    0 -0.00000000000E+00 -0.00000000000E+00 -0.45593999997E+02  0.45594000000E+02  0.51100000000E-03 0. -1.
    9900012    2    1    2    0    0 -0.27028951943E+02  0.13297446621E+02  0.33492193844E+02  0.46142318983E+02  0.10000011145E+02 0.  0.
         12    1    1    2    0    0  0.27028951943E+02 -0.13297446621E+02 -0.33492193844E+02  0.45045681017E+02  0.00000000000E+00 0. -1.
         11    1    3    3    0    0 -0.20870134689E+01 -0.54348345140E-01  0.13778501302E+01  0.25014096434E+01  0.51100000000E-03 0. -1.
        -11    1    3    3    0    0 -0.15422858100E+02  0.48211671736E+01  0.22232099430E+02  0.27484076303E+02  0.51100000000E-03 0.  1.
         12    1    3    3    0    0 -0.95190803744E+01  0.85306277926E+01  0.98822442839E+01  0.16156833037E+02  0.00000000000E+00 0. -1.
</event>
<event>
 7    1  0.2313935E-008  0.4614232E+02  0.7816164E-02  0.1320468E+00
        -11   -1    0    0    0    0  0.00000000000E+00  0.00000000000E+00  0.45593999997E+02  0.45594000000E+02  0.51100000000E-03 0.  1.
         11   -1    0    0    0    0 -0.00000000000E+00 -0.00000000000E+00 -0.45593999997E+02  0.45594000000E+02  0.51100000000E-03 0. -1.
    9900012    2    1    2    0    0  0.33011782330E+02 -0.24538397332E+02  0.18363080947E+02  0.46142318097E+02  0.10000003064E+02 0.  0.
         12    1    1    2    0    0 -0.33011782330E+02  0.24538397332E+02 -0.18363080947E+02  0.45045681903E+02  0.00000000000E+00 0. -1.
         11    1    3    3    0    0  0.23876815352E+01 -0.14591358646E+01 -0.37646763498E+00  0.28234427082E+01  0.51100000000E-03 0. -1.
        -11    1    3    3    0    0  0.28960670784E+02 -0.20810574810E+02  0.19145531519E+02  0.40476559310E+02  0.51100000000E-03 0.  1.
        -12    1    3    3    0    0  0.16634300107E+01 -0.22686866566E+01 -0.40598293611E+00  0.28423160786E+01  0.00000000000E+00 0.  1.
</event>
<event>
 7    1  0.2313935E-008  0.4614232E+02  0.7816164E-02  0.1320468E+00
        -11   -1    0    0    0    0  0.00000000000E+00  0.00000000000E+00  0.45593999997E+02  0.45594000000E+02  0.51100000000E-03 0.  1.
         11   -1    0    0    0    0 -0.00000000000E+00 -0.00000000000E+00 -0.45593999997E+02  0.45594000000E+02  0.51100000000E-03 0. -1.
    9900012    2    1    2    0    0  0.90615131292E+01  0.28181831727E+02  0.33952713906E+02  0.46142318284E+02  0.10000004766E+02 0.  0.
         12    1    1    2    0    0 -0.90615131292E+01 -0.28181831727E+02 -0.33952713906E+02  0.45045681716E+02  0.00000000000E+00 0. -1.
         11    1    3    3    0    0 -0.41029443218E+00  0.20075224406E+00  0.90009966271E+00  0.10093674497E+01  0.51100000000E-03 0. -1.
        -11    1    3    3    0    0  0.46403596287E+00  0.59840537934E+01  0.27022268310E+01  0.65822685515E+01  0.51100000000E-03 0.  1.
         12    1    3    3    0    0  0.90077715986E+01  0.21997025690E+02  0.30350387412E+02  0.38550682283E+02  0.00000000000E+00 0. -1.
</event>
<event>
 7    1  0.2313935E-008  0.4614232E+02  0.7816164E-02  0.1320468E+00
        -11   -1    0    0    0    0  0.00000000000E+00  0.00000000000E+00  0.45593999997E+02  0.45594000000E+02  0.51100000000E-03 0. -1.
         11   -1    0    0    0    0 -0.00000000000E+00 -0.00000000000E+00 -0.45593999997E+02  0.45594000000E+02  0.51100000000E-03 0.  1.
    9900012    2    1    2    0    0 -0.29139696800E+02  0.11748248337E+02 -0.32279562334E+02  0.46142318597E+02  0.10000007622E+02 0.  0.
         12    1    1    2    0    0  0.29139696800E+02 -0.11748248337E+02  0.32279562334E+02  0.45045681403E+02  0.00000000000E+00 0. -1.
         11    1    3    3    0    0 -0.11019474842E+00  0.14017327150E+01 -0.54602903461E+00  0.15083585299E+01  0.51100000000E-03 0. -1.
        -11    1    3    3    0    0 -0.19633144181E+02  0.43106805535E+01 -0.18506294873E+02  0.27322614579E+02  0.51100000000E-03 0.  1.
        -12    1    3    3    0    0 -0.93963578706E+01  0.60358350682E+01 -0.13227238427E+02  0.17311345488E+02  0.00000000000E+00 0.  1.
</event>
<event>
 7    1  0.2313935E-008  0.4614233E+02  0.7816164E-02  0.1320468E+00
        -11   -1    0    0    0    0  0.00000000000E+00  0.00000000000E+00  0.45593999997E+02  0.45594000000E+02  0.51100000000E-03 0.  1.
         11   -1    0    0    0    0 -0.00000000000E+00 -0.00000000000E+00 -0.45593999997E+02  0.45594000000E+02  0.51100000000E-03 0. -1.
    9900012    2    1    2    0    0  0.20180211061E+02  0.23156507238E+02  0.32949170342E+02  0.46142327931E+02  0.10000092740E+02 0.  0.
         12    1    1    2    0    0 -0.20180211061E+02 -0.23156507238E+02 -0.32949170342E+02  0.45045672069E+02  0.00000000000E+00 0. -1.
         11    1    3    3    0    0 -0.67327787905E-01  0.18171706506E+01  0.41269630213E+00  0.18646610156E+01  0.51100000000E-03 0. -1.
        -11    1    3    3    0    0  0.51927527881E+01  0.31203447820E+01  0.95445229610E+01  0.11304828698E+02  0.51100000000E-03 0.  1.
        -12    1    3    3    0    0  0.15054786061E+02  0.18218991805E+02  0.22991951078E+02  0.32972838218E+02  0.00000000000E+00 0.  1.
</event>
<event>
 7    1  0.2313935E-008  0.4614232E+02  0.7816164E-02  0.1320468E+00
        -11   -1    0    0    0    0  0.00000000000E+00  0.00000000000E+00  0.45593999997E+02  0.45594000000E+02  0.51100000000E-03 0.  1.
         11   -1    0    0    0    0 -0.00000000000E+00 -0.00000000000E+00 -0.45593999997E+02  0.45594000000E+02  0.51100000000E-03 0. -1.
    9900012    2    1    2    0    0 -0.11522507392E+01  0.25559703854E+02  0.37074079260E+02  0.46142317678E+02  0.99999992434E+01 0.  0.
         12    1    1    2    0    0  0.11522507392E+01 -0.25559703854E+02 -0.37074079260E+02  0.45045682322E+02  0.00000000000E+00 0. -1.
         11    1    3    3    0    0  0.14205432529E+01  0.24049768822E+01  0.17574038287E+01  0.33000493050E+01  0.51100000000E-03 0. -1.
        -11    1    3    3    0    0 -0.32296808231E+01  0.20085751200E+02  0.26012411473E+02  0.33022928253E+02  0.51100000000E-03 0.  1.
        -12    1    3    3    0    0  0.65688683095E+00  0.30689757722E+01  0.93042639579E+01  0.98193401203E+01  0.00000000000E+00 0.  1.
</event>
<event>
 7    1  0.2313935E-008  0.4614231E+02  0.7816164E-02  0.1320468E+00
        -11   -1    0    0    0    0  0.00000000000E+00  0.00000000000E+00  0.45593999997E+02  0.45594000000E+02  0.51100000000E-03 0. -1.
         11   -1    0    0    0    0 -0.00000000000E+00 -0.00000000000E+00 -0.45593999997E+02  0.45594000000E+02  0.51100000000E-03 0.  1.
    9900012    2    1    2    0    0  0.34161933676E+02 -0.32369855994E+01 -0.29182158956E+02  0.46142309978E+02  0.99999290296E+01 0.  0.
         12    1    1    2    0    0 -0.34161933676E+02  0.32369855994E+01  0.29182158956E+02  0.45045690022E+02  0.00000000000E+00 0. -1.
         11    1    3    3    0    0  0.22328270819E+02 -0.10899303589E+00 -0.16298706393E+02  0.27644373525E+02  0.51100000000E-03 0. -1.
        -11    1    3    3    0    0  0.45391607573E+00 -0.14348077435E+01 -0.47867899636E+00  0.15791918526E+01  0.51100000000E-03 0.  1.
        -12    1    3    3    0    0  0.11379746781E+02 -0.16931848201E+01 -0.12404773566E+02  0.16918744601E+02  0.00000000000E+00 0.  1.
</event>
<event>
 7    1  0.2313935E-008  0.4614232E+02  0.7816164E-02  0.1320468E+00
        -11   -1    0    0    0    0  0.00000000000E+00  0.00000000000E+00  0.45593999997E+02  0.45594000000E+02  0.51100000000E-03 0.  1.
         11   -1    0    0    0    0 -0.00000000000E+00 -0.00000000000E+00 -0.45593999997E+02  0.45594000000E+02  0.51100000000E-03 0. -1.
    9900012    2    1    2    0    0  0.92161793654E+01 -0.24221169079E+02  0.36844410453E+02  0.46142316797E+02  0.99999912076E+01 0.  0.
         12    1    1    2    0    0 -0.92161793654E+01  0.24221169079E+02 -0.36844410453E+02  0.45045683203E+02  0.00000000000E+00 0. -1.
         11    1    3    3    0    0  0.32659741923E+01 -0.35059673697E+01  0.48799664278E+01  0.68390399341E+01  0.51100000000E-03 0. -1.
        -11    1    3    3    0    0  0.51741086560E+01 -0.11705872698E+02  0.24236955951E+02  0.27408555052E+02  0.51100000000E-03 0.  1.
        -12    1    3    3    0    0  0.77609651709E+00 -0.90093290106E+01  0.77274880743E+01  0.11894721811E+02  0.00000000000E+00 0.  1.
</event>
<event>
 7    1  0.2313935E-008  0.4614231E+02  0.7816164E-02  0.1320468E+00
        -11   -1    0    0    0    0  0.00000000000E+00  0.00000000000E+00  0.45593999997E+02  0.45594000000E+02  0.51100000000E-03 0.  1.
         11   -1    0    0    0    0 -0.00000000000E+00 -0.00000000000E+00 -0.45593999997E+02  0.45594000000E+02  0.51100000000E-03 0. -1.
    9900012    2    1    2    0    0 -0.29015730605E+02  0.21294003319E+02  0.27088125443E+02  0.46142314969E+02  0.99999745366E+01 0.  0.
         12    1    1    2    0    0  0.29015730605E+02 -0.21294003319E+02 -0.27088125443E+02  0.45045685031E+02  0.00000000000E+00 0. -1.
         11    1    3    3    0    0 -0.12408241305E+02  0.10281890433E+02  0.16190627201E+02  0.22843338910E+02  0.51100000000E-03 0. -1.
        -11    1    3    3    0    0 -0.11111806353E+02  0.94412795879E+01  0.95383279182E+01  0.17423825654E+02  0.51100000000E-03 0.  1.
        -12    1    3    3    0    0 -0.54956829468E+01  0.15708332985E+01  0.13591703245E+01  0.58751504045E+01  0.00000000000E+00 0.  1.
</event>
<event>
 7    1  0.2313935E-008  0.4614232E+02  0.7816164E-02  0.1320468E+00
        -11   -1    0    0    0    0  0.00000000000E+00  0.00000000000E+00  0.45593999997E+02  0.45594000000E+02  0.51100000000E-03 0.  1.
         11   -1    0    0    0    0 -0.00000000000E+00 -0.00000000000E+00 -0.45593999997E+02  0.45594000000E+02  0.51100000000E-03 0. -1.
    9900012    2    1    2    0    0 -0.26304692212E+02  0.23561612301E+02  0.27964743321E+02  0.46142320123E+02  0.10000021538E+02 0.  0.
         12    1    1    2    0    0  0.26304692212E+02 -0.23561612301E+02 -0.27964743321E+02  0.45045679877E+02  0.00000000000E+00 0. -1.
         11    1    3    3    0    0 -0.37136119302E+01  0.85497937110E+01  0.76018653102E+01  0.12028226907E+02  0.51100000000E-03 0. -1.
        -11    1    3    3    0    0 -0.27765690597E+01  0.19208016074E+01  0.41932552830E+01  0.53835123003E+01  0.51100000000E-03 0.  1.
         12    1    3    3    0    0 -0.19814511222E+02  0.13091016983E+02  0.16169622727E+02  0.28730580916E+02  0.00000000000E+00 0. -1.
</event>
<event>
 7    1  0.2313935E-008  0.4614232E+02  0.7816164E-02  0.1320468E+00
        -11   -1    0    0    0    0  0.00000000000E+00  0.00000000000E+00  0.45593999997E+02  0.45594000000E+02  0.51100000000E-03 0.  1.
         11   -1    0    0    0    0 -0.00000000000E+00 -0.00000000000E+00 -0.45593999997E+02  0.45594000000E+02  0.51100000000E-03 0. -1.
    9900012    2    1    2    0    0  0.39513343429E+02  0.10625324147E+02  0.18839090486E+02  0.46142321489E+02  0.10000033995E+02 0.  0.
         12    1    1    2    0    0 -0.39513343429E+02 -0.10625324147E+02 -0.18839090486E+02  0.45045678511E+02  0.00000000000E+00 0. -1.
         11    1    3    3    0    0  0.20365117132E+01  0.21936302348E+01  0.62393044250E+00  0.30575616140E+01  0.51100000000E-03 0. -1.
        -11    1    3    3    0    0  0.29345699338E+00  0.10349057539E+01  0.91443316153E+00  0.14118552314E+01  0.51100000000E-03 0.  1.
        -12    1    3    3    0    0  0.37183374722E+02  0.73967881583E+01  0.17300726882E+02  0.41672904644E+02  0.00000000000E+00 0.  1.
</event>
<event>
 7    1  0.2313935E-008  0.4614232E+02  0.7816164E-02  0.1320468E+00
        -11   -1    0    0    0    0  0.00000000000E+00  0.00000000000E+00  0.45593999997E+02  0.45594000000E+02  0.51100000000E-03 0. -1.
         11   -1    0    0    0    0 -0.00000000000E+00 -0.00000000000E+00 -0.45593999997E+02  0.45594000000E+02  0.51100000000E-03 0.  1.
    9900012    2    1    2    0    0 -0.18237779104E+02  0.37290223560E+02 -0.17491032129E+02  0.46142316914E+02  0.99999922711E+01 0.  0.
         12    1    1    2    0    0  0.18237779104E+02 -0.37290223560E+02  0.17491032129E+02  0.45045683086E+02  0.00000000000E+00 0. -1.
         11    1    3    3    0    0 -0.27344369880E+01  0.15065315475E+01 -0.26644682976E+01  0.41044091554E+01  0.51100000000E-03 0. -1.
        -11    1    3    3    0    0 -0.18695770748E+01  0.98900907784E+01 -0.41573393603E+01  0.10890026853E+02  0.51100000000E-03 0.  1.
         12    1    3    3    0    0 -0.13633765041E+02  0.25893601234E+02 -0.10669224472E+02  0.31147880905E+02  0.00000000000E+00 0. -1.
</event>
<event>
 7    1  0.2313935E-008  0.4614231E+02  0.7816164E-02  0.1320468E+00
        -11   -1    0    0    0    0  0.00000000000E+00  0.00000000000E+00  0.45593999997E+02  0.45594000000E+02  0.51100000000E-03 0. -1.
         11   -1    0    0    0    0 -0.00000000000E+00 -0.00000000000E+00 -0.45593999997E+02  0.45594000000E+02  0.51100000000E-03 0.  1.
    9900012    2    1    2    0    0 -0.23706032062E+02  0.27620565432E+02 -0.26537561139E+02  0.46142314944E+02  0.99999743111E+01 0.  0.
         12    1    1    2    0    0  0.23706032062E+02 -0.27620565432E+02  0.26537561139E+02  0.45045685056E+02  0.00000000000E+00 0. -1.
         11    1    3    3    0    0 -0.67007395483E+01  0.66971926459E+01 -0.93483415431E+01  0.13309537546E+02  0.51100000000E-03 0. -1.
        -11    1    3    3    0    0 -0.31973392958E+01  0.39889365607E+00 -0.16491853526E+01  0.36196556893E+01  0.51100000000E-03 0.  1.
         12    1    3    3    0    0 -0.13807953218E+02  0.20524479130E+02 -0.15540034244E+02  0.29213121708E+02  0.00000000000E+00 0. -1.
</event>
<event>
 7    1  0.2313935E-008  0.4614232E+02  0.7816164E-02  0.1320468E+00
        -11   -1    0    0    0    0  0.00000000000E+00  0.00000000000E+00  0.45593999997E+02  0.45594000000E+02  0.51100000000E-03 0.  1.
         11   -1    0    0    0    0 -0.00000000000E+00 -0.00000000000E+00 -0.45593999997E+02  0.45594000000E+02  0.51100000000E-03 0. -1.
    9900012    2    1    2    0    0 -0.20587498078E+02 -0.20000097762E+02  0.34716919084E+02  0.46142318096E+02  0.10000003050E+02 0.  0.
         12    1    1    2    0    0  0.20587498078E+02  0.20000097762E+02 -0.34716919084E+02  0.45045681904E+02  0.00000000000E+00 0. -1.
         11    1    3    3    0    0 -0.36784517723E+01 -0.19043873202E+00  0.46451982437E+01  0.59283337740E+01  0.51100000000E-03 0. -1.
        -11    1    3    3    0    0 -0.22881666161E+01 -0.33293862646E+01  0.83467405950E+01  0.92730037303E+01  0.51100000000E-03 0.  1.
         12    1    3    3    0    0 -0.14620879689E+02 -0.16480272765E+02  0.21724980245E+02  0.30940980591E+02  0.00000000000E+00 0. -1.
</event>
<event>
 7    1  0.2313935E-008  0.4614232E+02  0.7816164E-02  0.1320468E+00
        -11   -1    0    0    0    0  0.00000000000E+00  0.00000000000E+00  0.45593999997E+02  0.45594000000E+02  0.51100000000E-03 0. -1.
         11   -1    0    0    0    0 -0.00000000000E+00 -0.00000000000E+00 -0.45593999997E+02  0.45594000000E+02  0.51100000000E-03 0.  1.
    9900012    2    1    2    0    0  0.41719103039E+02 -0.40337091959E+01 -0.16503306563E+02  0.46142317679E+02  0.99999992507E+01 0.  0.
         12    1    1    2    0    0 -0.41719103039E+02  0.40337091959E+01  0.16503306563E+02  0.45045682321E+02  0.00000000000E+00 0. -1.
         11    1    3    3    0    0  0.70583363389E+01 -0.18585765318E+01 -0.35827993580E+01  0.81308591243E+01  0.51100000000E-03 0. -1.
        -11    1    3    3    0    0  0.13420040593E+02 -0.35415045072E+00 -0.94378157959E+01  0.16410218746E+02  0.51100000000E-03 0.  1.
         12    1    3    3    0    0  0.21240726108E+02 -0.18209822135E+01 -0.34826914087E+01  0.21601239808E+02  0.00000000000E+00 0. -1.
</event>
<event>
 7    1  0.2313935E-008  0.4614232E+02  0.7816164E-02  0.1320468E+00
        -11   -1    0    0    0    0  0.00000000000E+00  0.00000000000E+00  0.45593999997E+02  0.45594000000E+02  0.51100000000E-03 0.  1.
         11   -1    0    0    0    0 -0.00000000000E+00 -0.00000000000E+00 -0.45593999997E+02  0.45594000000E+02  0.51100000000E-03 0. -1.
    9900012    2    1    2    0    0  0.29516328453E+00  0.31027731479E+02  0.32654339517E+02  0.46142321723E+02  0.10000036130E+02 0.  0.
         12    1    1    2    0    0 -0.29516328453E+00 -0.31027731479E+02 -0.32654339517E+02  0.45045678277E+02  0.00000000000E+00 0. -1.
         11    1    3    3    0    0  0.38851461336E-01  0.32742359306E+01  0.14510757962E+01  0.35815850671E+01  0.51100000000E-03 0. -1.
        -11    1    3    3    0    0 -0.14657703701E+01  0.51718717191E+00  0.25825082851E+01  0.30141855703E+01  0.51100000000E-03 0.  1.
        -12    1    3    3    0    0  0.17220821933E+01  0.27236308377E+02  0.28620755436E+02  0.39546551086E+02  0.00000000000E+00 0.  1.
</event>
<event>
 7    1  0.2313935E-008  0.4614232E+02  0.7816164E-02  0.1320468E+00
        -11   -1    0    0    0    0  0.00000000000E+00  0.00000000000E+00  0.45593999997E+02  0.45594000000E+02  0.51100000000E-03 0.  1.
         11   -1    0    0    0    0 -0.00000000000E+00 -0.00000000000E+00 -0.45593999997E+02  0.45594000000E+02  0.51100000000E-03 0. -1.
    9900012    2    1    2    0    0  0.29632782549E+01 -0.31467010369E+02  0.32096101648E+02  0.46142317626E+02  0.99999987645E+01 0.  0.
         12    1    1    2    0    0 -0.29632782549E+01  0.31467010369E+02 -0.32096101648E+02  0.45045682374E+02  0.00000000000E+00 0. -1.
         11    1    3    3    0    0 -0.56323958090E+00 -0.11761517892E+02  0.14035700532E+02  0.18320792331E+02  0.51100000000E-03 0. -1.
        -11    1    3    3    0    0  0.31451177635E+01 -0.95122312741E+01  0.13063468212E+02  0.16462943587E+02  0.51100000000E-03 0.  1.
         12    1    3    3    0    0  0.38140007224E+00 -0.10193261203E+02  0.49969329039E+01  0.11358581708E+02  0.00000000000E+00 0. -1.
</event>
<event>
 7    1  0.2313935E-008  0.4614232E+02  0.7816164E-02  0.1320468E+00
        -11   -1    0    0    0    0  0.00000000000E+00  0.00000000000E+00  0.45593999997E+02  0.45594000000E+02  0.51100000000E-03 0.  1.
         11   -1    0    0    0    0 -0.00000000000E+00 -0.00000000000E+00 -0.45593999997E+02  0.45594000000E+02  0.51100000000E-03 0. -1.
    9900012    2    1    2    0    0  0.25388014838E+02  0.17245027964E+02  0.32972281172E+02  0.46142316382E+02  0.99999874258E+01 0.  0.
         12    1    1    2    0    0 -0.25388014838E+02 -0.17245027964E+02 -0.32972281172E+02  0.45045683618E+02  0.00000000000E+00 0. -1.
         11    1    3    3    0    0  0.69051734263E+01  0.83853328554E+01  0.11950604373E+02  0.16149680253E+02  0.51100000000E-03 0. -1.
        -11    1    3    3    0    0  0.15086839493E+02  0.91054339768E+01  0.19440833448E+02  0.26238667253E+02  0.51100000000E-03 0.  1.
         12    1    3    3    0    0  0.33960019184E+01 -0.24573886803E+00  0.15808433518E+01  0.37539688763E+01  0.00000000000E+00 0. -1.
</event>
<event>
 7    1  0.2313935E-008  0.4614232E+02  0.7816164E-02  0.1320468E+00
        -11   -1    0    0    0    0  0.00000000000E+00  0.00000000000E+00  0.45593999997E+02  0.45594000000E+02  0.51100000000E-03 0.  1.
         11   -1    0    0    0    0 -0.00000000000E+00 -0.00000000000E+00 -0.45593999997E+02  0.45594000000E+02  0.51100000000E-03 0. -1.
    9900012    2    1    2    0    0 -0.36533387013E+02 -0.26321431149E+02  0.12676656722E+01  0.46142322287E+02  0.10000041269E+02 0.  0.
         12    1    1    2    0    0  0.36533387013E+02  0.26321431149E+02 -0.12676656722E+01  0.45045677713E+02  0.00000000000E+00 0. -1.
         11    1    3    3    0    0 -0.38238730593E+01 -0.48716037336E+01  0.66042957824E+00  0.62282176905E+01  0.51100000000E-03 0. -1.
        -11    1    3    3    0    0 -0.54941054878E-01  0.53883054540E+00 -0.96482012968E-03  0.54162539468E+00  0.51100000000E-03 0.  1.
        -12    1    3    3    0    0 -0.32654572899E+02 -0.21988657961E+02  0.60820091412E+00  0.39372479202E+02  0.00000000000E+00 0.  1.
</event>
<event>
 7    1  0.2313935E-008  0.4614232E+02  0.7816164E-02  0.1320468E+00
        -11   -1    0    0    0    0  0.00000000000E+00  0.00000000000E+00  0.45593999997E+02  0.45594000000E+02  0.51100000000E-03 0.  1.
         11   -1    0    0    0    0 -0.00000000000E+00 -0.00000000000E+00 -0.45593999997E+02  0.45594000000E+02  0.51100000000E-03 0. -1.
    9900012    2    1    2    0    0  0.19045422785E+02  0.39553784079E+02 -0.10093731537E+02  0.46142318959E+02  0.10000010926E+02 0.  0.
         12    1    1    2    0    0 -0.19045422785E+02 -0.39553784079E+02  0.10093731537E+02  0.45045681041E+02  0.00000000000E+00 0. -1.
         11    1    3    3    0    0  0.81902247857E+01  0.12856769030E+02 -0.52954082221E+01  0.16137460780E+02  0.51100000000E-03 0. -1.
        -11    1    3    3    0    0  0.69232758651E+01  0.13275656341E+02 -0.56268589214E+01  0.15994884856E+02  0.51100000000E-03 0.  1.
         12    1    3    3    0    0  0.39319221344E+01  0.13421358708E+02  0.82853560644E+00  0.14009973323E+02  0.00000000000E+00 0. -1.
</event>
<event>
 7    1  0.2313935E-008  0.4614231E+02  0.7816164E-02  0.1320468E+00
        -11   -1    0    0    0    0  0.00000000000E+00  0.00000000000E+00  0.45593999997E+02  0.45594000000E+02  0.51100000000E-03 0.  1.
         11   -1    0    0    0    0 -0.00000000000E+00 -0.00000000000E+00 -0.45593999997E+02  0.45594000000E+02  0.51100000000E-03 0. -1.
    9900012    2    1    2    0    0 -0.23849904643E+02  0.44267523532E+01  0.37956553721E+02  0.46142311435E+02  0.99999423163E+01 0.  0.
         12    1    1    2    0    0  0.23849904643E+02 -0.44267523532E+01 -0.37956553721E+02  0.45045688565E+02  0.00000000000E+00 0. -1.
         11    1    3    3    0    0 -0.83296706777E+01 -0.24159795285E+01  0.11134305628E+02  0.14113579729E+02  0.51100000000E-03 0. -1.
        -11    1    3    3    0    0 -0.47301262523E+01  0.32903039534E-01  0.66775001502E+01  0.81831647600E+01  0.51100000000E-03 0.  1.
        -12    1    3    3    0    0 -0.10790107713E+02  0.68098288422E+01  0.20144747943E+02  0.23845566946E+02  0.00000000000E+00 0.  1.
</event>
<event>
 7    1  0.2313935E-008  0.4614232E+02  0.7816164E-02  0.1320468E+00
        -11   -1    0    0    0    0  0.00000000000E+00  0.00000000000E+00  0.45593999997E+02  0.45594000000E+02  0.51100000000E-03 0.  1.
         11   -1    0    0    0    0 -0.00000000000E+00 -0.00000000000E+00 -0.45593999997E+02  0.45594000000E+02  0.51100000000E-03 0. -1.
    9900012    2    1    2    0    0  0.99155017975E+01 -0.36354846365E+02  0.24680375124E+02  0.46142323777E+02  0.10000054862E+02 0.  0.
         12    1    1    2    0    0 -0.99155017975E+01  0.36354846365E+02 -0.24680375124E+02  0.45045676223E+02  0.00000000000E+00 0. -1.
         11    1    3    3    0    0  0.63114982978E+01 -0.15710546801E+02  0.13631529833E+02  0.21736487697E+02  0.51100000000E-03 0. -1.
        -11    1    3    3    0    0  0.70428316434E+00 -0.39943144797E+00  0.17729770984E+01  0.19491044892E+01  0.51100000000E-03 0.  1.
        -12    1    3    3    0    0  0.28997203353E+01 -0.20244868115E+02  0.92758681920E+01  0.22456731591E+02  0.00000000000E+00 0.  1.
</event>
<event>
 7    1  0.2313935E-008  0.4614232E+02  0.7816164E-02  0.1320468E+00
        -11   -1    0    0    0    0  0.00000000000E+00  0.00000000000E+00  0.45593999997E+02  0.45594000000E+02  0.51100000000E-03 0.  1.
         11   -1    0    0    0    0 -0.00000000000E+00 -0.00000000000E+00 -0.45593999997E+02  0.45594000000E+02  0.51100000000E-03 0. -1.
    9900012    2    1    2    0    0 -0.10370371176E+02 -0.29096502644E+02  0.32786613031E+02  0.46142322533E+02  0.10000043514E+02 0.  0.
         12    1    1    2    0    0  0.10370371176E+02  0.29096502644E+02 -0.32786613031E+02  0.45045677467E+02  0.00000000000E+00 0. -1.
         11    1    3    3    0    0 -0.82214469481E+00 -0.14460872248E+02  0.12763045846E+02  0.19305131121E+02  0.51100000000E-03 0. -1.
        -11    1    3    3    0    0 -0.16525168019E+01 -0.53596522377E+01  0.51753063653E+01  0.76315450680E+01  0.51100000000E-03 0.  1.
         12    1    3    3    0    0 -0.78957096796E+01 -0.92759781582E+01  0.14848260819E+02  0.19205646344E+02  0.00000000000E+00 0. -1.
</event>
<event>
 7    1  0.2313935E-008  0.4614232E+02  0.7816164E-02  0.1320468E+00
        -11   -1    0    0    0    0  0.00000000000E+00  0.00000000000E+00  0.45593999997E+02  0.45594000000E+02  0.51100000000E-03 0. -1.
         11   -1    0    0    0    0 -0.00000000000E+00 -0.00000000000E+00 -0.45593999997E+02  0.45594000000E+02  0.51100000000E-03 0.  1.
    9900012    2    1    2    0    0  0.20114000476E+02 -0.20971140617E+02 -0.34420223242E+02  0.46142317388E+02  0.99999966007E+01 0.  0.
         12    1    1    2    0    0 -0.20114000476E+02  0.20971140617E+02  0.34420223242E+02  0.45045682612E+02  0.00000000000E+00 0. -1.
         11    1    3    3    0    0  0.19503555180E+00  0.64287991420E+00 -0.35501912899E+00  0.75985017840E+00  0.51100000000E-03 0. -1.
        -11    1    3    3    0    0  0.31143619977E+01 -0.80515995313E+00 -0.42116348719E+01  0.52995661858E+01  0.51100000000E-03 0.  1.
        -12    1    3    3    0    0  0.16804602926E+02 -0.20808860578E+02 -0.29853569241E+02  0.40082901024E+02  0.00000000000E+00 0.  1.
</event>
<event>
 7    1  0.2313935E-008  0.4614232E+02  0.7816164E-02  0.1320468E+00
        -11   -1    0    0    0    0  0.00000000000E+00  0.00000000000E+00  0.45593999997E+02  0.45594000000E+02  0.51100000000E-03 0. -1.
         11   -1    0    0    0    0 -0.00000000000E+00 -0.00000000000E+00 -0.45593999997E+02  0.45594000000E+02  0.51100000000E-03 0.  1.
    9900012    2    1    2    0    0  0.30631831062E+02 -0.27900980018E+02 -0.17673137750E+02  0.46142316987E+02  0.99999929394E+01 0.  0.
         12    1    1    2    0    0 -0.30631831062E+02  0.27900980018E+02  0.17673137750E+02  0.45045683013E+02  0.00000000000E+00 0. -1.
         11    1    3    3    0    0  0.46921414482E+01 -0.48253952166E+01 -0.38894781555E+01  0.77735880357E+01  0.51100000000E-03 0. -1.
        -11    1    3    3    0    0  0.17642023093E+02 -0.15818266775E+02 -0.13647381707E+02  0.27344278566E+02  0.51100000000E-03 0.  1.
         12    1    3    3    0    0  0.82976665207E+01 -0.72573180273E+01 -0.13627788778E+00  0.11024450385E+02  0.00000000000E+00 0. -1.
</event>
<event>
 7    1  0.2313935E-008  0.4614232E+02  0.7816164E-02  0.1320468E+00
        -11   -1    0    0    0    0  0.00000000000E+00  0.00000000000E+00  0.45593999997E+02  0.45594000000E+02  0.51100000000E-03 0. -1.
         11   -1    0    0    0    0 -0.00000000000E+00 -0.00000000000E+00 -0.45593999997E+02  0.45594000000E+02  0.51100000000E-03 0.  1.
    9900012    2    1    2    0    0 -0.40662408105E+02 -0.10517549728E-01 -0.19382516803E+02  0.46142317620E+02  0.99999987093E+01 0.  0.
         12    1    1    2    0    0  0.40662408105E+02  0.10517549728E-01  0.19382516803E+02  0.45045682380E+02  0.00000000000E+00 0. -1.
         11    1    3    3    0    0 -0.32964070932E+02  0.10619525530E+01 -0.12136223762E+02  0.35143216175E+02  0.51100000000E-03 0. -1.
        -11    1    3    3    0    0 -0.50963240217E+01  0.26210657663E+00 -0.58361959738E+01  0.77525739015E+01  0.51100000000E-03 0.  1.
        -12    1    3    3    0    0 -0.26020131510E+01 -0.13345766794E+01 -0.14100970672E+01  0.32465275434E+01  0.00000000000E+00 0.  1.
</event>
<event>
 7    1  0.2313935E-008  0.4614232E+02  0.7816164E-02  0.1320468E+00
        -11   -1    0    0    0    0  0.00000000000E+00  0.00000000000E+00  0.45593999997E+02  0.45594000000E+02  0.51100000000E-03 0.  1.
         11   -1    0    0    0    0 -0.00000000000E+00 -0.00000000000E+00 -0.45593999997E+02  0.45594000000E+02  0.51100000000E-03 0. -1.
    9900012    2    1    2    0    0  0.52256497905E+01 -0.29108471143E+02  0.33977978502E+02  0.46142317287E+02  0.99999956784E+01 0.  0.
         12    1    1    2    0    0 -0.52256497905E+01  0.29108471143E+02 -0.33977978502E+02  0.45045682713E+02  0.00000000000E+00 0. -1.
         11    1    3    3    0    0  0.19953448662E+01 -0.58796599231E+00  0.18128650689E+01  0.27592725785E+01  0.51100000000E-03 0. -1.
        -11    1    3    3    0    0  0.33211312414E+00  0.38830306482E-02  0.57171521871E-01  0.33702084385E+00  0.51100000000E-03 0.  1.
        -12    1    3    3    0    0  0.28981918002E+01 -0.28524388181E+02  0.32107941911E+02  0.43046023865E+02  0.00000000000E+00 0.  1.
</event>
<event>
 7    1  0.2313935E-008  0.4614232E+02  0.7816164E-02  0.1320468E+00
        -11   -1    0    0    0    0  0.00000000000E+00  0.00000000000E+00  0.45593999997E+02  0.45594000000E+02  0.51100000000E-03 0.  1.
         11   -1    0    0    0    0 -0.00000000000E+00 -0.00000000000E+00 -0.45593999997E+02  0.45594000000E+02  0.51100000000E-03 0. -1.
    9900012    2    1    2    0    0 -0.97960401733E+01  0.35485749299E+02  0.25959827900E+02  0.46142317955E+02  0.10000001765E+02 0.  0.
         12    1    1    2    0    0  0.97960401733E+01 -0.35485749299E+02 -0.25959827900E+02  0.45045682045E+02  0.00000000000E+00 0. -1.
         11    1    3    3    0    0 -0.18613237449E+01  0.12340953475E+02  0.13304714721E+02  0.18242233767E+02  0.51100000000E-03 0. -1.
        -11    1    3    3    0    0 -0.31427660706E+01  0.15360229971E+02  0.71768672593E+01  0.17243000529E+02  0.51100000000E-03 0.  1.
         12    1    3    3    0    0 -0.47919503577E+01  0.77845658525E+01  0.54782459197E+01  0.10657083658E+02  0.00000000000E+00 0. -1.
</event>
<event>
 7    1  0.2313935E-008  0.4614232E+02  0.7816164E-02  0.1320468E+00
        -11   -1    0    0    0    0  0.00000000000E+00  0.00000000000E+00  0.45593999997E+02  0.45594000000E+02  0.51100000000E-03 0. -1.
         11   -1    0    0    0    0 -0.00000000000E+00 -0.00000000000E+00 -0.45593999997E+02  0.45594000000E+02  0.51100000000E-03 0.  1.
    9900012    2    1    2    0    0 -0.13501387077E+02  0.15226006308E+02 -0.40186997792E+02  0.46142317492E+02  0.99999975468E+01 0.  0.
         12    1    1    2    0    0  0.13501387077E+02 -0.15226006308E+02  0.40186997792E+02  0.45045682508E+02  0.00000000000E+00 0. -1.
         11    1    3    3    0    0 -0.22946473530E+01  0.76413751535E+01 -0.12602517741E+02  0.14915745854E+02  0.51100000000E-03 0.  1.
        -11    1    3    3    0    0 -0.73258450930E+01  0.19626722089E+01 -0.17183419073E+02  0.18782704274E+02  0.51100000000E-03 0. -1.
         12    1    3    3    0    0 -0.38808946306E+01  0.56219589455E+01 -0.10401060978E+02  0.12443867365E+02  0.00000000000E+00 0. -1.
</event>
<event>
 7    1  0.2313935E-008  0.4614232E+02  0.7816164E-02  0.1320468E+00
        -11   -1    0    0    0    0  0.00000000000E+00  0.00000000000E+00  0.45593999997E+02  0.45594000000E+02  0.51100000000E-03 0.  1.
         11   -1    0    0    0    0 -0.00000000000E+00 -0.00000000000E+00 -0.45593999997E+02  0.45594000000E+02  0.51100000000E-03 0. -1.
    9900012    2    1    2    0    0 -0.29311215602E+02  0.52740114450E+01  0.33795719307E+02  0.46142320959E+02  0.10000029157E+02 0.  0.
         12    1    1    2    0    0  0.29311215602E+02 -0.52740114450E+01 -0.33795719307E+02  0.45045679041E+02  0.00000000000E+00 0. -1.
         11    1    3    3    0    0 -0.26891764113E+01  0.22157565935E+01  0.53540478549E+01  0.63880416206E+01  0.51100000000E-03 0. -1.
        -11    1    3    3    0    0 -0.21202815675E+02 -0.53173126884E+00  0.22891094776E+02  0.31206479311E+02  0.51100000000E-03 0.  1.
        -12    1    3    3    0    0 -0.54192235158E+01  0.35899861203E+01  0.55505766766E+01  0.85478000270E+01  0.00000000000E+00 0.  1.
</event>
<event>
 7    1  0.2313935E-008  0.4614232E+02  0.7816164E-02  0.1320468E+00
        -11   -1    0    0    0    0  0.00000000000E+00  0.00000000000E+00  0.45593999997E+02  0.45594000000E+02  0.51100000000E-03 0. -1.
         11   -1    0    0    0    0 -0.00000000000E+00 -0.00000000000E+00 -0.45593999997E+02  0.45594000000E+02  0.51100000000E-03 0.  1.
    9900012    2    1    2    0    0  0.41210054883E+02 -0.10369140358E+02 -0.14944090921E+02  0.46142317091E+02  0.99999938917E+01 0.  0.
         12    1    1    2    0    0 -0.41210054883E+02  0.10369140358E+02  0.14944090921E+02  0.45045682909E+02  0.00000000000E+00 0. -1.
         11    1    3    3    0    0  0.99109849603E+01 -0.15358697828E+01 -0.19590372609E+01  0.10218823128E+02  0.51100000000E-03 0. -1.
        -11    1    3    3    0    0  0.13555168100E+02 -0.10835326603E+01 -0.22470035871E+01  0.13782802713E+02  0.51100000000E-03 0.  1.
         12    1    3    3    0    0  0.17743901823E+02 -0.77497379152E+01 -0.10738050073E+02  0.22140691250E+02  0.00000000000E+00 0. -1.
</event>
<event>
 7    1  0.2313935E-008  0.4614232E+02  0.7816164E-02  0.1320468E+00
        -11   -1    0    0    0    0  0.00000000000E+00  0.00000000000E+00  0.45593999997E+02  0.45594000000E+02  0.51100000000E-03 0. -1.
         11   -1    0    0    0    0 -0.00000000000E+00 -0.00000000000E+00 -0.45593999997E+02  0.45594000000E+02  0.51100000000E-03 0.  1.
    9900012    2    1    2    0    0 -0.40222741747E+02 -0.14855744788E+02  0.13804031875E+02  0.46142318711E+02  0.10000008658E+02 0.  0.
         12    1    1    2    0    0  0.40222741747E+02  0.14855744788E+02 -0.13804031875E+02  0.45045681289E+02  0.00000000000E+00 0. -1.
         11    1    3    3    0    0 -0.13634178924E+02 -0.78240466742E+01  0.38233700305E+01  0.16177907774E+02  0.51100000000E-03 0.  1.
        -11    1    3    3    0    0 -0.51311920475E+01 -0.64113241534E+00 -0.59184003301E+00  0.52048494203E+01  0.51100000000E-03 0. -1.
         12    1    3    3    0    0 -0.21457370776E+02 -0.63905656984E+01  0.10572501877E+02  0.24759561517E+02  0.00000000000E+00 0. -1.
</event>
<event>
 7    1  0.2313935E-008  0.4614232E+02  0.7816164E-02  0.1320468E+00
        -11   -1    0    0    0    0  0.00000000000E+00  0.00000000000E+00  0.45593999997E+02  0.45594000000E+02  0.51100000000E-03 0.  1.
         11   -1    0    0    0    0 -0.00000000000E+00 -0.00000000000E+00 -0.45593999997E+02  0.45594000000E+02  0.51100000000E-03 0. -1.
    9900012    2    1    2    0    0  0.29093483096E+02  0.14171837173E+02  0.31334354246E+02  0.46142317815E+02  0.10000000491E+02 0.  0.
         12    1    1    2    0    0 -0.29093483096E+02 -0.14171837173E+02 -0.31334354246E+02  0.45045682185E+02  0.00000000000E+00 0. -1.
         11    1    3    3    0    0  0.15535209215E+02  0.48870577776E+01  0.16492000109E+02  0.23177836977E+02  0.51100000000E-03 0. -1.
        -11    1    3    3    0    0  0.13035338678E+02  0.90408520835E+01  0.15437630828E+02  0.22135435544E+02  0.51100000000E-03 0.  1.
         12    1    3    3    0    0  0.52293520243E+00  0.24392731159E+00 -0.59527669188E+00  0.82904529380E+00  0.00000000000E+00 0. -1.
</event>
<event>
 7    1  0.2313935E-008  0.4614232E+02  0.7816164E-02  0.1320468E+00
        -11   -1    0    0    0    0  0.00000000000E+00  0.00000000000E+00  0.45593999997E+02  0.45594000000E+02  0.51100000000E-03 0.  1.
         11   -1    0    0    0    0 -0.00000000000E+00 -0.00000000000E+00 -0.45593999997E+02  0.45594000000E+02  0.51100000000E-03 0. -1.
    9900012    2    1    2    0    0  0.24630016791E+02  0.21507884036E+02  0.30982038864E+02  0.46142317243E+02  0.99999952798E+01 0.  0.
         12    1    1    2    0    0 -0.24630016791E+02 -0.21507884036E+02 -0.30982038864E+02  0.45045682757E+02  0.00000000000E+00 0. -1.
         11    1    3    3    0    0  0.68700692959E+01  0.13477880190E+01  0.81356260689E+01  0.10733256564E+02  0.51100000000E-03 0. -1.
        -11    1    3    3    0    0  0.13403849454E+01  0.12786404032E+01  0.27503667296E+01  0.33160323417E+01  0.51100000000E-03 0.  1.
        -12    1    3    3    0    0  0.16419562550E+02  0.18881455614E+02  0.20096046065E+02  0.32093028338E+02  0.00000000000E+00 0.  1.
</event>
<event>
 7    1  0.2313935E-008  0.4614232E+02  0.7816164E-02  0.1320468E+00
        -11   -1    0    0    0    0  0.00000000000E+00  0.00000000000E+00  0.45593999997E+02  0.45594000000E+02  0.51100000000E-03 0.  1.
         11   -1    0    0    0    0 -0.00000000000E+00 -0.00000000000E+00 -0.45593999997E+02  0.45594000000E+02  0.51100000000E-03 0. -1.
    9900012    2    1    2    0    0  0.50777948809E+01  0.37646484226E+02  0.24208920089E+02  0.46142316663E+02  0.99999899871E+01 0.  0.
         12    1    1    2    0    0 -0.50777948809E+01 -0.37646484226E+02 -0.24208920089E+02  0.45045683337E+02  0.00000000000E+00 0. -1.
         11    1    3    3    0    0  0.19338570460E+01  0.23356491541E+02  0.16734896432E+02  0.28797955813E+02  0.51100000000E-03 0. -1.
        -11    1    3    3    0    0  0.10796603570E+01  0.42661799057E+01  0.52875260397E+01  0.68792361027E+01  0.51100000000E-03 0.  1.
         12    1    3    3    0    0  0.20642774779E+01  0.10023812779E+02  0.21864976168E+01  0.10465124747E+02  0.00000000000E+00 0. -1.
</event>
<event>
 7    1  0.2313935E-008  0.4614232E+02  0.7816164E-02  0.1320468E+00
        -11   -1    0    0    0    0  0.00000000000E+00  0.00000000000E+00  0.45593999997E+02  0.45594000000E+02  0.51100000000E-03 0. -1.
         11   -1    0    0    0    0 -0.00000000000E+00 -0.00000000000E+00 -0.45593999997E+02  0.45594000000E+02  0.51100000000E-03 0.  1.
    9900012    2    1    2    0    0 -0.44530311256E+02 -0.62052865300E+01  0.27675357362E+01  0.46142318126E+02  0.10000003323E+02 0.  0.
         12    1    1    2    0    0  0.44530311256E+02  0.62052865300E+01 -0.27675357362E+01  0.45045681874E+02  0.00000000000E+00 0. -1.
         11    1    3    3    0    0 -0.16337240662E+02 -0.47538546773E+01  0.19070352741E+00  0.17015902410E+02  0.51100000000E-03 0. -1.
        -11    1    3    3    0    0 -0.23454060943E+02 -0.37336843721E+01  0.22677209741E+01  0.23857408333E+02  0.51100000000E-03 0.  1.
         12    1    3    3    0    0 -0.47390096515E+01  0.22822525193E+01  0.30911123469E+00  0.52690073823E+01  0.00000000000E+00 0. -1.
</event>
<event>
 7    1  0.2313935E-008  0.4614232E+02  0.7816164E-02  0.1320468E+00
        -11   -1    0    0    0    0  0.00000000000E+00  0.00000000000E+00  0.45593999997E+02  0.45594000000E+02  0.51100000000E-03 0.  1.
         11   -1    0    0    0    0 -0.00000000000E+00 -0.00000000000E+00 -0.45593999997E+02  0.45594000000E+02  0.51100000000E-03 0. -1.
    9900012    2    1    2    0    0  0.12956793193E+02 -0.11710793124E+02  0.41522191049E+02  0.46142317466E+02  0.99999973097E+01 0.  0.
         12    1    1    2    0    0 -0.12956793193E+02  0.11710793124E+02 -0.41522191049E+02  0.45045682534E+02  0.00000000000E+00 0. -1.
         11    1    3    3    0    0  0.24411587938E+01  0.18152023438E-01  0.81479536332E+01  0.85058059243E+01  0.51100000000E-03 0. -1.
        -11    1    3    3    0    0  0.52670170282E+01 -0.30202366968E+01  0.19579624326E+02  0.20499389920E+02  0.51100000000E-03 0.  1.
         12    1    3    3    0    0  0.52486173710E+01 -0.87087084506E+01  0.13794613090E+02  0.17137121622E+02  0.00000000000E+00 0. -1.
</event>
<event>
 7    1  0.2313935E-008  0.4614232E+02  0.7816164E-02  0.1320468E+00
        -11   -1    0    0    0    0  0.00000000000E+00  0.00000000000E+00  0.45593999997E+02  0.45594000000E+02  0.51100000000E-03 0.  1.
         11   -1    0    0    0    0 -0.00000000000E+00 -0.00000000000E+00 -0.45593999997E+02  0.45594000000E+02  0.51100000000E-03 0. -1.
    9900012    2    1    2    0    0  0.21363112843E+02  0.18259160248E+02  0.35204174792E+02  0.46142318230E+02  0.10000004276E+02 0.  0.
         12    1    1    2    0    0 -0.21363112843E+02 -0.18259160248E+02 -0.35204174792E+02  0.45045681770E+02  0.00000000000E+00 0. -1.
         11    1    3    3    0    0  0.69817655557E+00  0.29412299914E+01  0.12214198810E+01  0.32603912575E+01  0.51100000000E-03 0. -1.
        -11    1    3    3    0    0  0.74583305066E+01  0.78508934216E+01  0.11897137824E+02  0.16087420866E+02  0.51100000000E-03 0.  1.
        -12    1    3    3    0    0  0.13206605781E+02  0.74670368353E+01  0.22085617087E+02  0.26794506106E+02  0.00000000000E+00 0.  1.
</event>
<event>
 7    1  0.2313935E-008  0.4614232E+02  0.7816164E-02  0.1320468E+00
        -11   -1    0    0    0    0  0.00000000000E+00  0.00000000000E+00  0.45593999997E+02  0.45594000000E+02  0.51100000000E-03 0. -1.
         11   -1    0    0    0    0 -0.00000000000E+00 -0.00000000000E+00 -0.45593999997E+02  0.45594000000E+02  0.51100000000E-03 0.  1.
    9900012    2    1    2    0    0  0.36631189206E+02 -0.56851167296E+01 -0.25591973342E+02  0.46142315696E+02  0.99999811726E+01 0.  0.
         12    1    1    2    0    0 -0.36631189206E+02  0.56851167296E+01  0.25591973342E+02  0.45045684304E+02  0.00000000000E+00 0. -1.
         11    1    3    3    0    0  0.63825881885E+01  0.16028561233E+01 -0.75993904054E+01  0.10052726721E+02  0.51100000000E-03 0. -1.
        -11    1    3    3    0    0  0.16108517597E+02 -0.26584301641E+01 -0.81271897620E+01  0.18237401235E+02  0.51100000000E-03 0.  1.
         12    1    3    3    0    0  0.14140083420E+02 -0.46295426887E+01 -0.98653931744E+01  0.17852187741E+02  0.00000000000E+00 0. -1.
</event>
<event>
 7    1  0.2313935E-008  0.4614232E+02  0.7816164E-02  0.1320468E+00
        -11   -1    0    0    0    0  0.00000000000E+00  0.00000000000E+00  0.45593999997E+02  0.45594000000E+02  0.51100000000E-03 0. -1.
         11   -1    0    0    0    0 -0.00000000000E+00 -0.00000000000E+00 -0.45593999997E+02  0.45594000000E+02  0.51100000000E-03 0.  1.
    9900012    2    1    2    0    0 -0.16726479070E+02 -0.39109162688E+02 -0.14826051593E+02  0.46142317476E+02  0.99999974025E+01 0.  0.
         12    1    1    2    0    0  0.16726479070E+02  0.39109162688E+02  0.14826051593E+02  0.45045682524E+02  0.00000000000E+00 0. -1.
         11    1    3    3    0    0 -0.61006930301E+00  0.15123927465E+00 -0.13174291419E+00  0.64219493086E+00  0.51100000000E-03 0. -1.
        -11    1    3    3    0    0 -0.59773036569E+01 -0.23807567095E+02 -0.74943608749E+01  0.25665031759E+02  0.51100000000E-03 0.  1.
         12    1    3    3    0    0 -0.10139106110E+02 -0.15452834867E+02 -0.71999478038E+01  0.19835090787E+02  0.00000000000E+00 0. -1.
</event>
<event>
 7    1  0.2313935E-008  0.4614231E+02  0.7816164E-02  0.1320468E+00
        -11   -1    0    0    0    0  0.00000000000E+00  0.00000000000E+00  0.45593999997E+02  0.45594000000E+02  0.51100000000E-03 0.  1.
         11   -1    0    0    0    0 -0.00000000000E+00 -0.00000000000E+00 -0.45593999997E+02  0.45594000000E+02  0.51100000000E-03 0. -1.
    9900012    2    1    2    0    0 -0.37596888168E+01 -0.22539589634E+02  0.38819396674E+02  0.46142312981E+02  0.99999564098E+01 0.  0.
         12    1    1    2    0    0  0.37596888168E+01  0.22539589634E+02 -0.38819396674E+02  0.45045687019E+02  0.00000000000E+00 0. -1.
         11    1    3    3    0    0  0.14306083153E+01 -0.57713688437E+01  0.90661159023E+01  0.10842038383E+02  0.51100000000E-03 0. -1.
        -11    1    3    3    0    0 -0.61316019739E+01 -0.15725812572E+02  0.23762865602E+02  0.29147409931E+02  0.51100000000E-03 0.  1.
         12    1    3    3    0    0  0.94130484179E+00 -0.10424082183E+01  0.59904151699E+01  0.61528646667E+01  0.00000000000E+00 0. -1.
</event>
<event>
 7    1  0.2313935E-008  0.4614232E+02  0.7816164E-02  0.1320468E+00
        -11   -1    0    0    0    0  0.00000000000E+00  0.00000000000E+00  0.45593999997E+02  0.45594000000E+02  0.51100000000E-03 0.  1.
         11   -1    0    0    0    0 -0.00000000000E+00 -0.00000000000E+00 -0.45593999997E+02  0.45594000000E+02  0.51100000000E-03 0. -1.
    9900012    2    1    2    0    0 -0.40179215124E+02  0.26607570866E+01  0.20190703063E+02  0.46142318227E+02  0.10000004248E+02 0.  0.
         12    1    1    2    0    0  0.40179215124E+02 -0.26607570866E+01 -0.20190703063E+02  0.45045681773E+02  0.00000000000E+00 0. -1.
         11    1    3    3    0    0 -0.26162082742E+01 -0.26799034594E+00  0.31145653895E+01  0.40763810404E+01  0.51100000000E-03 0. -1.
        -11    1    3    3    0    0 -0.31447932401E+02  0.20157372637E+01  0.17161511641E+02  0.35882490592E+02  0.51100000000E-03 0.  1.
         12    1    3    3    0    0 -0.61150744484E+01  0.91301016886E+00 -0.85373967130E-01  0.61834465949E+01  0.00000000000E+00 0. -1.
</event>
<event>
 7    1  0.2313935E-008  0.4614232E+02  0.7816164E-02  0.1320468E+00
        -11   -1    0    0    0    0  0.00000000000E+00  0.00000000000E+00  0.45593999997E+02  0.45594000000E+02  0.51100000000E-03 0.  1.
         11   -1    0    0    0    0 -0.00000000000E+00 -0.00000000000E+00 -0.45593999997E+02  0.45594000000E+02  0.51100000000E-03 0. -1.
    9900012    2    1    2    0    0  0.29615793622E+02 -0.29683899188E+01  0.33811342315E+02  0.46142318301E+02  0.10000004927E+02 0.  0.
         12    1    1    2    0    0 -0.29615793622E+02  0.29683899188E+01 -0.33811342315E+02  0.45045681699E+02  0.00000000000E+00 0. -1.
         11    1    3    3    0    0  0.17357080491E+02 -0.18061390892E+00  0.18868487036E+02  0.25638265695E+02  0.51100000000E-03 0. -1.
        -11    1    3    3    0    0  0.10951627776E+02 -0.63319675426E+00  0.14061384143E+02  0.17834281969E+02  0.51100000000E-03 0.  1.
         12    1    3    3    0    0  0.13070853545E+01 -0.21545792556E+01  0.88147113634E+00  0.26697706375E+01  0.00000000000E+00 0. -1.
</event>
<event>
 7    1  0.2313935E-008  0.4614232E+02  0.7816164E-02  0.1320468E+00
        -11   -1    0    0    0    0  0.00000000000E+00  0.00000000000E+00  0.45593999997E+02  0.45594000000E+02  0.51100000000E-03 0.  1.
         11   -1    0    0    0    0 -0.00000000000E+00 -0.00000000000E+00 -0.45593999997E+02  0.45594000000E+02  0.51100000000E-03 0. -1.
    9900012    2    1    2    0    0  0.31675553096E+02  0.25285248297E+02  0.19657797564E+02  0.46142318182E+02  0.10000003840E+02 0.  0.
         12    1    1    2    0    0 -0.31675553096E+02 -0.25285248297E+02 -0.19657797564E+02  0.45045681818E+02  0.00000000000E+00 0. -1.
         11    1    3    3    0    0  0.11485543261E+02  0.46665629240E+01  0.63477162191E+01  0.13927958033E+02  0.51100000000E-03 0. -1.
        -11    1    3    3    0    0  0.66242338051E+01  0.41726847573E+01  0.19969919292E+01  0.80795883939E+01  0.51100000000E-03 0.  1.
        -12    1    3    3    0    0  0.13565776030E+02  0.16446000615E+02  0.11313089416E+02  0.24134771755E+02  0.00000000000E+00 0.  1.
</event>
<event>
 7    1  0.2313935E-008  0.4614232E+02  0.7816164E-02  0.1320468E+00
        -11   -1    0    0    0    0  0.00000000000E+00  0.00000000000E+00  0.45593999997E+02  0.45594000000E+02  0.51100000000E-03 0.  1.
         11   -1    0    0    0    0 -0.00000000000E+00 -0.00000000000E+00 -0.45593999997E+02  0.45594000000E+02  0.51100000000E-03 0. -1.
    9900012    2    1    2    0    0  0.21110702559E+02  0.17617753533E+02  0.35680057325E+02  0.46142317712E+02  0.99999995545E+01 0.  0.
         12    1    1    2    0    0 -0.21110702559E+02 -0.17617753533E+02 -0.35680057325E+02  0.45045682288E+02  0.00000000000E+00 0. -1.
         11    1    3    3    0    0  0.37965278068E+00 -0.10177825010E+00  0.38008389398E+00  0.54677150040E+00  0.51100000000E-03 0. -1.
        -11    1    3    3    0    0  0.12705011446E+00  0.36770305821E+01  0.27525191635E+01  0.45948947365E+01  0.51100000000E-03 0.  1.
        -12    1    3    3    0    0  0.20603999664E+02  0.14042501201E+02  0.32547454268E+02  0.41000651475E+02  0.00000000000E+00 0.  1.
</event>
<event>
 7    1  0.2313935E-008  0.4614231E+02  0.7816164E-02  0.1320468E+00
        -11   -1    0    0    0    0  0.00000000000E+00  0.00000000000E+00  0.45593999997E+02  0.45594000000E+02  0.51100000000E-03 0.  1.
         11   -1    0    0    0    0 -0.00000000000E+00 -0.00000000000E+00 -0.45593999997E+02  0.45594000000E+02  0.51100000000E-03 0. -1.
    9900012    2    1    2    0    0  0.34004228830E+02  0.18933479069E+02  0.22679276407E+02  0.46142314454E+02  0.99999698440E+01 0.  0.
         12    1    1    2    0    0 -0.34004228830E+02 -0.18933479069E+02 -0.22679276407E+02  0.45045685546E+02  0.00000000000E+00 0. -1.
         11    1    3    3    0    0  0.22105926173E+01 -0.63568983398E+00  0.15096294467E+01  0.27513274273E+01  0.51100000000E-03 0. -1.
        -11    1    3    3    0    0  0.13489964690E+02  0.48933143497E+01  0.92827493257E+01  0.17090731639E+02  0.51100000000E-03 0.  1.
        -12    1    3    3    0    0  0.18303671522E+02  0.14675854554E+02  0.11886897634E+02  0.26300255387E+02  0.00000000000E+00 0.  1.
</event>
<event>
 7    1  0.2313935E-008  0.4614232E+02  0.7816164E-02  0.1320468E+00
        -11   -1    0    0    0    0  0.00000000000E+00  0.00000000000E+00  0.45593999997E+02  0.45594000000E+02  0.51100000000E-03 0.  1.
         11   -1    0    0    0    0 -0.00000000000E+00 -0.00000000000E+00 -0.45593999997E+02  0.45594000000E+02  0.51100000000E-03 0. -1.
    9900012    2    1    2    0    0 -0.23894555295E+02  0.36328248891E+02  0.11765289520E+02  0.46142317879E+02  0.10000001074E+02 0.  0.
         12    1    1    2    0    0  0.23894555295E+02 -0.36328248891E+02 -0.11765289520E+02  0.45045682121E+02  0.00000000000E+00 0. -1.
         11    1    3    3    0    0 -0.61527716041E+01  0.64646656198E+01  0.19389857496E+01  0.91328071252E+01  0.51100000000E-03 0.  1.
        -11    1    3    3    0    0 -0.18068848913E+02  0.25979106685E+02  0.97416273513E+01  0.33110369809E+02  0.51100000000E-03 0. -1.
         12    1    3    3    0    0  0.32706522171E+00  0.38844765862E+01  0.84676419338E-01  0.38991409444E+01  0.00000000000E+00 0. -1.
</event>
<event>
 7    1  0.2313935E-008  0.4614232E+02  0.7816164E-02  0.1320468E+00
        -11   -1    0    0    0    0  0.00000000000E+00  0.00000000000E+00  0.45593999997E+02  0.45594000000E+02  0.51100000000E-03 0. -1.
         11   -1    0    0    0    0 -0.00000000000E+00 -0.00000000000E+00 -0.45593999997E+02  0.45594000000E+02  0.51100000000E-03 0.  1.
    9900012    2    1    2    0    0 -0.11321337604E+02  0.35502822452E+01 -0.43454990947E+02  0.46142318438E+02  0.10000006175E+02 0.  0.
         12    1    1    2    0    0  0.11321337604E+02 -0.35502822452E+01  0.43454990947E+02  0.45045681562E+02  0.00000000000E+00 0. -1.
         11    1    3    3    0    0 -0.10525258641E+01  0.41259461771E+01 -0.17269601128E+02  0.17786803140E+02  0.51100000000E-03 0.  1.
        -11    1    3    3    0    0 -0.22988600061E+01 -0.69100488040E-01 -0.26855225976E+01  0.35357550945E+01  0.51100000000E-03 0. -1.
        -12    1    3    3    0    0 -0.79699517334E+01 -0.50656344391E+00 -0.23499867221E+02  0.24819760204E+02  0.00000000000E+00 0.  1.
</event>
<event>
 7    1  0.2313935E-008  0.4614232E+02  0.7816164E-02  0.1320468E+00
        -11   -1    0    0    0    0  0.00000000000E+00  0.00000000000E+00  0.45593999997E+02  0.45594000000E+02  0.51100000000E-03 0.  1.
         11   -1    0    0    0    0 -0.00000000000E+00 -0.00000000000E+00 -0.45593999997E+02  0.45594000000E+02  0.51100000000E-03 0. -1.
    9900012    2    1    2    0    0  0.45039150028E+02  0.76532943769E+00  0.52030676635E-01  0.46142317948E+02  0.10000001703E+02 0.  0.
         12    1    1    2    0    0 -0.45039150028E+02 -0.76532943769E+00 -0.52030676635E-01  0.45045682052E+02  0.00000000000E+00 0. -1.
         11    1    3    3    0    0  0.21278991218E+02  0.47644473694E+01  0.11767543281E+00  0.21806175129E+02  0.51100000000E-03 0.  1.
        -11    1    3    3    0    0  0.12949345446E+02 -0.34950688137E+01  0.10636368097E+01  0.13454827275E+02  0.51100000000E-03 0. -1.
        -12    1    3    3    0    0  0.10810813363E+02 -0.50404911800E+00 -0.11292815659E+01  0.10881315543E+02  0.00000000000E+00 0.  1.
</event>
<event>
 7    1  0.2313935E-008  0.4614232E+02  0.7816164E-02  0.1320468E+00
        -11   -1    0    0    0    0  0.00000000000E+00  0.00000000000E+00  0.45593999997E+02  0.45594000000E+02  0.51100000000E-03 0.  1.
         11   -1    0    0    0    0 -0.00000000000E+00 -0.00000000000E+00 -0.45593999997E+02  0.45594000000E+02  0.51100000000E-03 0. -1.
    9900012    2    1    2    0    0 -0.97679127431E+00 -0.36443817149E+02  0.26457655157E+02  0.46142318231E+02  0.10000004286E+02 0.  0.
         12    1    1    2    0    0  0.97679127431E+00  0.36443817149E+02 -0.26457655157E+02  0.45045681769E+02  0.00000000000E+00 0. -1.
         11    1    3    3    0    0 -0.20601902054E+01 -0.12950516151E+02  0.13227116986E+02  0.18625704719E+02  0.51100000000E-03 0. -1.
        -11    1    3    3    0    0  0.26995192630E+01 -0.80095484488E+01  0.59096550530E+01  0.10313306633E+02  0.51100000000E-03 0.  1.
         12    1    3    3    0    0 -0.16161203319E+01 -0.15483752550E+02  0.73208831187E+01  0.17203306879E+02  0.00000000000E+00 0. -1.
</event>
<event>
 7    1  0.2313935E-008  0.4614231E+02  0.7816164E-02  0.1320468E+00
        -11   -1    0    0    0    0  0.00000000000E+00  0.00000000000E+00  0.45593999997E+02  0.45594000000E+02  0.51100000000E-03 0. -1.
         11   -1    0    0    0    0 -0.00000000000E+00 -0.00000000000E+00 -0.45593999997E+02  0.45594000000E+02  0.51100000000E-03 0.  1.
    9900012    2    1    2    0    0  0.19297606883E+02 -0.11444213710E+02 -0.39060800403E+02  0.46142314447E+02  0.99999697797E+01 0.  0.
         12    1    1    2    0    0 -0.19297606883E+02  0.11444213710E+02  0.39060800403E+02  0.45045685553E+02  0.00000000000E+00 0. -1.
         11    1    3    3    0    0  0.98217505818E+01 -0.53272130522E+01 -0.13036317203E+02  0.17169494747E+02  0.51100000000E-03 0. -1.
        -11    1    3    3    0    0  0.34542989347E+01  0.52394626477E+00 -0.48362161401E+01  0.59662121680E+01  0.51100000000E-03 0.  1.
         12    1    3    3    0    0  0.60215573663E+01 -0.66409469229E+01 -0.21188267059E+02  0.23006607532E+02  0.00000000000E+00 0. -1.
</event>
<event>
 7    1  0.2313935E-008  0.4614232E+02  0.7816164E-02  0.1320468E+00
        -11   -1    0    0    0    0  0.00000000000E+00  0.00000000000E+00  0.45593999997E+02  0.45594000000E+02  0.51100000000E-03 0.  1.
         11   -1    0    0    0    0 -0.00000000000E+00 -0.00000000000E+00 -0.45593999997E+02  0.45594000000E+02  0.51100000000E-03 0. -1.
    9900012    2    1    2    0    0 -0.41847322924E+02 -0.82173245198E+00  0.16650512600E+02  0.46142320407E+02  0.10000024127E+02 0.  0.
         12    1    1    2    0    0  0.41847322924E+02  0.82173245198E+00 -0.16650512600E+02  0.45045679593E+02  0.00000000000E+00 0. -1.
         11    1    3    3    0    0 -0.36489527252E+01 -0.28586856152E+01  0.22108732213E+01  0.51356499198E+01  0.51100000000E-03 0. -1.
        -11    1    3    3    0    0 -0.25691581494E+02  0.74516187649E+00  0.82617744580E+01  0.26997584028E+02  0.51100000000E-03 0.  1.
         12    1    3    3    0    0 -0.12506788705E+02  0.12917912867E+01  0.61778649212E+01  0.14009086459E+02  0.00000000000E+00 0. -1.
</event>
<event>
 7    1  0.2313935E-008  0.4614230E+02  0.7816164E-02  0.1320468E+00
        -11   -1    0    0    0    0  0.00000000000E+00  0.00000000000E+00  0.45593999997E+02  0.45594000000E+02  0.51100000000E-03 0. -1.
         11   -1    0    0    0    0 -0.00000000000E+00 -0.00000000000E+00 -0.45593999997E+02  0.45594000000E+02  0.51100000000E-03 0.  1.
    9900012    2    1    2    0    0 -0.73254531860E+01 -0.39288546855E+02 -0.20781302581E+02  0.46142304142E+02  0.99998758116E+01 0.  0.
         12    1    1    2    0    0  0.73254531860E+01  0.39288546855E+02  0.20781302581E+02  0.45045695858E+02  0.00000000000E+00 0. -1.
         11    1    3    3    0    0 -0.39807463344E+01 -0.10299436914E+02 -0.30867477301E+01  0.11465284730E+02  0.51100000000E-03 0. -1.
        -11    1    3    3    0    0 -0.62966040267E+00 -0.22050350251E+01 -0.36548231534E+01  0.43146708134E+01  0.51100000000E-03 0.  1.
        -12    1    3    3    0    0 -0.27150464489E+01 -0.26784074916E+02 -0.14039731697E+02  0.30362348599E+02  0.00000000000E+00 0.  1.
</event>
<event>
 7    1  0.2313935E-008  0.4614232E+02  0.7816164E-02  0.1320468E+00
        -11   -1    0    0    0    0  0.00000000000E+00  0.00000000000E+00  0.45593999997E+02  0.45594000000E+02  0.51100000000E-03 0.  1.
         11   -1    0    0    0    0 -0.00000000000E+00 -0.00000000000E+00 -0.45593999997E+02  0.45594000000E+02  0.51100000000E-03 0. -1.
    9900012    2    1    2    0    0 -0.28226004990E+02 -0.38789774989E+01  0.34890683049E+02  0.46142316658E+02  0.99999899415E+01 0.  0.
         12    1    1    2    0    0  0.28226004990E+02  0.38789774989E+01 -0.34890683049E+02  0.45045683342E+02  0.00000000000E+00 0. -1.
         11    1    3    3    0    0 -0.74764249075E+01 -0.36384479543E+01  0.71190995800E+01  0.10946086607E+02  0.51100000000E-03 0. -1.
        -11    1    3    3    0    0 -0.79370861688E+01 -0.15688969692E+01  0.67249756934E+01  0.10520649832E+02  0.51100000000E-03 0.  1.
        -12    1    3    3    0    0 -0.12812493914E+02  0.13283674246E+01  0.21046607775E+02  0.24675580219E+02  0.00000000000E+00 0.  1.
</event>
<event>
 7    1  0.2313935E-008  0.4614232E+02  0.7816164E-02  0.1320468E+00
        -11   -1    0    0    0    0  0.00000000000E+00  0.00000000000E+00  0.45593999997E+02  0.45594000000E+02  0.51100000000E-03 0.  1.
         11   -1    0    0    0    0 -0.00000000000E+00 -0.00000000000E+00 -0.45593999997E+02  0.45594000000E+02  0.51100000000E-03 0. -1.
    9900012    2    1    2    0    0  0.19437315916E+02  0.40588356691E+02 -0.19722376224E+01  0.46142315744E+02  0.99999816029E+01 0.  0.
         12    1    1    2    0    0 -0.19437315916E+02 -0.40588356691E+02  0.19722376224E+01  0.45045684256E+02  0.00000000000E+00 0. -1.
         11    1    3    3    0    0  0.66574510981E+00  0.39822253808E+01  0.20081340828E+01  0.45093168319E+01  0.51100000000E-03 0. -1.
        -11    1    3    3    0    0  0.61316646449E+00  0.80268990893E-01  0.14265058222E+00  0.63463822277E+00  0.51100000000E-03 0.  1.
        -12    1    3    3    0    0  0.18158404342E+02  0.36525862319E+02 -0.41230222875E+01  0.40998360689E+02  0.00000000000E+00 0.  1.
</event>
<event>
 7    1  0.2313935E-008  0.4614232E+02  0.7816164E-02  0.1320468E+00
        -11   -1    0    0    0    0  0.00000000000E+00  0.00000000000E+00  0.45593999997E+02  0.45594000000E+02  0.51100000000E-03 0.  1.
         11   -1    0    0    0    0 -0.00000000000E+00 -0.00000000000E+00 -0.45593999997E+02  0.45594000000E+02  0.51100000000E-03 0. -1.
    9900012    2    1    2    0    0 -0.64161179099E+01  0.29481891800E+02  0.33447945448E+02  0.46142316879E+02  0.99999919579E+01 0.  0.
         12    1    1    2    0    0  0.64161179099E+01 -0.29481891800E+02 -0.33447945448E+02  0.45045683121E+02  0.00000000000E+00 0. -1.
         11    1    3    3    0    0  0.22487329172E+01  0.77837005489E+01  0.10756404745E+02  0.13466366892E+02  0.51100000000E-03 0. -1.
        -11    1    3    3    0    0 -0.43083919232E+01  0.80963733594E+01  0.10006509716E+02  0.13573641350E+02  0.51100000000E-03 0.  1.
         12    1    3    3    0    0 -0.43564589039E+01  0.13601817892E+02  0.12685030987E+02  0.19102308638E+02  0.00000000000E+00 0. -1.
</event>
<event>
 7    1  0.2313935E-008  0.4614232E+02  0.7816164E-02  0.1320468E+00
        -11   -1    0    0    0    0  0.00000000000E+00  0.00000000000E+00  0.45593999997E+02  0.45594000000E+02  0.51100000000E-03 0.  1.
         11   -1    0    0    0    0 -0.00000000000E+00 -0.00000000000E+00 -0.45593999997E+02  0.45594000000E+02  0.51100000000E-03 0. -1.
    9900012    2    1    2    0    0  0.80853413573E+01  0.78141989566E+01  0.43619711090E+02  0.46142316014E+02  0.99999840646E+01 0.  0.
         12    1    1    2    0    0 -0.80853413573E+01 -0.78141989566E+01 -0.43619711090E+02  0.45045683986E+02  0.00000000000E+00 0. -1.
         11    1    3    3    0    0  0.40003175556E+01  0.38927531123E+01  0.13725023923E+02  0.14816624085E+02  0.51100000000E-03 0. -1.
        -11    1    3    3    0    0  0.51235090757E+01  0.57778119074E+00  0.23251788558E+02  0.23816587660E+02  0.51100000000E-03 0.  1.
         12    1    3    3    0    0 -0.10384852739E+01  0.33436646535E+01  0.66428986100E+01  0.75091042690E+01  0.00000000000E+00 0. -1.
</event>
<event>
 7    1  0.2313935E-008  0.4614232E+02  0.7816164E-02  0.1320468E+00
        -11   -1    0    0    0    0  0.00000000000E+00  0.00000000000E+00  0.45593999997E+02  0.45594000000E+02  0.51100000000E-03 0. -1.
         11   -1    0    0    0    0 -0.00000000000E+00 -0.00000000000E+00 -0.45593999997E+02  0.45594000000E+02  0.51100000000E-03 0.  1.
    9900012    2    1    2    0    0 -0.23099140503E+02 -0.38152083415E+02  0.63215294714E+01  0.46142317680E+02  0.99999992582E+01 0.  0.
         12    1    1    2    0    0  0.23099140503E+02  0.38152083415E+02 -0.63215294714E+01  0.45045682320E+02  0.00000000000E+00 0. -1.
         11    1    3    3    0    0 -0.15099860633E+01 -0.50520581424E+00  0.12057970792E+01  0.19973076086E+01  0.51100000000E-03 0. -1.
        -11    1    3    3    0    0 -0.30013119022E+01 -0.41341075876E+01  0.26199552434E+01  0.57413312410E+01  0.51100000000E-03 0.  1.
        -12    1    3    3    0    0 -0.18587842537E+02 -0.33512770013E+02  0.24957771488E+01  0.38403678830E+02  0.00000000000E+00 0.  1.
</event>
<event>
 7    1  0.2313935E-008  0.4614232E+02  0.7816164E-02  0.1320468E+00
        -11   -1    0    0    0    0  0.00000000000E+00  0.00000000000E+00  0.45593999997E+02  0.45594000000E+02  0.51100000000E-03 0.  1.
         11   -1    0    0    0    0 -0.00000000000E+00 -0.00000000000E+00 -0.45593999997E+02  0.45594000000E+02  0.51100000000E-03 0. -1.
    9900012    2    1    2    0    0 -0.15937201181E+02  0.28896718907E+02  0.30661029493E+02  0.46142317913E+02  0.10000001389E+02 0.  0.
         12    1    1    2    0    0  0.15937201181E+02 -0.28896718907E+02 -0.30661029493E+02  0.45045682087E+02  0.00000000000E+00 0. -1.
         11    1    3    3    0    0 -0.11756546665E+02  0.12075618600E+02  0.15032486207E+02  0.22583458457E+02  0.51100000000E-03 0. -1.
        -11    1    3    3    0    0  0.18804454370E+00  0.26646208621E+01  0.13924827693E+01  0.30124032953E+01  0.51100000000E-03 0.  1.
        -12    1    3    3    0    0 -0.43686990593E+01  0.14156479445E+02  0.14236060517E+02  0.20546456161E+02  0.00000000000E+00 0.  1.
</event>
<event>
 7    1  0.2313935E-008  0.4614232E+02  0.7816164E-02  0.1320468E+00
        -11   -1    0    0    0    0  0.00000000000E+00  0.00000000000E+00  0.45593999997E+02  0.45594000000E+02  0.51100000000E-03 0. -1.
         11   -1    0    0    0    0 -0.00000000000E+00 -0.00000000000E+00 -0.45593999997E+02  0.45594000000E+02  0.51100000000E-03 0.  1.
    9900012    2    1    2    0    0  0.18525230823E+02 -0.39471322657E+02  0.11311232157E+02  0.46142318051E+02  0.10000002647E+02 0.  0.
         12    1    1    2    0    0 -0.18525230823E+02  0.39471322657E+02 -0.11311232157E+02  0.45045681949E+02  0.00000000000E+00 0. -1.
         11    1    3    3    0    0 -0.16607100784E+00 -0.23761827632E+01  0.13884234024E+01  0.27570897536E+01  0.51100000000E-03 0. -1.
        -11    1    3    3    0    0  0.43182528932E+01 -0.52689216181E+01  0.41865493982E+01  0.79960014502E+01  0.51100000000E-03 0.  1.
        -12    1    3    3    0    0  0.14373048937E+02 -0.31826218275E+02  0.57362593563E+01  0.35389226848E+02  0.00000000000E+00 0.  1.
</event>
<event>
 7    1  0.2313935E-008  0.4614232E+02  0.7816164E-02  0.1320468E+00
        -11   -1    0    0    0    0  0.00000000000E+00  0.00000000000E+00  0.45593999997E+02  0.45594000000E+02  0.51100000000E-03 0.  1.
         11   -1    0    0    0    0 -0.00000000000E+00 -0.00000000000E+00 -0.45593999997E+02  0.45594000000E+02  0.51100000000E-03 0. -1.
    9900012    2    1    2    0    0 -0.19887000633E+02 -0.11834457981E+02  0.38646685292E+02  0.46142317921E+02  0.10000001461E+02 0.  0.
         12    1    1    2    0    0  0.19887000633E+02  0.11834457981E+02 -0.38646685292E+02  0.45045682079E+02  0.00000000000E+00 0. -1.
         11    1    3    3    0    0 -0.15644667061E+02 -0.81730669765E+01  0.32253427622E+02  0.36767352704E+02  0.51100000000E-03 0.  1.
        -11    1    3    3    0    0 -0.37086228412E+01 -0.44523157088E+01  0.60048899416E+01  0.83448008976E+01  0.51100000000E-03 0. -1.
        -12    1    3    3    0    0 -0.53371073087E+00  0.79092470456E+00  0.38836772820E+00  0.10301643193E+01  0.00000000000E+00 0.  1.
</event>
<event>
 7    1  0.2313935E-008  0.4614232E+02  0.7816164E-02  0.1320468E+00
        -11   -1    0    0    0    0  0.00000000000E+00  0.00000000000E+00  0.45593999997E+02  0.45594000000E+02  0.51100000000E-03 0.  1.
         11   -1    0    0    0    0 -0.00000000000E+00 -0.00000000000E+00 -0.45593999997E+02  0.45594000000E+02  0.51100000000E-03 0. -1.
    9900012    2    1    2    0    0 -0.36132994650E+02  0.12330881469E+02  0.23905426679E+02  0.46142319132E+02  0.10000012500E+02 0.  0.
         12    1    1    2    0    0  0.36132994650E+02 -0.12330881469E+02 -0.23905426679E+02  0.45045680868E+02  0.00000000000E+00 0. -1.
         11    1    3    3    0    0 -0.38327308995E+01  0.71573269703E-01  0.26441904256E+01  0.46568972663E+01  0.51100000000E-03 0. -1.
        -11    1    3    3    0    0 -0.21700760380E+02  0.94304747801E+01  0.18852775521E+02  0.30253660948E+02  0.51100000000E-03 0.  1.
        -12    1    3    3    0    0 -0.10599503370E+02  0.28288334194E+01  0.24084607324E+01  0.11231760918E+02  0.00000000000E+00 0.  1.
</event>
<event>
 7    1  0.2313935E-008  0.4614232E+02  0.7816164E-02  0.1320468E+00
        -11   -1    0    0    0    0  0.00000000000E+00  0.00000000000E+00  0.45593999997E+02  0.45594000000E+02  0.51100000000E-03 0. -1.
         11   -1    0    0    0    0 -0.00000000000E+00 -0.00000000000E+00 -0.45593999997E+02  0.45594000000E+02  0.51100000000E-03 0.  1.
    9900012    2    1    2    0    0  0.26848480304E+02  0.34554874299E+02 -0.10687979054E+02  0.46142321753E+02  0.10000036402E+02 0.  0.
         12    1    1    2    0    0 -0.26848480304E+02 -0.34554874299E+02  0.10687979054E+02  0.45045678247E+02  0.00000000000E+00 0. -1.
         11    1    3    3    0    0  0.15118319653E+02  0.18455437038E+02 -0.74382210651E+01  0.24989875515E+02  0.51100000000E-03 0. -1.
        -11    1    3    3    0    0  0.10239563279E+02  0.15236482221E+02 -0.46447455649E+01  0.18936016166E+02  0.51100000000E-03 0.  1.
         12    1    3    3    0    0  0.14905973719E+01  0.86295504099E+00  0.13949875761E+01  0.22164300723E+01  0.00000000000E+00 0. -1.
</event>
<event>
 7    1  0.2313935E-008  0.4614232E+02  0.7816164E-02  0.1320468E+00
        -11   -1    0    0    0    0  0.00000000000E+00  0.00000000000E+00  0.45593999997E+02  0.45594000000E+02  0.51100000000E-03 0. -1.
         11   -1    0    0    0    0 -0.00000000000E+00 -0.00000000000E+00 -0.45593999997E+02  0.45594000000E+02  0.51100000000E-03 0.  1.
    9900012    2    1    2    0    0 -0.38001734617E+01  0.29977683123E+02  0.33406746690E+02  0.46142317319E+02  0.99999959679E+01 0.  0.
         12    1    1    2    0    0  0.38001734617E+01 -0.29977683123E+02 -0.33406746690E+02  0.45045682681E+02  0.00000000000E+00 0. -1.
         11    1    3    3    0    0 -0.26306766696E+01  0.85970905711E+01  0.12033156798E+02  0.15020895074E+02  0.51100000000E-03 0. -1.
        -11    1    3    3    0    0 -0.10999122440E+01  0.15294114890E+02  0.10258351711E+02  0.18448673050E+02  0.51100000000E-03 0.  1.
        -12    1    3    3    0    0 -0.69584548072E-01  0.60864776620E+01  0.11115238182E+02  0.12672749196E+02  0.00000000000E+00 0.  1.
</event>
<event>
 7    1  0.2313935E-008  0.4614232E+02  0.7816164E-02  0.1320468E+00
        -11   -1    0    0    0    0  0.00000000000E+00  0.00000000000E+00  0.45593999997E+02  0.45594000000E+02  0.51100000000E-03 0. -1.
         11   -1    0    0    0    0 -0.00000000000E+00 -0.00000000000E+00 -0.45593999997E+02  0.45594000000E+02  0.51100000000E-03 0.  1.
    9900012    2    1    2    0    0  0.36461705417E+02  0.15441354977E+02 -0.21476083000E+02  0.46142317116E+02  0.99999941168E+01 0.  0.
         12    1    1    2    0    0 -0.36461705417E+02 -0.15441354977E+02  0.21476083000E+02  0.45045682884E+02  0.00000000000E+00 0. -1.
         11    1    3    3    0    0  0.29553081486E+01  0.39191938598E+01 -0.27774724241E+01  0.56398829856E+01  0.51100000000E-03 0. -1.
        -11    1    3    3    0    0  0.13913692251E+01  0.15348587092E+01 -0.10867726170E+00  0.20744904401E+01  0.51100000000E-03 0.  1.
        -12    1    3    3    0    0  0.32115028043E+02  0.99873024082E+01 -0.18589933314E+02  0.38427943690E+02  0.00000000000E+00 0.  1.
</event>
<event>
 7    1  0.2313935E-008  0.4614232E+02  0.7816164E-02  0.1320468E+00
        -11   -1    0    0    0    0  0.00000000000E+00  0.00000000000E+00  0.45593999997E+02  0.45594000000E+02  0.51100000000E-03 0. -1.
         11   -1    0    0    0    0 -0.00000000000E+00 -0.00000000000E+00 -0.45593999997E+02  0.45594000000E+02  0.51100000000E-03 0.  1.
    9900012    2    1    2    0    0  0.39430952186E+02  0.79811223726E+01 -0.20263641775E+02  0.46142317825E+02  0.10000000583E+02 0.  0.
         12    1    1    2    0    0 -0.39430952186E+02 -0.79811223726E+01  0.20263641775E+02  0.45045682175E+02  0.00000000000E+00 0. -1.
         11    1    3    3    0    0  0.12548487494E+02 -0.72819371630E+00 -0.51066912641E+01  0.13567354216E+02  0.51100000000E-03 0. -1.
        -11    1    3    3    0    0  0.11695199921E+02  0.89921048419E+00 -0.54891417319E+01  0.12950558208E+02  0.51100000000E-03 0.  1.
         12    1    3    3    0    0  0.15187264771E+02  0.78101056047E+01 -0.96678087795E+01  0.19624405402E+02  0.00000000000E+00 0. -1.
</event>
<event>
 7    1  0.2313935E-008  0.4614232E+02  0.7816164E-02  0.1320468E+00
        -11   -1    0    0    0    0  0.00000000000E+00  0.00000000000E+00  0.45593999997E+02  0.45594000000E+02  0.51100000000E-03 0.  1.
         11   -1    0    0    0    0 -0.00000000000E+00 -0.00000000000E+00 -0.45593999997E+02  0.45594000000E+02  0.51100000000E-03 0. -1.
    9900012    2    1    2    0    0  0.11089647604E+02  0.19379387351E+02  0.39122533098E+02  0.46142317253E+02  0.99999953693E+01 0.  0.
         12    1    1    2    0    0 -0.11089647604E+02 -0.19379387351E+02 -0.39122533098E+02  0.45045682747E+02  0.00000000000E+00 0. -1.
         11    1    3    3    0    0  0.73047218550E+00  0.33394143988E+00  0.19980185502E+01  0.21534123820E+01  0.51100000000E-03 0. -1.
        -11    1    3    3    0    0  0.90179530017E+01  0.97003802732E+01  0.27412348165E+02  0.30444337503E+02  0.51100000000E-03 0.  1.
         12    1    3    3    0    0  0.13412224167E+01  0.93450656381E+01  0.97121663829E+01  0.13544567369E+02  0.00000000000E+00 0. -1.
</event>
<event>
 7    1  0.2313935E-008  0.4614232E+02  0.7816164E-02  0.1320468E+00
        -11   -1    0    0    0    0  0.00000000000E+00  0.00000000000E+00  0.45593999997E+02  0.45594000000E+02  0.51100000000E-03 0.  1.
         11   -1    0    0    0    0 -0.00000000000E+00 -0.00000000000E+00 -0.45593999997E+02  0.45594000000E+02  0.51100000000E-03 0. -1.
    9900012    2    1    2    0    0 -0.19898193838E+02 -0.23336153697E+02  0.32993928558E+02  0.46142317531E+02  0.99999979046E+01 0.  0.
         12    1    1    2    0    0  0.19898193838E+02  0.23336153697E+02 -0.32993928558E+02  0.45045682469E+02  0.00000000000E+00 0. -1.
         11    1    3    3    0    0 -0.51534021069E+01 -0.35359974780E+01  0.54456978584E+01  0.82895390020E+01  0.51100000000E-03 0. -1.
        -11    1    3    3    0    0 -0.13727583015E+02 -0.13824389547E+02  0.17891753809E+02  0.26451373053E+02  0.51100000000E-03 0.  1.
         12    1    3    3    0    0 -0.10172087161E+01 -0.59757666723E+01  0.96564768906E+01  0.11401405476E+02  0.00000000000E+00 0. -1.
</event>
<event>
 7    1  0.2550362E-008  0.4614232E+02  0.7816164E-02  0.1320468E+00
        -11   -1    0    0    0    0  0.00000000000E+00  0.00000000000E+00  0.45593999997E+02  0.45594000000E+02  0.51100000000E-03 0. -1.
         11   -1    0    0    0    0 -0.00000000000E+00 -0.00000000000E+00 -0.45593999997E+02  0.45594000000E+02  0.51100000000E-03 0.  1.
    9900012    2    1    2    0    0  0.24328165714E+02 -0.31306683391E+02 -0.21380958822E+02  0.46142317942E+02  0.10000001648E+02 0.  0.
         12    1    1    2    0    0 -0.24328165714E+02  0.31306683391E+02  0.21380958822E+02  0.45045682058E+02  0.00000000000E+00 0. -1.
         11    1    3    3    0    0  0.11857687446E+02 -0.11539845894E+02 -0.10200223349E+02  0.19437524314E+02  0.51100000000E-03 0. -1.
        -11    1    3    3    0    0  0.10365095096E+02 -0.13206958942E+02 -0.10453345576E+02  0.19777042115E+02  0.51100000000E-03 0.  1.
         12    1    3    3    0    0  0.21053831724E+01 -0.65598785554E+01 -0.72738989682E+00  0.69277515131E+01  0.00000000000E+00 0. -1.
</event>
<event>
 7    1  0.2313935E-008  0.4614232E+02  0.7816164E-02  0.1320468E+00
        -11   -1    0    0    0    0  0.00000000000E+00  0.00000000000E+00  0.45593999997E+02  0.45594000000E+02  0.51100000000E-03 0. -1.
         11   -1    0    0    0    0 -0.00000000000E+00 -0.00000000000E+00 -0.45593999997E+02  0.45594000000E+02  0.51100000000E-03 0.  1.
    9900012    2    1    2    0    0  0.10121945694E+02 -0.33392015981E+02 -0.28489173142E+02  0.46142317608E+02  0.99999986002E+01 0.  0.
         12    1    1    2    0    0 -0.10121945694E+02  0.33392015981E+02  0.28489173142E+02  0.45045682392E+02  0.00000000000E+00 0. -1.
         11    1    3    3    0    0  0.50675697162E+00 -0.32822017897E+00 -0.99794485210E+00  0.11663727119E+01  0.51100000000E-03 0. -1.
        -11    1    3    3    0    0  0.65628995722E+01 -0.30801254624E+02 -0.26190268639E+02  0.40959969591E+02  0.51100000000E-03 0.  1.
        -12    1    3    3    0    0  0.30522891505E+01 -0.22625411775E+01 -0.13009596507E+01  0.40159753050E+01  0.00000000000E+00 0.  1.
</event>
<event>
 7    1  0.2313935E-008  0.4614232E+02  0.7816164E-02  0.1320468E+00
        -11   -1    0    0    0    0  0.00000000000E+00  0.00000000000E+00  0.45593999997E+02  0.45594000000E+02  0.51100000000E-03 0.  1.
         11   -1    0    0    0    0 -0.00000000000E+00 -0.00000000000E+00 -0.45593999997E+02  0.45594000000E+02  0.51100000000E-03 0. -1.
    9900012    2    1    2    0    0  0.23193849906E+02  0.11082475668E+02  0.36991046775E+02  0.46142317832E+02  0.10000000651E+02 0.  0.
         12    1    1    2    0    0 -0.23193849906E+02 -0.11082475668E+02 -0.36991046775E+02  0.45045682168E+02  0.00000000000E+00 0. -1.
         11    1    3    3    0    0  0.12951400576E+02  0.75560924798E+01  0.14218160947E+02  0.20663722110E+02  0.51100000000E-03 0. -1.
        -11    1    3    3    0    0  0.97716188536E+01  0.34276533191E+01  0.18686212506E+02  0.21363704743E+02  0.51100000000E-03 0.  1.
         12    1    3    3    0    0  0.47083047591E+00  0.98729869200E-01  0.40866733230E+01  0.41148909795E+01  0.00000000000E+00 0. -1.
</event>
<event>
 7    1  0.2313935E-008  0.4614232E+02  0.7816164E-02  0.1320468E+00
        -11   -1    0    0    0    0  0.00000000000E+00  0.00000000000E+00  0.45593999997E+02  0.45594000000E+02  0.51100000000E-03 0.  1.
         11   -1    0    0    0    0 -0.00000000000E+00 -0.00000000000E+00 -0.45593999997E+02  0.45594000000E+02  0.51100000000E-03 0. -1.
    9900012    2    1    2    0    0  0.39480119975E+02 -0.91269761961E+01  0.19675665479E+02  0.46142318967E+02  0.10000010992E+02 0.  0.
         12    1    1    2    0    0 -0.39480119975E+02  0.91269761961E+01 -0.19675665479E+02  0.45045681033E+02  0.00000000000E+00 0. -1.
         11    1    3    3    0    0  0.31573226055E+01 -0.31543035732E+01  0.31036729800E+01  0.54360926496E+01  0.51100000000E-03 0. -1.
        -11    1    3    3    0    0 -0.18035556703E+00 -0.31004883901E-01  0.90864677748E-02  0.18322734076E+00  0.51100000000E-03 0.  1.
        -12    1    3    3    0    0  0.36503152936E+02 -0.59416677390E+01  0.16562906032E+02  0.40522998976E+02  0.00000000000E+00 0.  1.
</event>
<event>
 7    1  0.2313935E-008  0.4614231E+02  0.7816164E-02  0.1320468E+00
        -11   -1    0    0    0    0  0.00000000000E+00  0.00000000000E+00  0.45593999997E+02  0.45594000000E+02  0.51100000000E-03 0. -1.
         11   -1    0    0    0    0 -0.00000000000E+00 -0.00000000000E+00 -0.45593999997E+02  0.45594000000E+02  0.51100000000E-03 0.  1.
    9900012    2    1    2    0    0 -0.44740362772E+02 -0.50282077389E+01 -0.14597404804E+01  0.46142314565E+02  0.99999708536E+01 0.  0.
         12    1    1    2    0    0  0.44740362772E+02  0.50282077389E+01  0.14597404804E+01  0.45045685435E+02  0.00000000000E+00 0. -1.
         11    1    3    3    0    0 -0.17879789689E+01  0.92597988038E+00 -0.48485357856E+00  0.20710844468E+01  0.51100000000E-03 0. -1.
        -11    1    3    3    0    0 -0.38199765532E+02 -0.34690097350E+01 -0.26613210075E+01  0.38449170927E+02  0.51100000000E-03 0.  1.
        -12    1    3    3    0    0 -0.47526182716E+01 -0.24851778843E+01  0.16864341057E+01  0.56220591909E+01  0.00000000000E+00 0.  1.
</event>
<event>
 7    1  0.2313935E-008  0.4614232E+02  0.7816164E-02  0.1320468E+00
        -11   -1    0    0    0    0  0.00000000000E+00  0.00000000000E+00  0.45593999997E+02  0.45594000000E+02  0.51100000000E-03 0. -1.
         11   -1    0    0    0    0 -0.00000000000E+00 -0.00000000000E+00 -0.45593999997E+02  0.45594000000E+02  0.51100000000E-03 0.  1.
    9900012    2    1    2    0    0 -0.29713008508E+02  0.29780592168E+02 -0.16104872179E+02  0.46142318161E+02  0.10000003644E+02 0.  0.
         12    1    1    2    0    0  0.29713008508E+02 -0.29780592168E+02  0.16104872179E+02  0.45045681839E+02  0.00000000000E+00 0. -1.
         11    1    3    3    0    0 -0.66299552609E+00 -0.32662785811E+00 -0.83474036628E+00  0.11149172909E+01  0.51100000000E-03 0. -1.
        -11    1    3    3    0    0 -0.23296738658E+01  0.36187922381E+00 -0.56336648229E+00  0.24239882318E+01  0.51100000000E-03 0.  1.
        -12    1    3    3    0    0 -0.26720339116E+02  0.29745340802E+02 -0.14706765331E+02  0.42603412638E+02  0.00000000000E+00 0.  1.
</event>
<event>
 7    1  0.2313935E-008  0.4614232E+02  0.7816164E-02  0.1320468E+00
        -11   -1    0    0    0    0  0.00000000000E+00  0.00000000000E+00  0.45593999997E+02  0.45594000000E+02  0.51100000000E-03 0.  1.
         11   -1    0    0    0    0 -0.00000000000E+00 -0.00000000000E+00 -0.45593999997E+02  0.45594000000E+02  0.51100000000E-03 0. -1.
    9900012    2    1    2    0    0  0.16704135775E+02  0.41608494703E+02  0.43380236840E+01  0.46142318377E+02  0.10000005614E+02 0.  0.
         12    1    1    2    0    0 -0.16704135775E+02 -0.41608494703E+02 -0.43380236840E+01  0.45045681623E+02  0.00000000000E+00 0. -1.
         11    1    3    3    0    0  0.11907778825E+02  0.26749581283E+02  0.11849672362E+01  0.29304256397E+02  0.51100000000E-03 0. -1.
        -11    1    3    3    0    0  0.48531547595E+01  0.11482764737E+02  0.44272204754E+01  0.13229031655E+02  0.51100000000E-03 0.  1.
         12    1    3    3    0    0 -0.56797809452E-01  0.33761486823E+01 -0.12741640276E+01  0.36090303248E+01  0.00000000000E+00 0. -1.
</event>
<event>
 7    1  0.2313935E-008  0.4614232E+02  0.7816164E-02  0.1320468E+00
        -11   -1    0    0    0    0  0.00000000000E+00  0.00000000000E+00  0.45593999997E+02  0.45594000000E+02  0.51100000000E-03 0.  1.
         11   -1    0    0    0    0 -0.00000000000E+00 -0.00000000000E+00 -0.45593999997E+02  0.45594000000E+02  0.51100000000E-03 0. -1.
    9900012    2    1    2    0    0 -0.81428630072E+00  0.15946478196E+02  0.42120780211E+02  0.46142319246E+02  0.10000013538E+02 0.  0.
         12    1    1    2    0    0  0.81428630072E+00 -0.15946478196E+02 -0.42120780211E+02  0.45045680754E+02  0.00000000000E+00 0. -1.
         11    1    3    3    0    0 -0.25968194879E+01  0.64720070785E+01  0.86963290496E+01  0.11147039350E+02  0.51100000000E-03 0. -1.
        -11    1    3    3    0    0  0.14300794755E+00  0.23784700577E+01  0.37721747633E+01  0.44617119802E+01  0.51100000000E-03 0.  1.
         12    1    3    3    0    0  0.16395252396E+01  0.70960010601E+01  0.29652276398E+02  0.30533567915E+02  0.00000000000E+00 0. -1.
</event>
<event>
 7    1  0.2313935E-008  0.4614232E+02  0.7816164E-02  0.1320468E+00
        -11   -1    0    0    0    0  0.00000000000E+00  0.00000000000E+00  0.45593999997E+02  0.45594000000E+02  0.51100000000E-03 0.  1.
         11   -1    0    0    0    0 -0.00000000000E+00 -0.00000000000E+00 -0.45593999997E+02  0.45594000000E+02  0.51100000000E-03 0. -1.
    9900012    2    1    2    0    0 -0.99483013181E+01  0.43269115408E+02 -0.76110730921E+01  0.46142317844E+02  0.10000000753E+02 0.  0.
         12    1    1    2    0    0  0.99483013181E+01 -0.43269115408E+02  0.76110730921E+01  0.45045682156E+02  0.00000000000E+00 0. -1.
         11    1    3    3    0    0  0.18698023981E+01  0.68669291706E+01 -0.20205707682E+01  0.73982149017E+01  0.51100000000E-03 0. -1.
        -11    1    3    3    0    0 -0.44774167587E+01  0.17372519775E+02 -0.24186274770E+01  0.18102526435E+02  0.51100000000E-03 0.  1.
         12    1    3    3    0    0 -0.73406869575E+01  0.19029666462E+02 -0.31718748469E+01  0.20641576507E+02  0.00000000000E+00 0. -1.
</event>
<event>
 7    1  0.2313935E-008  0.4614232E+02  0.7816164E-02  0.1320468E+00
        -11   -1    0    0    0    0  0.00000000000E+00  0.00000000000E+00  0.45593999997E+02  0.45594000000E+02  0.51100000000E-03 0.  1.
         11   -1    0    0    0    0 -0.00000000000E+00 -0.00000000000E+00 -0.45593999997E+02  0.45594000000E+02  0.51100000000E-03 0. -1.
    9900012    2    1    2    0    0  0.69507232836E+01 -0.10789876235E+02  0.43178460996E+02  0.46142317883E+02  0.10000001114E+02 0.  0.
         12    1    1    2    0    0 -0.69507232836E+01  0.10789876235E+02 -0.43178460996E+02  0.45045682117E+02  0.00000000000E+00 0. -1.
         11    1    3    3    0    0  0.47237329961E+01 -0.48826876627E+01  0.17556945616E+02  0.18825531383E+02  0.51100000000E-03 0.  1.
        -11    1    3    3    0    0  0.43049749712E+01 -0.23040579603E+01  0.17806391197E+02  0.18463722819E+02  0.51100000000E-03 0. -1.
         12    1    3    3    0    0 -0.20779846837E+01 -0.36031306124E+01  0.78151241830E+01  0.88530636816E+01  0.00000000000E+00 0. -1.
</event>
<event>
 7    1  0.2313935E-008  0.4614232E+02  0.7816164E-02  0.1320468E+00
        -11   -1    0    0    0    0  0.00000000000E+00  0.00000000000E+00  0.45593999997E+02  0.45594000000E+02  0.51100000000E-03 0. -1.
         11   -1    0    0    0    0 -0.00000000000E+00 -0.00000000000E+00 -0.45593999997E+02  0.45594000000E+02  0.51100000000E-03 0.  1.
    9900012    2    1    2    0    0  0.66843722142E+01  0.42860008540E+02 -0.12142996693E+02  0.46142317269E+02  0.99999955164E+01 0.  0.
         12    1    1    2    0    0 -0.66843722142E+01 -0.42860008540E+02  0.12142996693E+02  0.45045682731E+02  0.00000000000E+00 0. -1.
         11    1    3    3    0    0 -0.92691283221E+00  0.14659156251E+01  0.42480936338E+00  0.17856481385E+01  0.51100000000E-03 0. -1.
        -11    1    3    3    0    0  0.55266765488E+01  0.18868377196E+02 -0.82721986116E+01  0.21330473080E+02  0.51100000000E-03 0.  1.
         12    1    3    3    0    0  0.20846084976E+01  0.22525715719E+02 -0.42956074450E+01  0.23026196051E+02  0.00000000000E+00 0. -1.
</event>
<event>
 7    1  0.2313935E-008  0.4614231E+02  0.7816164E-02  0.1320468E+00
        -11   -1    0    0    0    0  0.00000000000E+00  0.00000000000E+00  0.45593999997E+02  0.45594000000E+02  0.51100000000E-03 0.  1.
         11   -1    0    0    0    0 -0.00000000000E+00 -0.00000000000E+00 -0.45593999997E+02  0.45594000000E+02  0.51100000000E-03 0. -1.
    9900012    2    1    2    0    0  0.13723320300E+02  0.16732663120E+02  0.39506996096E+02  0.46142309022E+02  0.99999203114E+01 0.  0.
         12    1    1    2    0    0 -0.13723320300E+02 -0.16732663120E+02 -0.39506996096E+02  0.45045690978E+02  0.00000000000E+00 0. -1.
         11    1    3    3    0    0  0.32696043594E+01  0.36133436912E+01  0.13334511746E+02  0.14197033812E+02  0.51100000000E-03 0. -1.
        -11    1    3    3    0    0 -0.10732531745E+01  0.19136099490E+01  0.39367127886E+01  0.45068262951E+01  0.51100000000E-03 0.  1.
        -12    1    3    3    0    0  0.11526969115E+02  0.11205709480E+02  0.22235771561E+02  0.27438448915E+02  0.00000000000E+00 0.  1.
</event>
<event>
 7    1  0.2313935E-008  0.4614232E+02  0.7816164E-02  0.1320468E+00
        -11   -1    0    0    0    0  0.00000000000E+00  0.00000000000E+00  0.45593999997E+02  0.45594000000E+02  0.51100000000E-03 0.  1.
         11   -1    0    0    0    0 -0.00000000000E+00 -0.00000000000E+00 -0.45593999997E+02  0.45594000000E+02  0.51100000000E-03 0. -1.
    9900012    2    1    2    0    0  0.16481824501E+02 -0.36447183053E+02  0.20713904054E+02  0.46142317493E+02  0.99999975522E+01 0.  0.
         12    1    1    2    0    0 -0.16481824501E+02  0.36447183053E+02 -0.20713904054E+02  0.45045682507E+02  0.00000000000E+00 0. -1.
         11    1    3    3    0    0  0.87204340266E+01 -0.15983400133E+02  0.14666962886E+02  0.23380223480E+02  0.51100000000E-03 0. -1.
        -11    1    3    3    0    0  0.13504840153E+01 -0.22990879166E+01  0.10135657249E+01  0.28525301162E+01  0.51100000000E-03 0.  1.
         12    1    3    3    0    0  0.64109064592E+01 -0.18164695003E+02  0.50333754437E+01  0.19909563896E+02  0.00000000000E+00 0. -1.
</event>
<event>
 7    1  0.2313935E-008  0.4614232E+02  0.7816164E-02  0.1320468E+00
        -11   -1    0    0    0    0  0.00000000000E+00  0.00000000000E+00  0.45593999997E+02  0.45594000000E+02  0.51100000000E-03 0. -1.
         11   -1    0    0    0    0 -0.00000000000E+00 -0.00000000000E+00 -0.45593999997E+02  0.45594000000E+02  0.51100000000E-03 0.  1.
    9900012    2    1    2    0    0  0.20130899819E+02 -0.65234946463E+01 -0.39765617421E+02  0.46142318311E+02  0.10000005014E+02 0.  0.
         12    1    1    2    0    0 -0.20130899819E+02  0.65234946463E+01  0.39765617421E+02  0.45045681689E+02  0.00000000000E+00 0. -1.
         11    1    3    3    0    0  0.13276785932E+01  0.18137263434E+01 -0.33998751421E+01  0.40757189475E+01  0.51100000000E-03 0. -1.
        -11    1    3    3    0    0  0.63236816745E+00 -0.85955193461E+00 -0.51655891317E+00  0.11855599518E+01  0.51100000000E-03 0.  1.
        -12    1    3    3    0    0  0.18170853059E+02 -0.74776690551E+01 -0.35849183366E+02  0.40881039412E+02  0.00000000000E+00 0.  1.
</event>
<event>
 7    1  0.2313935E-008  0.4614232E+02  0.7816164E-02  0.1320468E+00
        -11   -1    0    0    0    0  0.00000000000E+00  0.00000000000E+00  0.45593999997E+02  0.45594000000E+02  0.51100000000E-03 0.  1.
         11   -1    0    0    0    0 -0.00000000000E+00 -0.00000000000E+00 -0.45593999997E+02  0.45594000000E+02  0.51100000000E-03 0. -1.
    9900012    2    1    2    0    0  0.43450289630E+02 -0.11009466912E+02  0.44696046790E+01  0.46142318780E+02  0.10000009290E+02 0.  0.
         12    1    1    2    0    0 -0.43450289630E+02  0.11009466912E+02 -0.44696046790E+01  0.45045681220E+02  0.00000000000E+00 0. -1.
         11    1    3    3    0    0  0.26949767568E+02 -0.89934516294E+01  0.24430337088E+01  0.28515619547E+02  0.51100000000E-03 0. -1.
        -11    1    3    3    0    0  0.11166117723E+02  0.31898626928E+00 -0.70885660832E+00  0.11193141435E+02  0.51100000000E-03 0.  1.
        -12    1    3    3    0    0  0.53344043387E+01 -0.23350015517E+01  0.27354275785E+01  0.64335577974E+01  0.00000000000E+00 0.  1.
</event>
<event>
 7    1  0.2313935E-008  0.4614232E+02  0.7816164E-02  0.1320468E+00
        -11   -1    0    0    0    0  0.00000000000E+00  0.00000000000E+00  0.45593999997E+02  0.45594000000E+02  0.51100000000E-03 0.  1.
         11   -1    0    0    0    0 -0.00000000000E+00 -0.00000000000E+00 -0.45593999997E+02  0.45594000000E+02  0.51100000000E-03 0. -1.
    9900012    2    1    2    0    0 -0.84881822276E+01  0.44208542951E+02 -0.16336932069E+01  0.46142318066E+02  0.10000002779E+02 0.  0.
         12    1    1    2    0    0  0.84881822276E+01 -0.44208542951E+02  0.16336932069E+01  0.45045681934E+02  0.00000000000E+00 0. -1.
         11    1    3    3    0    0 -0.20428425036E+01  0.10048273597E+02  0.12377256511E+00  0.10254575938E+02  0.51100000000E-03 0. -1.
        -11    1    3    3    0    0 -0.58045467415E+01  0.25515611866E+02  0.23934765716E+01  0.26276756690E+02  0.51100000000E-03 0.  1.
         12    1    3    3    0    0 -0.64079298255E+00  0.86446574884E+01 -0.41509423436E+01  0.96109854374E+01  0.00000000000E+00 0. -1.
</event>
<event>
 7    1  0.2313935E-008  0.4614232E+02  0.7816164E-02  0.1320468E+00
        -11   -1    0    0    0    0  0.00000000000E+00  0.00000000000E+00  0.45593999997E+02  0.45594000000E+02  0.51100000000E-03 0. -1.
         11   -1    0    0    0    0 -0.00000000000E+00 -0.00000000000E+00 -0.45593999997E+02  0.45594000000E+02  0.51100000000E-03 0.  1.
    9900012    2    1    2    0    0 -0.37131683153E+02 -0.14113160077E+02 -0.21240769652E+02  0.46142317892E+02  0.10000001191E+02 0.  0.
         12    1    1    2    0    0  0.37131683153E+02  0.14113160077E+02  0.21240769652E+02  0.45045682108E+02  0.00000000000E+00 0. -1.
         11    1    3    3    0    0 -0.17072172574E+02 -0.30524115986E+01 -0.58289795367E+01  0.18296264528E+02  0.51100000000E-03 0. -1.
        -11    1    3    3    0    0 -0.72954345885E+01 -0.50380143862E+01 -0.41460008195E+01  0.97874551262E+01  0.51100000000E-03 0.  1.
        -12    1    3    3    0    0 -0.12764075991E+02 -0.60227340925E+01 -0.11265789296E+02  0.18058598238E+02  0.00000000000E+00 0.  1.
</event>
<event>
 7    1  0.2313935E-008  0.4614232E+02  0.7816164E-02  0.1320468E+00
        -11   -1    0    0    0    0  0.00000000000E+00  0.00000000000E+00  0.45593999997E+02  0.45594000000E+02  0.51100000000E-03 0.  1.
         11   -1    0    0    0    0 -0.00000000000E+00 -0.00000000000E+00 -0.45593999997E+02  0.45594000000E+02  0.51100000000E-03 0. -1.
    9900012    2    1    2    0    0  0.91738827401E+01  0.27877224520E+02  0.34173287540E+02  0.46142319267E+02  0.10000013729E+02 0.  0.
         12    1    1    2    0    0 -0.91738827401E+01 -0.27877224520E+02 -0.34173287540E+02  0.45045680733E+02  0.00000000000E+00 0. -1.
         11    1    3    3    0    0  0.34152369050E+01  0.56169745146E+01  0.59236391605E+01  0.88489404439E+01  0.51100000000E-03 0. -1.
        -11    1    3    3    0    0  0.28840269468E+01  0.14198538555E+01  0.49410968841E+01  0.58947463966E+01  0.51100000000E-03 0.  1.
        -12    1    3    3    0    0  0.28746188882E+01  0.20840396150E+02  0.23308551495E+02  0.31398632426E+02  0.00000000000E+00 0.  1.
</event>
<event>
 7    1  0.2313935E-008  0.4614232E+02  0.7816164E-02  0.1320468E+00
        -11   -1    0    0    0    0  0.00000000000E+00  0.00000000000E+00  0.45593999997E+02  0.45594000000E+02  0.51100000000E-03 0.  1.
         11   -1    0    0    0    0 -0.00000000000E+00 -0.00000000000E+00 -0.45593999997E+02  0.45594000000E+02  0.51100000000E-03 0. -1.
    9900012    2    1    2    0    0  0.18348954584E+02  0.41136778905E+02  0.44129996721E+00  0.46142318091E+02  0.10000003006E+02 0.  0.
         12    1    1    2    0    0 -0.18348954584E+02 -0.41136778905E+02 -0.44129996721E+00  0.45045681909E+02  0.00000000000E+00 0. -1.
         11    1    3    3    0    0  0.82680751817E+01  0.27058421381E+02 -0.22212218037E+01  0.28380504954E+02  0.51100000000E-03 0.  1.
        -11    1    3    3    0    0  0.12761335281E+01  0.50863858591E+00  0.37548550581E-01  0.13742780458E+01  0.51100000000E-03 0. -1.
        -12    1    3    3    0    0  0.88047458740E+01  0.13569718938E+02  0.26249732203E+01  0.16387535091E+02  0.00000000000E+00 0.  1.
</event>
<event>
 7    1  0.2313935E-008  0.4614232E+02  0.7816164E-02  0.1320468E+00
        -11   -1    0    0    0    0  0.00000000000E+00  0.00000000000E+00  0.45593999997E+02  0.45594000000E+02  0.51100000000E-03 0.  1.
         11   -1    0    0    0    0 -0.00000000000E+00 -0.00000000000E+00 -0.45593999997E+02  0.45594000000E+02  0.51100000000E-03 0. -1.
    9900012    2    1    2    0    0 -0.27207076115E+02 -0.15459541783E+02  0.32402021721E+02  0.46142318359E+02  0.10000005456E+02 0.  0.
         12    1    1    2    0    0  0.27207076115E+02  0.15459541783E+02 -0.32402021721E+02  0.45045681641E+02  0.00000000000E+00 0. -1.
         11    1    3    3    0    0 -0.12960037022E+01  0.11679841045E+01  0.54673035231E+00  0.18283125563E+01  0.51100000000E-03 0. -1.
        -11    1    3    3    0    0 -0.93338940604E+01 -0.63940665042E+01  0.12249909909E+02  0.16675309827E+02  0.51100000000E-03 0.  1.
         12    1    3    3    0    0 -0.16577178352E+02 -0.10233459384E+02  0.19605381460E+02  0.27638695976E+02  0.00000000000E+00 0. -1.
</event>
<event>
 7    1  0.2313935E-008  0.4614232E+02  0.7816164E-02  0.1320468E+00
        -11   -1    0    0    0    0  0.00000000000E+00  0.00000000000E+00  0.45593999997E+02  0.45594000000E+02  0.51100000000E-03 0.  1.
         11   -1    0    0    0    0 -0.00000000000E+00 -0.00000000000E+00 -0.45593999997E+02  0.45594000000E+02  0.51100000000E-03 0. -1.
    9900012    2    1    2    0    0  0.29778069393E+02  0.10974081768E+02  0.31967949985E+02  0.46142315260E+02  0.99999771971E+01 0.  0.
         12    1    1    2    0    0 -0.29778069393E+02 -0.10974081768E+02 -0.31967949985E+02  0.45045684740E+02  0.00000000000E+00 0. -1.
         11    1    3    3    0    0  0.38019449020E+01  0.18620619016E+00  0.73416688821E+01  0.82697980639E+01  0.51100000000E-03 0. -1.
        -11    1    3    3    0    0  0.10885106742E+02  0.30555146690E+01  0.13419247366E+02  0.17547020226E+02  0.51100000000E-03 0.  1.
        -12    1    3    3    0    0  0.15091017749E+02  0.77323609092E+01  0.11207033737E+02  0.20325496971E+02  0.00000000000E+00 0.  1.
</event>
<event>
 7    1  0.2313935E-008  0.4614232E+02  0.7816164E-02  0.1320468E+00
        -11   -1    0    0    0    0  0.00000000000E+00  0.00000000000E+00  0.45593999997E+02  0.45594000000E+02  0.51100000000E-03 0. -1.
         11   -1    0    0    0    0 -0.00000000000E+00 -0.00000000000E+00 -0.45593999997E+02  0.45594000000E+02  0.51100000000E-03 0.  1.
    9900012    2    1    2    0    0 -0.29499172763E+02  0.32351149629E+02  0.10597901645E+02  0.46142316575E+02  0.99999891798E+01 0.  0.
         12    1    1    2    0    0  0.29499172763E+02 -0.32351149629E+02 -0.10597901645E+02  0.45045683425E+02  0.00000000000E+00 0. -1.
         11    1    3    3    0    0 -0.91443805934E+01  0.68450716947E+01  0.55028071741E+01  0.12678942779E+02  0.51100000000E-03 0.  1.
        -11    1    3    3    0    0 -0.59906839951E+01  0.48328724762E+01 -0.36011843123E+00  0.77054939262E+01  0.51100000000E-03 0. -1.
        -12    1    3    3    0    0 -0.14364108174E+02  0.20673205458E+02  0.54552129020E+01  0.25757879869E+02  0.00000000000E+00 0.  1.
</event>
<event>
 7    1  0.2313935E-008  0.4614232E+02  0.7816164E-02  0.1320468E+00
        -11   -1    0    0    0    0  0.00000000000E+00  0.00000000000E+00  0.45593999997E+02  0.45594000000E+02  0.51100000000E-03 0. -1.
         11   -1    0    0    0    0 -0.00000000000E+00 -0.00000000000E+00 -0.45593999997E+02  0.45594000000E+02  0.51100000000E-03 0.  1.
    9900012    2    1    2    0    0 -0.92329899562E+01 -0.30420959677E+02 -0.31912858786E+02  0.46142318219E+02  0.10000004177E+02 0.  0.
         12    1    1    2    0    0  0.92329899562E+01  0.30420959677E+02  0.31912858786E+02  0.45045681781E+02  0.00000000000E+00 0. -1.
         11    1    3    3    0    0 -0.72938694167E+01 -0.14298329555E+02 -0.16075890252E+02  0.22717328337E+02  0.51100000000E-03 0. -1.
        -11    1    3    3    0    0 -0.32602409590E+01 -0.52053419809E+01 -0.70375790995E+01  0.93408926817E+01  0.51100000000E-03 0.  1.
         12    1    3    3    0    0  0.13211204195E+01 -0.10917288141E+02 -0.87993894341E+01  0.14084097200E+02  0.00000000000E+00 0. -1.
</event>
<event>
 7    1  0.2313935E-008  0.4614232E+02  0.7816164E-02  0.1320468E+00
        -11   -1    0    0    0    0  0.00000000000E+00  0.00000000000E+00  0.45593999997E+02  0.45594000000E+02  0.51100000000E-03 0.  1.
         11   -1    0    0    0    0 -0.00000000000E+00 -0.00000000000E+00 -0.45593999997E+02  0.45594000000E+02  0.51100000000E-03 0. -1.
    9900012    2    1    2    0    0  0.20733550352E-01 -0.12409970260E+02  0.43302490145E+02  0.46142318248E+02  0.10000004441E+02 0.  0.
         12    1    1    2    0    0 -0.20733550352E-01  0.12409970260E+02 -0.43302490145E+02  0.45045681752E+02  0.00000000000E+00 0. -1.
         11    1    3    3    0    0  0.34828710233E+01 -0.23126554620E+01  0.17253873044E+02  0.17753165946E+02  0.51100000000E-03 0. -1.
        -11    1    3    3    0    0 -0.28933099216E+01 -0.30221388753E+01  0.10107228164E+02  0.10938950000E+02  0.51100000000E-03 0.  1.
         12    1    3    3    0    0 -0.56882755136E+00 -0.70751759225E+01  0.15941388938E+02  0.17450202302E+02  0.00000000000E+00 0. -1.
</event>
<event>
 7    1  0.2313935E-008  0.4614232E+02  0.7816164E-02  0.1320468E+00
        -11   -1    0    0    0    0  0.00000000000E+00  0.00000000000E+00  0.45593999997E+02  0.45594000000E+02  0.51100000000E-03 0.  1.
         11   -1    0    0    0    0 -0.00000000000E+00 -0.00000000000E+00 -0.45593999997E+02  0.45594000000E+02  0.51100000000E-03 0. -1.
    9900012    2    1    2    0    0 -0.11158306362E+02 -0.74063222038E+01  0.43008743501E+02  0.46142318443E+02  0.10000006214E+02 0.  0.
         12    1    1    2    0    0  0.11158306362E+02  0.74063222038E+01 -0.43008743501E+02  0.45045681557E+02  0.00000000000E+00 0. -1.
         11    1    3    3    0    0  0.16185324701E+01 -0.53368196181E+00  0.58025081198E+01  0.60476081664E+01  0.51100000000E-03 0. -1.
        -11    1    3    3    0    0 -0.45867606520E+01 -0.15908433771E+01  0.86223659015E+01  0.98951680092E+01  0.51100000000E-03 0.  1.
        -12    1    3    3    0    0 -0.81900781800E+01 -0.52817968649E+01  0.28583869479E+02  0.30199542267E+02  0.00000000000E+00 0.  1.
</event>
<event>
 7    1  0.2313935E-008  0.4614232E+02  0.7816164E-02  0.1320468E+00
        -11   -1    0    0    0    0  0.00000000000E+00  0.00000000000E+00  0.45593999997E+02  0.45594000000E+02  0.51100000000E-03 0.  1.
         11   -1    0    0    0    0 -0.00000000000E+00 -0.00000000000E+00 -0.45593999997E+02  0.45594000000E+02  0.51100000000E-03 0. -1.
    9900012    2    1    2    0    0 -0.82225709064E+00 -0.28608647837E+02  0.34784802964E+02  0.46142319241E+02  0.10000013496E+02 0.  0.
         12    1    1    2    0    0  0.82225709064E+00  0.28608647837E+02 -0.34784802964E+02  0.45045680759E+02  0.00000000000E+00 0. -1.
         11    1    3    3    0    0 -0.53721515499E+00 -0.34219351064E+01  0.92814891915E+01  0.99067795912E+01  0.51100000000E-03 0. -1.
        -11    1    3    3    0    0  0.14479451972E+00 -0.25537696112E+00 -0.25233525945E+00  0.38711263154E+00  0.51100000000E-03 0.  1.
        -12    1    3    3    0    0 -0.42983645538E+00 -0.24931335770E+02  0.25755649032E+02  0.35848427018E+02  0.00000000000E+00 0.  1.
</event>
<event>
 7    1  0.2313935E-008  0.4614232E+02  0.7816164E-02  0.1320468E+00
        -11   -1    0    0    0    0  0.00000000000E+00  0.00000000000E+00  0.45593999997E+02  0.45594000000E+02  0.51100000000E-03 0.  1.
         11   -1    0    0    0    0 -0.00000000000E+00 -0.00000000000E+00 -0.45593999997E+02  0.45594000000E+02  0.51100000000E-03 0. -1.
    9900012    2    1    2    0    0 -0.16267075002E+02  0.19737288528E+02  0.37080115133E+02  0.46142320675E+02  0.10000026572E+02 0.  0.
         12    1    1    2    0    0  0.16267075002E+02 -0.19737288528E+02 -0.37080115133E+02  0.45045679325E+02  0.00000000000E+00 0. -1.
         11    1    3    3    0    0 -0.69659023281E+01  0.11159459393E+02  0.12618950520E+02  0.18228967104E+02  0.51100000000E-03 0.  1.
        -11    1    3    3    0    0 -0.20732466548E+01  0.79998387404E+00  0.81755384110E+01  0.84721753087E+01  0.51100000000E-03 0. -1.
         12    1    3    3    0    0 -0.72279260189E+01  0.77778452611E+01  0.16285626202E+02  0.19441178263E+02  0.00000000000E+00 0. -1.
</event>
<event>
 7    1  0.2313935E-008  0.4614232E+02  0.7816164E-02  0.1320468E+00
        -11   -1    0    0    0    0  0.00000000000E+00  0.00000000000E+00  0.45593999997E+02  0.45594000000E+02  0.51100000000E-03 0.  1.
         11   -1    0    0    0    0 -0.00000000000E+00 -0.00000000000E+00 -0.45593999997E+02  0.45594000000E+02  0.51100000000E-03 0. -1.
    9900012    2    1    2    0    0 -0.20089350321E+01 -0.43365333339E+02  0.12021876577E+02  0.46142317943E+02  0.10000001657E+02 0.  0.
         12    1    1    2    0    0  0.20089350321E+01  0.43365333339E+02 -0.12021876577E+02  0.45045682057E+02  0.00000000000E+00 0. -1.
         11    1    3    3    0    0  0.27647845525E+01 -0.12650342760E+02  0.46472103170E+01  0.13757607698E+02  0.51100000000E-03 0. -1.
        -11    1    3    3    0    0 -0.68079748019E+00 -0.24410188239E+01  0.21900644161E+01  0.33493940520E+01  0.51100000000E-03 0.  1.
         12    1    3    3    0    0 -0.40929221044E+01 -0.28273971755E+02  0.51846018436E+01  0.29035316193E+02  0.00000000000E+00 0. -1.
</event>
<event>
 7    1  0.2313935E-008  0.4614232E+02  0.7816164E-02  0.1320468E+00
        -11   -1    0    0    0    0  0.00000000000E+00  0.00000000000E+00  0.45593999997E+02  0.45594000000E+02  0.51100000000E-03 0. -1.
         11   -1    0    0    0    0 -0.00000000000E+00 -0.00000000000E+00 -0.45593999997E+02  0.45594000000E+02  0.51100000000E-03 0.  1.
    9900012    2    1    2    0    0 -0.21697362466E+02  0.17551114718E+01 -0.39436753794E+02  0.46142317587E+02  0.99999984149E+01 0.  0.
         12    1    1    2    0    0  0.21697362466E+02 -0.17551114718E+01  0.39436753794E+02  0.45045682413E+02  0.00000000000E+00 0. -1.
         11    1    3    3    0    0 -0.11403256243E+02  0.13425761216E+01 -0.14689796733E+02  0.18644755077E+02  0.51100000000E-03 0.  1.
        -11    1    3    3    0    0 -0.97890973289E+01  0.22708815014E+01 -0.21217682655E+02  0.23477082162E+02  0.51100000000E-03 0. -1.
         12    1    3    3    0    0 -0.50500889399E+00 -0.18583461512E+01 -0.35292744055E+01  0.40204803482E+01  0.00000000000E+00 0. -1.
</event>
<event>
 7    1  0.2313935E-008  0.4614232E+02  0.7816164E-02  0.1320468E+00
        -11   -1    0    0    0    0  0.00000000000E+00  0.00000000000E+00  0.45593999997E+02  0.45594000000E+02  0.51100000000E-03 0.  1.
         11   -1    0    0    0    0 -0.00000000000E+00 -0.00000000000E+00 -0.45593999997E+02  0.45594000000E+02  0.51100000000E-03 0. -1.
    9900012    2    1    2    0    0  0.21882173022E+02  0.23521639783E+02  0.31575567330E+02  0.46142317782E+02  0.10000000195E+02 0.  0.
         12    1    1    2    0    0 -0.21882173022E+02 -0.23521639783E+02 -0.31575567330E+02  0.45045682218E+02  0.00000000000E+00 0. -1.
         11    1    3    3    0    0  0.23033222624E+01  0.20539977559E+01  0.73994301019E+01  0.80172168687E+01  0.51100000000E-03 0. -1.
        -11    1    3    3    0    0  0.82869085858E+01  0.60117697321E+01  0.69525956215E+01  0.12375492530E+02  0.51100000000E-03 0.  1.
        -12    1    3    3    0    0  0.11291942174E+02  0.15455872295E+02  0.17223541607E+02  0.25749608384E+02  0.00000000000E+00 0.  1.
</event>
<event>
 7    1  0.2313935E-008  0.4614232E+02  0.7816164E-02  0.1320468E+00
        -11   -1    0    0    0    0  0.00000000000E+00  0.00000000000E+00  0.45593999997E+02  0.45594000000E+02  0.51100000000E-03 0.  1.
         11   -1    0    0    0    0 -0.00000000000E+00 -0.00000000000E+00 -0.45593999997E+02  0.45594000000E+02  0.51100000000E-03 0. -1.
    9900012    2    1    2    0    0 -0.65687313092E+01  0.52644923842E+01  0.44252121915E+02  0.46142318686E+02  0.10000008430E+02 0.  0.
         12    1    1    2    0    0  0.65687313092E+01 -0.52644923842E+01 -0.44252121915E+02  0.45045681314E+02  0.00000000000E+00 0. -1.
         11    1    3    3    0    0 -0.11092957238E+01 -0.79862140350E+00  0.10471946105E+02  0.10560775949E+02  0.51100000000E-03 0. -1.
        -11    1    3    3    0    0 -0.22253486532E+01 -0.15969123893E+01  0.10850068421E+02  0.11190455344E+02  0.51100000000E-03 0.  1.
        -12    1    3    3    0    0 -0.32340869323E+01  0.76600261770E+01  0.22930107389E+02  0.24391087393E+02  0.00000000000E+00 0.  1.
</event>
<event>
 7    1  0.2313935E-008  0.4614232E+02  0.7816164E-02  0.1320468E+00
        -11   -1    0    0    0    0  0.00000000000E+00  0.00000000000E+00  0.45593999997E+02  0.45594000000E+02  0.51100000000E-03 0.  1.
         11   -1    0    0    0    0 -0.00000000000E+00 -0.00000000000E+00 -0.45593999997E+02  0.45594000000E+02  0.51100000000E-03 0. -1.
    9900012    2    1    2    0    0 -0.15844919251E+02 -0.21055915856E+02  0.36533551537E+02  0.46142318226E+02  0.10000004235E+02 0.  0.
         12    1    1    2    0    0  0.15844919251E+02  0.21055915856E+02 -0.36533551537E+02  0.45045681774E+02  0.00000000000E+00 0. -1.
         11    1    3    3    0    0 -0.43171127984E+01 -0.13194736631E+01  0.33519118688E+01  0.56226139028E+01  0.51100000000E-03 0. -1.
        -11    1    3    3    0    0 -0.39820314881E+01 -0.11060186300E+02  0.16512226204E+02  0.20269136889E+02  0.51100000000E-03 0.  1.
        -12    1    3    3    0    0 -0.75457749649E+01 -0.86762558924E+01  0.16669413465E+02  0.20250567434E+02  0.00000000000E+00 0.  1.
</event>
<event>
 7    1  0.2313935E-008  0.4614232E+02  0.7816164E-02  0.1320468E+00
        -11   -1    0    0    0    0  0.00000000000E+00  0.00000000000E+00  0.45593999997E+02  0.45594000000E+02  0.51100000000E-03 0. -1.
         11   -1    0    0    0    0 -0.00000000000E+00 -0.00000000000E+00 -0.45593999997E+02  0.45594000000E+02  0.51100000000E-03 0.  1.
    9900012    2    1    2    0    0  0.16552624671E+02  0.41824691892E+02 -0.24123575248E+01  0.46142315365E+02  0.99999781518E+01 0.  0.
         12    1    1    2    0    0 -0.16552624671E+02 -0.41824691892E+02  0.24123575248E+01  0.45045684635E+02  0.00000000000E+00 0. -1.
         11    1    3    3    0    0  0.83010853095E+01  0.11653056358E+02  0.79047846395E+00  0.14329221760E+02  0.51100000000E-03 0. -1.
        -11    1    3    3    0    0  0.65983602595E+01  0.24275948631E+02 -0.61120605697E+00  0.25164133467E+02  0.51100000000E-03 0.  1.
        -12    1    3    3    0    0  0.16531791023E+01  0.58956869036E+01 -0.25916299318E+01  0.66489601377E+01  0.00000000000E+00 0.  1.
</event>
<event>
 7    1  0.2313935E-008  0.4614232E+02  0.7816164E-02  0.1320468E+00
        -11   -1    0    0    0    0  0.00000000000E+00  0.00000000000E+00  0.45593999997E+02  0.45594000000E+02  0.51100000000E-03 0.  1.
         11   -1    0    0    0    0 -0.00000000000E+00 -0.00000000000E+00 -0.45593999997E+02  0.45594000000E+02  0.51100000000E-03 0. -1.
    9900012    2    1    2    0    0 -0.23735017466E+02 -0.38285157788E+02  0.94415900494E-01  0.46142320126E+02  0.10000021565E+02 0.  0.
         12    1    1    2    0    0  0.23735017466E+02  0.38285157788E+02 -0.94415900494E-01  0.45045679874E+02  0.00000000000E+00 0. -1.
         11    1    3    3    0    0 -0.73570559402E+01 -0.68719667470E+01  0.21492185544E+01  0.10294141039E+02  0.51100000000E-03 0. -1.
        -11    1    3    3    0    0 -0.51609969108E+01 -0.91038834115E+01  0.16829940541E+01  0.10599483550E+02  0.51100000000E-03 0.  1.
        -12    1    3    3    0    0 -0.11216964615E+02 -0.22309307629E+02 -0.37377967080E+01  0.25248695537E+02  0.00000000000E+00 0.  1.
</event>
<event>
 7    1  0.2313935E-008  0.4614232E+02  0.7816164E-02  0.1320468E+00
        -11   -1    0    0    0    0  0.00000000000E+00  0.00000000000E+00  0.45593999997E+02  0.45594000000E+02  0.51100000000E-03 0.  1.
         11   -1    0    0    0    0 -0.00000000000E+00 -0.00000000000E+00 -0.45593999997E+02  0.45594000000E+02  0.51100000000E-03 0. -1.
    9900012    2    1    2    0    0 -0.26215331398E+02  0.14931074821E+02  0.33450453081E+02  0.46142318665E+02  0.10000008239E+02 0.  0.
         12    1    1    2    0    0  0.26215331398E+02 -0.14931074821E+02 -0.33450453081E+02  0.45045681335E+02  0.00000000000E+00 0. -1.
         11    1    3    3    0    0 -0.12000253965E+02  0.73561257468E+01  0.96799216334E+01  0.17082727075E+02  0.51100000000E-03 0. -1.
        -11    1    3    3    0    0 -0.10970111348E+02  0.74758278416E+01  0.17166161272E+02  0.21700424834E+02  0.51100000000E-03 0.  1.
         12    1    3    3    0    0 -0.32449660848E+01  0.99121232287E-01  0.66043701758E+01  0.73591667551E+01  0.00000000000E+00 0. -1.
</event>
<event>
 7    1  0.2313935E-008  0.4614232E+02  0.7816164E-02  0.1320468E+00
        -11   -1    0    0    0    0  0.00000000000E+00  0.00000000000E+00  0.45593999997E+02  0.45594000000E+02  0.51100000000E-03 0.  1.
         11   -1    0    0    0    0 -0.00000000000E+00 -0.00000000000E+00 -0.45593999997E+02  0.45594000000E+02  0.51100000000E-03 0. -1.
    9900012    2    1    2    0    0  0.19613218141E+02 -0.28109143440E+02  0.29228602011E+02  0.46142318228E+02  0.10000004257E+02 0.  0.
         12    1    1    2    0    0 -0.19613218141E+02  0.28109143440E+02 -0.29228602011E+02  0.45045681772E+02  0.00000000000E+00 0. -1.
         11    1    3    3    0    0 -0.56221387155E+00  0.16640286462E+00  0.26399863098E+00  0.64301624318E+00  0.51100000000E-03 0. -1.
        -11    1    3    3    0    0  0.16205614673E+02 -0.18900892796E+02  0.21079620610E+02  0.32622325189E+02  0.51100000000E-03 0.  1.
        -12    1    3    3    0    0  0.39698173403E+01 -0.93746535085E+01  0.78849827695E+01  0.12876976796E+02  0.00000000000E+00 0.  1.
</event>
<event>
 7    1  0.2313935E-008  0.4614232E+02  0.7816164E-02  0.1320468E+00
        -11   -1    0    0    0    0  0.00000000000E+00  0.00000000000E+00  0.45593999997E+02  0.45594000000E+02  0.51100000000E-03 0.  1.
         11   -1    0    0    0    0 -0.00000000000E+00 -0.00000000000E+00 -0.45593999997E+02  0.45594000000E+02  0.51100000000E-03 0. -1.
    9900012    2    1    2    0    0 -0.29543001118E+02 -0.33929107277E+02 -0.22672242744E+01  0.46142317171E+02  0.99999946172E+01 0.  0.
         12    1    1    2    0    0  0.29543001118E+02  0.33929107277E+02  0.22672242744E+01  0.45045682829E+02  0.00000000000E+00 0. -1.
         11    1    3    3    0    0 -0.17106445124E+02 -0.20569992093E+02  0.14758565326E+01  0.26794275364E+02  0.51100000000E-03 0. -1.
        -11    1    3    3    0    0 -0.25386346567E+01 -0.47063410133E+01 -0.31099663502E+01  0.61859682035E+01  0.51100000000E-03 0.  1.
        -12    1    3    3    0    0 -0.98979213369E+01 -0.86527741700E+01 -0.63311445687E+00  0.13162073604E+02  0.00000000000E+00 0.  1.
</event>
<event>
 7    1  0.2313935E-008  0.4614232E+02  0.7816164E-02  0.1320468E+00
        -11   -1    0    0    0    0  0.00000000000E+00  0.00000000000E+00  0.45593999997E+02  0.45594000000E+02  0.51100000000E-03 0. -1.
         11   -1    0    0    0    0 -0.00000000000E+00 -0.00000000000E+00 -0.45593999997E+02  0.45594000000E+02  0.51100000000E-03 0.  1.
    9900012    2    1    2    0    0  0.15094747993E+02  0.35966353345E+02 -0.22531833474E+02  0.46142317525E+02  0.99999978460E+01 0.  0.
         12    1    1    2    0    0 -0.15094747993E+02 -0.35966353345E+02  0.22531833474E+02  0.45045682475E+02  0.00000000000E+00 0. -1.
         11    1    3    3    0    0  0.60798709815E+01  0.16342211884E+02 -0.11164893384E+02  0.20704771551E+02  0.51100000000E-03 0.  1.
        -11    1    3    3    0    0 -0.28432984164E+00  0.73530937248E+01 -0.38093242736E+01  0.82861198680E+01  0.51100000000E-03 0. -1.
        -12    1    3    3    0    0  0.92992068536E+01  0.12271047736E+02 -0.75576158161E+01  0.17151426106E+02  0.00000000000E+00 0.  1.
</event>
<event>
 7    1  0.2313935E-008  0.4614232E+02  0.7816164E-02  0.1320468E+00
        -11   -1    0    0    0    0  0.00000000000E+00  0.00000000000E+00  0.45593999997E+02  0.45594000000E+02  0.51100000000E-03 0.  1.
         11   -1    0    0    0    0 -0.00000000000E+00 -0.00000000000E+00 -0.45593999997E+02  0.45594000000E+02  0.51100000000E-03 0. -1.
    9900012    2    1    2    0    0  0.51851765737E+01  0.29903391241E+02  0.33286852859E+02  0.46142318330E+02  0.10000005191E+02 0.  0.
         12    1    1    2    0    0 -0.51851765737E+01 -0.29903391241E+02 -0.33286852859E+02  0.45045681670E+02  0.00000000000E+00 0. -1.
         11    1    3    3    0    0  0.12542399415E+01  0.40637964641E+00  0.36396281933E+01  0.38710665061E+01  0.51100000000E-03 0. -1.
        -11    1    3    3    0    0  0.37195268224E+00  0.19635625345E+02  0.19798722731E+02  0.27887014066E+02  0.51100000000E-03 0.  1.
        -12    1    3    3    0    0  0.35589839499E+01  0.98613862494E+01  0.98485019347E+01  0.14384237758E+02  0.00000000000E+00 0.  1.
</event>
<event>
 7    1  0.2313935E-008  0.4614232E+02  0.7816164E-02  0.1320468E+00
        -11   -1    0    0    0    0  0.00000000000E+00  0.00000000000E+00  0.45593999997E+02  0.45594000000E+02  0.51100000000E-03 0.  1.
         11   -1    0    0    0    0 -0.00000000000E+00 -0.00000000000E+00 -0.45593999997E+02  0.45594000000E+02  0.51100000000E-03 0. -1.
    9900012    2    1    2    0    0  0.25349223449E+02  0.15013817949E+02  0.34075147187E+02  0.46142317469E+02  0.99999973342E+01 0.  0.
         12    1    1    2    0    0 -0.25349223449E+02 -0.15013817949E+02 -0.34075147187E+02  0.45045682531E+02  0.00000000000E+00 0. -1.
         11    1    3    3    0    0  0.28522433479E+01  0.14142548723E+01  0.75930988112E+01  0.82335022182E+01  0.51100000000E-03 0. -1.
        -11    1    3    3    0    0  0.19037863033E+02  0.13437087425E+02  0.24896017203E+02  0.34099959240E+02  0.51100000000E-03 0.  1.
        -12    1    3    3    0    0  0.34591170678E+01  0.16247565173E+00  0.15860311728E+01  0.38088560103E+01  0.00000000000E+00 0.  1.
</event>
<event>
 7    1  0.2313935E-008  0.4614232E+02  0.7816164E-02  0.1320468E+00
        -11   -1    0    0    0    0  0.00000000000E+00  0.00000000000E+00  0.45593999997E+02  0.45594000000E+02  0.51100000000E-03 0.  1.
         11   -1    0    0    0    0 -0.00000000000E+00 -0.00000000000E+00 -0.45593999997E+02  0.45594000000E+02  0.51100000000E-03 0. -1.
    9900012    2    1    2    0    0  0.32721700338E+02 -0.98857354102E+01  0.29337281283E+02  0.46142317513E+02  0.99999977354E+01 0.  0.
         12    1    1    2    0    0 -0.32721700338E+02  0.98857354102E+01 -0.29337281283E+02  0.45045682487E+02  0.00000000000E+00 0. -1.
         11    1    3    3    0    0  0.18827965774E+01  0.13035303115E+01  0.13301699884E+01  0.26482950523E+01  0.51100000000E-03 0. -1.
        -11    1    3    3    0    0  0.13511563316E+02 -0.47857190968E+01  0.15899531965E+02  0.21407021453E+02  0.51100000000E-03 0.  1.
        -12    1    3    3    0    0  0.17327340445E+02 -0.64035466250E+01  0.12107579330E+02  0.22087001007E+02  0.00000000000E+00 0.  1.
</event>
<event>
 7    1  0.2313935E-008  0.4614232E+02  0.7816164E-02  0.1320468E+00
        -11   -1    0    0    0    0  0.00000000000E+00  0.00000000000E+00  0.45593999997E+02  0.45594000000E+02  0.51100000000E-03 0.  1.
         11   -1    0    0    0    0 -0.00000000000E+00 -0.00000000000E+00 -0.45593999997E+02  0.45594000000E+02  0.51100000000E-03 0. -1.
    9900012    2    1    2    0    0 -0.20194664998E+02  0.13408719991E+02  0.37967028312E+02  0.46142317576E+02  0.99999983120E+01 0.  0.
         12    1    1    2    0    0  0.20194664998E+02 -0.13408719991E+02 -0.37967028312E+02  0.45045682424E+02  0.00000000000E+00 0. -1.
         11    1    3    3    0    0 -0.38714434491E+01  0.21129632628E+01  0.10702909287E+02  0.11576050950E+02  0.51100000000E-03 0. -1.
        -11    1    3    3    0    0 -0.87724268358E+01  0.83068481418E+01  0.21310340730E+02  0.24496730821E+02  0.51100000000E-03 0.  1.
         12    1    3    3    0    0 -0.75507947128E+01  0.29889085869E+01  0.59537782956E+01  0.10069535805E+02  0.00000000000E+00 0. -1.
</event>
<event>
 7    1  0.2313935E-008  0.4614232E+02  0.7816164E-02  0.1320468E+00
        -11   -1    0    0    0    0  0.00000000000E+00  0.00000000000E+00  0.45593999997E+02  0.45594000000E+02  0.51100000000E-03 0.  1.
         11   -1    0    0    0    0 -0.00000000000E+00 -0.00000000000E+00 -0.45593999997E+02  0.45594000000E+02  0.51100000000E-03 0. -1.
    9900012    2    1    2    0    0 -0.30214139687E+02  0.27425926865E+02  0.19079775120E+02  0.46142317409E+02  0.99999967937E+01 0.  0.
         12    1    1    2    0    0  0.30214139687E+02 -0.27425926865E+02 -0.19079775120E+02  0.45045682591E+02  0.00000000000E+00 0. -1.
         11    1    3    3    0    0 -0.10787395690E+02  0.11244169235E+02  0.34281798824E+01  0.15954675337E+02  0.51100000000E-03 0. -1.
        -11    1    3    3    0    0 -0.19245112715E+02  0.14845812887E+02  0.13977843332E+02  0.28038413439E+02  0.51100000000E-03 0.  1.
        -12    1    3    3    0    0 -0.18163128246E+00  0.13359447426E+01  0.16737519052E+01  0.21492286333E+01  0.00000000000E+00 0.  1.
</event>
<event>
 7    1  0.2313935E-008  0.4614231E+02  0.7816164E-02  0.1320468E+00
        -11   -1    0    0    0    0  0.00000000000E+00  0.00000000000E+00  0.45593999997E+02  0.45594000000E+02  0.51100000000E-03 0.  1.
         11   -1    0    0    0    0 -0.00000000000E+00 -0.00000000000E+00 -0.45593999997E+02  0.45594000000E+02  0.51100000000E-03 0. -1.
    9900012    2    1    2    0    0 -0.41439505343E+02 -0.54473696674E+01  0.16799027448E+02  0.46142314718E+02  0.99999722477E+01 0.  0.
         12    1    1    2    0    0  0.41439505343E+02  0.54473696674E+01 -0.16799027448E+02  0.45045685282E+02  0.00000000000E+00 0. -1.
         11    1    3    3    0    0 -0.16164676972E+01  0.16997034305E+01  0.18298045260E+01  0.29749192313E+01  0.51100000000E-03 0. -1.
        -11    1    3    3    0    0 -0.25923851976E+02 -0.53183548531E+01  0.10141369374E+02  0.28340401773E+02  0.51100000000E-03 0.  1.
         12    1    3    3    0    0 -0.13899185669E+02 -0.18287182448E+01  0.48278535483E+01  0.14826993713E+02  0.00000000000E+00 0. -1.
</event>
<event>
 7    1  0.2313935E-008  0.4614232E+02  0.7816164E-02  0.1320468E+00
        -11   -1    0    0    0    0  0.00000000000E+00  0.00000000000E+00  0.45593999997E+02  0.45594000000E+02  0.51100000000E-03 0.  1.
         11   -1    0    0    0    0 -0.00000000000E+00 -0.00000000000E+00 -0.45593999997E+02  0.45594000000E+02  0.51100000000E-03 0. -1.
    9900012    2    1    2    0    0 -0.10159196235E+02 -0.30702947997E+02  0.31356549523E+02  0.46142317834E+02  0.10000000663E+02 0.  0.
         12    1    1    2    0    0  0.10159196235E+02  0.30702947997E+02 -0.31356549523E+02  0.45045682166E+02  0.00000000000E+00 0. -1.
         11    1    3    3    0    0  0.44841260672E+00 -0.26693940721E+01  0.17519154158E+01  0.32242745639E+01  0.51100000000E-03 0. -1.
        -11    1    3    3    0    0 -0.41979982330E+01 -0.20488103645E+02  0.22589365920E+02  0.30784168546E+02  0.51100000000E-03 0.  1.
         12    1    3    3    0    0 -0.64096106087E+01 -0.75454502801E+01  0.70152681864E+01  0.12133874724E+02  0.00000000000E+00 0. -1.
</event>
<event>
 7    1  0.2313935E-008  0.4614232E+02  0.7816164E-02  0.1320468E+00
        -11   -1    0    0    0    0  0.00000000000E+00  0.00000000000E+00  0.45593999997E+02  0.45594000000E+02  0.51100000000E-03 0.  1.
         11   -1    0    0    0    0 -0.00000000000E+00 -0.00000000000E+00 -0.45593999997E+02  0.45594000000E+02  0.51100000000E-03 0. -1.
    9900012    2    1    2    0    0  0.25742237326E+02 -0.10234695709E+02  0.35520441340E+02  0.46142317279E+02  0.99999956027E+01 0.  0.
         12    1    1    2    0    0 -0.25742237326E+02  0.10234695709E+02 -0.35520441340E+02  0.45045682721E+02  0.00000000000E+00 0. -1.
         11    1    3    3    0    0  0.25291817903E+01  0.67340408907E+00  0.12096748250E+01  0.28833222226E+01  0.51100000000E-03 0. -1.
        -11    1    3    3    0    0  0.13187221767E+02 -0.30349957103E+01  0.19198445756E+02  0.23488174399E+02  0.51100000000E-03 0.  1.
        -12    1    3    3    0    0  0.10025833769E+02 -0.78731040877E+01  0.15112320760E+02  0.19770820658E+02  0.00000000000E+00 0.  1.
</event>
<event>
 7    1  0.2313935E-008  0.4614232E+02  0.7816164E-02  0.1320468E+00
        -11   -1    0    0    0    0  0.00000000000E+00  0.00000000000E+00  0.45593999997E+02  0.45594000000E+02  0.51100000000E-03 0. -1.
         11   -1    0    0    0    0 -0.00000000000E+00 -0.00000000000E+00 -0.45593999997E+02  0.45594000000E+02  0.51100000000E-03 0.  1.
    9900012    2    1    2    0    0 -0.60974039321E+01  0.43509207251E+02  0.99440433555E+01  0.46142318203E+02  0.10000004030E+02 0.  0.
         12    1    1    2    0    0  0.60974039321E+01 -0.43509207251E+02 -0.99440433555E+01  0.45045681797E+02  0.00000000000E+00 0. -1.
         11    1    3    3    0    0 -0.10770657178E+01  0.12619418374E+01 -0.27906353897E+00  0.16823924873E+01  0.51100000000E-03 0. -1.
        -11    1    3    3    0    0 -0.44697749168E+01  0.12722065059E+02  0.99405982803E+00  0.13521020020E+02  0.51100000000E-03 0.  1.
         12    1    3    3    0    0 -0.55056329748E+00  0.29525200354E+02  0.92290470664E+01  0.30938905696E+02  0.00000000000E+00 0. -1.
</event>
<event>
 7    1  0.2313935E-008  0.4614232E+02  0.7816164E-02  0.1320468E+00
        -11   -1    0    0    0    0  0.00000000000E+00  0.00000000000E+00  0.45593999997E+02  0.45594000000E+02  0.51100000000E-03 0.  1.
         11   -1    0    0    0    0 -0.00000000000E+00 -0.00000000000E+00 -0.45593999997E+02  0.45594000000E+02  0.51100000000E-03 0. -1.
    9900012    2    1    2    0    0 -0.39114102315E+02  0.11613223858E+02  0.19087524138E+02  0.46142317122E+02  0.99999941685E+01 0.  0.
         12    1    1    2    0    0  0.39114102315E+02 -0.11613223858E+02 -0.19087524138E+02  0.45045682878E+02  0.00000000000E+00 0. -1.
         11    1    3    3    0    0 -0.38113384423E+01 -0.10192693685E+01  0.29542543340E+00  0.39563224357E+01  0.51100000000E-03 0. -1.
        -11    1    3    3    0    0 -0.13494618032E+02  0.54152650018E+01  0.49173541438E+01  0.15349598786E+02  0.51100000000E-03 0.  1.
        -12    1    3    3    0    0 -0.21808145841E+02  0.72172282248E+01  0.13874744561E+02  0.26836395900E+02  0.00000000000E+00 0.  1.
</event>
<event>
 7    1  0.2313935E-008  0.4614232E+02  0.7816164E-02  0.1320468E+00
        -11   -1    0    0    0    0  0.00000000000E+00  0.00000000000E+00  0.45593999997E+02  0.45594000000E+02  0.51100000000E-03 0. -1.
         11   -1    0    0    0    0 -0.00000000000E+00 -0.00000000000E+00 -0.45593999997E+02  0.45594000000E+02  0.51100000000E-03 0.  1.
    9900012    2    1    2    0    0 -0.28788032850E+02 -0.34323127635E+02 -0.47207649023E+01  0.46142317107E+02  0.99999940379E+01 0.  0.
         12    1    1    2    0    0  0.28788032850E+02  0.34323127635E+02  0.47207649023E+01  0.45045682893E+02  0.00000000000E+00 0. -1.
         11    1    3    3    0    0 -0.44991595820E+01 -0.47412996896E+01  0.14688505049E+01  0.66992448647E+01  0.51100000000E-03 0. -1.
        -11    1    3    3    0    0 -0.67937283230E+01 -0.60623975020E+01  0.12763293500E+01  0.91943691937E+01  0.51100000000E-03 0.  1.
        -12    1    3    3    0    0 -0.17495144945E+02 -0.23519430443E+02 -0.74659447572E+01  0.30248703049E+02  0.00000000000E+00 0.  1.
</event>
<event>
 7    1  0.2313935E-008  0.4614232E+02  0.7816164E-02  0.1320468E+00
        -11   -1    0    0    0    0  0.00000000000E+00  0.00000000000E+00  0.45593999997E+02  0.45594000000E+02  0.51100000000E-03 0.  1.
         11   -1    0    0    0    0 -0.00000000000E+00 -0.00000000000E+00 -0.45593999997E+02  0.45594000000E+02  0.51100000000E-03 0. -1.
    9900012    2    1    2    0    0 -0.82083528865E+01 -0.93332867081E+01  0.43296953617E+02  0.46142317738E+02  0.99999997934E+01 0.  0.
         12    1    1    2    0    0  0.82083528865E+01  0.93332867081E+01 -0.43296953617E+02  0.45045682262E+02  0.00000000000E+00 0. -1.
         11    1    3    3    0    0 -0.21767635582E+01  0.14779323092E+01  0.94163185320E+01  0.97769953695E+01  0.51100000000E-03 0. -1.
        -11    1    3    3    0    0 -0.38358893308E+01 -0.25347009482E+01  0.10355689805E+02  0.11330448688E+02  0.51100000000E-03 0.  1.
         12    1    3    3    0    0 -0.21956999976E+01 -0.82765180691E+01  0.23524945280E+02  0.25034873681E+02  0.00000000000E+00 0. -1.
</event>
<event>
 7    1  0.2313935E-008  0.4614232E+02  0.7816164E-02  0.1320468E+00
        -11   -1    0    0    0    0  0.00000000000E+00  0.00000000000E+00  0.45593999997E+02  0.45594000000E+02  0.51100000000E-03 0. -1.
         11   -1    0    0    0    0 -0.00000000000E+00 -0.00000000000E+00 -0.45593999997E+02  0.45594000000E+02  0.51100000000E-03 0.  1.
    9900012    2    1    2    0    0 -0.18001881915E+02 -0.41276070060E+02  0.11540098057E+01  0.46142318179E+02  0.10000003810E+02 0.  0.
         12    1    1    2    0    0  0.18001881915E+02  0.41276070060E+02 -0.11540098057E+01  0.45045681821E+02  0.00000000000E+00 0. -1.
         11    1    3    3    0    0 -0.68054374298E+00 -0.79011607150E+01  0.20090438196E+01  0.81809374623E+01  0.51100000000E-03 0. -1.
        -11    1    3    3    0    0  0.14597433420E+00 -0.80390223116E+00 -0.57867342865E+00  0.10012145133E+01  0.51100000000E-03 0.  1.
        -12    1    3    3    0    0 -0.17467312506E+02 -0.32571007114E+02 -0.27636058529E+00  0.36960166203E+02  0.00000000000E+00 0.  1.
</event>
<event>
 7    1  0.2313935E-008  0.4614232E+02  0.7816164E-02  0.1320468E+00
        -11   -1    0    0    0    0  0.00000000000E+00  0.00000000000E+00  0.45593999997E+02  0.45594000000E+02  0.51100000000E-03 0.  1.
         11   -1    0    0    0    0 -0.00000000000E+00 -0.00000000000E+00 -0.45593999997E+02  0.45594000000E+02  0.51100000000E-03 0. -1.
    9900012    2    1    2    0    0 -0.36946519079E+02 -0.65777832170E+01  0.24915875783E+02  0.46142319073E+02  0.10000011961E+02 0.  0.
         12    1    1    2    0    0  0.36946519079E+02  0.65777832170E+01 -0.24915875783E+02  0.45045680927E+02  0.00000000000E+00 0. -1.
         11    1    3    3    0    0 -0.32446775077E+02 -0.31569533974E+01  0.20254885695E+02  0.38379942189E+02  0.51100000000E-03 0. -1.
        -11    1    3    3    0    0 -0.18658480319E+01 -0.70699522146E+00  0.30657047469E+01  0.36578377462E+01  0.51100000000E-03 0.  1.
         12    1    3    3    0    0 -0.26338959704E+01 -0.27138345981E+01  0.15952853412E+01  0.41045391372E+01  0.00000000000E+00 0. -1.
</event>
<event>
 7    1  0.2313935E-008  0.4614232E+02  0.7816164E-02  0.1320468E+00
        -11   -1    0    0    0    0  0.00000000000E+00  0.00000000000E+00  0.45593999997E+02  0.45594000000E+02  0.51100000000E-03 0.  1.
         11   -1    0    0    0    0 -0.00000000000E+00 -0.00000000000E+00 -0.45593999997E+02  0.45594000000E+02  0.51100000000E-03 0. -1.
    9900012    2    1    2    0    0 -0.25332298049E+02 -0.25990594146E+02  0.26681025160E+02  0.46142318608E+02  0.10000007719E+02 0.  0.
         12    1    1    2    0    0  0.25332298049E+02  0.25990594146E+02 -0.26681025160E+02  0.45045681392E+02  0.00000000000E+00 0. -1.
         11    1    3    3    0    0 -0.71278092698E+00 -0.17309930759E+01  0.36712519925E+00  0.19076621429E+01  0.51100000000E-03 0. -1.
        -11    1    3    3    0    0 -0.13810696696E+02 -0.13681863638E+02  0.95578606470E+01  0.21662904612E+02  0.51100000000E-03 0.  1.
         12    1    3    3    0    0 -0.10808820426E+02 -0.10577737432E+02  0.16756039314E+02  0.22571751852E+02  0.00000000000E+00 0. -1.
</event>
<event>
 7    1  0.2313935E-008  0.4614232E+02  0.7816164E-02  0.1320468E+00
        -11   -1    0    0    0    0  0.00000000000E+00  0.00000000000E+00  0.45593999997E+02  0.45594000000E+02  0.51100000000E-03 0.  1.
         11   -1    0    0    0    0 -0.00000000000E+00 -0.00000000000E+00 -0.45593999997E+02  0.45594000000E+02  0.51100000000E-03 0. -1.
    9900012    2    1    2    0    0  0.24481839599E+02  0.42891910835E+01  0.37568016064E+02  0.46142318062E+02  0.10000002746E+02 0.  0.
         12    1    1    2    0    0 -0.24481839599E+02 -0.42891910835E+01 -0.37568016064E+02  0.45045681938E+02  0.00000000000E+00 0. -1.
         11    1    3    3    0    0 -0.12053361815E+00 -0.73914838709E+00  0.15038279123E+01  0.16799902804E+01  0.51100000000E-03 0. -1.
        -11    1    3    3    0    0  0.15776887237E+02  0.12502972088E+01  0.26781667945E+02  0.31108377524E+02  0.51100000000E-03 0.  1.
        -12    1    3    3    0    0  0.88254859794E+01  0.37780422618E+01  0.92825202061E+01  0.13353950258E+02  0.00000000000E+00 0.  1.
</event>
<event>
 7    1  0.2313935E-008  0.4614232E+02  0.7816164E-02  0.1320468E+00
        -11   -1    0    0    0    0  0.00000000000E+00  0.00000000000E+00  0.45593999997E+02  0.45594000000E+02  0.51100000000E-03 0.  1.
         11   -1    0    0    0    0 -0.00000000000E+00 -0.00000000000E+00 -0.45593999997E+02  0.45594000000E+02  0.51100000000E-03 0. -1.
    9900012    2    1    2    0    0 -0.19616558055E+02  0.31396511485E+02  0.25662486349E+02  0.46142317755E+02  0.99999999431E+01 0.  0.
         12    1    1    2    0    0  0.19616558055E+02 -0.31396511485E+02 -0.25662486349E+02  0.45045682245E+02  0.00000000000E+00 0. -1.
         11    1    3    3    0    0  0.76189237757E+00  0.36781598500E+01  0.24462475500E+01  0.44825737266E+01  0.51100000000E-03 0. -1.
        -11    1    3    3    0    0 -0.12390309561E+02  0.16164005981E+02  0.15791206944E+02  0.25771245165E+02  0.51100000000E-03 0.  1.
         12    1    3    3    0    0 -0.79881408708E+01  0.11554345654E+02  0.74250318546E+01  0.15888498863E+02  0.00000000000E+00 0. -1.
</event>
<event>
 7    1  0.2313935E-008  0.4614232E+02  0.7816164E-02  0.1320468E+00
        -11   -1    0    0    0    0  0.00000000000E+00  0.00000000000E+00  0.45593999997E+02  0.45594000000E+02  0.51100000000E-03 0. -1.
         11   -1    0    0    0    0 -0.00000000000E+00 -0.00000000000E+00 -0.45593999997E+02  0.45594000000E+02  0.51100000000E-03 0.  1.
    9900012    2    1    2    0    0 -0.63003042372E+01 -0.11402756173E+02 -0.43120725111E+02  0.46142316345E+02  0.99999870877E+01 0.  0.
         12    1    1    2    0    0  0.63003042372E+01  0.11402756173E+02  0.43120725111E+02  0.45045683655E+02  0.00000000000E+00 0. -1.
         11    1    3    3    0    0 -0.11885608166E+01 -0.58185992609E+01 -0.88204925650E+01  0.10633431409E+02  0.51100000000E-03 0. -1.
        -11    1    3    3    0    0 -0.81866501401E+00 -0.45383534435E+01 -0.20755189120E+02  0.21261343797E+02  0.51100000000E-03 0.  1.
        -12    1    3    3    0    0 -0.42930784066E+01 -0.10458034682E+01 -0.13545043426E+02  0.14247541139E+02  0.00000000000E+00 0.  1.
</event>
<event>
 7    1  0.2313935E-008  0.4614232E+02  0.7816164E-02  0.1320468E+00
        -11   -1    0    0    0    0  0.00000000000E+00  0.00000000000E+00  0.45593999997E+02  0.45594000000E+02  0.51100000000E-03 0.  1.
         11   -1    0    0    0    0 -0.00000000000E+00 -0.00000000000E+00 -0.45593999997E+02  0.45594000000E+02  0.51100000000E-03 0. -1.
    9900012    2    1    2    0    0  0.35016036963E+02 -0.27975542954E+02  0.45121564935E+01  0.46142318693E+02  0.10000008500E+02 0.  0.
         12    1    1    2    0    0 -0.35016036963E+02  0.27975542954E+02 -0.45121564935E+01  0.45045681307E+02  0.00000000000E+00 0. -1.
         11    1    3    3    0    0  0.13683037874E+02 -0.59360774939E+01  0.13583759966E+01  0.14976906459E+02  0.51100000000E-03 0. -1.
        -11    1    3    3    0    0  0.27227400500E+00 -0.17136479241E+01  0.23315610152E+00  0.17507382359E+01  0.51100000000E-03 0.  1.
        -12    1    3    3    0    0  0.21060725084E+02 -0.20325817536E+02  0.29206243954E+01  0.29414673998E+02  0.00000000000E+00 0.  1.
</event>
<event>
 7    1  0.2313935E-008  0.4614232E+02  0.7816164E-02  0.1320468E+00
        -11   -1    0    0    0    0  0.00000000000E+00  0.00000000000E+00  0.45593999997E+02  0.45594000000E+02  0.51100000000E-03 0. -1.
         11   -1    0    0    0    0 -0.00000000000E+00 -0.00000000000E+00 -0.45593999997E+02  0.45594000000E+02  0.51100000000E-03 0.  1.
    9900012    2    1    2    0    0 -0.19332618472E+02  0.34222514568E+02 -0.22004157824E+02  0.46142316501E+02  0.99999885112E+01 0.  0.
         12    1    1    2    0    0  0.19332618472E+02 -0.34222514568E+02  0.22004157824E+02  0.45045683499E+02  0.00000000000E+00 0. -1.
         11    1    3    3    0    0 -0.37397686750E+01  0.51288891118E+01 -0.44062631447E+01  0.77269999628E+01  0.51100000000E-03 0. -1.
        -11    1    3    3    0    0 -0.10597220233E+02  0.18074219902E+02 -0.15670669087E+02  0.26163875317E+02  0.51100000000E-03 0.  1.
         12    1    3    3    0    0 -0.49956295636E+01  0.11019405554E+02 -0.19272255923E+01  0.12251441221E+02  0.00000000000E+00 0. -1.
</event>
<event>
 7    1  0.2313935E-008  0.4614232E+02  0.7816164E-02  0.1320468E+00
        -11   -1    0    0    0    0  0.00000000000E+00  0.00000000000E+00  0.45593999997E+02  0.45594000000E+02  0.51100000000E-03 0. -1.
         11   -1    0    0    0    0 -0.00000000000E+00 -0.00000000000E+00 -0.45593999997E+02  0.45594000000E+02  0.51100000000E-03 0.  1.
    9900012    2    1    2    0    0 -0.91636731598E+01 -0.26613724146E+02 -0.35168881189E+02  0.46142318489E+02  0.10000006635E+02 0.  0.
         12    1    1    2    0    0  0.91636731598E+01  0.26613724146E+02  0.35168881189E+02  0.45045681511E+02  0.00000000000E+00 0. -1.
         11    1    3    3    0    0 -0.91912109094E+00 -0.64473793601E+00 -0.52778400016E+00  0.12405751883E+01  0.51100000000E-03 0. -1.
        -11    1    3    3    0    0 -0.29675730156E+01 -0.19772855756E+02 -0.27951867605E+02  0.34366833098E+02  0.51100000000E-03 0.  1.
        -12    1    3    3    0    0 -0.52769790533E+01 -0.61961304543E+01 -0.66892295842E+01  0.10534910202E+02  0.00000000000E+00 0.  1.
</event>
<event>
 7    1  0.2313935E-008  0.4614232E+02  0.7816164E-02  0.1320468E+00
        -11   -1    0    0    0    0  0.00000000000E+00  0.00000000000E+00  0.45593999997E+02  0.45594000000E+02  0.51100000000E-03 0.  1.
         11   -1    0    0    0    0 -0.00000000000E+00 -0.00000000000E+00 -0.45593999997E+02  0.45594000000E+02  0.51100000000E-03 0. -1.
    9900012    2    1    2    0    0  0.27012400228E+02  0.34052369530E+02  0.11827080221E+02  0.46142318040E+02  0.10000002543E+02 0.  0.
         12    1    1    2    0    0 -0.27012400228E+02 -0.34052369530E+02 -0.11827080221E+02  0.45045681960E+02  0.00000000000E+00 0. -1.
         11    1    3    3    0    0  0.63429537974E-01 -0.33729252012E+00 -0.22883996734E+00  0.41250156629E+00  0.51100000000E-03 0. -1.
        -11    1    3    3    0    0  0.23544190487E+02  0.27995028646E+02  0.11958812534E+02  0.38484590839E+02  0.51100000000E-03 0.  1.
         12    1    3    3    0    0  0.34047802037E+01  0.63946334035E+01  0.97107655134E-01  0.72452256347E+01  0.00000000000E+00 0. -1.
</event>
<event>
 7    1  0.2313935E-008  0.4614232E+02  0.7816164E-02  0.1320468E+00
        -11   -1    0    0    0    0  0.00000000000E+00  0.00000000000E+00  0.45593999997E+02  0.45594000000E+02  0.51100000000E-03 0.  1.
         11   -1    0    0    0    0 -0.00000000000E+00 -0.00000000000E+00 -0.45593999997E+02  0.45594000000E+02  0.51100000000E-03 0. -1.
    9900012    2    1    2    0    0 -0.46193143933E+01  0.22766719239E+02  0.38593416472E+02  0.46142319127E+02  0.10000012454E+02 0.  0.
         12    1    1    2    0    0  0.46193143933E+01 -0.22766719239E+02 -0.38593416472E+02  0.45045680873E+02  0.00000000000E+00 0. -1.
         11    1    3    3    0    0 -0.99016729189E+00  0.96123779078E+00  0.66488130375E+01  0.67905172428E+01  0.51100000000E-03 0. -1.
        -11    1    3    3    0    0 -0.17491855993E+01  0.16737387666E+02  0.27969977053E+02  0.32642294845E+02  0.51100000000E-03 0.  1.
         12    1    3    3    0    0 -0.18799615021E+01  0.50680937824E+01  0.39746263810E+01  0.67095070389E+01  0.00000000000E+00 0. -1.
</event>
<event>
 7    1  0.2313935E-008  0.4614232E+02  0.7816164E-02  0.1320468E+00
        -11   -1    0    0    0    0  0.00000000000E+00  0.00000000000E+00  0.45593999997E+02  0.45594000000E+02  0.51100000000E-03 0.  1.
         11   -1    0    0    0    0 -0.00000000000E+00 -0.00000000000E+00 -0.45593999997E+02  0.45594000000E+02  0.51100000000E-03 0. -1.
    9900012    2    1    2    0    0 -0.41841576040E+01  0.12298934698E+02  0.43131687507E+02  0.46142318334E+02  0.10000005227E+02 0.  0.
         12    1    1    2    0    0  0.41841576040E+01 -0.12298934698E+02 -0.43131687507E+02  0.45045681666E+02  0.00000000000E+00 0. -1.
         11    1    3    3    0    0 -0.52250352247E+00  0.38536835022E+01  0.55887847237E+01  0.68087004204E+01  0.51100000000E-03 0. -1.
        -11    1    3    3    0    0 -0.15478665833E+01  0.10594494707E+00  0.16882200248E+02  0.16953341876E+02  0.51100000000E-03 0.  1.
        -12    1    3    3    0    0 -0.21137874982E+01  0.83393062489E+01  0.20660702535E+02  0.22380276038E+02  0.00000000000E+00 0.  1.
</event>
<event>
 7    1  0.2313935E-008  0.4614232E+02  0.7816164E-02  0.1320468E+00
        -11   -1    0    0    0    0  0.00000000000E+00  0.00000000000E+00  0.45593999997E+02  0.45594000000E+02  0.51100000000E-03 0.  1.
         11   -1    0    0    0    0 -0.00000000000E+00 -0.00000000000E+00 -0.45593999997E+02  0.45594000000E+02  0.51100000000E-03 0. -1.
    9900012    2    1    2    0    0 -0.25514425785E+02 -0.27304933945E+02  0.25150907215E+02  0.46142317914E+02  0.10000001394E+02 0.  0.
         12    1    1    2    0    0  0.25514425785E+02  0.27304933945E+02 -0.25150907215E+02  0.45045682086E+02  0.00000000000E+00 0. -1.
         11    1    3    3    0    0 -0.32424205459E+01 -0.27351318696E+01  0.29932834027E+00  0.42525092660E+01  0.51100000000E-03 0. -1.
        -11    1    3    3    0    0 -0.18264426269E+01 -0.15031029991E+01  0.40945729188E+01  0.47287143013E+01  0.51100000000E-03 0.  1.
        -12    1    3    3    0    0 -0.20445562612E+02 -0.23066699076E+02  0.20757005956E+02  0.37161094347E+02  0.00000000000E+00 0.  1.
</event>
<event>
 7    1  0.2313935E-008  0.4614232E+02  0.7816164E-02  0.1320468E+00
        -11   -1    0    0    0    0  0.00000000000E+00  0.00000000000E+00  0.45593999997E+02  0.45594000000E+02  0.51100000000E-03 0. -1.
         11   -1    0    0    0    0 -0.00000000000E+00 -0.00000000000E+00 -0.45593999997E+02  0.45594000000E+02  0.51100000000E-03 0.  1.
    9900012    2    1    2    0    0 -0.12456930734E+02  0.96357849102E+00 -0.43278284306E+02  0.46142317640E+02  0.99999988926E+01 0.  0.
         12    1    1    2    0    0  0.12456930734E+02 -0.96357849102E+00  0.43278284306E+02  0.45045682360E+02  0.00000000000E+00 0. -1.
         11    1    3    3    0    0 -0.28100685252E-01 -0.20792767691E+01 -0.47051120262E+01  0.51441482260E+01  0.51100000000E-03 0. -1.
        -11    1    3    3    0    0 -0.62966824058E+01  0.14384992462E+01 -0.27412535357E+02  0.28163177810E+02  0.51100000000E-03 0.  1.
        -12    1    3    3    0    0 -0.61321476432E+01  0.16043560139E+01 -0.11160636923E+02  0.12834991603E+02  0.00000000000E+00 0.  1.
</event>
<event>
 7    1  0.2313935E-008  0.4614232E+02  0.7816164E-02  0.1320468E+00
        -11   -1    0    0    0    0  0.00000000000E+00  0.00000000000E+00  0.45593999997E+02  0.45594000000E+02  0.51100000000E-03 0. -1.
         11   -1    0    0    0    0 -0.00000000000E+00 -0.00000000000E+00 -0.45593999997E+02  0.45594000000E+02  0.51100000000E-03 0.  1.
    9900012    2    1    2    0    0  0.44656667963E+02  0.20979892709E+01 -0.55221299040E+01  0.46142317952E+02  0.10000001737E+02 0.  0.
         12    1    1    2    0    0 -0.44656667963E+02 -0.20979892709E+01  0.55221299040E+01  0.45045682048E+02  0.00000000000E+00 0. -1.
         11    1    3    3    0    0  0.87904926329E+01  0.27623421927E+01 -0.17887362432E+01  0.93863130529E+01  0.51100000000E-03 0. -1.
        -11    1    3    3    0    0  0.21962158533E+02  0.24730254674E+01 -0.33781303180E+00  0.22103537733E+02  0.51100000000E-03 0.  1.
         12    1    3    3    0    0  0.13904016797E+02 -0.31373783891E+01 -0.33955806290E+01  0.14652467166E+02  0.00000000000E+00 0. -1.
</event>
<event>
 7    1  0.2313935E-008  0.4614232E+02  0.7816164E-02  0.1320468E+00
        -11   -1    0    0    0    0  0.00000000000E+00  0.00000000000E+00  0.45593999997E+02  0.45594000000E+02  0.51100000000E-03 0.  1.
         11   -1    0    0    0    0 -0.00000000000E+00 -0.00000000000E+00 -0.45593999997E+02  0.45594000000E+02  0.51100000000E-03 0. -1.
    9900012    2    1    2    0    0  0.27464751601E+02  0.19355468068E+02  0.30002777113E+02  0.46142319196E+02  0.10000013085E+02 0.  0.
         12    1    1    2    0    0 -0.27464751601E+02 -0.19355468068E+02 -0.30002777113E+02  0.45045680804E+02  0.00000000000E+00 0. -1.
         11    1    3    3    0    0  0.90394753846E+01  0.73723307029E+01  0.11691812538E+02  0.16515503501E+02  0.51100000000E-03 0.  1.
        -11    1    3    3    0    0  0.11917029636E+02  0.85479413919E+01  0.72976957215E+01  0.16381064083E+02  0.51100000000E-03 0. -1.
         12    1    3    3    0    0  0.65082465795E+01  0.34351959736E+01  0.11013268853E+02  0.13245751612E+02  0.00000000000E+00 0. -1.
</event>
<event>
 7    1  0.2313935E-008  0.4614232E+02  0.7816164E-02  0.1320468E+00
        -11   -1    0    0    0    0  0.00000000000E+00  0.00000000000E+00  0.45593999997E+02  0.45594000000E+02  0.51100000000E-03 0.  1.
         11   -1    0    0    0    0 -0.00000000000E+00 -0.00000000000E+00 -0.45593999997E+02  0.45594000000E+02  0.51100000000E-03 0. -1.
    9900012    2    1    2    0    0  0.26458399068E+02 -0.26292503346E+01  0.36361430945E+02  0.46142317644E+02  0.99999989294E+01 0.  0.
         12    1    1    2    0    0 -0.26458399068E+02  0.26292503346E+01 -0.36361430945E+02  0.45045682356E+02  0.00000000000E+00 0. -1.
         11    1    3    3    0    0 -0.35341683337E+00  0.93716558093E+00  0.11478749971E+01  0.15234172292E+01  0.51100000000E-03 0. -1.
        -11    1    3    3    0    0  0.15746719443E+02  0.89325995038E-01  0.20455212829E+02  0.25814392972E+02  0.51100000000E-03 0.  1.
        -12    1    3    3    0    0  0.11065096458E+02 -0.36557419106E+01  0.14758343119E+02  0.18804507443E+02  0.00000000000E+00 0.  1.
</event>
<event>
 7    1  0.2313935E-008  0.4614232E+02  0.7816164E-02  0.1320468E+00
        -11   -1    0    0    0    0  0.00000000000E+00  0.00000000000E+00  0.45593999997E+02  0.45594000000E+02  0.51100000000E-03 0.  1.
         11   -1    0    0    0    0 -0.00000000000E+00 -0.00000000000E+00 -0.45593999997E+02  0.45594000000E+02  0.51100000000E-03 0. -1.
    9900012    2    1    2    0    0 -0.32079180386E+02 -0.31319470411E+02  0.43738444619E+01  0.46142317005E+02  0.99999931082E+01 0.  0.
         12    1    1    2    0    0  0.32079180386E+02  0.31319470411E+02 -0.43738444619E+01  0.45045682995E+02  0.00000000000E+00 0. -1.
         11    1    3    3    0    0 -0.17223480900E+02 -0.15287335942E+02 -0.13113454772E+01  0.23066654758E+02  0.51100000000E-03 0. -1.
        -11    1    3    3    0    0 -0.10697770781E+02 -0.92262760141E+01  0.19219902466E+01  0.14256946220E+02  0.51100000000E-03 0.  1.
         12    1    3    3    0    0 -0.41579287051E+01 -0.68058584552E+01  0.37631996926E+01  0.88187160264E+01  0.00000000000E+00 0. -1.
</event>
<event>
 7    1  0.2313935E-008  0.4614232E+02  0.7816164E-02  0.1320468E+00
        -11   -1    0    0    0    0  0.00000000000E+00  0.00000000000E+00  0.45593999997E+02  0.45594000000E+02  0.51100000000E-03 0.  1.
         11   -1    0    0    0    0 -0.00000000000E+00 -0.00000000000E+00 -0.45593999997E+02  0.45594000000E+02  0.51100000000E-03 0. -1.
    9900012    2    1    2    0    0  0.35114970701E+02  0.18272311111E+02  0.21498255417E+02  0.46142317558E+02  0.99999981449E+01 0.  0.
         12    1    1    2    0    0 -0.35114970701E+02 -0.18272311111E+02 -0.21498255417E+02  0.45045682442E+02  0.00000000000E+00 0. -1.
         11    1    3    3    0    0  0.14007683275E+01  0.14598526943E+01  0.24922405544E+01  0.32100755503E+01  0.51100000000E-03 0. -1.
        -11    1    3    3    0    0  0.15988961247E+02  0.12069027112E+02  0.82649701343E+01  0.21670672088E+02  0.51100000000E-03 0.  1.
         12    1    3    3    0    0  0.17725241127E+02  0.47434313052E+01  0.10741044728E+02  0.21261569919E+02  0.00000000000E+00 0. -1.
</event>
<event>
 7    1  0.2313935E-008  0.4614232E+02  0.7816164E-02  0.1320468E+00
        -11   -1    0    0    0    0  0.00000000000E+00  0.00000000000E+00  0.45593999997E+02  0.45594000000E+02  0.51100000000E-03 0. -1.
         11   -1    0    0    0    0 -0.00000000000E+00 -0.00000000000E+00 -0.45593999997E+02  0.45594000000E+02  0.51100000000E-03 0.  1.
    9900012    2    1    2    0    0 -0.27573536871E+02 -0.26386508663E+02 -0.23928338220E+02  0.46142321573E+02  0.10000034760E+02 0.  0.
         12    1    1    2    0    0  0.27573536871E+02  0.26386508663E+02  0.23928338220E+02  0.45045678427E+02  0.00000000000E+00 0. -1.
         11    1    3    3    0    0 -0.25956481846E+01 -0.97951291611E+00 -0.92969152347E+00  0.29259462813E+01  0.51100000000E-03 0. -1.
        -11    1    3    3    0    0 -0.91232011581E+01 -0.98634366422E+01 -0.40666701552E+01  0.14037734439E+02  0.51100000000E-03 0.  1.
         12    1    3    3    0    0 -0.15854687528E+02 -0.15543559104E+02 -0.18931976541E+02  0.29178640853E+02  0.00000000000E+00 0. -1.
</event>
<event>
 7    1  0.2313935E-008  0.4614232E+02  0.7816164E-02  0.1320468E+00
        -11   -1    0    0    0    0  0.00000000000E+00  0.00000000000E+00  0.45593999997E+02  0.45594000000E+02  0.51100000000E-03 0.  1.
         11   -1    0    0    0    0 -0.00000000000E+00 -0.00000000000E+00 -0.45593999997E+02  0.45594000000E+02  0.51100000000E-03 0. -1.
    9900012    2    1    2    0    0 -0.25493359272E+01  0.32559534900E+01  0.44855469496E+02  0.46142317737E+02  0.99999997818E+01 0.  0.
         12    1    1    2    0    0  0.25493359272E+01 -0.32559534900E+01 -0.44855469496E+02  0.45045682263E+02  0.00000000000E+00 0. -1.
         11    1    3    3    0    0  0.39393297711E+00  0.17411042018E+01  0.36300124109E+02  0.36343990392E+02  0.51100000000E-03 0. -1.
        -11    1    3    3    0    0 -0.13129238218E+01 -0.59808328982E+00  0.57421630993E+01  0.59206342484E+01  0.51100000000E-03 0.  1.
         12    1    3    3    0    0 -0.16303450825E+01  0.21129325780E+01  0.28131822880E+01  0.38776930968E+01  0.00000000000E+00 0. -1.
</event>
<event>
 7    1  0.2313935E-008  0.4614232E+02  0.7816164E-02  0.1320468E+00
        -11   -1    0    0    0    0  0.00000000000E+00  0.00000000000E+00  0.45593999997E+02  0.45594000000E+02  0.51100000000E-03 0. -1.
         11   -1    0    0    0    0 -0.00000000000E+00 -0.00000000000E+00 -0.45593999997E+02  0.45594000000E+02  0.51100000000E-03 0.  1.
    9900012    2    1    2    0    0  0.33044911588E+02  0.22665537308E+02  0.20577191678E+02  0.46142316737E+02  0.99999906578E+01 0.  0.
         12    1    1    2    0    0 -0.33044911588E+02 -0.22665537308E+02 -0.20577191678E+02  0.45045683263E+02  0.00000000000E+00 0. -1.
         11    1    3    3    0    0  0.17646319124E+02  0.73983114518E+01  0.10850031011E+02  0.21996608015E+02  0.51100000000E-03 0. -1.
        -11    1    3    3    0    0  0.34616978160E+01  0.19042411741E+01  0.31702414302E+01  0.50655618845E+01  0.51100000000E-03 0.  1.
         12    1    3    3    0    0  0.11936894648E+02  0.13362984682E+02  0.65569192368E+01  0.19080146837E+02  0.00000000000E+00 0. -1.
</event>
<event>
 7    1  0.2313935E-008  0.4614232E+02  0.7816164E-02  0.1320468E+00
        -11   -1    0    0    0    0  0.00000000000E+00  0.00000000000E+00  0.45593999997E+02  0.45594000000E+02  0.51100000000E-03 0.  1.
         11   -1    0    0    0    0 -0.00000000000E+00 -0.00000000000E+00 -0.45593999997E+02  0.45594000000E+02  0.51100000000E-03 0. -1.
    9900012    2    1    2    0    0  0.12639015344E+01  0.62689444334E+01  0.44589420899E+02  0.46142316883E+02  0.99999919918E+01 0.  0.
         12    1    1    2    0    0 -0.12639015344E+01 -0.62689444334E+01 -0.44589420899E+02  0.45045683117E+02  0.00000000000E+00 0. -1.
         11    1    3    3    0    0  0.19082293122E+01 -0.12550832476E+01  0.36338968410E+01  0.42920600623E+01  0.51100000000E-03 0. -1.
        -11    1    3    3    0    0  0.76252097761E+00  0.48430817132E+01  0.16648146891E+02  0.17355047504E+02  0.51100000000E-03 0.  1.
         12    1    3    3    0    0 -0.14068487555E+01  0.26809459678E+01  0.24307377167E+02  0.24495209316E+02  0.00000000000E+00 0. -1.
</event>
<event>
 7    1  0.2313935E-008  0.4614232E+02  0.7816164E-02  0.1320468E+00
        -11   -1    0    0    0    0  0.00000000000E+00  0.00000000000E+00  0.45593999997E+02  0.45594000000E+02  0.51100000000E-03 0.  1.
         11   -1    0    0    0    0 -0.00000000000E+00 -0.00000000000E+00 -0.45593999997E+02  0.45594000000E+02  0.51100000000E-03 0. -1.
    9900012    2    1    2    0    0  0.15516002213E+02  0.40666793489E+02  0.11600821825E+02  0.46142317806E+02  0.10000000407E+02 0.  0.
         12    1    1    2    0    0 -0.15516002213E+02 -0.40666793489E+02 -0.11600821825E+02  0.45045682194E+02  0.00000000000E+00 0. -1.
         11    1    3    3    0    0  0.23267264197E+01  0.14362493740E+01  0.96350870473E+00  0.28991063074E+01  0.51100000000E-03 0. -1.
        -11    1    3    3    0    0  0.73604445751E+01  0.12084041046E+02  0.35658708173E+01  0.14591628672E+02  0.51100000000E-03 0.  1.
         12    1    3    3    0    0  0.58288312184E+01  0.27146503069E+02  0.70714423026E+01  0.28651582826E+02  0.00000000000E+00 0. -1.
</event>
<event>
 7    1  0.2313935E-008  0.4614232E+02  0.7816164E-02  0.1320468E+00
        -11   -1    0    0    0    0  0.00000000000E+00  0.00000000000E+00  0.45593999997E+02  0.45594000000E+02  0.51100000000E-03 0.  1.
         11   -1    0    0    0    0 -0.00000000000E+00 -0.00000000000E+00 -0.45593999997E+02  0.45594000000E+02  0.51100000000E-03 0. -1.
    9900012    2    1    2    0    0 -0.18144946754E+02  0.38422662849E+02  0.14952368357E+02  0.46142318380E+02  0.10000005647E+02 0.  0.
         12    1    1    2    0    0  0.18144946754E+02 -0.38422662849E+02 -0.14952368357E+02  0.45045681620E+02  0.00000000000E+00 0. -1.
         11    1    3    3    0    0 -0.16454483784E+01  0.50231592752E+01  0.11570282838E+01  0.54109466991E+01  0.51100000000E-03 0.  1.
        -11    1    3    3    0    0 -0.12858630864E+02  0.28918228082E+02  0.14685226845E+02  0.34889313419E+02  0.51100000000E-03 0. -1.
         12    1    3    3    0    0 -0.36408675124E+01  0.44812754910E+01 -0.88988677235E+00  0.58420582620E+01  0.00000000000E+00 0. -1.
</event>
<event>
 7    1  0.2313935E-008  0.4614232E+02  0.7816164E-02  0.1320468E+00
        -11   -1    0    0    0    0  0.00000000000E+00  0.00000000000E+00  0.45593999997E+02  0.45594000000E+02  0.51100000000E-03 0.  1.
         11   -1    0    0    0    0 -0.00000000000E+00 -0.00000000000E+00 -0.45593999997E+02  0.45594000000E+02  0.51100000000E-03 0. -1.
    9900012    2    1    2    0    0  0.41172683091E+02 -0.81135269604E+01  0.16373584749E+02  0.46142318407E+02  0.10000005894E+02 0.  0.
         12    1    1    2    0    0 -0.41172683091E+02  0.81135269604E+01 -0.16373584749E+02  0.45045681593E+02  0.00000000000E+00 0. -1.
         11    1    3    3    0    0  0.52989744740E+01  0.66247455505E+00  0.21096571881E+00  0.53443904992E+01  0.51100000000E-03 0. -1.
        -11    1    3    3    0    0  0.33051398381E+02 -0.78097623265E+01  0.12776904140E+02  0.36285487487E+02  0.51100000000E-03 0.  1.
        -12    1    3    3    0    0  0.28223102360E+01 -0.96623918888E+00  0.33857148903E+01  0.45124404214E+01  0.00000000000E+00 0.  1.
</event>
<event>
 7    1  0.2313935E-008  0.4614232E+02  0.7816164E-02  0.1320468E+00
        -11   -1    0    0    0    0  0.00000000000E+00  0.00000000000E+00  0.45593999997E+02  0.45594000000E+02  0.51100000000E-03 0.  1.
         11   -1    0    0    0    0 -0.00000000000E+00 -0.00000000000E+00 -0.45593999997E+02  0.45594000000E+02  0.51100000000E-03 0. -1.
    9900012    2    1    2    0    0  0.19850008519E+02  0.13076659682E+02  0.38263451032E+02  0.46142317060E+02  0.99999936036E+01 0.  0.
         12    1    1    2    0    0 -0.19850008519E+02 -0.13076659682E+02 -0.38263451032E+02  0.45045682940E+02  0.00000000000E+00 0. -1.
         11    1    3    3    0    0  0.25558031681E+01  0.17921363348E+01  0.12502427000E+02  0.12886216033E+02  0.51100000000E-03 0. -1.
        -11    1    3    3    0    0  0.10266350047E+02  0.51480714280E+01  0.16557323538E+02  0.20150571846E+02  0.51100000000E-03 0.  1.
        -12    1    3    3    0    0  0.70278553043E+01  0.61364519196E+01  0.92037004938E+01  0.13105529181E+02  0.00000000000E+00 0.  1.
</event>
<event>
 7    1  0.2313935E-008  0.4614232E+02  0.7816164E-02  0.1320468E+00
        -11   -1    0    0    0    0  0.00000000000E+00  0.00000000000E+00  0.45593999997E+02  0.45594000000E+02  0.51100000000E-03 0. -1.
         11   -1    0    0    0    0 -0.00000000000E+00 -0.00000000000E+00 -0.45593999997E+02  0.45594000000E+02  0.51100000000E-03 0.  1.
    9900012    2    1    2    0    0 -0.44107512974E+02 -0.53241593359E+01 -0.74359975703E+01  0.46142318373E+02  0.10000005575E+02 0.  0.
         12    1    1    2    0    0  0.44107512974E+02  0.53241593359E+01  0.74359975703E+01  0.45045681627E+02  0.00000000000E+00 0. -1.
         11    1    3    3    0    0 -0.28972933254E+02 -0.24120993008E+01 -0.39930859928E+01  0.29346104007E+02  0.51100000000E-03 0. -1.
        -11    1    3    3    0    0 -0.85471118937E+01 -0.42042115677E+01 -0.33035592230E+01  0.10081766732E+02  0.51100000000E-03 0.  1.
         12    1    3    3    0    0 -0.65874678266E+01  0.12921515327E+01 -0.13935235456E+00  0.67144476339E+01  0.00000000000E+00 0. -1.
</event>
<event>
 7    1  0.2313935E-008  0.4614232E+02  0.7816164E-02  0.1320468E+00
        -11   -1    0    0    0    0  0.00000000000E+00  0.00000000000E+00  0.45593999997E+02  0.45594000000E+02  0.51100000000E-03 0. -1.
         11   -1    0    0    0    0 -0.00000000000E+00 -0.00000000000E+00 -0.45593999997E+02  0.45594000000E+02  0.51100000000E-03 0.  1.
    9900012    2    1    2    0    0  0.33909309349E+02 -0.13102831067E+02 -0.26600522790E+02  0.46142320349E+02  0.10000023598E+02 0.  0.
         12    1    1    2    0    0 -0.33909309349E+02  0.13102831067E+02  0.26600522790E+02  0.45045679651E+02  0.00000000000E+00 0. -1.
         11    1    3    3    0    0  0.13155100614E+02 -0.42176449622E+01 -0.52396901750E+01  0.14774963776E+02  0.51100000000E-03 0. -1.
        -11    1    3    3    0    0  0.13172498995E+02 -0.77869987731E+01 -0.14603764683E+02  0.21152352655E+02  0.51100000000E-03 0.  1.
        -12    1    3    3    0    0  0.75817097411E+01 -0.10981873319E+01 -0.67570679315E+01  0.10215003918E+02  0.00000000000E+00 0.  1.
</event>
<event>
 7    1  0.2313935E-008  0.4614232E+02  0.7816164E-02  0.1320468E+00
        -11   -1    0    0    0    0  0.00000000000E+00  0.00000000000E+00  0.45593999997E+02  0.45594000000E+02  0.51100000000E-03 0.  1.
         11   -1    0    0    0    0 -0.00000000000E+00 -0.00000000000E+00 -0.45593999997E+02  0.45594000000E+02  0.51100000000E-03 0. -1.
    9900012    2    1    2    0    0 -0.10714258125E+02  0.33449688758E+02  0.28203480284E+02  0.46142319793E+02  0.10000018529E+02 0.  0.
         12    1    1    2    0    0  0.10714258125E+02 -0.33449688758E+02 -0.28203480284E+02  0.45045680207E+02  0.00000000000E+00 0. -1.
         11    1    3    3    0    0  0.69878815930E+00  0.12295627500E+02  0.75878893802E+01  0.14465366432E+02  0.51100000000E-03 0. -1.
        -11    1    3    3    0    0 -0.17205511332E+01  0.38006241491E+01  0.34308701267E+01  0.54014729669E+01  0.51100000000E-03 0.  1.
         12    1    3    3    0    0 -0.96924951509E+01  0.17353437109E+02  0.17184720777E+02  0.26275480394E+02  0.00000000000E+00 0. -1.
</event>
<event>
 7    1  0.2313935E-008  0.4614232E+02  0.7816164E-02  0.1320468E+00
        -11   -1    0    0    0    0  0.00000000000E+00  0.00000000000E+00  0.45593999997E+02  0.45594000000E+02  0.51100000000E-03 0. -1.
         11   -1    0    0    0    0 -0.00000000000E+00 -0.00000000000E+00 -0.45593999997E+02  0.45594000000E+02  0.51100000000E-03 0.  1.
    9900012    2    1    2    0    0  0.14753705462E+02 -0.35464194716E+02  0.23531522694E+02  0.46142317721E+02  0.99999996344E+01 0.  0.
         12    1    1    2    0    0 -0.14753705462E+02  0.35464194716E+02 -0.23531522694E+02  0.45045682279E+02  0.00000000000E+00 0. -1.
         11    1    3    3    0    0  0.51771594983E+01 -0.42433196527E+01  0.19064779422E+01  0.69601293487E+01  0.51100000000E-03 0. -1.
        -11    1    3    3    0    0  0.55720563711E+01 -0.16794083535E+02  0.11292124683E+02  0.20990501045E+02  0.51100000000E-03 0.  1.
         12    1    3    3    0    0  0.40044895929E+01 -0.14426791528E+02  0.10332920068E+02  0.18191687327E+02  0.00000000000E+00 0. -1.
</event>
<event>
 7    1  0.2313935E-008  0.4614232E+02  0.7816164E-02  0.1320468E+00
        -11   -1    0    0    0    0  0.00000000000E+00  0.00000000000E+00  0.45593999997E+02  0.45594000000E+02  0.51100000000E-03 0.  1.
         11   -1    0    0    0    0 -0.00000000000E+00 -0.00000000000E+00 -0.45593999997E+02  0.45594000000E+02  0.51100000000E-03 0. -1.
    9900012    2    1    2    0    0 -0.27552804277E+02 -0.34849744035E+02  0.74465946309E+01  0.46142318138E+02  0.10000003434E+02 0.  0.
         12    1    1    2    0    0  0.27552804277E+02  0.34849744035E+02 -0.74465946309E+01  0.45045681862E+02  0.00000000000E+00 0. -1.
         11    1    3    3    0    0 -0.99708110994E+01 -0.80816972600E+01  0.96183064853E-01  0.12835114180E+02  0.51100000000E-03 0. -1.
        -11    1    3    3    0    0 -0.16419436318E+02 -0.22029367742E+02  0.51455645561E+01  0.27952956319E+02  0.51100000000E-03 0.  1.
         12    1    3    3    0    0 -0.11625568592E+01 -0.47386790336E+01  0.22048470099E+01  0.53542476382E+01  0.00000000000E+00 0. -1.
</event>
<event>
 7    1  0.2313935E-008  0.4614232E+02  0.7816164E-02  0.1320468E+00
        -11   -1    0    0    0    0  0.00000000000E+00  0.00000000000E+00  0.45593999997E+02  0.45594000000E+02  0.51100000000E-03 0.  1.
         11   -1    0    0    0    0 -0.00000000000E+00 -0.00000000000E+00 -0.45593999997E+02  0.45594000000E+02  0.51100000000E-03 0. -1.
    9900012    2    1    2    0    0 -0.25433858227E+02 -0.36972918302E+02 -0.39032861932E+01  0.46142317907E+02  0.10000001333E+02 0.  0.
         12    1    1    2    0    0  0.25433858227E+02  0.36972918302E+02  0.39032861932E+01  0.45045682093E+02  0.00000000000E+00 0. -1.
         11    1    3    3    0    0 -0.49026018822E+01 -0.27281637948E+01  0.21317014562E+00  0.56146081501E+01  0.51100000000E-03 0. -1.
        -11    1    3    3    0    0 -0.96159450547E+01 -0.12564814105E+02  0.45297946723E+00  0.15828649451E+02  0.51100000000E-03 0.  1.
         12    1    3    3    0    0 -0.10915311290E+02 -0.21679940402E+02 -0.45694358060E+01  0.24699060306E+02  0.00000000000E+00 0. -1.
</event>
<event>
 7    1  0.2313935E-008  0.4614232E+02  0.7816164E-02  0.1320468E+00
        -11   -1    0    0    0    0  0.00000000000E+00  0.00000000000E+00  0.45593999997E+02  0.45594000000E+02  0.51100000000E-03 0.  1.
         11   -1    0    0    0    0 -0.00000000000E+00 -0.00000000000E+00 -0.45593999997E+02  0.45594000000E+02  0.51100000000E-03 0. -1.
    9900012    2    1    2    0    0 -0.32000550042E+02 -0.62172153192E+00  0.31696873210E+02  0.46142317499E+02  0.99999976116E+01 0.  0.
         12    1    1    2    0    0  0.32000550042E+02  0.62172153192E+00 -0.31696873210E+02  0.45045682501E+02  0.00000000000E+00 0. -1.
         11    1    3    3    0    0 -0.14769160392E+02 -0.15936158402E+01  0.89390489077E+01  0.17337078928E+02  0.51100000000E-03 0. -1.
        -11    1    3    3    0    0 -0.65521554724E+01  0.19801291765E+01  0.74970649341E+01  0.10151730679E+02  0.51100000000E-03 0.  1.
        -12    1    3    3    0    0 -0.10679234177E+02 -0.10082348682E+01  0.15260759369E+02  0.18653507892E+02  0.00000000000E+00 0.  1.
</event>
<event>
 7    1  0.2313935E-008  0.4614232E+02  0.7816164E-02  0.1320468E+00
        -11   -1    0    0    0    0  0.00000000000E+00  0.00000000000E+00  0.45593999997E+02  0.45594000000E+02  0.51100000000E-03 0. -1.
         11   -1    0    0    0    0 -0.00000000000E+00 -0.00000000000E+00 -0.45593999997E+02  0.45594000000E+02  0.51100000000E-03 0.  1.
    9900012    2    1    2    0    0 -0.42304529213E+02 -0.11996437894E+02  0.97737172810E+01  0.46142320256E+02  0.10000022754E+02 0.  0.
         12    1    1    2    0    0  0.42304529213E+02  0.11996437894E+02 -0.97737172810E+01  0.45045679744E+02  0.00000000000E+00 0. -1.
         11    1    3    3    0    0 -0.61756740801E+01 -0.31903012524E+01  0.42143521337E+01  0.81288213532E+01  0.51100000000E-03 0. -1.
        -11    1    3    3    0    0 -0.14115187932E+02 -0.29439547705E+01  0.48806351945E+01  0.15222549070E+02  0.51100000000E-03 0.  1.
        -12    1    3    3    0    0 -0.22013667201E+02 -0.58621818713E+01  0.67872995283E+00  0.22790949833E+02  0.00000000000E+00 0.  1.
</event>
<event>
 7    1  0.2313935E-008  0.4614232E+02  0.7816164E-02  0.1320468E+00
        -11   -1    0    0    0    0  0.00000000000E+00  0.00000000000E+00  0.45593999997E+02  0.45594000000E+02  0.51100000000E-03 0.  1.
         11   -1    0    0    0    0 -0.00000000000E+00 -0.00000000000E+00 -0.45593999997E+02  0.45594000000E+02  0.51100000000E-03 0. -1.
    9900012    2    1    2    0    0  0.28019567185E+02 -0.23145529236E+02  0.26613943543E+02  0.46142315859E+02  0.99999826567E+01 0.  0.
         12    1    1    2    0    0 -0.28019567185E+02  0.23145529236E+02 -0.26613943543E+02  0.45045684141E+02  0.00000000000E+00 0. -1.
         11    1    3    3    0    0  0.31888487013E+01 -0.62085247783E+00  0.11157526402E+01  0.34349844329E+01  0.51100000000E-03 0. -1.
        -11    1    3    3    0    0  0.15579989823E+02 -0.10283125495E+02  0.16533622120E+02  0.24936708153E+02  0.51100000000E-03 0.  1.
         12    1    3    3    0    0  0.92507286598E+01 -0.12241551263E+02  0.89645687825E+01  0.17770623273E+02  0.00000000000E+00 0. -1.
</event>
<event>
 7    1  0.2313935E-008  0.4614232E+02  0.7816164E-02  0.1320468E+00
        -11   -1    0    0    0    0  0.00000000000E+00  0.00000000000E+00  0.45593999997E+02  0.45594000000E+02  0.51100000000E-03 0. -1.
         11   -1    0    0    0    0 -0.00000000000E+00 -0.00000000000E+00 -0.45593999997E+02  0.45594000000E+02  0.51100000000E-03 0.  1.
    9900012    2    1    2    0    0  0.15506931230E+02 -0.37345088035E+02 -0.19849254746E+02  0.46142318404E+02  0.10000005860E+02 0.  0.
         12    1    1    2    0    0 -0.15506931230E+02  0.37345088035E+02  0.19849254746E+02  0.45045681596E+02  0.00000000000E+00 0. -1.
         11    1    3    3    0    0  0.29580714461E+01 -0.82888437461E+01 -0.22376971494E+01  0.90808813515E+01  0.51100000000E-03 0.  1.
        -11    1    3    3    0    0  0.71053312328E+01 -0.19963018527E+02 -0.76843100356E+01  0.22540107844E+02  0.51100000000E-03 0. -1.
         12    1    3    3    0    0  0.54435285514E+01 -0.90932257623E+01 -0.99272475606E+01  0.14521329209E+02  0.00000000000E+00 0. -1.
</event>
<event>
 7    1  0.2938462E-008  0.4614232E+02  0.7816164E-02  0.1320468E+00
        -11   -1    0    0    0    0  0.00000000000E+00  0.00000000000E+00  0.45593999997E+02  0.45594000000E+02  0.51100000000E-03 0. -1.
         11   -1    0    0    0    0 -0.00000000000E+00 -0.00000000000E+00 -0.45593999997E+02  0.45594000000E+02  0.51100000000E-03 0.  1.
    9900012    2    1    2    0    0 -0.43299348319E+02  0.12184462479E+02  0.24122074784E+01  0.46142318346E+02  0.10000005336E+02 0.  0.
         12    1    1    2    0    0  0.43299348319E+02 -0.12184462479E+02 -0.24122074784E+01  0.45045681654E+02  0.00000000000E+00 0. -1.
         11    1    3    3    0    0 -0.16024308533E+01  0.21590402276E+01  0.16855213212E+00  0.26940024920E+01  0.51100000000E-03 0. -1.
        -11    1    3    3    0    0 -0.36252705269E+01  0.26335758196E+01  0.12542090521E+01  0.46531009659E+01  0.51100000000E-03 0.  1.
        -12    1    3    3    0    0 -0.38071646938E+02  0.73918464316E+01  0.98944629416E+00  0.38795214888E+02  0.00000000000E+00 0.  1.
</event>
<event>
 7    1  0.2313935E-008  0.4614232E+02  0.7816164E-02  0.1320468E+00
        -11   -1    0    0    0    0  0.00000000000E+00  0.00000000000E+00  0.45593999997E+02  0.45594000000E+02  0.51100000000E-03 0. -1.
         11   -1    0    0    0    0 -0.00000000000E+00 -0.00000000000E+00 -0.45593999997E+02  0.45594000000E+02  0.51100000000E-03 0.  1.
    9900012    2    1    2    0    0  0.31503312551E+02  0.26261184815E+02 -0.18628068114E+02  0.46142318173E+02  0.10000003759E+02 0.  0.
         12    1    1    2    0    0 -0.31503312551E+02 -0.26261184815E+02  0.18628068114E+02  0.45045681827E+02  0.00000000000E+00 0. -1.
         11    1    3    3    0    0  0.89379168514E+01  0.95325742833E+01 -0.58948881853E+01  0.14335481753E+02  0.51100000000E-03 0.  1.
        -11    1    3    3    0    0  0.23108482728E+02  0.15701259921E+02 -0.12561892580E+02  0.30632216416E+02  0.51100000000E-03 0. -1.
         12    1    3    3    0    0 -0.54308702880E+00  0.10273506108E+01 -0.17128734789E+00  0.11746200040E+01  0.00000000000E+00 0. -1.
</event>
<event>
 7    1  0.2313935E-008  0.4614232E+02  0.7816164E-02  0.1320468E+00
        -11   -1    0    0    0    0  0.00000000000E+00  0.00000000000E+00  0.45593999997E+02  0.45594000000E+02  0.51100000000E-03 0. -1.
         11   -1    0    0    0    0 -0.00000000000E+00 -0.00000000000E+00 -0.45593999997E+02  0.45594000000E+02  0.51100000000E-03 0.  1.
    9900012    2    1    2    0    0 -0.28953613511E+02  0.33885038944E+02  0.65273241314E+01  0.46142316967E+02  0.99999927597E+01 0.  0.
         12    1    1    2    0    0  0.28953613511E+02 -0.33885038944E+02 -0.65273241314E+01  0.45045683033E+02  0.00000000000E+00 0. -1.
         11    1    3    3    0    0 -0.74611719188E+01  0.12211113371E+02  0.14359149331E+01  0.14382010573E+02  0.51100000000E-03 0. -1.
        -11    1    3    3    0    0 -0.19518002100E+02  0.17340570135E+02  0.22269389969E+01  0.26203187519E+02  0.51100000000E-03 0.  1.
        -12    1    3    3    0    0 -0.19744394920E+01  0.43333554381E+01  0.28644702014E+01  0.55571188754E+01  0.00000000000E+00 0.  1.
</event>
<event>
 7    1  0.2313935E-008  0.4614232E+02  0.7816164E-02  0.1320468E+00
        -11   -1    0    0    0    0  0.00000000000E+00  0.00000000000E+00  0.45593999997E+02  0.45594000000E+02  0.51100000000E-03 0.  1.
         11   -1    0    0    0    0 -0.00000000000E+00 -0.00000000000E+00 -0.45593999997E+02  0.45594000000E+02  0.51100000000E-03 0. -1.
    9900012    2    1    2    0    0  0.20616644827E+02 -0.33354813197E+02 -0.22170334091E+02  0.46142319619E+02  0.10000016938E+02 0.  0.
         12    1    1    2    0    0 -0.20616644827E+02  0.33354813197E+02  0.22170334091E+02  0.45045680381E+02  0.00000000000E+00 0. -1.
         11    1    3    3    0    0  0.44368518782E+01 -0.38142223856E+01 -0.14625962160E+01  0.60310144212E+01  0.51100000000E-03 0. -1.
        -11    1    3    3    0    0  0.45057154461E+01 -0.14430530633E+02 -0.10960843961E+02  0.18673022965E+02  0.51100000000E-03 0.  1.
        -12    1    3    3    0    0  0.11674077503E+02 -0.15110060178E+02 -0.97468939135E+01  0.21438282233E+02  0.00000000000E+00 0.  1.
</event>
<event>
 7    1  0.2313935E-008  0.4614232E+02  0.7816164E-02  0.1320468E+00
        -11   -1    0    0    0    0  0.00000000000E+00  0.00000000000E+00  0.45593999997E+02  0.45594000000E+02  0.51100000000E-03 0.  1.
         11   -1    0    0    0    0 -0.00000000000E+00 -0.00000000000E+00 -0.45593999997E+02  0.45594000000E+02  0.51100000000E-03 0. -1.
    9900012    2    1    2    0    0 -0.32671770589E+02  0.43215559938E+00  0.31007775481E+02  0.46142317719E+02  0.99999996157E+01 0.  0.
         12    1    1    2    0    0  0.32671770589E+02 -0.43215559938E+00 -0.31007775481E+02  0.45045682281E+02  0.00000000000E+00 0. -1.
         11    1    3    3    0    0 -0.36199989770E+01  0.32619999616E+01  0.37077556918E+01  0.61231110454E+01  0.51100000000E-03 0. -1.
        -11    1    3    3    0    0 -0.21566708794E+02 -0.14623403507E+01  0.21053090439E+02  0.30174392865E+02  0.51100000000E-03 0.  1.
         12    1    3    3    0    0 -0.74850628172E+01 -0.13675040115E+01  0.62469293510E+01  0.98448138081E+01  0.00000000000E+00 0. -1.
</event>
<event>
 7    1  0.2313935E-008  0.4614232E+02  0.7816164E-02  0.1320468E+00
        -11   -1    0    0    0    0  0.00000000000E+00  0.00000000000E+00  0.45593999997E+02  0.45594000000E+02  0.51100000000E-03 0.  1.
         11   -1    0    0    0    0 -0.00000000000E+00 -0.00000000000E+00 -0.45593999997E+02  0.45594000000E+02  0.51100000000E-03 0. -1.
    9900012    2    1    2    0    0  0.13120632677E+02 -0.41712155132E+02  0.10819358337E+02  0.46142318715E+02  0.10000008694E+02 0.  0.
         12    1    1    2    0    0 -0.13120632677E+02  0.41712155132E+02 -0.10819358337E+02  0.45045681285E+02  0.00000000000E+00 0. -1.
         11    1    3    3    0    0 -0.98313940978E+00 -0.10953301271E+01  0.95145833333E+00  0.17525936230E+01  0.51100000000E-03 0. -1.
        -11    1    3    3    0    0  0.51349944768E+01 -0.22054669579E+02  0.58235215322E+01  0.23381403333E+02  0.51100000000E-03 0.  1.
        -12    1    3    3    0    0  0.89687776101E+01 -0.18562155426E+02  0.40443784714E+01  0.21008321759E+02  0.00000000000E+00 0.  1.
</event>
<event>
 7    1  0.2313935E-008  0.4614232E+02  0.7816164E-02  0.1320468E+00
        -11   -1    0    0    0    0  0.00000000000E+00  0.00000000000E+00  0.45593999997E+02  0.45594000000E+02  0.51100000000E-03 0. -1.
         11   -1    0    0    0    0 -0.00000000000E+00 -0.00000000000E+00 -0.45593999997E+02  0.45594000000E+02  0.51100000000E-03 0.  1.
    9900012    2    1    2    0    0  0.26937363026E+01  0.39634644658E+02 -0.21235635069E+02  0.46142317973E+02  0.10000001936E+02 0.  0.
         12    1    1    2    0    0 -0.26937363026E+01 -0.39634644658E+02  0.21235635069E+02  0.45045682027E+02  0.00000000000E+00 0. -1.
         11    1    3    3    0    0  0.30626870247E+00  0.40199718793E+01 -0.13853670920E+00  0.40340013770E+01  0.51100000000E-03 0. -1.
        -11    1    3    3    0    0  0.11391048690E+01  0.34914390059E+02 -0.19684458648E+02  0.40097258081E+02  0.51100000000E-03 0.  1.
        -12    1    3    3    0    0  0.12483627311E+01  0.70028271990E+00 -0.14126397117E+01  0.20110585151E+01  0.00000000000E+00 0.  1.
</event>
<event>
 7    1  0.2313935E-008  0.4614233E+02  0.7816164E-02  0.1320468E+00
        -11   -1    0    0    0    0  0.00000000000E+00  0.00000000000E+00  0.45593999997E+02  0.45594000000E+02  0.51100000000E-03 0.  1.
         11   -1    0    0    0    0 -0.00000000000E+00 -0.00000000000E+00 -0.45593999997E+02  0.45594000000E+02  0.51100000000E-03 0. -1.
    9900012    2    1    2    0    0 -0.42035785445E+02 -0.63131636885E+01  0.14908029430E+02  0.46142327231E+02  0.10000086350E+02 0.  0.
         12    1    1    2    0    0  0.42035785445E+02  0.63131636885E+01 -0.14908029430E+02  0.45045672769E+02  0.00000000000E+00 0. -1.
         11    1    3    3    0    0 -0.19516651597E+02 -0.58797424261E+01  0.89024771284E+01  0.22242418030E+02  0.51100000000E-03 0. -1.
        -11    1    3    3    0    0 -0.22088589982E+02 -0.78111614000E+00  0.48639767456E+01  0.22631266422E+02  0.51100000000E-03 0.  1.
        -12    1    3    3    0    0 -0.43054386662E+00  0.34769487761E+00  0.11415755563E+01  0.12686427786E+01  0.00000000000E+00 0.  1.
</event>
<event>
 7    1  0.2313935E-008  0.4614232E+02  0.7816164E-02  0.1320468E+00
        -11   -1    0    0    0    0  0.00000000000E+00  0.00000000000E+00  0.45593999997E+02  0.45594000000E+02  0.51100000000E-03 0.  1.
         11   -1    0    0    0    0 -0.00000000000E+00 -0.00000000000E+00 -0.45593999997E+02  0.45594000000E+02  0.51100000000E-03 0. -1.
    9900012    2    1    2    0    0 -0.20915960908E+02  0.35645927174E+02  0.17916582558E+02  0.46142317905E+02  0.10000001314E+02 0.  0.
         12    1    1    2    0    0  0.20915960908E+02 -0.35645927174E+02 -0.17916582558E+02  0.45045682095E+02  0.00000000000E+00 0. -1.
         11    1    3    3    0    0 -0.75852812692E+01  0.90168111564E+01  0.32101396370E+01  0.12212467896E+02  0.51100000000E-03 0. -1.
        -11    1    3    3    0    0 -0.96934050096E+01  0.12284070968E+02  0.59942421937E+01  0.16756832635E+02  0.51100000000E-03 0.  1.
         12    1    3    3    0    0 -0.36372746291E+01  0.14345045050E+02  0.87122007274E+01  0.17173017374E+02  0.00000000000E+00 0. -1.
</event>
<event>
 7    1  0.2313935E-008  0.4614232E+02  0.7816164E-02  0.1320468E+00
        -11   -1    0    0    0    0  0.00000000000E+00  0.00000000000E+00  0.45593999997E+02  0.45594000000E+02  0.51100000000E-03 0. -1.
         11   -1    0    0    0    0 -0.00000000000E+00 -0.00000000000E+00 -0.45593999997E+02  0.45594000000E+02  0.51100000000E-03 0.  1.
    9900012    2    1    2    0    0 -0.14844384528E+02 -0.80287524073E+01 -0.41764779887E+02  0.46142318118E+02  0.10000003254E+02 0.  0.
         12    1    1    2    0    0  0.14844384528E+02  0.80287524073E+01  0.41764779887E+02  0.45045681882E+02  0.00000000000E+00 0. -1.
         11    1    3    3    0    0 -0.20128070957E+01 -0.42452463920E+01 -0.15889214164E+02  0.16569267827E+02  0.51100000000E-03 0. -1.
        -11    1    3    3    0    0 -0.11360440188E+02 -0.16976348798E+01 -0.23124684473E+02  0.25820391122E+02  0.51100000000E-03 0.  1.
        -12    1    3    3    0    0 -0.14711372442E+01 -0.20858711355E+01 -0.27508812502E+01  0.37526591689E+01  0.00000000000E+00 0.  1.
</event>
<event>
 7    1  0.2313935E-008  0.4614232E+02  0.7816164E-02  0.1320468E+00
        -11   -1    0    0    0    0  0.00000000000E+00  0.00000000000E+00  0.45593999997E+02  0.45594000000E+02  0.51100000000E-03 0.  1.
         11   -1    0    0    0    0 -0.00000000000E+00 -0.00000000000E+00 -0.45593999997E+02  0.45594000000E+02  0.51100000000E-03 0. -1.
    9900012    2    1    2    0    0 -0.40613351781E+02  0.17290553867E+02  0.89836326715E+01  0.46142320386E+02  0.10000023933E+02 0.  0.
         12    1    1    2    0    0  0.40613351781E+02 -0.17290553867E+02 -0.89836326715E+01  0.45045679614E+02  0.00000000000E+00 0. -1.
         11    1    3    3    0    0 -0.17683365815E+02  0.46165559403E+01  0.21891077685E+01  0.18406689230E+02  0.51100000000E-03 0. -1.
        -11    1    3    3    0    0 -0.20043938743E+02  0.13085343294E+02  0.65099856111E+01  0.24806563695E+02  0.51100000000E-03 0.  1.
        -12    1    3    3    0    0 -0.28860472230E+01 -0.41134536645E+00  0.28453929194E+00  0.29290674613E+01  0.00000000000E+00 0.  1.
</event>
<event>
 7    1  0.2313935E-008  0.4614232E+02  0.7816164E-02  0.1320468E+00
        -11   -1    0    0    0    0  0.00000000000E+00  0.00000000000E+00  0.45593999997E+02  0.45594000000E+02  0.51100000000E-03 0. -1.
         11   -1    0    0    0    0 -0.00000000000E+00 -0.00000000000E+00 -0.45593999997E+02  0.45594000000E+02  0.51100000000E-03 0.  1.
    9900012    2    1    2    0    0  0.15079768531E+02  0.30635865577E+02 -0.29379547217E+02  0.46142317929E+02  0.10000001534E+02 0.  0.
         12    1    1    2    0    0 -0.15079768531E+02 -0.30635865577E+02  0.29379547217E+02  0.45045682071E+02  0.00000000000E+00 0. -1.
         11    1    3    3    0    0 -0.11664205588E+01  0.15989798658E+01 -0.26678545014E+01  0.33218551192E+01  0.51100000000E-03 0. -1.
        -11    1    3    3    0    0  0.42042726044E+01  0.99980706613E+01 -0.10210593696E+02  0.14896091735E+02  0.51100000000E-03 0.  1.
         12    1    3    3    0    0  0.12041916485E+02  0.19038815050E+02 -0.16501099019E+02  0.27924371075E+02  0.00000000000E+00 0. -1.
</event>
<event>
 7    1  0.2313935E-008  0.4614232E+02  0.7816164E-02  0.1320468E+00
        -11   -1    0    0    0    0  0.00000000000E+00  0.00000000000E+00  0.45593999997E+02  0.45594000000E+02  0.51100000000E-03 0.  1.
         11   -1    0    0    0    0 -0.00000000000E+00 -0.00000000000E+00 -0.45593999997E+02  0.45594000000E+02  0.51100000000E-03 0. -1.
    9900012    2    1    2    0    0  0.27622955927E+02  0.31297244362E+02  0.16928332863E+02  0.46142315941E+02  0.99999834033E+01 0.  0.
         12    1    1    2    0    0 -0.27622955927E+02 -0.31297244362E+02 -0.16928332863E+02  0.45045684059E+02  0.00000000000E+00 0. -1.
         11    1    3    3    0    0  0.71294941019E+00  0.15368590310E+01 -0.40870725026E+00  0.17427777886E+01  0.51100000000E-03 0. -1.
        -11    1    3    3    0    0  0.70362833121E+01  0.33359929111E+01  0.39080280104E+01  0.87126812602E+01  0.51100000000E-03 0.  1.
        -12    1    3    3    0    0  0.19873723205E+02  0.26424392420E+02  0.13429012103E+02  0.35686856892E+02  0.00000000000E+00 0.  1.
</event>
<event>
 7    1  0.2313935E-008  0.4614232E+02  0.7816164E-02  0.1320468E+00
        -11   -1    0    0    0    0  0.00000000000E+00  0.00000000000E+00  0.45593999997E+02  0.45594000000E+02  0.51100000000E-03 0. -1.
         11   -1    0    0    0    0 -0.00000000000E+00 -0.00000000000E+00 -0.45593999997E+02  0.45594000000E+02  0.51100000000E-03 0.  1.
    9900012    2    1    2    0    0 -0.32834783190E+02  0.20441932431E+02 -0.23089342908E+02  0.46142319357E+02  0.10000014556E+02 0.  0.
         12    1    1    2    0    0  0.32834783190E+02 -0.20441932431E+02  0.23089342908E+02  0.45045680643E+02  0.00000000000E+00 0. -1.
         11    1    3    3    0    0 -0.99302760668E+00 -0.47898633312E+00 -0.92096862613E+00  0.14365636799E+01  0.51100000000E-03 0. -1.
        -11    1    3    3    0    0 -0.74934014636E+01  0.87522843804E+01 -0.52950550263E+01  0.12680345238E+02  0.51100000000E-03 0.  1.
        -12    1    3    3    0    0 -0.24348354120E+02  0.12168634383E+02 -0.16873319255E+02  0.32025410439E+02  0.00000000000E+00 0.  1.
</event>
<event>
 7    1  0.2313935E-008  0.4614231E+02  0.7816164E-02  0.1320468E+00
        -11   -1    0    0    0    0  0.00000000000E+00  0.00000000000E+00  0.45593999997E+02  0.45594000000E+02  0.51100000000E-03 0. -1.
         11   -1    0    0    0    0 -0.00000000000E+00 -0.00000000000E+00 -0.45593999997E+02  0.45594000000E+02  0.51100000000E-03 0.  1.
    9900012    2    1    2    0    0 -0.18372170719E+02  0.19593921580E+02 -0.36161520294E+02  0.46142312418E+02  0.99999512729E+01 0.  0.
         12    1    1    2    0    0  0.18372170719E+02 -0.19593921580E+02  0.36161520294E+02  0.45045687582E+02  0.00000000000E+00 0. -1.
         11    1    3    3    0    0 -0.87732574140E+01  0.66180790236E+01 -0.13202472086E+02  0.17177726423E+02  0.51100000000E-03 0. -1.
        -11    1    3    3    0    0 -0.82788561178E+01  0.92278636890E+01 -0.11784695553E+02  0.17104735497E+02  0.51100000000E-03 0.  1.
        -12    1    3    3    0    0 -0.13200571869E+01  0.37479788672E+01 -0.11174352655E+02  0.11859850498E+02  0.00000000000E+00 0.  1.
</event>
<event>
 7    1  0.2313935E-008  0.4614232E+02  0.7816164E-02  0.1320468E+00
        -11   -1    0    0    0    0  0.00000000000E+00  0.00000000000E+00  0.45593999997E+02  0.45594000000E+02  0.51100000000E-03 0.  1.
         11   -1    0    0    0    0 -0.00000000000E+00 -0.00000000000E+00 -0.45593999997E+02  0.45594000000E+02  0.51100000000E-03 0. -1.
    9900012    2    1    2    0    0 -0.35209760936E+02  0.27903142071E+02 -0.32864852714E+01  0.46142316654E+02  0.99999899057E+01 0.  0.
         12    1    1    2    0    0  0.35209760936E+02 -0.27903142071E+02  0.32864852714E+01  0.45045683346E+02  0.00000000000E+00 0. -1.
         11    1    3    3    0    0 -0.57822848298E+01  0.64662629758E+01  0.13845121573E+01  0.87843183515E+01  0.51100000000E-03 0. -1.
        -11    1    3    3    0    0 -0.24817524104E+02  0.19766827313E+02 -0.20387519445E+01  0.31792978383E+02  0.51100000000E-03 0.  1.
         12    1    3    3    0    0 -0.46099520023E+01  0.16700517825E+01 -0.26322454842E+01  0.55650199199E+01  0.00000000000E+00 0. -1.
</event>
<event>
 7    1  0.2313935E-008  0.4614232E+02  0.7816164E-02  0.1320468E+00
        -11   -1    0    0    0    0  0.00000000000E+00  0.00000000000E+00  0.45593999997E+02  0.45594000000E+02  0.51100000000E-03 0.  1.
         11   -1    0    0    0    0 -0.00000000000E+00 -0.00000000000E+00 -0.45593999997E+02  0.45594000000E+02  0.51100000000E-03 0. -1.
    9900012    2    1    2    0    0  0.31036385288E+02  0.32637383149E+02  0.81073220469E+00  0.46142320104E+02  0.10000021367E+02 0.  0.
         12    1    1    2    0    0 -0.31036385288E+02 -0.32637383149E+02 -0.81073220469E+00  0.45045679896E+02  0.00000000000E+00 0. -1.
         11    1    3    3    0    0  0.13655634996E+02  0.15083412285E+02 -0.13664941417E+01  0.20392474097E+02  0.51100000000E-03 0. -1.
        -11    1    3    3    0    0  0.76723221233E+01  0.92678935795E+01 -0.22499517571E+01  0.12240125054E+02  0.51100000000E-03 0.  1.
        -12    1    3    3    0    0  0.97084281686E+01  0.82860772846E+01  0.44271781036E+01  0.13509720953E+02  0.00000000000E+00 0.  1.
</event>
<event>
 7    1  0.2313935E-008  0.4614232E+02  0.7816164E-02  0.1320468E+00
        -11   -1    0    0    0    0  0.00000000000E+00  0.00000000000E+00  0.45593999997E+02  0.45594000000E+02  0.51100000000E-03 0.  1.
         11   -1    0    0    0    0 -0.00000000000E+00 -0.00000000000E+00 -0.45593999997E+02  0.45594000000E+02  0.51100000000E-03 0. -1.
    9900012    2    1    2    0    0 -0.33602966767E+02  0.84771098875E+01  0.28776601048E+02  0.46142317238E+02  0.99999952340E+01 0.  0.
         12    1    1    2    0    0  0.33602966767E+02 -0.84771098875E+01 -0.28776601048E+02  0.45045682762E+02  0.00000000000E+00 0. -1.
         11    1    3    3    0    0 -0.36865405637E+01 -0.12422719135E+00  0.58154113530E+01  0.68865828383E+01  0.51100000000E-03 0.  1.
        -11    1    3    3    0    0 -0.41492796494E+01 -0.10945822155E+01  0.35559567252E+01  0.55731014999E+01  0.51100000000E-03 0. -1.
        -12    1    3    3    0    0 -0.25767146553E+02  0.96959192944E+01  0.19405232970E+02  0.33682632900E+02  0.00000000000E+00 0.  1.
</event>
<event>
 7    1  0.2313935E-008  0.4614232E+02  0.7816164E-02  0.1320468E+00
        -11   -1    0    0    0    0  0.00000000000E+00  0.00000000000E+00  0.45593999997E+02  0.45594000000E+02  0.51100000000E-03 0.  1.
         11   -1    0    0    0    0 -0.00000000000E+00 -0.00000000000E+00 -0.45593999997E+02  0.45594000000E+02  0.51100000000E-03 0. -1.
    9900012    2    1    2    0    0 -0.30309251541E+02  0.21003582892E+02  0.25871070721E+02  0.46142317371E+02  0.99999964449E+01 0.  0.
         12    1    1    2    0    0  0.30309251541E+02 -0.21003582892E+02 -0.25871070721E+02  0.45045682629E+02  0.00000000000E+00 0. -1.
         11    1    3    3    0    0 -0.12744381852E+01 -0.12030358240E+00  0.11495512307E+01  0.17205039765E+01  0.51100000000E-03 0. -1.
        -11    1    3    3    0    0 -0.29543015096E+02  0.21227373492E+02  0.24490688028E+02  0.43854132379E+02  0.51100000000E-03 0.  1.
        -12    1    3    3    0    0  0.50820174058E+00 -0.10348701809E+00  0.23083146192E+00  0.56768101594E+00  0.00000000000E+00 0.  1.
</event>
<event>
 7    1  0.2313935E-008  0.4614232E+02  0.7816164E-02  0.1320468E+00
        -11   -1    0    0    0    0  0.00000000000E+00  0.00000000000E+00  0.45593999997E+02  0.45594000000E+02  0.51100000000E-03 0.  1.
         11   -1    0    0    0    0 -0.00000000000E+00 -0.00000000000E+00 -0.45593999997E+02  0.45594000000E+02  0.51100000000E-03 0. -1.
    9900012    2    1    2    0    0  0.12977444458E+02  0.44084936940E+01  0.42909958942E+02  0.46142318101E+02  0.10000003101E+02 0.  0.
         12    1    1    2    0    0 -0.12977444458E+02 -0.44084936940E+01 -0.42909958942E+02  0.45045681899E+02  0.00000000000E+00 0. -1.
         11    1    3    3    0    0  0.11608606738E+02  0.30012389693E+01  0.35760384717E+02  0.37717002812E+02  0.51100000000E-03 0. -1.
        -11    1    3    3    0    0  0.65454106556E+00 -0.95708245029E-01  0.66571280033E+01  0.66899131226E+01  0.51100000000E-03 0.  1.
         12    1    3    3    0    0  0.71429665388E+00  0.15029629697E+01  0.49244622205E+00  0.17354021665E+01  0.00000000000E+00 0. -1.
</event>
<event>
 7    1  0.2313935E-008  0.4614232E+02  0.7816164E-02  0.1320468E+00
        -11   -1    0    0    0    0  0.00000000000E+00  0.00000000000E+00  0.45593999997E+02  0.45594000000E+02  0.51100000000E-03 0.  1.
         11   -1    0    0    0    0 -0.00000000000E+00 -0.00000000000E+00 -0.45593999997E+02  0.45594000000E+02  0.51100000000E-03 0. -1.
    9900012    2    1    2    0    0  0.12670672595E+02  0.15688659172E+02  0.40279442518E+02  0.46142318074E+02  0.10000002855E+02 0.  0.
         12    1    1    2    0    0 -0.12670672595E+02 -0.15688659172E+02 -0.40279442518E+02  0.45045681926E+02  0.00000000000E+00 0. -1.
         11    1    3    3    0    0  0.31979542007E+01  0.12225910070E+01  0.60192962061E+01  0.69248514004E+01  0.51100000000E-03 0. -1.
        -11    1    3    3    0    0  0.10585098798E+02  0.11072405965E+02  0.25355723889E+02  0.29623558608E+02  0.51100000000E-03 0.  1.
         12    1    3    3    0    0 -0.11123804037E+01  0.33936622003E+01  0.89044224228E+01  0.95939080658E+01  0.00000000000E+00 0. -1.
</event>
<event>
 7    1  0.2313935E-008  0.4614232E+02  0.7816164E-02  0.1320468E+00
        -11   -1    0    0    0    0  0.00000000000E+00  0.00000000000E+00  0.45593999997E+02  0.45594000000E+02  0.51100000000E-03 0.  1.
         11   -1    0    0    0    0 -0.00000000000E+00 -0.00000000000E+00 -0.45593999997E+02  0.45594000000E+02  0.51100000000E-03 0. -1.
    9900012    2    1    2    0    0  0.20664343305E+02  0.33782912530E+02 -0.21466560248E+02  0.46142317941E+02  0.10000001642E+02 0.  0.
         12    1    1    2    0    0 -0.20664343305E+02 -0.33782912530E+02  0.21466560248E+02  0.45045682059E+02  0.00000000000E+00 0. -1.
         11    1    3    3    0    0  0.44791416391E+01  0.68770729745E+01 -0.72727514494E+01  0.10965844994E+02  0.51100000000E-03 0. -1.
        -11    1    3    3    0    0  0.61729838726E+01  0.16999046710E+02 -0.85196723185E+01  0.19991451563E+02  0.51100000000E-03 0.  1.
         12    1    3    3    0    0  0.10012217794E+02  0.99067928461E+01 -0.56741364799E+01  0.15185021384E+02  0.00000000000E+00 0. -1.
</event>
<event>
 7    1  0.2313935E-008  0.4614232E+02  0.7816164E-02  0.1320468E+00
        -11   -1    0    0    0    0  0.00000000000E+00  0.00000000000E+00  0.45593999997E+02  0.45594000000E+02  0.51100000000E-03 0. -1.
         11   -1    0    0    0    0 -0.00000000000E+00 -0.00000000000E+00 -0.45593999997E+02  0.45594000000E+02  0.51100000000E-03 0.  1.
    9900012    2    1    2    0    0  0.20752146835E+02 -0.75474561154E+01 -0.39261912960E+02  0.46142317617E+02  0.99999986839E+01 0.  0.
         12    1    1    2    0    0 -0.20752146835E+02  0.75474561154E+01  0.39261912960E+02  0.45045682383E+02  0.00000000000E+00 0. -1.
         11    1    3    3    0    0  0.12415887051E+02 -0.50718238988E+01 -0.18390900942E+02  0.22761873531E+02  0.51100000000E-03 0.  1.
        -11    1    3    3    0    0  0.35139068961E+01 -0.37713844541E+01 -0.74397950271E+01  0.90510459441E+01  0.51100000000E-03 0. -1.
        -12    1    3    3    0    0  0.48223528873E+01  0.12957522375E+01 -0.13431216992E+02  0.14329398142E+02  0.00000000000E+00 0.  1.
</event>
<event>
 7    1  0.2313935E-008  0.4614232E+02  0.7816164E-02  0.1320468E+00
        -11   -1    0    0    0    0  0.00000000000E+00  0.00000000000E+00  0.45593999997E+02  0.45594000000E+02  0.51100000000E-03 0.  1.
         11   -1    0    0    0    0 -0.00000000000E+00 -0.00000000000E+00 -0.45593999997E+02  0.45594000000E+02  0.51100000000E-03 0. -1.
    9900012    2    1    2    0    0 -0.28823311808E+02  0.29841947097E+02 -0.17543896510E+02  0.46142318576E+02  0.10000007435E+02 0.  0.
         12    1    1    2    0    0  0.28823311808E+02 -0.29841947097E+02  0.17543896510E+02  0.45045681424E+02  0.00000000000E+00 0. -1.
         11    1    3    3    0    0 -0.15586876524E+02  0.12431730177E+02 -0.11456246185E+02  0.22994438716E+02  0.51100000000E-03 0. -1.
        -11    1    3    3    0    0 -0.20844314468E-01 -0.98973264546E-01 -0.50067443556E+00  0.51078894280E+00  0.51100000000E-03 0.  1.
        -12    1    3    3    0    0 -0.13215590969E+02  0.17509190185E+02 -0.55869758898E+01  0.22637090917E+02  0.00000000000E+00 0.  1.
</event>
<event>
 7    1  0.2313935E-008  0.4614232E+02  0.7816164E-02  0.1320468E+00
        -11   -1    0    0    0    0  0.00000000000E+00  0.00000000000E+00  0.45593999997E+02  0.45594000000E+02  0.51100000000E-03 0.  1.
         11   -1    0    0    0    0 -0.00000000000E+00 -0.00000000000E+00 -0.45593999997E+02  0.45594000000E+02  0.51100000000E-03 0. -1.
    9900012    2    1    2    0    0 -0.44728206922E+02 -0.53062991042E+01  0.58664586224E+00  0.46142318098E+02  0.10000003075E+02 0.  0.
         12    1    1    2    0    0  0.44728206922E+02  0.53062991042E+01 -0.58664586224E+00  0.45045681902E+02  0.00000000000E+00 0. -1.
         11    1    3    3    0    0 -0.25928519765E+02  0.58911388075E+00  0.29438824794E+01  0.26101755433E+02  0.51100000000E-03 0. -1.
        -11    1    3    3    0    0 -0.38363904882E+01 -0.13003026143E+01  0.64642179562E+00  0.41020166097E+01  0.51100000000E-03 0.  1.
         12    1    3    3    0    0 -0.14963296668E+02 -0.45951103707E+01 -0.30036584128E+01  0.15938546056E+02  0.00000000000E+00 0. -1.
</event>
<event>
 7    1  0.2313935E-008  0.4614232E+02  0.7816164E-02  0.1320468E+00
        -11   -1    0    0    0    0  0.00000000000E+00  0.00000000000E+00  0.45593999997E+02  0.45594000000E+02  0.51100000000E-03 0. -1.
         11   -1    0    0    0    0 -0.00000000000E+00 -0.00000000000E+00 -0.45593999997E+02  0.45594000000E+02  0.51100000000E-03 0.  1.
    9900012    2    1    2    0    0  0.34498343422E+02  0.18454434973E+02 -0.22325133695E+02  0.46142318037E+02  0.10000002514E+02 0.  0.
         12    1    1    2    0    0 -0.34498343422E+02 -0.18454434973E+02  0.22325133695E+02  0.45045681963E+02  0.00000000000E+00 0. -1.
         11    1    3    3    0    0  0.73990496353E+01  0.21203080821E+01 -0.11185802403E+01  0.77777158526E+01  0.51100000000E-03 0.  1.
        -11    1    3    3    0    0  0.30853717101E+00  0.58960611086E+00 -0.13005063852E+01  0.14608722295E+01  0.51100000000E-03 0. -1.
        -12    1    3    3    0    0  0.26790756616E+02  0.15744520780E+02 -0.19906047069E+02  0.36903729955E+02  0.00000000000E+00 0.  1.
</event>
<event>
 7    1  0.2313935E-008  0.4614232E+02  0.7816164E-02  0.1320468E+00
        -11   -1    0    0    0    0  0.00000000000E+00  0.00000000000E+00  0.45593999997E+02  0.45594000000E+02  0.51100000000E-03 0.  1.
         11   -1    0    0    0    0 -0.00000000000E+00 -0.00000000000E+00 -0.45593999997E+02  0.45594000000E+02  0.51100000000E-03 0. -1.
    9900012    2    1    2    0    0  0.17153079505E+02  0.33314661654E+01  0.41518512766E+02  0.46142315350E+02  0.99999780119E+01 0.  0.
         12    1    1    2    0    0 -0.17153079505E+02 -0.33314661654E+01 -0.41518512766E+02  0.45045684650E+02  0.00000000000E+00 0. -1.
         11    1    3    3    0    0  0.41191633046E+01  0.23693059576E+01  0.53721164488E+01  0.71722208870E+01  0.51100000000E-03 0. -1.
        -11    1    3    3    0    0  0.54867958721E+01  0.24984269739E+01  0.96630080244E+01  0.11389503529E+02  0.51100000000E-03 0.  1.
        -12    1    3    3    0    0  0.75471203281E+01 -0.15362667661E+01  0.26483388293E+02  0.27580590934E+02  0.00000000000E+00 0.  1.
</event>
<event>
 7    1  0.2313935E-008  0.4614232E+02  0.7816164E-02  0.1320468E+00
        -11   -1    0    0    0    0  0.00000000000E+00  0.00000000000E+00  0.45593999997E+02  0.45594000000E+02  0.51100000000E-03 0.  1.
         11   -1    0    0    0    0 -0.00000000000E+00 -0.00000000000E+00 -0.45593999997E+02  0.45594000000E+02  0.51100000000E-03 0. -1.
    9900012    2    1    2    0    0 -0.93097086104E+01  0.40143400012E+02  0.18192038253E+02  0.46142317691E+02  0.99999993576E+01 0.  0.
         12    1    1    2    0    0  0.93097086104E+01 -0.40143400012E+02 -0.18192038253E+02  0.45045682309E+02  0.00000000000E+00 0. -1.
         11    1    3    3    0    0 -0.68996612963E+01  0.13780167337E+02  0.52827441764E+01  0.16291277547E+02  0.51100000000E-03 0.  1.
        -11    1    3    3    0    0 -0.83838737678E+00  0.26540320018E+01  0.30399924751E+01  0.41216906446E+01  0.51100000000E-03 0. -1.
        -12    1    3    3    0    0 -0.15716599373E+01  0.23709200673E+02  0.98693016017E+01  0.25729349499E+02  0.00000000000E+00 0.  1.
</event>
<event>
 7    1  0.2313935E-008  0.4614231E+02  0.7816164E-02  0.1320468E+00
        -11   -1    0    0    0    0  0.00000000000E+00  0.00000000000E+00  0.45593999997E+02  0.45594000000E+02  0.51100000000E-03 0. -1.
         11   -1    0    0    0    0 -0.00000000000E+00 -0.00000000000E+00 -0.45593999997E+02  0.45594000000E+02  0.51100000000E-03 0.  1.
    9900012    2    1    2    0    0 -0.58563194558E+01  0.37780390862E+02 -0.23821405656E+02  0.46142314539E+02  0.99999706173E+01 0.  0.
         12    1    1    2    0    0  0.58563194558E+01 -0.37780390862E+02  0.23821405656E+02  0.45045685461E+02  0.00000000000E+00 0. -1.
         11    1    3    3    0    0  0.28632160076E+00  0.21472331758E+01 -0.27053672140E+01  0.34657758719E+01  0.51100000000E-03 0. -1.
        -11    1    3    3    0    0 -0.44280030638E+01  0.25654477881E+02 -0.19257966405E+02  0.32382537220E+02  0.51100000000E-03 0.  1.
         12    1    3    3    0    0 -0.17146379927E+01  0.99786798051E+01 -0.18580720366E+01  0.10294001447E+02  0.00000000000E+00 0. -1.
</event>
<event>
 7    1  0.2313935E-008  0.4614232E+02  0.7816164E-02  0.1320468E+00
        -11   -1    0    0    0    0  0.00000000000E+00  0.00000000000E+00  0.45593999997E+02  0.45594000000E+02  0.51100000000E-03 0.  1.
         11   -1    0    0    0    0 -0.00000000000E+00 -0.00000000000E+00 -0.45593999997E+02  0.45594000000E+02  0.51100000000E-03 0. -1.
    9900012    2    1    2    0    0 -0.31238972013E+02  0.29006783131E+02  0.14554952298E+02  0.46142317893E+02  0.10000001205E+02 0.  0.
         12    1    1    2    0    0  0.31238972013E+02 -0.29006783131E+02 -0.14554952298E+02  0.45045682107E+02  0.00000000000E+00 0. -1.
         11    1    3    3    0    0 -0.59542318417E+01  0.89208010193E+01  0.43048909875E+00  0.10734006185E+02  0.51100000000E-03 0. -1.
        -11    1    3    3    0    0 -0.17032817702E+02  0.13991372179E+02  0.11288186920E+02  0.24764865001E+02  0.51100000000E-03 0.  1.
         12    1    3    3    0    0 -0.82519224694E+01  0.60946099326E+01  0.28362762791E+01  0.10643446707E+02  0.00000000000E+00 0. -1.
</event>
<event>
 7    1  0.2313935E-008  0.4614232E+02  0.7816164E-02  0.1320468E+00
        -11   -1    0    0    0    0  0.00000000000E+00  0.00000000000E+00  0.45593999997E+02  0.45594000000E+02  0.51100000000E-03 0.  1.
         11   -1    0    0    0    0 -0.00000000000E+00 -0.00000000000E+00 -0.45593999997E+02  0.45594000000E+02  0.51100000000E-03 0. -1.
    9900012    2    1    2    0    0  0.34768053136E+02 -0.27987000710E+02  0.60847142615E+01  0.46142317907E+02  0.10000001330E+02 0.  0.
         12    1    1    2    0    0 -0.34768053136E+02  0.27987000710E+02 -0.60847142615E+01  0.45045682093E+02  0.00000000000E+00 0. -1.
         11    1    3    3    0    0  0.24163457183E+02 -0.17018709124E+02  0.10251977069E+01  0.29572963224E+02  0.51100000000E-03 0. -1.
        -11    1    3    3    0    0  0.40023070395E+01 -0.17495450307E+01  0.21207395110E+01  0.48556056046E+01  0.51100000000E-03 0.  1.
         12    1    3    3    0    0  0.66022889134E+01 -0.92187465556E+01  0.29387770437E+01  0.11713749078E+02  0.00000000000E+00 0. -1.
</event>
<event>
 7    1  0.2313935E-008  0.4614232E+02  0.7816164E-02  0.1320468E+00
        -11   -1    0    0    0    0  0.00000000000E+00  0.00000000000E+00  0.45593999997E+02  0.45594000000E+02  0.51100000000E-03 0.  1.
         11   -1    0    0    0    0 -0.00000000000E+00 -0.00000000000E+00 -0.45593999997E+02  0.45594000000E+02  0.51100000000E-03 0. -1.
    9900012    2    1    2    0    0 -0.14903261387E+02  0.20153705958E+02  0.37427722496E+02  0.46142317909E+02  0.10000001351E+02 0.  0.
         12    1    1    2    0    0  0.14903261387E+02 -0.20153705958E+02 -0.37427722496E+02  0.45045682091E+02  0.00000000000E+00 0. -1.
         11    1    3    3    0    0  0.53886485964E+00  0.22041498556E+01  0.19234814095E+01  0.29746315599E+01  0.51100000000E-03 0. -1.
        -11    1    3    3    0    0 -0.86839149184E+01  0.14021118033E+02  0.21119733521E+02  0.26796366796E+02  0.51100000000E-03 0.  1.
        -12    1    3    3    0    0 -0.67582113278E+01  0.39284380687E+01  0.14384507566E+02  0.16371319553E+02  0.00000000000E+00 0.  1.
</event>
<event>
 7    1  0.2313935E-008  0.4614232E+02  0.7816164E-02  0.1320468E+00
        -11   -1    0    0    0    0  0.00000000000E+00  0.00000000000E+00  0.45593999997E+02  0.45594000000E+02  0.51100000000E-03 0.  1.
         11   -1    0    0    0    0 -0.00000000000E+00 -0.00000000000E+00 -0.45593999997E+02  0.45594000000E+02  0.51100000000E-03 0. -1.
    9900012    2    1    2    0    0 -0.40680309904E+02 -0.17494640711E+02  0.82561131345E+01  0.46142317947E+02  0.10000001699E+02 0.  0.
         12    1    1    2    0    0  0.40680309904E+02  0.17494640711E+02 -0.82561131345E+01  0.45045682053E+02  0.00000000000E+00 0. -1.
         11    1    3    3    0    0 -0.25392480568E+02 -0.12684598971E+02  0.52943596755E+01  0.28873991153E+02  0.51100000000E-03 0. -1.
        -11    1    3    3    0    0 -0.11330896441E+02 -0.45692317241E+01  0.44946478706E+01  0.13018024138E+02  0.51100000000E-03 0.  1.
         12    1    3    3    0    0 -0.39569328943E+01 -0.24081001541E+00 -0.15328944115E+01  0.42503026563E+01  0.00000000000E+00 0. -1.
</event>
<event>
 7    1  0.2313935E-008  0.4614232E+02  0.7816164E-02  0.1320468E+00
        -11   -1    0    0    0    0  0.00000000000E+00  0.00000000000E+00  0.45593999997E+02  0.45594000000E+02  0.51100000000E-03 0. -1.
         11   -1    0    0    0    0 -0.00000000000E+00 -0.00000000000E+00 -0.45593999997E+02  0.45594000000E+02  0.51100000000E-03 0.  1.
    9900012    2    1    2    0    0 -0.22506992946E+02 -0.34812020631E+02 -0.17625895307E+02  0.46142315442E+02  0.99999788548E+01 0.  0.
         12    1    1    2    0    0  0.22506992946E+02  0.34812020631E+02  0.17625895307E+02  0.45045684558E+02  0.00000000000E+00 0. -1.
         11    1    3    3    0    0 -0.12266182769E+00 -0.33839145660E+00 -0.91581117189E+00  0.98400460647E+00  0.51100000000E-03 0. -1.
        -11    1    3    3    0    0 -0.81613112153E+00 -0.47429985749E+01 -0.16728699869E-01  0.48127316152E+01  0.51100000000E-03 0.  1.
        -12    1    3    3    0    0 -0.21568199997E+02 -0.29730630600E+02 -0.16693355435E+02  0.40345579221E+02  0.00000000000E+00 0.  1.
</event>
<event>
 7    1  0.2313935E-008  0.4614232E+02  0.7816164E-02  0.1320468E+00
        -11   -1    0    0    0    0  0.00000000000E+00  0.00000000000E+00  0.45593999997E+02  0.45594000000E+02  0.51100000000E-03 0. -1.
         11   -1    0    0    0    0 -0.00000000000E+00 -0.00000000000E+00 -0.45593999997E+02  0.45594000000E+02  0.51100000000E-03 0.  1.
    9900012    2    1    2    0    0  0.14502221598E+02 -0.42645717019E+02 -0.37662180706E+00  0.46142318128E+02  0.10000003343E+02 0.  0.
         12    1    1    2    0    0 -0.14502221598E+02  0.42645717019E+02  0.37662180706E+00  0.45045681872E+02  0.00000000000E+00 0. -1.
         11    1    3    3    0    0 -0.60733276577E+00 -0.24965109630E+00  0.20486228546E-01  0.65696172259E+00  0.51100000000E-03 0. -1.
        -11    1    3    3    0    0  0.45519124520E+01 -0.18242802124E+02 -0.28280180044E+01  0.19013611504E+02  0.51100000000E-03 0.  1.
         12    1    3    3    0    0  0.10557641911E+02 -0.24153263799E+02  0.24309099688E+01  0.26471744902E+02  0.00000000000E+00 0. -1.
</event>
<event>
 7    1  0.2313935E-008  0.4614232E+02  0.7816164E-02  0.1320468E+00
        -11   -1    0    0    0    0  0.00000000000E+00  0.00000000000E+00  0.45593999997E+02  0.45594000000E+02  0.51100000000E-03 0.  1.
         11   -1    0    0    0    0 -0.00000000000E+00 -0.00000000000E+00 -0.45593999997E+02  0.45594000000E+02  0.51100000000E-03 0. -1.
    9900012    2    1    2    0    0  0.11952262121E+02  0.37131447025E+02  0.22528037656E+02  0.46142318646E+02  0.10000008072E+02 0.  0.
         12    1    1    2    0    0 -0.11952262121E+02 -0.37131447025E+02 -0.22528037656E+02  0.45045681354E+02  0.00000000000E+00 0. -1.
         11    1    3    3    0    0  0.34091610915E+01  0.14300370559E+02  0.11480142965E+02  0.18652524232E+02  0.51100000000E-03 0. -1.
        -11    1    3    3    0    0  0.38972636259E+01  0.34427818035E+01  0.17088237573E+01  0.54737089082E+01  0.51100000000E-03 0.  1.
        -12    1    3    3    0    0  0.46458374041E+01  0.19388294662E+02  0.93390709342E+01  0.22016085506E+02  0.00000000000E+00 0.  1.
</event>
<event>
 7    1  0.2313935E-008  0.4614232E+02  0.7816164E-02  0.1320468E+00
        -11   -1    0    0    0    0  0.00000000000E+00  0.00000000000E+00  0.45593999997E+02  0.45594000000E+02  0.51100000000E-03 0.  1.
         11   -1    0    0    0    0 -0.00000000000E+00 -0.00000000000E+00 -0.45593999997E+02  0.45594000000E+02  0.51100000000E-03 0. -1.
    9900012    2    1    2    0    0  0.39090753585E+02  0.19904880622E+02  0.10238271028E+02  0.46142317832E+02  0.10000000643E+02 0.  0.
         12    1    1    2    0    0 -0.39090753585E+02 -0.19904880622E+02 -0.10238271028E+02  0.45045682168E+02  0.00000000000E+00 0. -1.
         11    1    3    3    0    0  0.56913587714E+01  0.62254898921E+01  0.33355763537E+01  0.90705214257E+01  0.51100000000E-03 0. -1.
        -11    1    3    3    0    0  0.13302064973E+02  0.78176279429E+01  0.18830800128E+01  0.15543687780E+02  0.51100000000E-03 0.  1.
         12    1    3    3    0    0  0.20097329840E+02  0.58617627865E+01  0.50196146615E+01  0.21528108626E+02  0.00000000000E+00 0. -1.
</event>
<event>
 7    1  0.2313935E-008  0.4614232E+02  0.7816164E-02  0.1320468E+00
        -11   -1    0    0    0    0  0.00000000000E+00  0.00000000000E+00  0.45593999997E+02  0.45594000000E+02  0.51100000000E-03 0.  1.
         11   -1    0    0    0    0 -0.00000000000E+00 -0.00000000000E+00 -0.45593999997E+02  0.45594000000E+02  0.51100000000E-03 0. -1.
    9900012    2    1    2    0    0  0.91991205068E+01  0.20609060555E+02  0.38984050691E+02  0.46142318705E+02  0.10000008611E+02 0.  0.
         12    1    1    2    0    0 -0.91991205068E+01 -0.20609060555E+02 -0.38984050691E+02  0.45045681295E+02  0.00000000000E+00 0. -1.
         11    1    3    3    0    0 -0.11010509314E+01  0.18360814138E+01  0.23607153094E+01  0.31869240883E+01  0.51100000000E-03 0.  1.
        -11    1    3    3    0    0  0.12494320666E+01  0.66001989471E+00  0.41964530213E+00  0.14740451795E+01  0.51100000000E-03 0. -1.
         12    1    3    3    0    0  0.90507393716E+01  0.18112959246E+02  0.36203690079E+02  0.41481349438E+02  0.00000000000E+00 0. -1.
</event>
<event>
 7    1  0.2313935E-008  0.4614232E+02  0.7816164E-02  0.1320468E+00
        -11   -1    0    0    0    0  0.00000000000E+00  0.00000000000E+00  0.45593999997E+02  0.45594000000E+02  0.51100000000E-03 0. -1.
         11   -1    0    0    0    0 -0.00000000000E+00 -0.00000000000E+00 -0.45593999997E+02  0.45594000000E+02  0.51100000000E-03 0.  1.
    9900012    2    1    2    0    0  0.13878609906E+02  0.32350963366E+02 -0.28105390531E+02  0.46142316294E+02  0.99999866199E+01 0.  0.
         12    1    1    2    0    0 -0.13878609906E+02 -0.32350963366E+02  0.28105390531E+02  0.45045683706E+02  0.00000000000E+00 0. -1.
         11    1    3    3    0    0  0.34022309588E+01  0.82675201017E+01 -0.10176439703E+02  0.13545736946E+02  0.51100000000E-03 0. -1.
        -11    1    3    3    0    0  0.47790472736E+01  0.16886459016E+02 -0.87293293549E+01  0.19600841364E+02  0.51100000000E-03 0.  1.
        -12    1    3    3    0    0  0.56973316740E+01  0.71969842485E+01 -0.91996214730E+01  0.12995737983E+02  0.00000000000E+00 0.  1.
</event>
<event>
 7    1  0.2313935E-008  0.4614232E+02  0.7816164E-02  0.1320468E+00
        -11   -1    0    0    0    0  0.00000000000E+00  0.00000000000E+00  0.45593999997E+02  0.45594000000E+02  0.51100000000E-03 0. -1.
         11   -1    0    0    0    0 -0.00000000000E+00 -0.00000000000E+00 -0.45593999997E+02  0.45594000000E+02  0.51100000000E-03 0.  1.
    9900012    2    1    2    0    0 -0.32971963988E+02  0.28546059615E+02 -0.11273224111E+02  0.46142317514E+02  0.99999977472E+01 0.  0.
         12    1    1    2    0    0  0.32971963988E+02 -0.28546059615E+02  0.11273224111E+02  0.45045682486E+02  0.00000000000E+00 0. -1.
         11    1    3    3    0    0 -0.12495047112E+02  0.14356795311E+02 -0.41330828109E+01  0.19476297073E+02  0.51100000000E-03 0. -1.
        -11    1    3    3    0    0 -0.10754658467E+02  0.82351052053E+01 -0.68052613925E+00  0.13562549634E+02  0.51100000000E-03 0.  1.
         12    1    3    3    0    0 -0.97222584096E+01  0.59541590988E+01 -0.64596151605E+01  0.13103470807E+02  0.00000000000E+00 0. -1.
</event>
<event>
 7    1  0.2313935E-008  0.4614232E+02  0.7816164E-02  0.1320468E+00
        -11   -1    0    0    0    0  0.00000000000E+00  0.00000000000E+00  0.45593999997E+02  0.45594000000E+02  0.51100000000E-03 0.  1.
         11   -1    0    0    0    0 -0.00000000000E+00 -0.00000000000E+00 -0.45593999997E+02  0.45594000000E+02  0.51100000000E-03 0. -1.
    9900012    2    1    2    0    0  0.26315057487E+02  0.44010567033E+01  0.36294103540E+02  0.46142317605E+02  0.99999985751E+01 0.  0.
         12    1    1    2    0    0 -0.26315057487E+02 -0.44010567033E+01 -0.36294103540E+02  0.45045682395E+02  0.00000000000E+00 0. -1.
         11    1    3    3    0    0  0.52451575086E+01  0.16358405779E+01  0.13494474170E+02  0.14570123028E+02  0.51100000000E-03 0. -1.
        -11    1    3    3    0    0  0.75470377757E+01  0.14145498164E+01  0.49417247033E+01  0.91312306769E+01  0.51100000000E-03 0.  1.
         12    1    3    3    0    0  0.13522862203E+02  0.13506663090E+01  0.17857904667E+02  0.22440963899E+02  0.00000000000E+00 0. -1.
</event>
<event>
 7    1  0.2313935E-008  0.4614232E+02  0.7816164E-02  0.1320468E+00
        -11   -1    0    0    0    0  0.00000000000E+00  0.00000000000E+00  0.45593999997E+02  0.45594000000E+02  0.51100000000E-03 0. -1.
         11   -1    0    0    0    0 -0.00000000000E+00 -0.00000000000E+00 -0.45593999997E+02  0.45594000000E+02  0.51100000000E-03 0.  1.
    9900012    2    1    2    0    0 -0.43047194804E+02  0.59679135709E+01 -0.11850590371E+02  0.46142318021E+02  0.10000002367E+02 0.  0.
         12    1    1    2    0    0  0.43047194804E+02 -0.59679135709E+01  0.11850590371E+02  0.45045681979E+02  0.00000000000E+00 0. -1.
         11    1    3    3    0    0 -0.31616525011E+00 -0.69451830079E+00 -0.68310942080E+00  0.10241849820E+01  0.51100000000E-03 0. -1.
        -11    1    3    3    0    0 -0.10115059560E+02  0.93541235244E+00  0.39213523038E-01  0.10158295336E+02  0.51100000000E-03 0.  1.
         12    1    3    3    0    0 -0.32615969994E+02  0.57270195193E+01 -0.11206694473E+02  0.34959837703E+02  0.00000000000E+00 0. -1.
</event>
<event>
 7    1  0.2313935E-008  0.4614232E+02  0.7816164E-02  0.1320468E+00
        -11   -1    0    0    0    0  0.00000000000E+00  0.00000000000E+00  0.45593999997E+02  0.45594000000E+02  0.51100000000E-03 0.  1.
         11   -1    0    0    0    0 -0.00000000000E+00 -0.00000000000E+00 -0.45593999997E+02  0.45594000000E+02  0.51100000000E-03 0. -1.
    9900012    2    1    2    0    0 -0.21049257067E+02  0.88822087934E+01  0.38822013498E+02  0.46142316653E+02  0.99999898992E+01 0.  0.
         12    1    1    2    0    0  0.21049257067E+02 -0.88822087934E+01 -0.38822013498E+02  0.45045683347E+02  0.00000000000E+00 0. -1.
         11    1    3    3    0    0 -0.27010853291E+01  0.13811417570E+01  0.15890866550E+01  0.34247059971E+01  0.51100000000E-03 0. -1.
        -11    1    3    3    0    0 -0.72456328035E+01  0.65172025357E+00  0.86781351092E+01  0.11324043591E+02  0.51100000000E-03 0.  1.
        -12    1    3    3    0    0 -0.11102538935E+02  0.68493467829E+01  0.28554791734E+02  0.31393567066E+02  0.00000000000E+00 0.  1.
</event>
<event>
 7    1  0.2313935E-008  0.4614232E+02  0.7816164E-02  0.1320468E+00
        -11   -1    0    0    0    0  0.00000000000E+00  0.00000000000E+00  0.45593999997E+02  0.45594000000E+02  0.51100000000E-03 0.  1.
         11   -1    0    0    0    0 -0.00000000000E+00 -0.00000000000E+00 -0.45593999997E+02  0.45594000000E+02  0.51100000000E-03 0. -1.
    9900012    2    1    2    0    0 -0.23353533394E+02 -0.90493851959E+01  0.37441075800E+02  0.46142322611E+02  0.10000044222E+02 0.  0.
         12    1    1    2    0    0  0.23353533394E+02  0.90493851959E+01 -0.37441075800E+02  0.45045677389E+02  0.00000000000E+00 0. -1.
         11    1    3    3    0    0 -0.14217470386E+02 -0.59664776575E+01  0.28797061839E+02  0.32665059171E+02  0.51100000000E-03 0. -1.
        -11    1    3    3    0    0 -0.28131612668E+01 -0.28553273343E+01  0.35526440032E+01  0.53561226810E+01  0.51100000000E-03 0.  1.
        -12    1    3    3    0    0 -0.63229017412E+01 -0.22758020409E+00  0.50913699571E+01  0.81211407585E+01  0.00000000000E+00 0.  1.
</event>
<event>
 7    1  0.2313935E-008  0.4614232E+02  0.7816164E-02  0.1320468E+00
        -11   -1    0    0    0    0  0.00000000000E+00  0.00000000000E+00  0.45593999997E+02  0.45594000000E+02  0.51100000000E-03 0.  1.
         11   -1    0    0    0    0 -0.00000000000E+00 -0.00000000000E+00 -0.45593999997E+02  0.45594000000E+02  0.51100000000E-03 0. -1.
    9900012    2    1    2    0    0  0.27957082239E+02 -0.73995786219E+01  0.34536376686E+02  0.46142317346E+02  0.99999962187E+01 0.  0.
         12    1    1    2    0    0 -0.27957082239E+02  0.73995786219E+01 -0.34536376686E+02  0.45045682654E+02  0.00000000000E+00 0. -1.
         11    1    3    3    0    0  0.47041286405E+01  0.18509823612E-01  0.42851066226E+01  0.63632780788E+01  0.51100000000E-03 0. -1.
        -11    1    3    3    0    0  0.14922260399E+02 -0.17602037978E+01  0.22567453097E+02  0.27112028924E+02  0.51100000000E-03 0.  1.
        -12    1    3    3    0    0  0.83306931993E+01 -0.56578846477E+01  0.76838169671E+01  0.12667010344E+02  0.00000000000E+00 0.  1.
</event>
<event>
 7    1  0.2313935E-008  0.4614232E+02  0.7816164E-02  0.1320468E+00
        -11   -1    0    0    0    0  0.00000000000E+00  0.00000000000E+00  0.45593999997E+02  0.45594000000E+02  0.51100000000E-03 0.  1.
         11   -1    0    0    0    0 -0.00000000000E+00 -0.00000000000E+00 -0.45593999997E+02  0.45594000000E+02  0.51100000000E-03 0. -1.
    9900012    2    1    2    0    0 -0.25693316180E+00 -0.34213371902E+02  0.29300047839E+02  0.46142316134E+02  0.99999851605E+01 0.  0.
         12    1    1    2    0    0  0.25693316180E+00  0.34213371902E+02 -0.29300047839E+02  0.45045683866E+02  0.00000000000E+00 0. -1.
         11    1    3    3    0    0 -0.49760105580E+00 -0.13606364537E+02  0.11057035893E+02  0.17539635279E+02  0.51100000000E-03 0. -1.
        -11    1    3    3    0    0 -0.52793859949E+00 -0.20912257220E+02  0.16395245893E+02  0.26578286426E+02  0.51100000000E-03 0.  1.
         12    1    3    3    0    0  0.76860649349E+00  0.30524985404E+00  0.18477660535E+01  0.20243944289E+01  0.00000000000E+00 0. -1.
</event>
<event>
 7    1  0.2313935E-008  0.4614232E+02  0.7816164E-02  0.1320468E+00
        -11   -1    0    0    0    0  0.00000000000E+00  0.00000000000E+00  0.45593999997E+02  0.45594000000E+02  0.51100000000E-03 0.  1.
         11   -1    0    0    0    0 -0.00000000000E+00 -0.00000000000E+00 -0.45593999997E+02  0.45594000000E+02  0.51100000000E-03 0. -1.
    9900012    2    1    2    0    0 -0.31603705562E+02 -0.26017445906E+02  0.18799251530E+02  0.46142317024E+02  0.99999932747E+01 0.  0.
         12    1    1    2    0    0  0.31603705562E+02  0.26017445906E+02 -0.18799251530E+02  0.45045682976E+02  0.00000000000E+00 0. -1.
         11    1    3    3    0    0 -0.26109181642E+02 -0.19734107469E+02  0.12776289201E+02  0.35133430371E+02  0.51100000000E-03 0. -1.
        -11    1    3    3    0    0 -0.54025227191E+01 -0.35279741556E+01  0.40387792232E+01  0.76122001581E+01  0.51100000000E-03 0.  1.
         12    1    3    3    0    0 -0.92001200706E-01 -0.27553642816E+01  0.19841831057E+01  0.33966864946E+01  0.00000000000E+00 0. -1.
</event>
<event>
 7    1  0.2313935E-008  0.4614232E+02  0.7816164E-02  0.1320468E+00
        -11   -1    0    0    0    0  0.00000000000E+00  0.00000000000E+00  0.45593999997E+02  0.45594000000E+02  0.51100000000E-03 0. -1.
         11   -1    0    0    0    0 -0.00000000000E+00 -0.00000000000E+00 -0.45593999997E+02  0.45594000000E+02  0.51100000000E-03 0.  1.
    9900012    2    1    2    0    0 -0.16083842704E+01  0.46747337942E+01 -0.44773580213E+02  0.46142317398E+02  0.99999966851E+01 0.  0.
         12    1    1    2    0    0  0.16083842704E+01 -0.46747337942E+01  0.44773580213E+02  0.45045682602E+02  0.00000000000E+00 0. -1.
         11    1    3    3    0    0  0.66771450875E+00  0.11213144491E+00 -0.90853970161E+00  0.11330758036E+01  0.51100000000E-03 0. -1.
        -11    1    3    3    0    0  0.42154265464E+00 -0.24173083355E+01 -0.78322082938E+01  0.82075919012E+01  0.51100000000E-03 0.  1.
         12    1    3    3    0    0 -0.26976414338E+01  0.69799106848E+01 -0.36032832218E+02  0.36801649693E+02  0.00000000000E+00 0. -1.
</event>
<event>
 7    1  0.2313935E-008  0.4614232E+02  0.7816164E-02  0.1320468E+00
        -11   -1    0    0    0    0  0.00000000000E+00  0.00000000000E+00  0.45593999997E+02  0.45594000000E+02  0.51100000000E-03 0.  1.
         11   -1    0    0    0    0 -0.00000000000E+00 -0.00000000000E+00 -0.45593999997E+02  0.45594000000E+02  0.51100000000E-03 0. -1.
    9900012    2    1    2    0    0  0.34621461859E+02  0.27638395459E+02  0.81600495508E+01  0.46142323920E+02  0.10000056163E+02 0.  0.
         12    1    1    2    0    0 -0.34621461859E+02 -0.27638395459E+02 -0.81600495508E+01  0.45045676080E+02  0.00000000000E+00 0. -1.
         11    1    3    3    0    0  0.15802151222E+02  0.78473146841E+01  0.21962255993E+01  0.17779531437E+02  0.51100000000E-03 0. -1.
        -11    1    3    3    0    0  0.14396577573E+02  0.13799026126E+02  0.62838912132E+01  0.20908415934E+02  0.51100000000E-03 0.  1.
         12    1    3    3    0    0  0.44227330646E+01  0.59920546490E+01 -0.32006726174E+00  0.74543765487E+01  0.00000000000E+00 0. -1.
</event>
<event>
 7    1  0.2313935E-008  0.4614232E+02  0.7816164E-02  0.1320468E+00
        -11   -1    0    0    0    0  0.00000000000E+00  0.00000000000E+00  0.45593999997E+02  0.45594000000E+02  0.51100000000E-03 0.  1.
         11   -1    0    0    0    0 -0.00000000000E+00 -0.00000000000E+00 -0.45593999997E+02  0.45594000000E+02  0.51100000000E-03 0. -1.
    9900012    2    1    2    0    0  0.20055634918E+02  0.11254176617E+02  0.38732783355E+02  0.46142317746E+02  0.99999998628E+01 0.  0.
         12    1    1    2    0    0 -0.20055634918E+02 -0.11254176617E+02 -0.38732783355E+02  0.45045682254E+02  0.00000000000E+00 0. -1.
         11    1    3    3    0    0  0.66246430293E+01  0.72457504252E+01  0.12931115414E+02  0.16235779642E+02  0.51100000000E-03 0. -1.
        -11    1    3    3    0    0  0.88006612870E+01  0.36283519360E+01  0.11840020870E+02  0.15192191130E+02  0.51100000000E-03 0.  1.
         12    1    3    3    0    0  0.46303306013E+01  0.38007425541E+00  0.13961647072E+02  0.14714346974E+02  0.00000000000E+00 0. -1.
</event>
<event>
 7    1  0.2313935E-008  0.4614232E+02  0.7816164E-02  0.1320468E+00
        -11   -1    0    0    0    0  0.00000000000E+00  0.00000000000E+00  0.45593999997E+02  0.45594000000E+02  0.51100000000E-03 0. -1.
         11   -1    0    0    0    0 -0.00000000000E+00 -0.00000000000E+00 -0.45593999997E+02  0.45594000000E+02  0.51100000000E-03 0.  1.
    9900012    2    1    2    0    0 -0.25486709665E+01  0.39729567566E+02 -0.21075559759E+02  0.46142317834E+02  0.10000000663E+02 0.  0.
         12    1    1    2    0    0  0.25486709665E+01 -0.39729567566E+02  0.21075559759E+02  0.45045682166E+02  0.00000000000E+00 0. -1.
         11    1    3    3    0    0  0.56766469492E+00  0.22635992659E+01 -0.24382985904E+01  0.33751185341E+01  0.51100000000E-03 0. -1.
        -11    1    3    3    0    0 -0.46305573962E+00  0.38756007989E+01 -0.51761641435E+01  0.64828525875E+01  0.51100000000E-03 0.  1.
        -12    1    3    3    0    0 -0.26532799218E+01  0.33590367501E+02 -0.13461097025E+02  0.36284346712E+02  0.00000000000E+00 0.  1.
</event>
<event>
 7    1  0.2313935E-008  0.4614232E+02  0.7816164E-02  0.1320468E+00
        -11   -1    0    0    0    0  0.00000000000E+00  0.00000000000E+00  0.45593999997E+02  0.45594000000E+02  0.51100000000E-03 0. -1.
         11   -1    0    0    0    0 -0.00000000000E+00 -0.00000000000E+00 -0.45593999997E+02  0.45594000000E+02  0.51100000000E-03 0.  1.
    9900012    2    1    2    0    0 -0.42110982911E+02 -0.44853832557E+01 -0.15351220157E+02  0.46142317577E+02  0.99999983209E+01 0.  0.
         12    1    1    2    0    0  0.42110982911E+02  0.44853832557E+01  0.15351220157E+02  0.45045682423E+02  0.00000000000E+00 0. -1.
         11    1    3    3    0    0 -0.19105919944E+02 -0.53182005833E+01 -0.54662461910E+01  0.20571807943E+02  0.51100000000E-03 0. -1.
        -11    1    3    3    0    0 -0.64266554291E+01 -0.20512731262E+01 -0.25094435119E+01  0.71977029977E+01  0.51100000000E-03 0.  1.
         12    1    3    3    0    0 -0.16578407538E+02  0.28840904538E+01 -0.73755304537E+01  0.18372806636E+02  0.00000000000E+00 0. -1.
</event>
<event>
 7    1  0.2313935E-008  0.4614232E+02  0.7816164E-02  0.1320468E+00
        -11   -1    0    0    0    0  0.00000000000E+00  0.00000000000E+00  0.45593999997E+02  0.45594000000E+02  0.51100000000E-03 0.  1.
         11   -1    0    0    0    0 -0.00000000000E+00 -0.00000000000E+00 -0.45593999997E+02  0.45594000000E+02  0.51100000000E-03 0. -1.
    9900012    2    1    2    0    0 -0.33687295100E+02  0.15446135193E+02  0.25606571281E+02  0.46142318339E+02  0.10000005266E+02 0.  0.
         12    1    1    2    0    0  0.33687295100E+02 -0.15446135193E+02 -0.25606571281E+02  0.45045681661E+02  0.00000000000E+00 0. -1.
         11    1    3    3    0    0 -0.63609179131E+01  0.13604524681E+01  0.92116560896E+01  0.11276822061E+02  0.51100000000E-03 0. -1.
        -11    1    3    3    0    0 -0.10930662277E+02  0.53275838293E+01  0.71325343887E+01  0.14097360545E+02  0.51100000000E-03 0.  1.
        -12    1    3    3    0    0 -0.16395714910E+02  0.87580988959E+01  0.92623808022E+01  0.20768135733E+02  0.00000000000E+00 0.  1.
</event>
<event>
 7    1  0.2313935E-008  0.4614232E+02  0.7816164E-02  0.1320468E+00
        -11   -1    0    0    0    0  0.00000000000E+00  0.00000000000E+00  0.45593999997E+02  0.45594000000E+02  0.51100000000E-03 0. -1.
         11   -1    0    0    0    0 -0.00000000000E+00 -0.00000000000E+00 -0.45593999997E+02  0.45594000000E+02  0.51100000000E-03 0.  1.
    9900012    2    1    2    0    0  0.16383950914E+02 -0.31928810700E+02 -0.27225552381E+02  0.46142317602E+02  0.99999985472E+01 0.  0.
         12    1    1    2    0    0 -0.16383950914E+02  0.31928810700E+02  0.27225552381E+02  0.45045682398E+02  0.00000000000E+00 0. -1.
         11    1    3    3    0    0  0.86203529109E+01 -0.92404585064E+01 -0.60069288165E+01  0.13992131781E+02  0.51100000000E-03 0. -1.
        -11    1    3    3    0    0  0.52596612068E+01 -0.11344121842E+02 -0.10167065343E+02  0.16115903770E+02  0.51100000000E-03 0.  1.
         12    1    3    3    0    0  0.25039367961E+01 -0.11344230352E+02 -0.11051558221E+02  0.16034282050E+02  0.00000000000E+00 0. -1.
</event>
<event>
 7    1  0.2313935E-008  0.4614232E+02  0.7816164E-02  0.1320468E+00
        -11   -1    0    0    0    0  0.00000000000E+00  0.00000000000E+00  0.45593999997E+02  0.45594000000E+02  0.51100000000E-03 0.  1.
         11   -1    0    0    0    0 -0.00000000000E+00 -0.00000000000E+00 -0.45593999997E+02  0.45594000000E+02  0.51100000000E-03 0. -1.
    9900012    2    1    2    0    0 -0.18321518291E+02 -0.14143302475E+02  0.38644565822E+02  0.46142317577E+02  0.99999983251E+01 0.  0.
         12    1    1    2    0    0  0.18321518291E+02  0.14143302475E+02 -0.38644565822E+02  0.45045682423E+02  0.00000000000E+00 0. -1.
         11    1    3    3    0    0 -0.13753452165E+01 -0.54638969304E+01  0.12906600804E+02  0.14082829570E+02  0.51100000000E-03 0. -1.
        -11    1    3    3    0    0 -0.83882350069E+01 -0.50158410702E+01  0.14107564683E+02  0.17162299663E+02  0.51100000000E-03 0.  1.
         12    1    3    3    0    0 -0.85579380673E+01 -0.36635644740E+01  0.11630400335E+02  0.14897188344E+02  0.00000000000E+00 0. -1.
</event>
<event>
 7    1  0.2313935E-008  0.4614232E+02  0.7816164E-02  0.1320468E+00
        -11   -1    0    0    0    0  0.00000000000E+00  0.00000000000E+00  0.45593999997E+02  0.45594000000E+02  0.51100000000E-03 0.  1.
         11   -1    0    0    0    0 -0.00000000000E+00 -0.00000000000E+00 -0.45593999997E+02  0.45594000000E+02  0.51100000000E-03 0. -1.
    9900012    2    1    2    0    0  0.19941714137E+01  0.28634682148E+01  0.44910320575E+02  0.46142322472E+02  0.10000042955E+02 0.  0.
         12    1    1    2    0    0 -0.19941714137E+01 -0.28634682148E+01 -0.44910320575E+02  0.45045677528E+02  0.00000000000E+00 0. -1.
         11    1    3    3    0    0 -0.29445213408E+00  0.28044395024E+01  0.32637928463E+01  0.43132269807E+01  0.51100000000E-03 0. -1.
        -11    1    3    3    0    0 -0.28956910989E+00 -0.11623173162E+00  0.42811542181E+00  0.52975764303E+00  0.51100000000E-03 0.  1.
        -12    1    3    3    0    0  0.25781926576E+01  0.17526044397E+00  0.41218412307E+02  0.41299337848E+02  0.00000000000E+00 0.  1.
</event>
<event>
 7    1  0.3155509E-008  0.4614232E+02  0.7816164E-02  0.1320468E+00
        -11   -1    0    0    0    0  0.00000000000E+00  0.00000000000E+00  0.45593999997E+02  0.45594000000E+02  0.51100000000E-03 0. -1.
         11   -1    0    0    0    0 -0.00000000000E+00 -0.00000000000E+00 -0.45593999997E+02  0.45594000000E+02  0.51100000000E-03 0.  1.
    9900012    2    1    2    0    0  0.27906047247E+02  0.20970719900E+02 -0.28470947051E+02  0.46142318831E+02  0.10000009752E+02 0.  0.
         12    1    1    2    0    0 -0.27906047247E+02 -0.20970719900E+02  0.28470947051E+02  0.45045681169E+02  0.00000000000E+00 0. -1.
         11    1    3    3    0    0  0.31906594767E+01  0.23630128642E+00 -0.40826244069E+01  0.51869035564E+01  0.51100000000E-03 0. -1.
        -11    1    3    3    0    0  0.28043831535E+01  0.12537112867E+01 -0.47869345751E+01  0.56878027171E+01  0.51100000000E-03 0.  1.
        -12    1    3    3    0    0  0.21911004617E+02  0.19480707326E+02 -0.19601388069E+02  0.35267612557E+02  0.00000000000E+00 0.  1.
</event>
<event>
 7    1  0.2313935E-008  0.4614232E+02  0.7816164E-02  0.1320468E+00
        -11   -1    0    0    0    0  0.00000000000E+00  0.00000000000E+00  0.45593999997E+02  0.45594000000E+02  0.51100000000E-03 0.  1.
         11   -1    0    0    0    0 -0.00000000000E+00 -0.00000000000E+00 -0.45593999997E+02  0.45594000000E+02  0.51100000000E-03 0. -1.
    9900012    2    1    2    0    0 -0.15974865501E+02  0.90580586155E+01  0.41132333374E+02  0.46142316495E+02  0.99999884564E+01 0.  0.
         12    1    1    2    0    0  0.15974865501E+02 -0.90580586155E+01 -0.41132333374E+02  0.45045683505E+02  0.00000000000E+00 0. -1.
         11    1    3    3    0    0  0.82984490070E+00  0.38192617504E+00  0.60508382801E+00  0.10957357631E+01  0.51100000000E-03 0. -1.
        -11    1    3    3    0    0 -0.58620878713E+01  0.46693483800E+00  0.10133277049E+02  0.11716032023E+02  0.51100000000E-03 0.  1.
         12    1    3    3    0    0 -0.10942622530E+02  0.82091976024E+01  0.30393972497E+02  0.33330548709E+02  0.00000000000E+00 0. -1.
</event>
<event>
 7    1  0.2313935E-008  0.4614232E+02  0.7816164E-02  0.1320468E+00
        -11   -1    0    0    0    0  0.00000000000E+00  0.00000000000E+00  0.45593999997E+02  0.45594000000E+02  0.51100000000E-03 0. -1.
         11   -1    0    0    0    0 -0.00000000000E+00 -0.00000000000E+00 -0.45593999997E+02  0.45594000000E+02  0.51100000000E-03 0.  1.
    9900012    2    1    2    0    0 -0.66344037723E+01 -0.35571926890E+02 -0.26827898543E+02  0.46142318339E+02  0.10000005268E+02 0.  0.
         12    1    1    2    0    0  0.66344037723E+01  0.35571926890E+02  0.26827898543E+02  0.45045681661E+02  0.00000000000E+00 0. -1.
         11    1    3    3    0    0  0.54639200001E+00 -0.53324827383E+00  0.15880661957E+00  0.77981904488E+00  0.51100000000E-03 0. -1.
        -11    1    3    3    0    0 -0.29666119869E+01 -0.24693244810E+02 -0.15322459292E+02  0.29211896291E+02  0.51100000000E-03 0.  1.
        -12    1    3    3    0    0 -0.42141837854E+01 -0.10345433807E+02 -0.11664245870E+02  0.16150603003E+02  0.00000000000E+00 0.  1.
</event>
<event>
 7    1  0.2313935E-008  0.4614232E+02  0.7816164E-02  0.1320468E+00
        -11   -1    0    0    0    0  0.00000000000E+00  0.00000000000E+00  0.45593999997E+02  0.45594000000E+02  0.51100000000E-03 0.  1.
         11   -1    0    0    0    0 -0.00000000000E+00 -0.00000000000E+00 -0.45593999997E+02  0.45594000000E+02  0.51100000000E-03 0. -1.
    9900012    2    1    2    0    0 -0.13724763751E+02  0.48221461109E+01  0.42632044626E+02  0.46142318052E+02  0.10000002656E+02 0.  0.
         12    1    1    2    0    0  0.13724763751E+02 -0.48221461109E+01 -0.42632044626E+02  0.45045681948E+02  0.00000000000E+00 0. -1.
         11    1    3    3    0    0  0.31586504881E+00  0.11913545811E+01  0.41206268638E+01  0.43010071470E+01  0.51100000000E-03 0.  1.
        -11    1    3    3    0    0 -0.54973830929E+01  0.43235720908E+01  0.11086756365E+02  0.13108419563E+02  0.51100000000E-03 0. -1.
        -12    1    3    3    0    0 -0.85432457072E+01 -0.69278056109E+00  0.27424661398E+02  0.28732891342E+02  0.00000000000E+00 0.  1.
</event>
<event>
 7    1  0.2313935E-008  0.4614232E+02  0.7816164E-02  0.1320468E+00
        -11   -1    0    0    0    0  0.00000000000E+00  0.00000000000E+00  0.45593999997E+02  0.45594000000E+02  0.51100000000E-03 0.  1.
         11   -1    0    0    0    0 -0.00000000000E+00 -0.00000000000E+00 -0.45593999997E+02  0.45594000000E+02  0.51100000000E-03 0. -1.
    9900012    2    1    2    0    0 -0.86793255082E+01  0.44126007318E+02 -0.25842609704E+01  0.46142316324E+02  0.99999868913E+01 0.  0.
         12    1    1    2    0    0  0.86793255082E+01 -0.44126007318E+02  0.25842609704E+01  0.45045683676E+02  0.00000000000E+00 0. -1.
         11    1    3    3    0    0 -0.24937417956E+01  0.23135409966E+02 -0.24105020916E+01  0.23393940733E+02  0.51100000000E-03 0. -1.
        -11    1    3    3    0    0 -0.72923735084E+01  0.19710543444E+02 -0.51284866395E+00  0.21022541432E+02  0.51100000000E-03 0.  1.
         12    1    3    3    0    0  0.11067897959E+01  0.12800539085E+01  0.33908978516E+00  0.17258341587E+01  0.00000000000E+00 0. -1.
</event>
<event>
 7    1  0.2313935E-008  0.4614232E+02  0.7816164E-02  0.1320468E+00
        -11   -1    0    0    0    0  0.00000000000E+00  0.00000000000E+00  0.45593999997E+02  0.45594000000E+02  0.51100000000E-03 0.  1.
         11   -1    0    0    0    0 -0.00000000000E+00 -0.00000000000E+00 -0.45593999997E+02  0.45594000000E+02  0.51100000000E-03 0. -1.
    9900012    2    1    2    0    0 -0.83081264430E+01 -0.19773790986E+02  0.39611687904E+02  0.46142316594E+02  0.99999893564E+01 0.  0.
         12    1    1    2    0    0  0.83081264430E+01  0.19773790986E+02 -0.39611687904E+02  0.45045683406E+02  0.00000000000E+00 0. -1.
         11    1    3    3    0    0 -0.42032289240E+00 -0.97692337158E+00  0.46441643958E+01  0.47643796872E+01  0.51100000000E-03 0. -1.
        -11    1    3    3    0    0 -0.92159317674E+01 -0.17376003990E+02  0.28528698162E+02  0.34651775310E+02  0.51100000000E-03 0.  1.
         12    1    3    3    0    0  0.13281282168E+01 -0.14208636238E+01  0.64388253455E+01  0.67261615969E+01  0.00000000000E+00 0. -1.
</event>
<event>
 7    1  0.2313935E-008  0.4614232E+02  0.7816164E-02  0.1320468E+00
        -11   -1    0    0    0    0  0.00000000000E+00  0.00000000000E+00  0.45593999997E+02  0.45594000000E+02  0.51100000000E-03 0.  1.
         11   -1    0    0    0    0 -0.00000000000E+00 -0.00000000000E+00 -0.45593999997E+02  0.45594000000E+02  0.51100000000E-03 0. -1.
    9900012    2    1    2    0    0 -0.31071200617E+02  0.73718025025E+01  0.31770277330E+02  0.46142317615E+02  0.99999986674E+01 0.  0.
         12    1    1    2    0    0  0.31071200617E+02 -0.73718025025E+01 -0.31770277330E+02  0.45045682385E+02  0.00000000000E+00 0. -1.
         11    1    3    3    0    0 -0.13250030074E+02  0.33265896371E+01  0.13518953382E+02  0.19219562856E+02  0.51100000000E-03 0.  1.
        -11    1    3    3    0    0 -0.14433847427E+02  0.11652030433E+01  0.16943000731E+02  0.22288089279E+02  0.51100000000E-03 0. -1.
         12    1    3    3    0    0 -0.33873231162E+01  0.28800098221E+01  0.13083232163E+01  0.46346654796E+01  0.00000000000E+00 0. -1.
</event>
<event>
 7    1  0.2313935E-008  0.4614232E+02  0.7816164E-02  0.1320468E+00
        -11   -1    0    0    0    0  0.00000000000E+00  0.00000000000E+00  0.45593999997E+02  0.45594000000E+02  0.51100000000E-03 0.  1.
         11   -1    0    0    0    0 -0.00000000000E+00 -0.00000000000E+00 -0.45593999997E+02  0.45594000000E+02  0.51100000000E-03 0. -1.
    9900012    2    1    2    0    0  0.34935073329E+02 -0.22065066356E+02  0.17938421536E+02  0.46142317977E+02  0.10000001965E+02 0.  0.
         12    1    1    2    0    0 -0.34935073329E+02  0.22065066356E+02 -0.17938421536E+02  0.45045682023E+02  0.00000000000E+00 0. -1.
         11    1    3    3    0    0  0.10778194126E+01 -0.19833442460E+01 -0.22859905109E+00  0.22688338131E+01  0.51100000000E-03 0. -1.
        -11    1    3    3    0    0  0.25116629849E+02 -0.18078465663E+02  0.13473769371E+02  0.33752310692E+02  0.51100000000E-03 0.  1.
        -12    1    3    3    0    0  0.87406240666E+01 -0.20032564467E+01  0.46932512161E+01  0.10121173472E+02  0.00000000000E+00 0.  1.
</event>
<event>
 7    1  0.2313935E-008  0.4614232E+02  0.7816164E-02  0.1320468E+00
        -11   -1    0    0    0    0  0.00000000000E+00  0.00000000000E+00  0.45593999997E+02  0.45594000000E+02  0.51100000000E-03 0.  1.
         11   -1    0    0    0    0 -0.00000000000E+00 -0.00000000000E+00 -0.45593999997E+02  0.45594000000E+02  0.51100000000E-03 0. -1.
    9900012    2    1    2    0    0 -0.25183812375E+02  0.32727192835E+02  0.17994990366E+02  0.46142320575E+02  0.10000025660E+02 0.  0.
         12    1    1    2    0    0  0.25183812375E+02 -0.32727192835E+02 -0.17994990366E+02  0.45045679425E+02  0.00000000000E+00 0. -1.
         11    1    3    3    0    0 -0.13309790030E+02  0.14636117878E+02  0.10717593414E+02  0.22499628131E+02  0.51100000000E-03 0. -1.
        -11    1    3    3    0    0 -0.13377152989E+00  0.28045066564E+01 -0.51124060236E+00  0.28538604771E+01  0.51100000000E-03 0.  1.
         12    1    3    3    0    0 -0.11740250815E+02  0.15286568300E+02  0.77886375545E+01  0.20788831967E+02  0.00000000000E+00 0. -1.
</event>
<event>
 7    1  0.2313935E-008  0.4614232E+02  0.7816164E-02  0.1320468E+00
        -11   -1    0    0    0    0  0.00000000000E+00  0.00000000000E+00  0.45593999997E+02  0.45594000000E+02  0.51100000000E-03 0.  1.
         11   -1    0    0    0    0 -0.00000000000E+00 -0.00000000000E+00 -0.45593999997E+02  0.45594000000E+02  0.51100000000E-03 0. -1.
    9900012    2    1    2    0    0  0.29193603460E+01 -0.68782273885E+01  0.44421625207E+02  0.46142318044E+02  0.10000002578E+02 0.  0.
         12    1    1    2    0    0 -0.29193603460E+01  0.68782273885E+01 -0.44421625207E+02  0.45045681956E+02  0.00000000000E+00 0. -1.
         11    1    3    3    0    0  0.39342731642E+00 -0.25086417978E+01  0.89097803298E+01  0.92645698502E+01  0.51100000000E-03 0. -1.
        -11    1    3    3    0    0 -0.13535113168E+01 -0.54267597572E+01  0.25120146167E+02  0.25735257101E+02  0.51100000000E-03 0.  1.
         12    1    3    3    0    0  0.38794443464E+01  0.10571741665E+01  0.10391698711E+02  0.11142491093E+02  0.00000000000E+00 0. -1.
</event>
<event>
 7    1  0.2313935E-008  0.4614232E+02  0.7816164E-02  0.1320468E+00
        -11   -1    0    0    0    0  0.00000000000E+00  0.00000000000E+00  0.45593999997E+02  0.45594000000E+02  0.51100000000E-03 0.  1.
         11   -1    0    0    0    0 -0.00000000000E+00 -0.00000000000E+00 -0.45593999997E+02  0.45594000000E+02  0.51100000000E-03 0. -1.
    9900012    2    1    2    0    0 -0.26076672347E+02 -0.28834993824E+02  0.22752228390E+02  0.46142316453E+02  0.99999880680E+01 0.  0.
         12    1    1    2    0    0  0.26076672347E+02  0.28834993824E+02 -0.22752228390E+02  0.45045683547E+02  0.00000000000E+00 0. -1.
         11    1    3    3    0    0 -0.20925629765E+01 -0.22637143406E+01  0.30969489818E+01  0.43697043017E+01  0.51100000000E-03 0.  1.
        -11    1    3    3    0    0 -0.96321199622E+01 -0.81426845633E+01  0.26707609022E+01  0.12892401286E+02  0.51100000000E-03 0. -1.
         12    1    3    3    0    0 -0.14351989408E+02 -0.18428594920E+02  0.16984518506E+02  0.28880210865E+02  0.00000000000E+00 0. -1.
</event>
<event>
 7    1  0.2313935E-008  0.4614232E+02  0.7816164E-02  0.1320468E+00
        -11   -1    0    0    0    0  0.00000000000E+00  0.00000000000E+00  0.45593999997E+02  0.45594000000E+02  0.51100000000E-03 0.  1.
         11   -1    0    0    0    0 -0.00000000000E+00 -0.00000000000E+00 -0.45593999997E+02  0.45594000000E+02  0.51100000000E-03 0. -1.
    9900012    2    1    2    0    0 -0.10431998986E+02 -0.17497755872E+02  0.40176055772E+02  0.46142317402E+02  0.99999967209E+01 0.  0.
         12    1    1    2    0    0  0.10431998986E+02  0.17497755872E+02 -0.40176055772E+02  0.45045682598E+02  0.00000000000E+00 0. -1.
         11    1    3    3    0    0 -0.48797740342E+01 -0.26510210562E+01  0.11990083475E+02  0.13213712925E+02  0.51100000000E-03 0. -1.
        -11    1    3    3    0    0 -0.98306074459E-01 -0.30470977884E+00  0.50673619408E+01  0.50774668323E+01  0.51100000000E-03 0.  1.
        -12    1    3    3    0    0 -0.54539188777E+01 -0.14542025036E+02  0.23118610356E+02  0.27851137644E+02  0.00000000000E+00 0.  1.
</event>
<event>
 7    1  0.2313935E-008  0.4614232E+02  0.7816164E-02  0.1320468E+00
        -11   -1    0    0    0    0  0.00000000000E+00  0.00000000000E+00  0.45593999997E+02  0.45594000000E+02  0.51100000000E-03 0.  1.
         11   -1    0    0    0    0 -0.00000000000E+00 -0.00000000000E+00 -0.45593999997E+02  0.45594000000E+02  0.51100000000E-03 0. -1.
    9900012    2    1    2    0    0 -0.17894295399E+02 -0.37792209091E+02  0.16752803361E+02  0.46142319893E+02  0.10000019445E+02 0.  0.
         12    1    1    2    0    0  0.17894295399E+02  0.37792209091E+02 -0.16752803361E+02  0.45045680107E+02  0.00000000000E+00 0. -1.
         11    1    3    3    0    0 -0.10176593770E+02 -0.18241989136E+02  0.90179950947E+01  0.22752087029E+02  0.51100000000E-03 0. -1.
        -11    1    3    3    0    0 -0.66353108349E+01 -0.78158147610E+01  0.42799643959E+01  0.11110013760E+02  0.51100000000E-03 0.  1.
         12    1    3    3    0    0 -0.10823907949E+01 -0.11734405194E+02  0.34548438704E+01  0.12280219105E+02  0.00000000000E+00 0. -1.
</event>
<event>
 7    1  0.2313935E-008  0.4614232E+02  0.7816164E-02  0.1320468E+00
        -11   -1    0    0    0    0  0.00000000000E+00  0.00000000000E+00  0.45593999997E+02  0.45594000000E+02  0.51100000000E-03 0.  1.
         11   -1    0    0    0    0 -0.00000000000E+00 -0.00000000000E+00 -0.45593999997E+02  0.45594000000E+02  0.51100000000E-03 0. -1.
    9900012    2    1    2    0    0 -0.29246763040E+02  0.32173263049E+02  0.11773761745E+02  0.46142317974E+02  0.10000001945E+02 0.  0.
         12    1    1    2    0    0  0.29246763040E+02 -0.32173263049E+02 -0.11773761745E+02  0.45045682026E+02  0.00000000000E+00 0. -1.
         11    1    3    3    0    0 -0.34445672904E+01  0.53242227178E+01  0.44662923119E+01  0.77562979986E+01  0.51100000000E-03 0. -1.
        -11    1    3    3    0    0 -0.25339882106E+02  0.24686779242E+02  0.62122236287E+01  0.35918496867E+02  0.51100000000E-03 0.  1.
        -12    1    3    3    0    0 -0.46231364343E+00  0.21622610887E+01  0.10952458046E+01  0.24675231090E+01  0.00000000000E+00 0.  1.
</event>
<event>
 7    1  0.2313935E-008  0.4614232E+02  0.7816164E-02  0.1320468E+00
        -11   -1    0    0    0    0  0.00000000000E+00  0.00000000000E+00  0.45593999997E+02  0.45594000000E+02  0.51100000000E-03 0. -1.
         11   -1    0    0    0    0 -0.00000000000E+00 -0.00000000000E+00 -0.45593999997E+02  0.45594000000E+02  0.51100000000E-03 0.  1.
    9900012    2    1    2    0    0  0.19018748555E+02  0.14565026858E+02 -0.38147880028E+02  0.46142317026E+02  0.99999932951E+01 0.  0.
         12    1    1    2    0    0 -0.19018748555E+02 -0.14565026858E+02  0.38147880028E+02  0.45045682974E+02  0.00000000000E+00 0. -1.
         11    1    3    3    0    0 -0.86023381172E-01  0.14547705724E+01 -0.35065761084E+00  0.14989057547E+01  0.51100000000E-03 0. -1.
        -11    1    3    3    0    0  0.14388877725E+02  0.12347925968E+02 -0.30894091432E+02  0.36248530502E+02  0.51100000000E-03 0.  1.
         12    1    3    3    0    0  0.47158942114E+01  0.76233031752E+00 -0.69031309851E+01  0.83948807689E+01  0.00000000000E+00 0. -1.
</event>
<event>
 7    1  0.2313935E-008  0.4614232E+02  0.7816164E-02  0.1320468E+00
        -11   -1    0    0    0    0  0.00000000000E+00  0.00000000000E+00  0.45593999997E+02  0.45594000000E+02  0.51100000000E-03 0.  1.
         11   -1    0    0    0    0 -0.00000000000E+00 -0.00000000000E+00 -0.45593999997E+02  0.45594000000E+02  0.51100000000E-03 0. -1.
    9900012    2    1    2    0    0  0.27637040472E+02  0.20877161684E+02  0.28800201654E+02  0.46142317617E+02  0.99999986892E+01 0.  0.
         12    1    1    2    0    0 -0.27637040472E+02 -0.20877161684E+02 -0.28800201654E+02  0.45045682383E+02  0.00000000000E+00 0. -1.
         11    1    3    3    0    0  0.99846872310E+01  0.99000472386E+01  0.16763429968E+02  0.21879613776E+02  0.51100000000E-03 0. -1.
        -11    1    3    3    0    0  0.48050358395E+01  0.26486804636E+01  0.49573996316E+01  0.73945715890E+01  0.51100000000E-03 0.  1.
        -12    1    3    3    0    0  0.12847317402E+02  0.83284339816E+01  0.70793720538E+01  0.16868132252E+02  0.00000000000E+00 0.  1.
</event>
<event>
 7    1  0.2313935E-008  0.4614232E+02  0.7816164E-02  0.1320468E+00
        -11   -1    0    0    0    0  0.00000000000E+00  0.00000000000E+00  0.45593999997E+02  0.45594000000E+02  0.51100000000E-03 0.  1.
         11   -1    0    0    0    0 -0.00000000000E+00 -0.00000000000E+00 -0.45593999997E+02  0.45594000000E+02  0.51100000000E-03 0. -1.
    9900012    2    1    2    0    0 -0.18835510396E+02 -0.21330310028E+02  0.34919263237E+02  0.46142317379E+02  0.99999965156E+01 0.  0.
         12    1    1    2    0    0  0.18835510396E+02  0.21330310028E+02 -0.34919263237E+02  0.45045682621E+02  0.00000000000E+00 0. -1.
         11    1    3    3    0    0 -0.68977711860E+01 -0.40955279470E+01  0.96393802251E+01  0.12540743514E+02  0.51100000000E-03 0. -1.
        -11    1    3    3    0    0 -0.12807076455E+02 -0.15173445111E+02  0.23313199236E+02  0.30622865685E+02  0.51100000000E-03 0.  1.
         12    1    3    3    0    0  0.86933724474E+00 -0.20613369702E+01  0.19666837759E+01  0.29787081804E+01  0.00000000000E+00 0. -1.
</event>
<event>
 7    1  0.2313935E-008  0.4614232E+02  0.7816164E-02  0.1320468E+00
        -11   -1    0    0    0    0  0.00000000000E+00  0.00000000000E+00  0.45593999997E+02  0.45594000000E+02  0.51100000000E-03 0.  1.
         11   -1    0    0    0    0 -0.00000000000E+00 -0.00000000000E+00 -0.45593999997E+02  0.45594000000E+02  0.51100000000E-03 0. -1.
    9900012    2    1    2    0    0  0.16455145503E+02  0.21655063606E+02  0.35908215692E+02  0.46142317105E+02  0.99999940150E+01 0.  0.
         12    1    1    2    0    0 -0.16455145503E+02 -0.21655063606E+02 -0.35908215692E+02  0.45045682895E+02  0.00000000000E+00 0. -1.
         11    1    3    3    0    0  0.10625489508E+02  0.95102494184E+01  0.19766572972E+02  0.24373413355E+02  0.51100000000E-03 0.  1.
        -11    1    3    3    0    0  0.27807152953E+01  0.14061836029E+01  0.56344606236E+01  0.64387014730E+01  0.51100000000E-03 0. -1.
        -12    1    3    3    0    0  0.30489407004E+01  0.10738630584E+02  0.10507182097E+02  0.15330202276E+02  0.00000000000E+00 0.  1.
</event>
<event>
 7    1  0.2313935E-008  0.4614231E+02  0.7816164E-02  0.1320468E+00
        -11   -1    0    0    0    0  0.00000000000E+00  0.00000000000E+00  0.45593999997E+02  0.45594000000E+02  0.51100000000E-03 0.  1.
         11   -1    0    0    0    0 -0.00000000000E+00 -0.00000000000E+00 -0.45593999997E+02  0.45594000000E+02  0.51100000000E-03 0. -1.
    9900012    2    1    2    0    0  0.97139169159E+01 -0.41054586071E+02  0.15788440462E+02  0.46142311288E+02  0.99999409751E+01 0.  0.
         12    1    1    2    0    0 -0.97139169159E+01  0.41054586071E+02 -0.15788440462E+02  0.45045688712E+02  0.00000000000E+00 0. -1.
         11    1    3    3    0    0 -0.82258534968E+00 -0.66712271243E+01  0.28591375012E+01  0.73045592279E+01  0.51100000000E-03 0. -1.
        -11    1    3    3    0    0 -0.79664201912E+00 -0.36349689020E+01  0.23534615732E+01  0.44030011427E+01  0.51100000000E-03 0.  1.
        -12    1    3    3    0    0  0.11333144285E+02 -0.30748390044E+02  0.10575841388E+02  0.34434750918E+02  0.00000000000E+00 0.  1.
</event>
<event>
 7    1  0.2313935E-008  0.4614232E+02  0.7816164E-02  0.1320468E+00
        -11   -1    0    0    0    0  0.00000000000E+00  0.00000000000E+00  0.45593999997E+02  0.45594000000E+02  0.51100000000E-03 0. -1.
         11   -1    0    0    0    0 -0.00000000000E+00 -0.00000000000E+00 -0.45593999997E+02  0.45594000000E+02  0.51100000000E-03 0.  1.
    9900012    2    1    2    0    0  0.33491592863E+02  0.20823117901E+02 -0.21767508085E+02  0.46142318300E+02  0.10000004913E+02 0.  0.
         12    1    1    2    0    0 -0.33491592863E+02 -0.20823117901E+02  0.21767508085E+02  0.45045681700E+02  0.00000000000E+00 0. -1.
         11    1    3    3    0    0  0.13550159477E+02  0.39000780225E+01 -0.78422434130E+01  0.16134379828E+02  0.51100000000E-03 0. -1.
        -11    1    3    3    0    0  0.19569757908E+02  0.15291787263E+02 -0.12470156832E+02  0.27790627808E+02  0.51100000000E-03 0.  1.
        -12    1    3    3    0    0  0.37167547844E+00  0.16312526156E+01 -0.14551078396E+01  0.22173106643E+01  0.00000000000E+00 0.  1.
</event>
<event>
 7    1  0.2313935E-008  0.4614232E+02  0.7816164E-02  0.1320468E+00
        -11   -1    0    0    0    0  0.00000000000E+00  0.00000000000E+00  0.45593999997E+02  0.45594000000E+02  0.51100000000E-03 0.  1.
         11   -1    0    0    0    0 -0.00000000000E+00 -0.00000000000E+00 -0.45593999997E+02  0.45594000000E+02  0.51100000000E-03 0. -1.
    9900012    2    1    2    0    0  0.80744809413E+01 -0.44087838725E+02  0.44920686067E+01  0.46142318228E+02  0.10000004262E+02 0.  0.
         12    1    1    2    0    0 -0.80744809413E+01  0.44087838725E+02 -0.44920686067E+01  0.45045681772E+02  0.00000000000E+00 0. -1.
         11    1    3    3    0    0  0.27828811918E+01 -0.83543433916E+01  0.34906079764E+00  0.88125663081E+01  0.51100000000E-03 0. -1.
        -11    1    3    3    0    0  0.19741378442E+01 -0.11749283100E+02 -0.26029256507E+01  0.12195002902E+02  0.51100000000E-03 0.  1.
         12    1    3    3    0    0  0.33174619053E+01 -0.23984212233E+02  0.67459334597E+01  0.25134749018E+02  0.00000000000E+00 0. -1.
</event>
<event>
 7    1  0.2313935E-008  0.4614232E+02  0.7816164E-02  0.1320468E+00
        -11   -1    0    0    0    0  0.00000000000E+00  0.00000000000E+00  0.45593999997E+02  0.45594000000E+02  0.51100000000E-03 0.  1.
         11   -1    0    0    0    0 -0.00000000000E+00 -0.00000000000E+00 -0.45593999997E+02  0.45594000000E+02  0.51100000000E-03 0. -1.
    9900012    2    1    2    0    0 -0.22057126061E+01 -0.35643234291E+02  0.27455564239E+02  0.46142319557E+02  0.10000016380E+02 0.  0.
         12    1    1    2    0    0  0.22057126061E+01  0.35643234291E+02 -0.27455564239E+02  0.45045680443E+02  0.00000000000E+00 0. -1.
         11    1    3    3    0    0 -0.15645944383E+01 -0.11745148176E+01  0.68687122567E+00  0.20734592243E+01  0.51100000000E-03 0. -1.
        -11    1    3    3    0    0 -0.29025406786E+01 -0.11272005988E+02  0.77078818083E+01  0.13960454993E+02  0.51100000000E-03 0.  1.
         12    1    3    3    0    0  0.22614225108E+01 -0.23196713486E+02  0.19060811205E+02  0.30108405340E+02  0.00000000000E+00 0. -1.
</event>
<event>
 7    1  0.2313935E-008  0.4614232E+02  0.7816164E-02  0.1320468E+00
        -11   -1    0    0    0    0  0.00000000000E+00  0.00000000000E+00  0.45593999997E+02  0.45594000000E+02  0.51100000000E-03 0.  1.
         11   -1    0    0    0    0 -0.00000000000E+00 -0.00000000000E+00 -0.45593999997E+02  0.45594000000E+02  0.51100000000E-03 0. -1.
    9900012    2    1    2    0    0  0.10060785086E+02  0.43561650611E+02 -0.55024214241E+01  0.46142318275E+02  0.10000004686E+02 0.  0.
         12    1    1    2    0    0 -0.10060785086E+02 -0.43561650611E+02  0.55024214241E+01  0.45045681725E+02  0.00000000000E+00 0. -1.
         11    1    3    3    0    0  0.58888322490E+00  0.72220621785E+01 -0.38673245893E+01  0.82134746181E+01  0.51100000000E-03 0. -1.
        -11    1    3    3    0    0  0.40884625190E+01  0.19861537098E+02  0.14154999609E+01  0.20327317139E+02  0.51100000000E-03 0.  1.
        -12    1    3    3    0    0  0.53834393425E+01  0.16478051335E+02 -0.30505967957E+01  0.17601526518E+02  0.00000000000E+00 0.  1.
</event>
<event>
 7    1  0.2313935E-008  0.4614232E+02  0.7816164E-02  0.1320468E+00
        -11   -1    0    0    0    0  0.00000000000E+00  0.00000000000E+00  0.45593999997E+02  0.45594000000E+02  0.51100000000E-03 0. -1.
         11   -1    0    0    0    0 -0.00000000000E+00 -0.00000000000E+00 -0.45593999997E+02  0.45594000000E+02  0.51100000000E-03 0.  1.
    9900012    2    1    2    0    0 -0.37613091332E+02  0.74004198779E+01  0.23655921647E+02  0.46142317822E+02  0.10000000559E+02 0.  0.
         12    1    1    2    0    0  0.37613091332E+02 -0.74004198779E+01 -0.23655921647E+02  0.45045682178E+02  0.00000000000E+00 0. -1.
         11    1    3    3    0    0 -0.30805315891E+01  0.14605211203E+01  0.36949086425E+00  0.34291865761E+01  0.51100000000E-03 0. -1.
        -11    1    3    3    0    0 -0.93865484086E+01  0.47297310804E+01  0.84929175270E+01  0.13513226687E+02  0.51100000000E-03 0.  1.
        -12    1    3    3    0    0 -0.25146011334E+02  0.12101676772E+01  0.14793513255E+02  0.29199904559E+02  0.00000000000E+00 0.  1.
</event>
<event>
 7    1  0.2313935E-008  0.4614231E+02  0.7816164E-02  0.1320468E+00
        -11   -1    0    0    0    0  0.00000000000E+00  0.00000000000E+00  0.45593999997E+02  0.45594000000E+02  0.51100000000E-03 0.  1.
         11   -1    0    0    0    0 -0.00000000000E+00 -0.00000000000E+00 -0.45593999997E+02  0.45594000000E+02  0.51100000000E-03 0. -1.
    9900012    2    1    2    0    0 -0.17783899694E+02  0.15849057271E+02  0.38231587086E+02  0.46142312572E+02  0.99999526850E+01 0.  0.
         12    1    1    2    0    0  0.17783899694E+02 -0.15849057271E+02 -0.38231587086E+02  0.45045687428E+02  0.00000000000E+00 0. -1.
         11    1    3    3    0    0 -0.19825144804E+01  0.41754284776E+00  0.18256237950E+01  0.27271978653E+01  0.51100000000E-03 0. -1.
        -11    1    3    3    0    0 -0.11607620993E+02  0.85431447407E+01  0.29357288944E+02  0.32704320840E+02  0.51100000000E-03 0.  1.
         12    1    3    3    0    0 -0.41937642201E+01  0.68883696821E+01  0.70486743470E+01  0.10710793867E+02  0.00000000000E+00 0. -1.
</event>
<event>
 7    1  0.2313935E-008  0.4614232E+02  0.7816164E-02  0.1320468E+00
        -11   -1    0    0    0    0  0.00000000000E+00  0.00000000000E+00  0.45593999997E+02  0.45594000000E+02  0.51100000000E-03 0.  1.
         11   -1    0    0    0    0 -0.00000000000E+00 -0.00000000000E+00 -0.45593999997E+02  0.45594000000E+02  0.51100000000E-03 0. -1.
    9900012    2    1    2    0    0 -0.10598852725E+02 -0.64158119061E+01  0.43308372943E+02  0.46142317760E+02  0.99999999876E+01 0.  0.
         12    1    1    2    0    0  0.10598852725E+02  0.64158119061E+01 -0.43308372943E+02  0.45045682240E+02  0.00000000000E+00 0. -1.
         11    1    3    3    0    0 -0.95655341920E+00 -0.66850925491E+00  0.34901126151E+01  0.36800523631E+01  0.51100000000E-03 0. -1.
        -11    1    3    3    0    0 -0.95430632904E+01 -0.68875497318E+01  0.39580661762E+02  0.41293306770E+02  0.51100000000E-03 0.  1.
         12    1    3    3    0    0 -0.99236015304E-01  0.11402470806E+01  0.23759856656E+00  0.11689586265E+01  0.00000000000E+00 0. -1.
</event>
<event>
 7    1  0.2313935E-008  0.4614232E+02  0.7816164E-02  0.1320468E+00
        -11   -1    0    0    0    0  0.00000000000E+00  0.00000000000E+00  0.45593999997E+02  0.45594000000E+02  0.51100000000E-03 0.  1.
         11   -1    0    0    0    0 -0.00000000000E+00 -0.00000000000E+00 -0.45593999997E+02  0.45594000000E+02  0.51100000000E-03 0. -1.
    9900012    2    1    2    0    0  0.12575206680E+02  0.91724233492E+00  0.43245071391E+02  0.46142319229E+02  0.10000013382E+02 0.  0.
         12    1    1    2    0    0 -0.12575206680E+02 -0.91724233492E+00 -0.43245071391E+02  0.45045680771E+02  0.00000000000E+00 0. -1.
         11    1    3    3    0    0  0.35103832309E+01 -0.21111751773E+01  0.91176391168E+01  0.99955587328E+01  0.51100000000E-03 0.  1.
        -11    1    3    3    0    0  0.52226293747E+01 -0.18936860133E+01  0.18565144078E+02  0.19378505598E+02  0.51100000000E-03 0. -1.
         12    1    3    3    0    0  0.38421940739E+01  0.49221035255E+01  0.15562288197E+02  0.16768254898E+02  0.00000000000E+00 0. -1.
</event>
<event>
 7    1  0.2313935E-008  0.4614231E+02  0.7816164E-02  0.1320468E+00
        -11   -1    0    0    0    0  0.00000000000E+00  0.00000000000E+00  0.45593999997E+02  0.45594000000E+02  0.51100000000E-03 0.  1.
         11   -1    0    0    0    0 -0.00000000000E+00 -0.00000000000E+00 -0.45593999997E+02  0.45594000000E+02  0.51100000000E-03 0. -1.
    9900012    2    1    2    0    0 -0.43371230535E+01 -0.37707081731E+02  0.24258588534E+02  0.46142314672E+02  0.99999718283E+01 0.  0.
         12    1    1    2    0    0  0.43371230535E+01  0.37707081731E+02 -0.24258588534E+02  0.45045685328E+02  0.00000000000E+00 0. -1.
         11    1    3    3    0    0  0.17155515511E+01 -0.10847592507E+02  0.41802757020E+01  0.11751088696E+02  0.51100000000E-03 0. -1.
        -11    1    3    3    0    0 -0.12641688948E+01 -0.11212650249E+02  0.10597129321E+02  0.15479689878E+02  0.51100000000E-03 0.  1.
        -12    1    3    3    0    0 -0.47885057098E+01 -0.15646838975E+02  0.94811835103E+01  0.18911536098E+02  0.00000000000E+00 0.  1.
</event>
<event>
 7    1  0.2313935E-008  0.4614232E+02  0.7816164E-02  0.1320468E+00
        -11   -1    0    0    0    0  0.00000000000E+00  0.00000000000E+00  0.45593999997E+02  0.45594000000E+02  0.51100000000E-03 0. -1.
         11   -1    0    0    0    0 -0.00000000000E+00 -0.00000000000E+00 -0.45593999997E+02  0.45594000000E+02  0.51100000000E-03 0.  1.
    9900012    2    1    2    0    0 -0.37523237597E+02 -0.24521050234E+02  0.44540074865E+01  0.46142318220E+02  0.10000004188E+02 0.  0.
         12    1    1    2    0    0  0.37523237597E+02  0.24521050234E+02 -0.44540074865E+01  0.45045681780E+02  0.00000000000E+00 0. -1.
         11    1    3    3    0    0 -0.75822060697E+01 -0.16650314273E+01 -0.76476877051E+00  0.78004519145E+01  0.51100000000E-03 0. -1.
        -11    1    3    3    0    0 -0.11517824646E+02 -0.81436849150E+01 -0.37314742669E+00  0.14110957722E+02  0.51100000000E-03 0.  1.
        -12    1    3    3    0    0 -0.18423206881E+02 -0.14712333891E+02  0.55919236837E+01  0.24230908584E+02  0.00000000000E+00 0.  1.
</event>
<event>
 7    1  0.2313935E-008  0.4614232E+02  0.7816164E-02  0.1320468E+00
        -11   -1    0    0    0    0  0.00000000000E+00  0.00000000000E+00  0.45593999997E+02  0.45594000000E+02  0.51100000000E-03 0.  1.
         11   -1    0    0    0    0 -0.00000000000E+00 -0.00000000000E+00 -0.45593999997E+02  0.45594000000E+02  0.51100000000E-03 0. -1.
    9900012    2    1    2    0    0 -0.42588924601E+02  0.83198097426E+01 -0.12086261147E+02  0.46142318283E+02  0.10000004759E+02 0.  0.
         12    1    1    2    0    0  0.42588924601E+02 -0.83198097426E+01  0.12086261147E+02  0.45045681717E+02  0.00000000000E+00 0. -1.
         11    1    3    3    0    0 -0.15341062301E+02  0.59426089866E+01 -0.64537232090E+01  0.17672389131E+02  0.51100000000E-03 0. -1.
        -11    1    3    3    0    0 -0.23240986315E+02  0.38898961564E+01 -0.40833209307E+01  0.23915439513E+02  0.51100000000E-03 0.  1.
         12    1    3    3    0    0 -0.40068759852E+01 -0.15126954004E+01 -0.15492170070E+01  0.45544896388E+01  0.00000000000E+00 0. -1.
</event>
<event>
 7    1  0.2313935E-008  0.4614232E+02  0.7816164E-02  0.1320468E+00
        -11   -1    0    0    0    0  0.00000000000E+00  0.00000000000E+00  0.45593999997E+02  0.45594000000E+02  0.51100000000E-03 0. -1.
         11   -1    0    0    0    0 -0.00000000000E+00 -0.00000000000E+00 -0.45593999997E+02  0.45594000000E+02  0.51100000000E-03 0.  1.
    9900012    2    1    2    0    0  0.71367943343E+01 -0.53807940923E+01 -0.44150047492E+02  0.46142317943E+02  0.10000001660E+02 0.  0.
         12    1    1    2    0    0 -0.71367943343E+01  0.53807940923E+01  0.44150047492E+02  0.45045682057E+02  0.00000000000E+00 0. -1.
         11    1    3    3    0    0  0.35738187713E+01 -0.35742405212E+01 -0.97748116241E+01  0.11004286368E+02  0.51100000000E-03 0.  1.
        -11    1    3    3    0    0  0.29798563562E-01 -0.34033710258E+01 -0.15775689531E+02  0.16138655543E+02  0.51100000000E-03 0. -1.
        -12    1    3    3    0    0  0.35331769994E+01  0.15968174547E+01 -0.18599546337E+02  0.18999376032E+02  0.00000000000E+00 0.  1.
</event>
<event>
 7    1  0.2313935E-008  0.4614232E+02  0.7816164E-02  0.1320468E+00
        -11   -1    0    0    0    0  0.00000000000E+00  0.00000000000E+00  0.45593999997E+02  0.45594000000E+02  0.51100000000E-03 0.  1.
         11   -1    0    0    0    0 -0.00000000000E+00 -0.00000000000E+00 -0.45593999997E+02  0.45594000000E+02  0.51100000000E-03 0. -1.
    9900012    2    1    2    0    0  0.38206806232E+00  0.20167778334E+02  0.40276893483E+02  0.46142318658E+02  0.10000008179E+02 0.  0.
         12    1    1    2    0    0 -0.38206806232E+00 -0.20167778334E+02 -0.40276893483E+02  0.45045681342E+02  0.00000000000E+00 0. -1.
         11    1    3    3    0    0 -0.35180721789E+00 -0.63902389907E+00  0.31833559225E+00  0.79590054187E+00  0.51100000000E-03 0. -1.
        -11    1    3    3    0    0 -0.20071839549E+01  0.83643677774E+01  0.14037061178E+02  0.16463004662E+02  0.51100000000E-03 0.  1.
        -12    1    3    3    0    0  0.27410592351E+01  0.12442434456E+02  0.25921496713E+02  0.28883413454E+02  0.00000000000E+00 0.  1.
</event>
<event>
 7    1  0.2313935E-008  0.4614232E+02  0.7816164E-02  0.1320468E+00
        -11   -1    0    0    0    0  0.00000000000E+00  0.00000000000E+00  0.45593999997E+02  0.45594000000E+02  0.51100000000E-03 0. -1.
         11   -1    0    0    0    0 -0.00000000000E+00 -0.00000000000E+00 -0.45593999997E+02  0.45594000000E+02  0.51100000000E-03 0.  1.
    9900012    2    1    2    0    0 -0.25193510531E+02  0.32031467967E+02 -0.19193372317E+02  0.46142318144E+02  0.10000003489E+02 0.  0.
         12    1    1    2    0    0  0.25193510531E+02 -0.32031467967E+02  0.19193372317E+02  0.45045681856E+02  0.00000000000E+00 0. -1.
         11    1    3    3    0    0 -0.87278438557E+01  0.11464247305E+02 -0.97403323998E+01  0.17391903293E+02  0.51100000000E-03 0. -1.
        -11    1    3    3    0    0 -0.13253494910E+02  0.15806174859E+02 -0.10106168408E+02  0.22970087748E+02  0.51100000000E-03 0.  1.
        -12    1    3    3    0    0 -0.32121717649E+01  0.47610458027E+01  0.65312849062E+00  0.57803271022E+01  0.00000000000E+00 0.  1.
</event>
<event>
 7    1  0.2313935E-008  0.4614231E+02  0.7816164E-02  0.1320468E+00
        -11   -1    0    0    0    0  0.00000000000E+00  0.00000000000E+00  0.45593999997E+02  0.45594000000E+02  0.51100000000E-03 0. -1.
         11   -1    0    0    0    0 -0.00000000000E+00 -0.00000000000E+00 -0.45593999997E+02  0.45594000000E+02  0.51100000000E-03 0.  1.
    9900012    2    1    2    0    0 -0.19851331294E+02  0.40208260618E+02 -0.42818860569E+01  0.46142310702E+02  0.99999356298E+01 0.  0.
         12    1    1    2    0    0  0.19851331294E+02 -0.40208260618E+02  0.42818860569E+01  0.45045689298E+02  0.00000000000E+00 0. -1.
         11    1    3    3    0    0 -0.77663116063E+01  0.11583572863E+02 -0.55360035006E+01  0.15004735627E+02  0.51100000000E-03 0. -1.
        -11    1    3    3    0    0 -0.73065767084E+01  0.19175460961E+02  0.61463687195E+00  0.20529543225E+02  0.51100000000E-03 0.  1.
         12    1    3    3    0    0 -0.47784429798E+01  0.94492267945E+01  0.63948057180E+00  0.10608031850E+02  0.00000000000E+00 0. -1.
</event>
<event>
 7    1  0.2313935E-008  0.4614232E+02  0.7816164E-02  0.1320468E+00
        -11   -1    0    0    0    0  0.00000000000E+00  0.00000000000E+00  0.45593999997E+02  0.45594000000E+02  0.51100000000E-03 0.  1.
         11   -1    0    0    0    0 -0.00000000000E+00 -0.00000000000E+00 -0.45593999997E+02  0.45594000000E+02  0.51100000000E-03 0. -1.
    9900012    2    1    2    0    0  0.15175010949E+02 -0.26790904823E+02  0.32879780246E+02  0.46142317770E+02  0.10000000085E+02 0.  0.
         12    1    1    2    0    0 -0.15175010949E+02  0.26790904823E+02 -0.32879780246E+02  0.45045682230E+02  0.00000000000E+00 0. -1.
         11    1    3    3    0    0  0.13617476364E+02 -0.24335940225E+02  0.32906639260E+02  0.43133751944E+02  0.51100000000E-03 0.  1.
        -11    1    3    3    0    0  0.12074731427E+01 -0.14183611996E+01  0.25142159847E+00  0.18796151107E+01  0.51100000000E-03 0. -1.
        -12    1    3    3    0    0  0.35006144275E+00 -0.10366033982E+01 -0.27828061265E+00  0.11289507156E+01  0.00000000000E+00 0.  1.
</event>
<event>
 7    1  0.2313935E-008  0.4614232E+02  0.7816164E-02  0.1320468E+00
        -11   -1    0    0    0    0  0.00000000000E+00  0.00000000000E+00  0.45593999997E+02  0.45594000000E+02  0.51100000000E-03 0.  1.
         11   -1    0    0    0    0 -0.00000000000E+00 -0.00000000000E+00 -0.45593999997E+02  0.45594000000E+02  0.51100000000E-03 0. -1.
    9900012    2    1    2    0    0 -0.13871151232E+02  0.42473578908E+02 -0.57183695425E+01  0.46142317721E+02  0.99999996381E+01 0.  0.
         12    1    1    2    0    0  0.13871151232E+02 -0.42473578908E+02  0.57183695425E+01  0.45045682279E+02  0.00000000000E+00 0. -1.
         11    1    3    3    0    0 -0.81057812114E+01  0.15793157724E+02 -0.14779587636E+01  0.17813250189E+02  0.51100000000E-03 0. -1.
        -11    1    3    3    0    0 -0.52010774987E+01  0.17213631886E+02 -0.53983367923E+01  0.18775046478E+02  0.51100000000E-03 0.  1.
         12    1    3    3    0    0 -0.56429252206E+00  0.94667892975E+01  0.11579260135E+01  0.95540210543E+01  0.00000000000E+00 0. -1.
</event>
<event>
 7    1  0.2313935E-008  0.4614232E+02  0.7816164E-02  0.1320468E+00
        -11   -1    0    0    0    0  0.00000000000E+00  0.00000000000E+00  0.45593999997E+02  0.45594000000E+02  0.51100000000E-03 0. -1.
         11   -1    0    0    0    0 -0.00000000000E+00 -0.00000000000E+00 -0.45593999997E+02  0.45594000000E+02  0.51100000000E-03 0.  1.
    9900012    2    1    2    0    0 -0.54586715993E+01 -0.38026201173E+02 -0.23522847910E+02  0.46142318242E+02  0.10000004383E+02 0.  0.
         12    1    1    2    0    0  0.54586715993E+01  0.38026201173E+02  0.23522847910E+02  0.45045681758E+02  0.00000000000E+00 0. -1.
         11    1    3    3    0    0  0.13315708652E+01 -0.63083504952E+01 -0.31824673735E+01  0.71900254369E+01  0.51100000000E-03 0. -1.
        -11    1    3    3    0    0 -0.11816425870E+00 -0.12174096457E+02 -0.47149149971E+01  0.13055765432E+02  0.51100000000E-03 0.  1.
        -12    1    3    3    0    0 -0.66720782058E+01 -0.19543754220E+02 -0.15625465540E+02  0.25896527372E+02  0.00000000000E+00 0.  1.
</event>
<event>
 7    1  0.2313935E-008  0.4614232E+02  0.7816164E-02  0.1320468E+00
        -11   -1    0    0    0    0  0.00000000000E+00  0.00000000000E+00  0.45593999997E+02  0.45594000000E+02  0.51100000000E-03 0. -1.
         11   -1    0    0    0    0 -0.00000000000E+00 -0.00000000000E+00 -0.45593999997E+02  0.45594000000E+02  0.51100000000E-03 0.  1.
    9900012    2    1    2    0    0 -0.15136111764E+02  0.13499298287E+02 -0.40221643137E+02  0.46142317519E+02  0.99999977909E+01 0.  0.
         12    1    1    2    0    0  0.15136111764E+02 -0.13499298287E+02  0.40221643137E+02  0.45045682481E+02  0.00000000000E+00 0. -1.
         11    1    3    3    0    0 -0.81056489394E+00  0.21727404048E+01 -0.11428675893E+02  0.11661580049E+02  0.51100000000E-03 0. -1.
        -11    1    3    3    0    0 -0.27370964590E+01 -0.15654544577E-01 -0.47087289098E+01  0.54464731981E+01  0.51100000000E-03 0.  1.
        -12    1    3    3    0    0 -0.11588450411E+02  0.11342212427E+02 -0.24084238334E+02  0.29034264271E+02  0.00000000000E+00 0.  1.
</event>
<event>
 7    1  0.2313935E-008  0.4614232E+02  0.7816164E-02  0.1320468E+00
        -11   -1    0    0    0    0  0.00000000000E+00  0.00000000000E+00  0.45593999997E+02  0.45594000000E+02  0.51100000000E-03 0.  1.
         11   -1    0    0    0    0 -0.00000000000E+00 -0.00000000000E+00 -0.45593999997E+02  0.45594000000E+02  0.51100000000E-03 0. -1.
    9900012    2    1    2    0    0 -0.27164543894E+01  0.26552545504E+02  0.36286315578E+02  0.46142317683E+02  0.99999992843E+01 0.  0.
         12    1    1    2    0    0  0.27164543894E+01 -0.26552545504E+02 -0.36286315578E+02  0.45045682317E+02  0.00000000000E+00 0. -1.
         11    1    3    3    0    0  0.67999866189E+00  0.68298683921E-01  0.79122308133E+00  0.10455128483E+01  0.51100000000E-03 0. -1.
        -11    1    3    3    0    0 -0.41800511295E+01  0.69619801838E+01  0.83084466597E+01  0.11617757171E+02  0.51100000000E-03 0.  1.
        -12    1    3    3    0    0  0.78359807827E+00  0.19522266636E+02  0.27186645837E+02  0.33479047663E+02  0.00000000000E+00 0.  1.
</event>
<event>
 7    1  0.2313935E-008  0.4614231E+02  0.7816164E-02  0.1320468E+00
        -11   -1    0    0    0    0  0.00000000000E+00  0.00000000000E+00  0.45593999997E+02  0.45594000000E+02  0.51100000000E-03 0. -1.
         11   -1    0    0    0    0 -0.00000000000E+00 -0.00000000000E+00 -0.45593999997E+02  0.45594000000E+02  0.51100000000E-03 0.  1.
    9900012    2    1    2    0    0 -0.13218939055E+02  0.32981138827E+01 -0.42935953523E+02  0.46142311973E+02  0.99999472187E+01 0.  0.
         12    1    1    2    0    0  0.13218939055E+02 -0.32981138827E+01  0.42935953523E+02  0.45045688027E+02  0.00000000000E+00 0. -1.
         11    1    3    3    0    0 -0.12585833075E+01 -0.10574314956E-01 -0.19401899214E+02  0.19442680811E+02  0.51100000000E-03 0. -1.
        -11    1    3    3    0    0 -0.10109119663E+02  0.30910261667E+01 -0.21382917948E+02  0.23853258129E+02  0.51100000000E-03 0.  1.
         12    1    3    3    0    0 -0.18512360843E+01  0.21766203096E+00 -0.21511363607E+01  0.28463730328E+01  0.00000000000E+00 0. -1.
</event>
<event>
 7    1  0.2313935E-008  0.4614232E+02  0.7816164E-02  0.1320468E+00
        -11   -1    0    0    0    0  0.00000000000E+00  0.00000000000E+00  0.45593999997E+02  0.45594000000E+02  0.51100000000E-03 0. -1.
         11   -1    0    0    0    0 -0.00000000000E+00 -0.00000000000E+00 -0.45593999997E+02  0.45594000000E+02  0.51100000000E-03 0.  1.
    9900012    2    1    2    0    0  0.13917282336E+01 -0.38465139030E+02 -0.23401062495E+02  0.46142317033E+02  0.99999933586E+01 0.  0.
         12    1    1    2    0    0 -0.13917282336E+01  0.38465139030E+02  0.23401062495E+02  0.45045682967E+02  0.00000000000E+00 0. -1.
         11    1    3    3    0    0 -0.40026311469E+00 -0.10686772551E+02 -0.30951895198E+01  0.11133171900E+02  0.51100000000E-03 0. -1.
        -11    1    3    3    0    0  0.81394589972E+00 -0.38446038804E+01 -0.56726160102E+00  0.39705507062E+01  0.51100000000E-03 0.  1.
        -12    1    3    3    0    0  0.97804544857E+00 -0.23933762599E+02 -0.19738611374E+02  0.31038594427E+02  0.00000000000E+00 0.  1.
</event>
<event>
 7    1  0.2313935E-008  0.4614232E+02  0.7816164E-02  0.1320468E+00
        -11   -1    0    0    0    0  0.00000000000E+00  0.00000000000E+00  0.45593999997E+02  0.45594000000E+02  0.51100000000E-03 0. -1.
         11   -1    0    0    0    0 -0.00000000000E+00 -0.00000000000E+00 -0.45593999997E+02  0.45594000000E+02  0.51100000000E-03 0.  1.
    9900012    2    1    2    0    0 -0.30863589549E+02 -0.31090752843E+02  0.10484152109E+02  0.46142317436E+02  0.99999970399E+01 0.  0.
         12    1    1    2    0    0  0.30863589549E+02  0.31090752843E+02 -0.10484152109E+02  0.45045682564E+02  0.00000000000E+00 0. -1.
         11    1    3    3    0    0 -0.27881548158E+01 -0.29135127784E+01 -0.13246621564E+01  0.42446547654E+01  0.51100000000E-03 0. -1.
        -11    1    3    3    0    0 -0.25961661616E+02 -0.27089226533E+02  0.97862250627E+01  0.38776336460E+02  0.51100000000E-03 0.  1.
         12    1    3    3    0    0 -0.21137731168E+01 -0.10880135314E+01  0.20225892024E+01  0.31213262110E+01  0.00000000000E+00 0. -1.
</event>
<event>
 7    1  0.2786920E-008  0.4614232E+02  0.7816164E-02  0.1320468E+00
        -11   -1    0    0    0    0  0.00000000000E+00  0.00000000000E+00  0.45593999997E+02  0.45594000000E+02  0.51100000000E-03 0.  1.
         11   -1    0    0    0    0 -0.00000000000E+00 -0.00000000000E+00 -0.45593999997E+02  0.45594000000E+02  0.51100000000E-03 0. -1.
    9900012    2    1    2    0    0 -0.26037580261E+02 -0.35472553314E+02 -0.96361762944E+01  0.46142317432E+02  0.99999969998E+01 0.  0.
         12    1    1    2    0    0  0.26037580261E+02  0.35472553314E+02  0.96361762944E+01  0.45045682568E+02  0.00000000000E+00 0. -1.
         11    1    3    3    0    0 -0.16421800404E+02 -0.19800286975E+02 -0.69920844875E+01  0.26657384316E+02  0.51100000000E-03 0. -1.
        -11    1    3    3    0    0 -0.72183338851E+01 -0.98103056094E+01 -0.43377099749E+01  0.12929120941E+02  0.51100000000E-03 0.  1.
         12    1    3    3    0    0 -0.23974459716E+01 -0.58619607291E+01  0.16936181680E+01  0.65558121751E+01  0.00000000000E+00 0. -1.
</event>
<event>
 7    1  0.2313935E-008  0.4614231E+02  0.7816164E-02  0.1320468E+00
        -11   -1    0    0    0    0  0.00000000000E+00  0.00000000000E+00  0.45593999997E+02  0.45594000000E+02  0.51100000000E-03 0.  1.
         11   -1    0    0    0    0 -0.00000000000E+00 -0.00000000000E+00 -0.45593999997E+02  0.45594000000E+02  0.51100000000E-03 0. -1.
    9900012    2    1    2    0    0  0.24029479172E+02  0.10597841364E+02  0.36597596502E+02  0.46142310078E+02  0.99999299384E+01 0.  0.
         12    1    1    2    0    0 -0.24029479172E+02 -0.10597841364E+02 -0.36597596502E+02  0.45045689922E+02  0.00000000000E+00 0. -1.
         11    1    3    3    0    0  0.11206227532E+02  0.66378620493E+01  0.14045698833E+02  0.19155218716E+02  0.51100000000E-03 0. -1.
        -11    1    3    3    0    0  0.48842940495E+01  0.47843982489E+01  0.10093989794E+02  0.12191612904E+02  0.51100000000E-03 0.  1.
        -12    1    3    3    0    0  0.79389575900E+01 -0.82441893424E+00  0.12457907874E+02  0.14795478458E+02  0.00000000000E+00 0.  1.
</event>
<event>
 7    1  0.2313935E-008  0.4614232E+02  0.7816164E-02  0.1320468E+00
        -11   -1    0    0    0    0  0.00000000000E+00  0.00000000000E+00  0.45593999997E+02  0.45594000000E+02  0.51100000000E-03 0.  1.
         11   -1    0    0    0    0 -0.00000000000E+00 -0.00000000000E+00 -0.45593999997E+02  0.45594000000E+02  0.51100000000E-03 0. -1.
    9900012    2    1    2    0    0  0.42555057658E+02  0.11790133420E+02  0.88979401357E+01  0.46142317444E+02  0.99999971048E+01 0.  0.
         12    1    1    2    0    0 -0.42555057658E+02 -0.11790133420E+02 -0.88979401357E+01  0.45045682556E+02  0.00000000000E+00 0. -1.
         11    1    3    3    0    0  0.17065582850E+02  0.13551946084E+01  0.38650739498E+01  0.17550198499E+02  0.51100000000E-03 0. -1.
        -11    1    3    3    0    0  0.92318308175E+01  0.11732879734E+01  0.39123305475E+00  0.93143098765E+01  0.51100000000E-03 0.  1.
        -12    1    3    3    0    0  0.16257643990E+02  0.92616508384E+01  0.46416331311E+01  0.19277809069E+02  0.00000000000E+00 0.  1.
</event>
<event>
 7    1  0.2313935E-008  0.4614231E+02  0.7816164E-02  0.1320468E+00
        -11   -1    0    0    0    0  0.00000000000E+00  0.00000000000E+00  0.45593999997E+02  0.45594000000E+02  0.51100000000E-03 0.  1.
         11   -1    0    0    0    0 -0.00000000000E+00 -0.00000000000E+00 -0.45593999997E+02  0.45594000000E+02  0.51100000000E-03 0. -1.
    9900012    2    1    2    0    0 -0.42329063548E+01 -0.35762628899E+01  0.44703543971E+02  0.46142312126E+02  0.99999486167E+01 0.  0.
         12    1    1    2    0    0  0.42329063548E+01  0.35762628899E+01 -0.44703543971E+02  0.45045687874E+02  0.00000000000E+00 0. -1.
         11    1    3    3    0    0 -0.27882887611E+01 -0.49411707869E+00  0.27172460565E+02  0.27319614187E+02  0.51100000000E-03 0. -1.
        -11    1    3    3    0    0 -0.22404483928E+01 -0.36822364007E+01  0.17259595533E+02  0.17789663070E+02  0.51100000000E-03 0.  1.
         12    1    3    3    0    0  0.79583079910E+00  0.60009058943E+00  0.27148787254E+00  0.10330348693E+01  0.00000000000E+00 0. -1.
</event>
<event>
 7    1  0.2313935E-008  0.4614232E+02  0.7816164E-02  0.1320468E+00
        -11   -1    0    0    0    0  0.00000000000E+00  0.00000000000E+00  0.45593999997E+02  0.45594000000E+02  0.51100000000E-03 0. -1.
         11   -1    0    0    0    0 -0.00000000000E+00 -0.00000000000E+00 -0.45593999997E+02  0.45594000000E+02  0.51100000000E-03 0.  1.
    9900012    2    1    2    0    0  0.12332151325E+02  0.35361336602E+02 -0.25032127783E+02  0.46142317589E+02  0.99999984272E+01 0.  0.
         12    1    1    2    0    0 -0.12332151325E+02 -0.35361336602E+02  0.25032127783E+02  0.45045682411E+02  0.00000000000E+00 0. -1.
         11    1    3    3    0    0  0.48468498870E+01  0.80547452816E+01 -0.37177745862E+01  0.10109041671E+02  0.51100000000E-03 0. -1.
        -11    1    3    3    0    0  0.86190144205E+01  0.25499723622E+02 -0.19888017594E+02  0.33467246055E+02  0.51100000000E-03 0.  1.
         12    1    3    3    0    0 -0.11337129826E+01  0.18068676975E+01 -0.14263356030E+01  0.25660298626E+01  0.00000000000E+00 0. -1.
</event>
<event>
 7    1  0.2313935E-008  0.4614232E+02  0.7816164E-02  0.1320468E+00
        -11   -1    0    0    0    0  0.00000000000E+00  0.00000000000E+00  0.45593999997E+02  0.45594000000E+02  0.51100000000E-03 0.  1.
         11   -1    0    0    0    0 -0.00000000000E+00 -0.00000000000E+00 -0.45593999997E+02  0.45594000000E+02  0.51100000000E-03 0. -1.
    9900012    2    1    2    0    0 -0.32390588924E+02 -0.20553464406E+02  0.23611826410E+02  0.46142317673E+02  0.99999991937E+01 0.  0.
         12    1    1    2    0    0  0.32390588924E+02  0.20553464406E+02 -0.23611826410E+02  0.45045682327E+02  0.00000000000E+00 0. -1.
         11    1    3    3    0    0 -0.84097708897E+01 -0.11761125924E+01  0.44401134410E+01  0.95823846133E+01  0.51100000000E-03 0. -1.
        -11    1    3    3    0    0  0.24811396747E-01  0.16844544485E+00  0.68340065771E-01  0.18346688804E+00  0.51100000000E-03 0.  1.
        -12    1    3    3    0    0 -0.24005629431E+02 -0.19545797258E+02  0.19103372903E+02  0.36376466171E+02  0.00000000000E+00 0.  1.
</event>
<event>
 7    1  0.2313935E-008  0.4614233E+02  0.7816164E-02  0.1320468E+00
        -11   -1    0    0    0    0  0.00000000000E+00  0.00000000000E+00  0.45593999997E+02  0.45594000000E+02  0.51100000000E-03 0.  1.
         11   -1    0    0    0    0 -0.00000000000E+00 -0.00000000000E+00 -0.45593999997E+02  0.45594000000E+02  0.51100000000E-03 0. -1.
    9900012    2    1    2    0    0  0.20908762870E+02 -0.39134467133E+02 -0.77736479280E+01  0.46142328902E+02  0.10000101591E+02 0.  0.
         12    1    1    2    0    0 -0.20908762870E+02  0.39134467133E+02  0.77736479280E+01  0.45045671098E+02  0.00000000000E+00 0. -1.
         11    1    3    3    0    0  0.45181735724E+01 -0.76626206532E+01 -0.15198824495E+01  0.90243941972E+01  0.51100000000E-03 0. -1.
        -11    1    3    3    0    0  0.12380619118E+02 -0.29182164178E+02 -0.39115244560E+01  0.31940232618E+02  0.51100000000E-03 0.  1.
         12    1    3    3    0    0  0.40099701805E+01 -0.22896823016E+01 -0.23422410225E+01  0.51777020867E+01  0.00000000000E+00 0. -1.
</event>
<event>
 7    1  0.2313935E-008  0.4614232E+02  0.7816164E-02  0.1320468E+00
        -11   -1    0    0    0    0  0.00000000000E+00  0.00000000000E+00  0.45593999997E+02  0.45594000000E+02  0.51100000000E-03 0.  1.
         11   -1    0    0    0    0 -0.00000000000E+00 -0.00000000000E+00 -0.45593999997E+02  0.45594000000E+02  0.51100000000E-03 0. -1.
    9900012    2    1    2    0    0 -0.39721091795E+02  0.11151001713E+02 -0.18083239017E+02  0.46142317566E+02  0.99999982213E+01 0.  0.
         12    1    1    2    0    0  0.39721091795E+02 -0.11151001713E+02  0.18083239017E+02  0.45045682434E+02  0.00000000000E+00 0. -1.
         11    1    3    3    0    0 -0.10219978232E+02  0.14786951318E+01 -0.15464666050E+01  0.10441554175E+02  0.51100000000E-03 0. -1.
        -11    1    3    3    0    0 -0.16038855677E+02  0.84327567533E+01 -0.94973218537E+01  0.20458626556E+02  0.51100000000E-03 0.  1.
         12    1    3    3    0    0 -0.13462257885E+02  0.12395498280E+01 -0.70394505584E+01  0.15242136835E+02  0.00000000000E+00 0. -1.
</event>
<event>
 7    1  0.2313935E-008  0.4614232E+02  0.7816164E-02  0.1320468E+00
        -11   -1    0    0    0    0  0.00000000000E+00  0.00000000000E+00  0.45593999997E+02  0.45594000000E+02  0.51100000000E-03 0. -1.
         11   -1    0    0    0    0 -0.00000000000E+00 -0.00000000000E+00 -0.45593999997E+02  0.45594000000E+02  0.51100000000E-03 0.  1.
    9900012    2    1    2    0    0  0.26625416997E+02 -0.24778785390E+02 -0.26574656805E+02  0.46142318520E+02  0.10000006922E+02 0.  0.
         12    1    1    2    0    0 -0.26625416997E+02  0.24778785390E+02  0.26574656805E+02  0.45045681480E+02  0.00000000000E+00 0. -1.
         11    1    3    3    0    0  0.66694514676E+01 -0.60413006954E+01 -0.54399988529E+01  0.10515345204E+02  0.51100000000E-03 0.  1.
        -11    1    3    3    0    0  0.61669922786E+01 -0.10279222198E+02 -0.57194518834E+01  0.13281804579E+02  0.51100000000E-03 0. -1.
         12    1    3    3    0    0  0.13788973251E+02 -0.84582624965E+01 -0.15415206069E+02  0.22345168738E+02  0.00000000000E+00 0. -1.
</event>
<event>
 7    1  0.2313935E-008  0.4614232E+02  0.7816164E-02  0.1320468E+00
        -11   -1    0    0    0    0  0.00000000000E+00  0.00000000000E+00  0.45593999997E+02  0.45594000000E+02  0.51100000000E-03 0.  1.
         11   -1    0    0    0    0 -0.00000000000E+00 -0.00000000000E+00 -0.45593999997E+02  0.45594000000E+02  0.51100000000E-03 0. -1.
    9900012    2    1    2    0    0 -0.29765547949E+02  0.30965388639E+02  0.13574621273E+02  0.46142317843E+02  0.10000000746E+02 0.  0.
         12    1    1    2    0    0  0.29765547949E+02 -0.30965388639E+02 -0.13574621273E+02  0.45045682157E+02  0.00000000000E+00 0. -1.
         11    1    3    3    0    0 -0.10936721033E+01  0.96153058884E-01  0.90508165759E+00  0.14228623083E+01  0.51100000000E-03 0. -1.
        -11    1    3    3    0    0 -0.19046857548E+02  0.15617098109E+02  0.50629376341E+01  0.25145772479E+02  0.51100000000E-03 0.  1.
         12    1    3    3    0    0 -0.96250182983E+01  0.15252137471E+02  0.76066019817E+01  0.19573683056E+02  0.00000000000E+00 0. -1.
</event>
<event>
 7    1  0.2313935E-008  0.4614232E+02  0.7816164E-02  0.1320468E+00
        -11   -1    0    0    0    0  0.00000000000E+00  0.00000000000E+00  0.45593999997E+02  0.45594000000E+02  0.51100000000E-03 0.  1.
         11   -1    0    0    0    0 -0.00000000000E+00 -0.00000000000E+00 -0.45593999997E+02  0.45594000000E+02  0.51100000000E-03 0. -1.
    9900012    2    1    2    0    0 -0.24554778754E+01  0.16998367717E+01  0.44946575847E+02  0.46142317666E+02  0.99999991286E+01 0.  0.
         12    1    1    2    0    0  0.24554778754E+01 -0.16998367717E+01 -0.44946575847E+02  0.45045682334E+02  0.00000000000E+00 0. -1.
         11    1    3    3    0    0 -0.16976048512E+01  0.17660941701E+01  0.83218118904E+01  0.86748777656E+01  0.51100000000E-03 0. -1.
        -11    1    3    3    0    0 -0.40595878094E+01  0.63834749003E+00  0.25895755613E+02  0.26219799765E+02  0.51100000000E-03 0.  1.
         12    1    3    3    0    0  0.33017147852E+01 -0.70460488848E+00  0.10729008344E+02  0.11247640135E+02  0.00000000000E+00 0. -1.
</event>
<event>
 7    1  0.2313935E-008  0.4614232E+02  0.7816164E-02  0.1320468E+00
        -11   -1    0    0    0    0  0.00000000000E+00  0.00000000000E+00  0.45593999997E+02  0.45594000000E+02  0.51100000000E-03 0. -1.
         11   -1    0    0    0    0 -0.00000000000E+00 -0.00000000000E+00 -0.45593999997E+02  0.45594000000E+02  0.51100000000E-03 0.  1.
    9900012    2    1    2    0    0  0.17117171795E+01 -0.86851449815E+01 -0.44167316844E+02  0.46142316564E+02  0.99999890833E+01 0.  0.
         12    1    1    2    0    0 -0.17117171795E+01  0.86851449815E+01  0.44167316844E+02  0.45045683436E+02  0.00000000000E+00 0. -1.
         11    1    3    3    0    0  0.41292557179E+01 -0.35646386460E+01 -0.12865039344E+02  0.13973783991E+02  0.51100000000E-03 0. -1.
        -11    1    3    3    0    0 -0.22781494827E+01 -0.60305693642E+01 -0.26024151037E+02  0.26810709975E+02  0.51100000000E-03 0.  1.
        -12    1    3    3    0    0 -0.13938905579E+00  0.91006302870E+00 -0.52781264631E+01  0.53578225975E+01  0.00000000000E+00 0.  1.
</event>
<event>
 7    1  0.2313935E-008  0.4614232E+02  0.7816164E-02  0.1320468E+00
        -11   -1    0    0    0    0  0.00000000000E+00  0.00000000000E+00  0.45593999997E+02  0.45594000000E+02  0.51100000000E-03 0.  1.
         11   -1    0    0    0    0 -0.00000000000E+00 -0.00000000000E+00 -0.45593999997E+02  0.45594000000E+02  0.51100000000E-03 0. -1.
    9900012    2    1    2    0    0  0.29132204901E+02  0.17511281463E+02  0.29559824204E+02  0.46142317101E+02  0.99999939805E+01 0.  0.
         12    1    1    2    0    0 -0.29132204901E+02 -0.17511281463E+02 -0.29559824204E+02  0.45045682899E+02  0.00000000000E+00 0. -1.
         11    1    3    3    0    0  0.70885799157E+01  0.61887403632E+01  0.98898825132E+01  0.13651309420E+02  0.51100000000E-03 0. -1.
        -11    1    3    3    0    0  0.32040480460E+01  0.45802260000E+01  0.63173169548E+01  0.84352171199E+01  0.51100000000E-03 0.  1.
        -12    1    3    3    0    0  0.18839576940E+02  0.67423150994E+01  0.13352624736E+02  0.24055790561E+02  0.00000000000E+00 0.  1.
</event>
<event>
 7    1  0.2313935E-008  0.4614232E+02  0.7816164E-02  0.1320468E+00
        -11   -1    0    0    0    0  0.00000000000E+00  0.00000000000E+00  0.45593999997E+02  0.45594000000E+02  0.51100000000E-03 0.  1.
         11   -1    0    0    0    0 -0.00000000000E+00 -0.00000000000E+00 -0.45593999997E+02  0.45594000000E+02  0.51100000000E-03 0. -1.
    9900012    2    1    2    0    0 -0.28670839386E+02  0.32230780128E+02  0.12972020691E+02  0.46142317193E+02  0.99999948185E+01 0.  0.
         12    1    1    2    0    0  0.28670839386E+02 -0.32230780128E+02 -0.12972020691E+02  0.45045682807E+02  0.00000000000E+00 0. -1.
         11    1    3    3    0    0 -0.77238920808E+01  0.99351018955E+01  0.15782859589E+00  0.12585295733E+02  0.51100000000E-03 0. -1.
        -11    1    3    3    0    0 -0.30297051376E+00 -0.26504036853E+00  0.35228840130E+00  0.53492514240E+00  0.51100000000E-03 0.  1.
        -12    1    3    3    0    0 -0.20643976791E+02  0.22560718601E+02  0.12461903694E+02  0.33022096318E+02  0.00000000000E+00 0.  1.
</event>
<event>
 7    1  0.2313935E-008  0.4614232E+02  0.7816164E-02  0.1320468E+00
        -11   -1    0    0    0    0  0.00000000000E+00  0.00000000000E+00  0.45593999997E+02  0.45594000000E+02  0.51100000000E-03 0.  1.
         11   -1    0    0    0    0 -0.00000000000E+00 -0.00000000000E+00 -0.45593999997E+02  0.45594000000E+02  0.51100000000E-03 0. -1.
    9900012    2    1    2    0    0 -0.78077300448E+01  0.24116860004E+02  0.37236138092E+02  0.46142316912E+02  0.99999922564E+01 0.  0.
         12    1    1    2    0    0  0.78077300448E+01 -0.24116860004E+02 -0.37236138092E+02  0.45045683088E+02  0.00000000000E+00 0. -1.
         11    1    3    3    0    0 -0.44648660388E+01  0.25417549372E+01  0.72629098450E+01  0.88963704163E+01  0.51100000000E-03 0. -1.
        -11    1    3    3    0    0 -0.38004190857E+01  0.16346547882E+02  0.21432319471E+02  0.27221262482E+02  0.51100000000E-03 0.  1.
         12    1    3    3    0    0  0.45755507968E+00  0.52285571842E+01  0.85409087750E+01  0.10024684014E+02  0.00000000000E+00 0. -1.
</event>
<event>
 7    1  0.2313935E-008  0.4614232E+02  0.7816164E-02  0.1320468E+00
        -11   -1    0    0    0    0  0.00000000000E+00  0.00000000000E+00  0.45593999997E+02  0.45594000000E+02  0.51100000000E-03 0. -1.
         11   -1    0    0    0    0 -0.00000000000E+00 -0.00000000000E+00 -0.45593999997E+02  0.45594000000E+02  0.51100000000E-03 0.  1.
    9900012    2    1    2    0    0  0.29722847777E+02  0.16453656351E+02 -0.29579435943E+02  0.46142317432E+02  0.99999969993E+01 0.  0.
         12    1    1    2    0    0 -0.29722847777E+02 -0.16453656351E+02  0.29579435943E+02  0.45045682568E+02  0.00000000000E+00 0. -1.
         11    1    3    3    0    0  0.46179252684E+01  0.36933512802E+01 -0.62661626869E+01  0.86157340107E+01  0.51100000000E-03 0. -1.
        -11    1    3    3    0    0  0.22516408277E+02  0.12902628622E+02 -0.23385030645E+02  0.34933166556E+02  0.51100000000E-03 0.  1.
        -12    1    3    3    0    0  0.25885142307E+01 -0.14232355073E+00  0.71757388719E-01  0.25934168655E+01  0.00000000000E+00 0.  1.
</event>
<event>
 7    1  0.2313935E-008  0.4614232E+02  0.7816164E-02  0.1320468E+00
        -11   -1    0    0    0    0  0.00000000000E+00  0.00000000000E+00  0.45593999997E+02  0.45594000000E+02  0.51100000000E-03 0.  1.
         11   -1    0    0    0    0 -0.00000000000E+00 -0.00000000000E+00 -0.45593999997E+02  0.45594000000E+02  0.51100000000E-03 0. -1.
    9900012    2    1    2    0    0  0.39850479623E+02  0.16861649958E+02 -0.12519485688E+02  0.46142317772E+02  0.10000000095E+02 0.  0.
         12    1    1    2    0    0 -0.39850479623E+02 -0.16861649958E+02  0.12519485688E+02  0.45045682228E+02  0.00000000000E+00 0. -1.
         11    1    3    3    0    0  0.12994102476E+02  0.22721200644E+01 -0.27447308859E+01  0.13473781082E+02  0.51100000000E-03 0.  1.
        -11    1    3    3    0    0  0.25190506172E+01  0.60965414240E+00 -0.26603706260E+01  0.37141440891E+01  0.51100000000E-03 0. -1.
        -12    1    3    3    0    0  0.24337326530E+02  0.13979875752E+02 -0.71143841761E+01  0.28954392601E+02  0.00000000000E+00 0.  1.
</event>
<event>
 7    1  0.2313935E-008  0.4614232E+02  0.7816164E-02  0.1320468E+00
        -11   -1    0    0    0    0  0.00000000000E+00  0.00000000000E+00  0.45593999997E+02  0.45594000000E+02  0.51100000000E-03 0.  1.
         11   -1    0    0    0    0 -0.00000000000E+00 -0.00000000000E+00 -0.45593999997E+02  0.45594000000E+02  0.51100000000E-03 0. -1.
    9900012    2    1    2    0    0  0.66279219194E+01 -0.31519355032E+02  0.31491495286E+02  0.46142319120E+02  0.10000012389E+02 0.  0.
         12    1    1    2    0    0 -0.66279219194E+01  0.31519355032E+02 -0.31491495286E+02  0.45045680880E+02  0.00000000000E+00 0. -1.
         11    1    3    3    0    0 -0.14323600334E+01 -0.27772040458E+01  0.56393184151E+01  0.64472032717E+01  0.51100000000E-03 0. -1.
        -11    1    3    3    0    0 -0.20730949356E+00 -0.35960098512E+01  0.38744661067E+01  0.52901561365E+01  0.51100000000E-03 0.  1.
        -12    1    3    3    0    0  0.82675914464E+01 -0.25146141135E+02  0.21977710765E+02  0.34404959712E+02  0.00000000000E+00 0.  1.
</event>
<event>
 7    1  0.2313935E-008  0.4614232E+02  0.7816164E-02  0.1320468E+00
        -11   -1    0    0    0    0  0.00000000000E+00  0.00000000000E+00  0.45593999997E+02  0.45594000000E+02  0.51100000000E-03 0. -1.
         11   -1    0    0    0    0 -0.00000000000E+00 -0.00000000000E+00 -0.45593999997E+02  0.45594000000E+02  0.51100000000E-03 0.  1.
    9900012    2    1    2    0    0  0.26704661753E+02 -0.35470845346E+02 -0.76022158814E+01  0.46142317463E+02  0.99999972779E+01 0.  0.
         12    1    1    2    0    0 -0.26704661753E+02  0.35470845346E+02  0.76022158814E+01  0.45045682537E+02  0.00000000000E+00 0. -1.
         11    1    3    3    0    0  0.72590494196E+01 -0.99764694230E+01  0.12743972659E+01  0.12403540998E+02  0.51100000000E-03 0. -1.
        -11    1    3    3    0    0  0.49908500461E+01 -0.10261270981E+02 -0.46289142854E+01  0.12313777408E+02  0.51100000000E-03 0.  1.
         12    1    3    3    0    0  0.14454762288E+02 -0.15233104943E+02 -0.42476988619E+01  0.21424999057E+02  0.00000000000E+00 0. -1.
</event>
<event>
 7    1  0.2313935E-008  0.4614232E+02  0.7816164E-02  0.1320468E+00
        -11   -1    0    0    0    0  0.00000000000E+00  0.00000000000E+00  0.45593999997E+02  0.45594000000E+02  0.51100000000E-03 0.  1.
         11   -1    0    0    0    0 -0.00000000000E+00 -0.00000000000E+00 -0.45593999997E+02  0.45594000000E+02  0.51100000000E-03 0. -1.
    9900012    2    1    2    0    0 -0.22571379961E+02  0.27238664198E+02  0.27887291389E+02  0.46142322720E+02  0.10000045217E+02 0.  0.
         12    1    1    2    0    0  0.22571379961E+02 -0.27238664198E+02 -0.27887291389E+02  0.45045677280E+02  0.00000000000E+00 0. -1.
         11    1    3    3    0    0 -0.50757489075E+01  0.79992169090E+01  0.58435202940E+01  0.11130922146E+02  0.51100000000E-03 0. -1.
        -11    1    3    3    0    0 -0.13424989937E+02  0.13367134139E+02  0.11147416848E+02  0.21981254116E+02  0.51100000000E-03 0.  1.
         12    1    3    3    0    0 -0.40706411165E+01  0.58723131502E+01  0.10896354247E+02  0.13030146458E+02  0.00000000000E+00 0. -1.
</event>
<event>
 7    1  0.2313935E-008  0.4614232E+02  0.7816164E-02  0.1320468E+00
        -11   -1    0    0    0    0  0.00000000000E+00  0.00000000000E+00  0.45593999997E+02  0.45594000000E+02  0.51100000000E-03 0. -1.
         11   -1    0    0    0    0 -0.00000000000E+00 -0.00000000000E+00 -0.45593999997E+02  0.45594000000E+02  0.51100000000E-03 0.  1.
    9900012    2    1    2    0    0  0.37093356270E+02 -0.21115217249E+00 -0.25556835624E+02  0.46142317502E+02  0.99999976377E+01 0.  0.
         12    1    1    2    0    0 -0.37093356270E+02  0.21115217249E+00  0.25556835624E+02  0.45045682498E+02  0.00000000000E+00 0. -1.
         11    1    3    3    0    0  0.23574884912E+01  0.68337513574E+00 -0.30784066456E+01  0.39371742784E+01  0.51100000000E-03 0.  1.
        -11    1    3    3    0    0  0.95376193798E+01  0.32791371951E+01 -0.50102261214E+01  0.11261495914E+02  0.51100000000E-03 0. -1.
        -12    1    3    3    0    0  0.25198248399E+02 -0.41736645033E+01 -0.17468202857E+02  0.30943647309E+02  0.00000000000E+00 0.  1.
</event>
<event>
 7    1  0.2313935E-008  0.4614232E+02  0.7816164E-02  0.1320468E+00
        -11   -1    0    0    0    0  0.00000000000E+00  0.00000000000E+00  0.45593999997E+02  0.45594000000E+02  0.51100000000E-03 0.  1.
         11   -1    0    0    0    0 -0.00000000000E+00 -0.00000000000E+00 -0.45593999997E+02  0.45594000000E+02  0.51100000000E-03 0. -1.
    9900012    2    1    2    0    0 -0.19590832104E+02 -0.74204384630E+01  0.39877937162E+02  0.46142317833E+02  0.10000000659E+02 0.  0.
         12    1    1    2    0    0  0.19590832104E+02  0.74204384630E+01 -0.39877937162E+02  0.45045682167E+02  0.00000000000E+00 0. -1.
         11    1    3    3    0    0 -0.33884379578E+01 -0.28454070965E+01  0.53647173699E+01  0.69539949711E+01  0.51100000000E-03 0. -1.
        -11    1    3    3    0    0 -0.23795235457E+01 -0.74821281142E+00  0.13615489331E+02  0.13842091775E+02  0.51100000000E-03 0.  1.
         12    1    3    3    0    0 -0.13822870601E+02 -0.38268185551E+01  0.20897730461E+02  0.25346231087E+02  0.00000000000E+00 0. -1.
</event>
<event>
 7    1  0.2313935E-008  0.4614232E+02  0.7816164E-02  0.1320468E+00
        -11   -1    0    0    0    0  0.00000000000E+00  0.00000000000E+00  0.45593999997E+02  0.45594000000E+02  0.51100000000E-03 0.  1.
         11   -1    0    0    0    0 -0.00000000000E+00 -0.00000000000E+00 -0.45593999997E+02  0.45594000000E+02  0.51100000000E-03 0. -1.
    9900012    2    1    2    0    0  0.24495219746E+02 -0.11348482509E+02  0.36059809254E+02  0.46142315533E+02  0.99999796825E+01 0.  0.
         12    1    1    2    0    0 -0.24495219746E+02  0.11348482509E+02 -0.36059809254E+02  0.45045684467E+02  0.00000000000E+00 0. -1.
         11    1    3    3    0    0  0.38051136565E+01 -0.18759618949E+01  0.11756600388E+02  0.12498630961E+02  0.51100000000E-03 0. -1.
        -11    1    3    3    0    0  0.47630812842E+01 -0.87507603364E-01  0.54678184321E+01  0.72520093469E+01  0.51100000000E-03 0.  1.
         12    1    3    3    0    0  0.15927024805E+02 -0.93850130108E+01  0.18835390434E+02  0.26391675225E+02  0.00000000000E+00 0. -1.
</event>
<event>
 7    1  0.2313935E-008  0.4614232E+02  0.7816164E-02  0.1320468E+00
        -11   -1    0    0    0    0  0.00000000000E+00  0.00000000000E+00  0.45593999997E+02  0.45594000000E+02  0.51100000000E-03 0. -1.
         11   -1    0    0    0    0 -0.00000000000E+00 -0.00000000000E+00 -0.45593999997E+02  0.45594000000E+02  0.51100000000E-03 0.  1.
    9900012    2    1    2    0    0  0.96286568432E+01 -0.11217966555E+02 -0.42550671413E+02  0.46142318255E+02  0.10000004501E+02 0.  0.
         12    1    1    2    0    0 -0.96286568432E+01  0.11217966555E+02  0.42550671413E+02  0.45045681745E+02  0.00000000000E+00 0. -1.
         11    1    3    3    0    0  0.31523567157E+01 -0.92942338791E+01 -0.17684985354E+02  0.20225697602E+02  0.51100000000E-03 0. -1.
        -11    1    3    3    0    0  0.45038922700E+01 -0.10618909455E+01 -0.11801151508E+02  0.12675954999E+02  0.51100000000E-03 0.  1.
        -12    1    3    3    0    0  0.19724078575E+01 -0.86184173033E+00 -0.13064534551E+02  0.13240665654E+02  0.00000000000E+00 0.  1.
</event>
<event>
 7    1  0.2313935E-008  0.4614232E+02  0.7816164E-02  0.1320468E+00
        -11   -1    0    0    0    0  0.00000000000E+00  0.00000000000E+00  0.45593999997E+02  0.45594000000E+02  0.51100000000E-03 0.  1.
         11   -1    0    0    0    0 -0.00000000000E+00 -0.00000000000E+00 -0.45593999997E+02  0.45594000000E+02  0.51100000000E-03 0. -1.
    9900012    2    1    2    0    0 -0.14251641558E+02  0.11068140511E+02  0.41273483406E+02  0.46142318144E+02  0.10000003488E+02 0.  0.
         12    1    1    2    0    0  0.14251641558E+02 -0.11068140511E+02 -0.41273483406E+02  0.45045681856E+02  0.00000000000E+00 0. -1.
         11    1    3    3    0    0 -0.37952358818E+01  0.18094435039E+01  0.77609368116E+01  0.88266665082E+01  0.51100000000E-03 0. -1.
        -11    1    3    3    0    0 -0.93582475756E+01  0.10165756182E+02  0.33043485463E+02  0.35816076394E+02  0.51100000000E-03 0.  1.
         12    1    3    3    0    0 -0.10981581010E+01 -0.90705917496E+00  0.46906113122E+00  0.14995752420E+01  0.00000000000E+00 0. -1.
</event>
<event>
 7    1  0.2313935E-008  0.4614232E+02  0.7816164E-02  0.1320468E+00
        -11   -1    0    0    0    0  0.00000000000E+00  0.00000000000E+00  0.45593999997E+02  0.45594000000E+02  0.51100000000E-03 0. -1.
         11   -1    0    0    0    0 -0.00000000000E+00 -0.00000000000E+00 -0.45593999997E+02  0.45594000000E+02  0.51100000000E-03 0.  1.
    9900012    2    1    2    0    0  0.33848980924E+02  0.29014911373E+02  0.64416525145E+01  0.46142317869E+02  0.10000000983E+02 0.  0.
         12    1    1    2    0    0 -0.33848980924E+02 -0.29014911373E+02 -0.64416525145E+01  0.45045682131E+02  0.00000000000E+00 0. -1.
         11    1    3    3    0    0  0.14985654728E+01  0.95101378363E+00 -0.88259391893E-01  0.17770525243E+01  0.51100000000E-03 0. -1.
        -11    1    3    3    0    0  0.25138956951E+02  0.16534454275E+02  0.25558822795E+01  0.30197481174E+02  0.51100000000E-03 0.  1.
        -12    1    3    3    0    0  0.72114584995E+01  0.11529443314E+02  0.39740296269E+01  0.14167784170E+02  0.00000000000E+00 0.  1.
</event>
<event>
 7    1  0.2313935E-008  0.4614232E+02  0.7816164E-02  0.1320468E+00
        -11   -1    0    0    0    0  0.00000000000E+00  0.00000000000E+00  0.45593999997E+02  0.45594000000E+02  0.51100000000E-03 0. -1.
         11   -1    0    0    0    0 -0.00000000000E+00 -0.00000000000E+00 -0.45593999997E+02  0.45594000000E+02  0.51100000000E-03 0.  1.
    9900012    2    1    2    0    0  0.42395766860E+02  0.14473819257E+02  0.47139240949E+01  0.46142316834E+02  0.99999915454E+01 0.  0.
         12    1    1    2    0    0 -0.42395766860E+02 -0.14473819257E+02 -0.47139240949E+01  0.45045683166E+02  0.00000000000E+00 0. -1.
         11    1    3    3    0    0  0.89115796891E+00 -0.49718974388E+00 -0.24792697574E+00  0.10501562805E+01  0.51100000000E-03 0.  1.
        -11    1    3    3    0    0  0.41961000332E+00  0.13524893068E+01 -0.41638084169E+00  0.14760329083E+01  0.51100000000E-03 0. -1.
        -12    1    3    3    0    0  0.41084998888E+02  0.13618519694E+02  0.53782319123E+01  0.43616127645E+02  0.00000000000E+00 0.  1.
</event>
<event>
 7    1  0.2313935E-008  0.4614232E+02  0.7816164E-02  0.1320468E+00
        -11   -1    0    0    0    0  0.00000000000E+00  0.00000000000E+00  0.45593999997E+02  0.45594000000E+02  0.51100000000E-03 0. -1.
         11   -1    0    0    0    0 -0.00000000000E+00 -0.00000000000E+00 -0.45593999997E+02  0.45594000000E+02  0.51100000000E-03 0.  1.
    9900012    2    1    2    0    0 -0.39883524960E+02  0.20529327586E+02 -0.41187473180E+01  0.46142323917E+02  0.10000056131E+02 0.  0.
         12    1    1    2    0    0  0.39883524960E+02 -0.20529327586E+02  0.41187473180E+01  0.45045676083E+02  0.00000000000E+00 0. -1.
         11    1    3    3    0    0 -0.41890467155E+01  0.11486421133E+01 -0.20815487558E+01  0.48166727700E+01  0.51100000000E-03 0. -1.
        -11    1    3    3    0    0 -0.13446495186E+02  0.93201754840E+01 -0.39598707346E+01  0.16833136379E+02  0.51100000000E-03 0.  1.
        -12    1    3    3    0    0 -0.22247983058E+02  0.10060509989E+02  0.19226721725E+01  0.24492514768E+02  0.00000000000E+00 0.  1.
</event>
<event>
 7    1  0.2313935E-008  0.4614232E+02  0.7816164E-02  0.1320468E+00
        -11   -1    0    0    0    0  0.00000000000E+00  0.00000000000E+00  0.45593999997E+02  0.45594000000E+02  0.51100000000E-03 0.  1.
         11   -1    0    0    0    0 -0.00000000000E+00 -0.00000000000E+00 -0.45593999997E+02  0.45594000000E+02  0.51100000000E-03 0. -1.
    9900012    2    1    2    0    0 -0.12999569512E+02  0.41406824254E+02  0.12066468789E+02  0.46142316840E+02  0.99999916013E+01 0.  0.
         12    1    1    2    0    0  0.12999569512E+02 -0.41406824254E+02 -0.12066468789E+02  0.45045683160E+02  0.00000000000E+00 0. -1.
         11    1    3    3    0    0  0.67943601804E+00  0.49372521982E+01  0.90158464087E+00  0.50646764652E+01  0.51100000000E-03 0. -1.
        -11    1    3    3    0    0  0.82913108548E-02  0.32973546155E+01  0.25621984346E+01  0.41758205523E+01  0.51100000000E-03 0.  1.
        -12    1    3    3    0    0 -0.13687296841E+02  0.33172217440E+02  0.86026857133E+01  0.36901819823E+02  0.00000000000E+00 0.  1.
</event>
<event>
 7    1  0.2313935E-008  0.4614232E+02  0.7816164E-02  0.1320468E+00
        -11   -1    0    0    0    0  0.00000000000E+00  0.00000000000E+00  0.45593999997E+02  0.45594000000E+02  0.51100000000E-03 0.  1.
         11   -1    0    0    0    0 -0.00000000000E+00 -0.00000000000E+00 -0.45593999997E+02  0.45594000000E+02  0.51100000000E-03 0. -1.
    9900012    2    1    2    0    0 -0.12129913542E+02 -0.28575293327E+02  0.32640945940E+02  0.46142317153E+02  0.99999944563E+01 0.  0.
         12    1    1    2    0    0  0.12129913542E+02  0.28575293327E+02 -0.32640945940E+02  0.45045682847E+02  0.00000000000E+00 0. -1.
         11    1    3    3    0    0  0.63435418093E+00 -0.47985287753E+01  0.83251717692E+01  0.96299931922E+01  0.51100000000E-03 0. -1.
        -11    1    3    3    0    0  0.16587408285E+00 -0.12873720105E+00  0.51242621101E+00  0.55377645413E+00  0.51100000000E-03 0.  1.
        -12    1    3    3    0    0 -0.12930141805E+02 -0.23648027351E+02  0.23803347960E+02  0.35958547507E+02  0.00000000000E+00 0.  1.
</event>
<event>
 7    1  0.2313935E-008  0.4614232E+02  0.7816164E-02  0.1320468E+00
        -11   -1    0    0    0    0  0.00000000000E+00  0.00000000000E+00  0.45593999997E+02  0.45594000000E+02  0.51100000000E-03 0.  1.
         11   -1    0    0    0    0 -0.00000000000E+00 -0.00000000000E+00 -0.45593999997E+02  0.45594000000E+02  0.51100000000E-03 0. -1.
    9900012    2    1    2    0    0  0.48507327269E+01 -0.36909698429E+02  0.25362529102E+02  0.46142319535E+02  0.10000016174E+02 0.  0.
         12    1    1    2    0    0 -0.48507327269E+01  0.36909698429E+02 -0.25362529102E+02  0.45045680465E+02  0.00000000000E+00 0. -1.
         11    1    3    3    0    0 -0.72712241960E+00 -0.13257803937E+02  0.10208854139E+02  0.16748694735E+02  0.51100000000E-03 0. -1.
        -11    1    3    3    0    0  0.64913555240E+01 -0.13592762409E+02  0.96783768665E+01  0.17904520811E+02  0.51100000000E-03 0.  1.
        -12    1    3    3    0    0 -0.91350037756E+00 -0.10059132084E+02  0.54752980964E+01  0.11489103989E+02  0.00000000000E+00 0.  1.
</event>
<event>
 7    1  0.2313935E-008  0.4614232E+02  0.7816164E-02  0.1320468E+00
        -11   -1    0    0    0    0  0.00000000000E+00  0.00000000000E+00  0.45593999997E+02  0.45594000000E+02  0.51100000000E-03 0.  1.
         11   -1    0    0    0    0 -0.00000000000E+00 -0.00000000000E+00 -0.45593999997E+02  0.45594000000E+02  0.51100000000E-03 0. -1.
    9900012    2    1    2    0    0  0.24097069683E+02 -0.37241674952E+02  0.78423428706E+01  0.46142318051E+02  0.10000002644E+02 0.  0.
         12    1    1    2    0    0 -0.24097069683E+02  0.37241674952E+02 -0.78423428706E+01  0.45045681949E+02  0.00000000000E+00 0. -1.
         11    1    3    3    0    0  0.16062505100E+01 -0.42985441169E+01 -0.13497036766E+01  0.47832230244E+01  0.51100000000E-03 0. -1.
        -11    1    3    3    0    0  0.10109029340E+02 -0.98605663217E+01  0.27990346665E+01  0.14396452261E+02  0.51100000000E-03 0.  1.
        -12    1    3    3    0    0  0.12381789833E+02 -0.23082564514E+02  0.63930118808E+01  0.26962642765E+02  0.00000000000E+00 0.  1.
</event>
<event>
 7    1  0.2313935E-008  0.4614232E+02  0.7816164E-02  0.1320468E+00
        -11   -1    0    0    0    0  0.00000000000E+00  0.00000000000E+00  0.45593999997E+02  0.45594000000E+02  0.51100000000E-03 0.  1.
         11   -1    0    0    0    0 -0.00000000000E+00 -0.00000000000E+00 -0.45593999997E+02  0.45594000000E+02  0.51100000000E-03 0. -1.
    9900012    2    1    2    0    0  0.51746262339E+01 -0.13544719468E+02  0.42648297860E+02  0.46142317715E+02  0.99999995830E+01 0.  0.
         12    1    1    2    0    0 -0.51746262339E+01  0.13544719468E+02 -0.42648297860E+02  0.45045682285E+02  0.00000000000E+00 0. -1.
         11    1    3    3    0    0  0.39712426497E+01 -0.12880924707E+02  0.25953169880E+02  0.29244760498E+02  0.51100000000E-03 0. -1.
        -11    1    3    3    0    0 -0.28571004299E+00 -0.10027341956E+01  0.82289606211E+01  0.82947513079E+01  0.51100000000E-03 0.  1.
         12    1    3    3    0    0  0.14890936272E+01  0.33893943445E+00  0.84661673586E+01  0.86028059093E+01  0.00000000000E+00 0. -1.
</event>
<event>
 7    1  0.2313935E-008  0.4614232E+02  0.7816164E-02  0.1320468E+00
        -11   -1    0    0    0    0  0.00000000000E+00  0.00000000000E+00  0.45593999997E+02  0.45594000000E+02  0.51100000000E-03 0.  1.
         11   -1    0    0    0    0 -0.00000000000E+00 -0.00000000000E+00 -0.45593999997E+02  0.45594000000E+02  0.51100000000E-03 0. -1.
    9900012    2    1    2    0    0 -0.93689746098E+01  0.17763475574E+02  0.40321139860E+02  0.46142322413E+02  0.10000042417E+02 0.  0.
         12    1    1    2    0    0  0.93689746098E+01 -0.17763475574E+02 -0.40321139860E+02  0.45045677587E+02  0.00000000000E+00 0. -1.
         11    1    3    3    0    0 -0.16195777155E+01  0.57070125533E+00  0.13126354888E+01  0.21614217744E+01  0.51100000000E-03 0. -1.
        -11    1    3    3    0    0 -0.80658472988E+01  0.16617165753E+02  0.39167986406E+02  0.43304956410E+02  0.51100000000E-03 0.  1.
         12    1    3    3    0    0  0.31645040449E+00  0.57560856585E+00 -0.15948203557E+00  0.67594422792E+00  0.00000000000E+00 0. -1.
</event>
<event>
 7    1  0.2313935E-008  0.4614232E+02  0.7816164E-02  0.1320468E+00
        -11   -1    0    0    0    0  0.00000000000E+00  0.00000000000E+00  0.45593999997E+02  0.45594000000E+02  0.51100000000E-03 0.  1.
         11   -1    0    0    0    0 -0.00000000000E+00 -0.00000000000E+00 -0.45593999997E+02  0.45594000000E+02  0.51100000000E-03 0. -1.
    9900012    2    1    2    0    0 -0.16311233234E+02 -0.23959759398E+02  0.34481691991E+02  0.46142317825E+02  0.10000000581E+02 0.  0.
         12    1    1    2    0    0  0.16311233234E+02  0.23959759398E+02 -0.34481691991E+02  0.45045682175E+02  0.00000000000E+00 0. -1.
         11    1    3    3    0    0 -0.22230481967E+01 -0.21764121602E+01  0.21564409765E+00  0.31185278280E+01  0.51100000000E-03 0. -1.
        -11    1    3    3    0    0 -0.17464760147E+01 -0.16708614738E+01  0.30051181070E+01  0.38565128850E+01  0.51100000000E-03 0.  1.
        -12    1    3    3    0    0 -0.12341709023E+02 -0.20112485764E+02  0.31260929787E+02  0.39167277112E+02  0.00000000000E+00 0.  1.
</event>
<event>
 7    1  0.2313935E-008  0.4614232E+02  0.7816164E-02  0.1320468E+00
        -11   -1    0    0    0    0  0.00000000000E+00  0.00000000000E+00  0.45593999997E+02  0.45594000000E+02  0.51100000000E-03 0.  1.
         11   -1    0    0    0    0 -0.00000000000E+00 -0.00000000000E+00 -0.45593999997E+02  0.45594000000E+02  0.51100000000E-03 0. -1.
    9900012    2    1    2    0    0  0.29040854844E+02  0.12843662278E+02  0.31949687918E+02  0.46142317977E+02  0.10000001973E+02 0.  0.
         12    1    1    2    0    0 -0.29040854844E+02 -0.12843662278E+02 -0.31949687918E+02  0.45045682023E+02  0.00000000000E+00 0. -1.
         11    1    3    3    0    0  0.13017121806E+02  0.48626887188E+01  0.90730407915E+01  0.16595519611E+02  0.51100000000E-03 0. -1.
        -11    1    3    3    0    0  0.14553398681E+02  0.73914401208E+01  0.17452746776E+02  0.23896300352E+02  0.51100000000E-03 0.  1.
         12    1    3    3    0    0  0.14703343570E+01  0.58953343875E+00  0.54239003505E+01  0.56504980143E+01  0.00000000000E+00 0. -1.
</event>
<event>
 7    1  0.2313935E-008  0.4614232E+02  0.7816164E-02  0.1320468E+00
        -11   -1    0    0    0    0  0.00000000000E+00  0.00000000000E+00  0.45593999997E+02  0.45594000000E+02  0.51100000000E-03 0.  1.
         11   -1    0    0    0    0 -0.00000000000E+00 -0.00000000000E+00 -0.45593999997E+02  0.45594000000E+02  0.51100000000E-03 0. -1.
    9900012    2    1    2    0    0 -0.38595306428E+02  0.19094369854E+02  0.13225768691E+02  0.46142316568E+02  0.99999891196E+01 0.  0.
         12    1    1    2    0    0  0.38595306428E+02 -0.19094369854E+02 -0.13225768691E+02  0.45045683432E+02  0.00000000000E+00 0. -1.
         11    1    3    3    0    0 -0.18417891624E+01 -0.65648015116E+00 -0.20667677640E+00  0.19661813392E+01  0.51100000000E-03 0. -1.
        -11    1    3    3    0    0 -0.11041390554E+02  0.49048507822E+01  0.14874858446E+01  0.12173022671E+02  0.51100000000E-03 0.  1.
        -12    1    3    3    0    0 -0.25712126712E+02  0.14845999223E+02  0.11944959623E+02  0.32003112557E+02  0.00000000000E+00 0.  1.
</event>
<event>
 7    1  0.2313935E-008  0.4614232E+02  0.7816164E-02  0.1320468E+00
        -11   -1    0    0    0    0  0.00000000000E+00  0.00000000000E+00  0.45593999997E+02  0.45594000000E+02  0.51100000000E-03 0.  1.
         11   -1    0    0    0    0 -0.00000000000E+00 -0.00000000000E+00 -0.45593999997E+02  0.45594000000E+02  0.51100000000E-03 0. -1.
    9900012    2    1    2    0    0 -0.26787084704E+02 -0.17163399203E+02  0.31890176152E+02  0.46142317475E+02  0.99999973921E+01 0.  0.
         12    1    1    2    0    0  0.26787084704E+02  0.17163399203E+02 -0.31890176152E+02  0.45045682525E+02  0.00000000000E+00 0. -1.
         11    1    3    3    0    0 -0.49479493274E+01 -0.56030167812E+01  0.89775875060E+01  0.11682169203E+02  0.51100000000E-03 0. -1.
        -11    1    3    3    0    0 -0.25483365905E+01 -0.25284059173E+01  0.64875299382E+00  0.36479770517E+01  0.51100000000E-03 0.  1.
        -12    1    3    3    0    0 -0.19290798786E+02 -0.90319765042E+01  0.22263835652E+02  0.30812171221E+02  0.00000000000E+00 0.  1.
</event>
<event>
 7    1  0.2313935E-008  0.4614232E+02  0.7816164E-02  0.1320468E+00
        -11   -1    0    0    0    0  0.00000000000E+00  0.00000000000E+00  0.45593999997E+02  0.45594000000E+02  0.51100000000E-03 0. -1.
         11   -1    0    0    0    0 -0.00000000000E+00 -0.00000000000E+00 -0.45593999997E+02  0.45594000000E+02  0.51100000000E-03 0.  1.
    9900012    2    1    2    0    0  0.42146634464E+01 -0.11108646412E+02 -0.43450524181E+02  0.46142318024E+02  0.10000002399E+02 0.  0.
         12    1    1    2    0    0 -0.42146634464E+01  0.11108646412E+02  0.43450524181E+02  0.45045681976E+02  0.00000000000E+00 0. -1.
         11    1    3    3    0    0  0.18912095840E+01 -0.15912379949E+00 -0.17833229395E+01  0.26042724592E+01  0.51100000000E-03 0. -1.
        -11    1    3    3    0    0  0.29942494236E+01 -0.43810272794E+01 -0.26006804586E+02  0.26542660279E+02  0.51100000000E-03 0.  1.
        -12    1    3    3    0    0 -0.67079556123E+00 -0.65684953332E+01 -0.15660396655E+02  0.16995385286E+02  0.00000000000E+00 0.  1.
</event>
<event>
 7    1  0.2313935E-008  0.4614232E+02  0.7816164E-02  0.1320468E+00
        -11   -1    0    0    0    0  0.00000000000E+00  0.00000000000E+00  0.45593999997E+02  0.45594000000E+02  0.51100000000E-03 0. -1.
         11   -1    0    0    0    0 -0.00000000000E+00 -0.00000000000E+00 -0.45593999997E+02  0.45594000000E+02  0.51100000000E-03 0.  1.
    9900012    2    1    2    0    0  0.37782148117E+02 -0.24314928365E+02  0.32259884349E+01  0.46142318086E+02  0.10000002964E+02 0.  0.
         12    1    1    2    0    0 -0.37782148117E+02  0.24314928365E+02 -0.32259884349E+01  0.45045681914E+02  0.00000000000E+00 0. -1.
         11    1    3    3    0    0  0.18172374228E+02 -0.12816353487E+02  0.99589955953E+00  0.22259512977E+02  0.51100000000E-03 0. -1.
        -11    1    3    3    0    0  0.30233758871E+00 -0.14550921426E+01  0.14933845187E+01  0.21068694176E+01  0.51100000000E-03 0.  1.
        -12    1    3    3    0    0  0.19307436300E+02 -0.10043482736E+02  0.73670435665E+00  0.21775935692E+02  0.00000000000E+00 0.  1.
</event>
<event>
 7    1  0.2313935E-008  0.4614232E+02  0.7816164E-02  0.1320468E+00
        -11   -1    0    0    0    0  0.00000000000E+00  0.00000000000E+00  0.45593999997E+02  0.45594000000E+02  0.51100000000E-03 0. -1.
         11   -1    0    0    0    0 -0.00000000000E+00 -0.00000000000E+00 -0.45593999997E+02  0.45594000000E+02  0.51100000000E-03 0.  1.
    9900012    2    1    2    0    0  0.15314909297E+01  0.72489037066E+01 -0.44432211657E+02  0.46142317608E+02  0.99999986030E+01 0.  0.
         12    1    1    2    0    0 -0.15314909297E+01 -0.72489037066E+01  0.44432211657E+02  0.45045682392E+02  0.00000000000E+00 0. -1.
         11    1    3    3    0    0 -0.91247406808E+00  0.12888452838E+00 -0.19140642116E+02  0.19162812972E+02  0.51100000000E-03 0. -1.
        -11    1    3    3    0    0 -0.14650077192E+01  0.16347799959E+01 -0.10493337399E+02  0.10720488948E+02  0.51100000000E-03 0.  1.
         12    1    3    3    0    0  0.39089727169E+01  0.54852391824E+01 -0.14798232142E+02  0.16259015688E+02  0.00000000000E+00 0. -1.
</event>
<event>
 7    1  0.2313935E-008  0.4614232E+02  0.7816164E-02  0.1320468E+00
        -11   -1    0    0    0    0  0.00000000000E+00  0.00000000000E+00  0.45593999997E+02  0.45594000000E+02  0.51100000000E-03 0.  1.
         11   -1    0    0    0    0 -0.00000000000E+00 -0.00000000000E+00 -0.45593999997E+02  0.45594000000E+02  0.51100000000E-03 0. -1.
    9900012    2    1    2    0    0  0.20711794664E+02 -0.29601621147E+02  0.26904998055E+02  0.46142319485E+02  0.10000015720E+02 0.  0.
         12    1    1    2    0    0 -0.20711794664E+02  0.29601621147E+02 -0.26904998055E+02  0.45045680515E+02  0.00000000000E+00 0. -1.
         11    1    3    3    0    0  0.53545740435E+01 -0.98798764183E+01  0.49380918529E+01  0.12274696438E+02  0.51100000000E-03 0. -1.
        -11    1    3    3    0    0  0.12693050610E+02 -0.12175474345E+02  0.13153024564E+02  0.21962644758E+02  0.51100000000E-03 0.  1.
         12    1    3    3    0    0  0.26641700107E+01 -0.75462703828E+01  0.88138816385E+01  0.11904978290E+02  0.00000000000E+00 0. -1.
</event>
<event>
 7    1  0.2313935E-008  0.4614232E+02  0.7816164E-02  0.1320468E+00
        -11   -1    0    0    0    0  0.00000000000E+00  0.00000000000E+00  0.45593999997E+02  0.45594000000E+02  0.51100000000E-03 0. -1.
         11   -1    0    0    0    0 -0.00000000000E+00 -0.00000000000E+00 -0.45593999997E+02  0.45594000000E+02  0.51100000000E-03 0.  1.
    9900012    2    1    2    0    0 -0.25702914854E+02 -0.14062825967E+02 -0.34215647138E+02  0.46142318572E+02  0.10000007398E+02 0.  0.
         12    1    1    2    0    0  0.25702914854E+02  0.14062825967E+02  0.34215647138E+02  0.45045681428E+02  0.00000000000E+00 0. -1.
         11    1    3    3    0    0 -0.12636700506E+02 -0.61585281946E+01 -0.99168959679E+01  0.17203444280E+02  0.51100000000E-03 0. -1.
        -11    1    3    3    0    0 -0.13201632243E+02 -0.72831574704E+01 -0.23180339582E+02  0.27652407129E+02  0.51100000000E-03 0.  1.
        -12    1    3    3    0    0  0.13541789514E+00 -0.62114030241E+00 -0.11184115885E+01  0.12864671635E+01  0.00000000000E+00 0.  1.
</event>
<event>
 7    1  0.2313935E-008  0.4614231E+02  0.7816164E-02  0.1320468E+00
        -11   -1    0    0    0    0  0.00000000000E+00  0.00000000000E+00  0.45593999997E+02  0.45594000000E+02  0.51100000000E-03 0.  1.
         11   -1    0    0    0    0 -0.00000000000E+00 -0.00000000000E+00 -0.45593999997E+02  0.45594000000E+02  0.51100000000E-03 0. -1.
    9900012    2    1    2    0    0  0.44316642383E+02  0.79738741318E+01 -0.12515322875E+01  0.46142314371E+02  0.99999690823E+01 0.  0.
         12    1    1    2    0    0 -0.44316642383E+02 -0.79738741318E+01  0.12515322875E+01  0.45045685629E+02  0.00000000000E+00 0. -1.
         11    1    3    3    0    0  0.62096427976E+01  0.12964290912E+01  0.12108785698E+01  0.64580662148E+01  0.51100000000E-03 0. -1.
        -11    1    3    3    0    0  0.23014226149E+02 -0.18157343534E+00 -0.89970014945E+00  0.23032521242E+02  0.51100000000E-03 0.  1.
        -12    1    3    3    0    0  0.15092773436E+02  0.68590184760E+01 -0.15627107079E+01  0.16651726914E+02  0.00000000000E+00 0.  1.
</event>
<event>
 7    1  0.2313935E-008  0.4614232E+02  0.7816164E-02  0.1320468E+00
        -11   -1    0    0    0    0  0.00000000000E+00  0.00000000000E+00  0.45593999997E+02  0.45594000000E+02  0.51100000000E-03 0.  1.
         11   -1    0    0    0    0 -0.00000000000E+00 -0.00000000000E+00 -0.45593999997E+02  0.45594000000E+02  0.51100000000E-03 0. -1.
    9900012    2    1    2    0    0 -0.22705361452E+02 -0.38899820400E+02  0.61970556621E+00  0.46142317623E+02  0.99999987396E+01 0.  0.
         12    1    1    2    0    0  0.22705361452E+02  0.38899820400E+02 -0.61970556621E+00  0.45045682377E+02  0.00000000000E+00 0. -1.
         11    1    3    3    0    0 -0.12561975041E+01 -0.59104152837E+01 -0.97427705450E+00  0.61204784972E+01  0.51100000000E-03 0. -1.
        -11    1    3    3    0    0 -0.16636746223E+02 -0.29979426401E+02  0.84723671912E+00  0.34296722038E+02  0.51100000000E-03 0.  1.
         12    1    3    3    0    0 -0.48124177251E+01 -0.30099787153E+01  0.74674590159E+00  0.57251170878E+01  0.00000000000E+00 0. -1.
</event>
<event>
 7    1  0.2313935E-008  0.4614232E+02  0.7816164E-02  0.1320468E+00
        -11   -1    0    0    0    0  0.00000000000E+00  0.00000000000E+00  0.45593999997E+02  0.45594000000E+02  0.51100000000E-03 0.  1.
         11   -1    0    0    0    0 -0.00000000000E+00 -0.00000000000E+00 -0.45593999997E+02  0.45594000000E+02  0.51100000000E-03 0. -1.
    9900012    2    1    2    0    0  0.29837599511E+02 -0.33632759483E+02  0.27692082792E+01  0.46142319080E+02  0.10000012031E+02 0.  0.
         12    1    1    2    0    0 -0.29837599511E+02  0.33632759483E+02 -0.27692082792E+01  0.45045680920E+02  0.00000000000E+00 0. -1.
         11    1    3    3    0    0  0.10967996206E+02 -0.12230323531E+02  0.34402349147E+01  0.16784307284E+02  0.51100000000E-03 0. -1.
        -11    1    3    3    0    0  0.16013279263E+02 -0.13666236125E+02 -0.12643421658E+01  0.21090037552E+02  0.51100000000E-03 0.  1.
         12    1    3    3    0    0  0.28563240413E+01 -0.77361998269E+01  0.59331553025E+00  0.82679742446E+01  0.00000000000E+00 0. -1.
</event>
<event>
 7    1  0.2313935E-008  0.4614232E+02  0.7816164E-02  0.1320468E+00
        -11   -1    0    0    0    0  0.00000000000E+00  0.00000000000E+00  0.45593999997E+02  0.45594000000E+02  0.51100000000E-03 0.  1.
         11   -1    0    0    0    0 -0.00000000000E+00 -0.00000000000E+00 -0.45593999997E+02  0.45594000000E+02  0.51100000000E-03 0. -1.
    9900012    2    1    2    0    0  0.24669005854E+02  0.35143905307E+02  0.13618359822E+02  0.46142315920E+02  0.99999832074E+01 0.  0.
         12    1    1    2    0    0 -0.24669005854E+02 -0.35143905307E+02 -0.13618359822E+02  0.45045684080E+02  0.00000000000E+00 0. -1.
         11    1    3    3    0    0  0.13906867571E+02  0.18400360303E+02  0.48442805387E+01  0.23567801745E+02  0.51100000000E-03 0. -1.
        -11    1    3    3    0    0  0.83401649308E+01  0.15956166790E+02  0.64444656905E+01  0.19122990039E+02  0.51100000000E-03 0.  1.
         12    1    3    3    0    0  0.24219733522E+01  0.78737821394E+00  0.23296135926E+01  0.34515241360E+01  0.00000000000E+00 0. -1.
</event>
<event>
 7    1  0.2313935E-008  0.4614232E+02  0.7816164E-02  0.1320468E+00
        -11   -1    0    0    0    0  0.00000000000E+00  0.00000000000E+00  0.45593999997E+02  0.45594000000E+02  0.51100000000E-03 0.  1.
         11   -1    0    0    0    0 -0.00000000000E+00 -0.00000000000E+00 -0.45593999997E+02  0.45594000000E+02  0.51100000000E-03 0. -1.
    9900012    2    1    2    0    0 -0.29989038815E+02  0.31429952290E+02  0.11913393508E+02  0.46142319909E+02  0.10000019585E+02 0.  0.
         12    1    1    2    0    0  0.29989038815E+02 -0.31429952290E+02 -0.11913393508E+02  0.45045680091E+02  0.00000000000E+00 0. -1.
         11    1    3    3    0    0 -0.34897279039E+00  0.20929061506E+00  0.11093046664E+01  0.11815843914E+01  0.51100000000E-03 0. -1.
        -11    1    3    3    0    0 -0.21915749483E+02  0.27152304761E+02  0.80979782685E+01  0.35820733961E+02  0.51100000000E-03 0.  1.
         12    1    3    3    0    0 -0.77243165413E+01  0.40683569139E+01  0.27061105735E+01  0.91400015561E+01  0.00000000000E+00 0. -1.
</event>
<event>
 7    1  0.2313935E-008  0.4614231E+02  0.7816164E-02  0.1320468E+00
        -11   -1    0    0    0    0  0.00000000000E+00  0.00000000000E+00  0.45593999997E+02  0.45594000000E+02  0.51100000000E-03 0.  1.
         11   -1    0    0    0    0 -0.00000000000E+00 -0.00000000000E+00 -0.45593999997E+02  0.45594000000E+02  0.51100000000E-03 0. -1.
    9900012    2    1    2    0    0 -0.28026105553E+02 -0.12993810548E+02  0.32784328066E+02  0.46142313506E+02  0.99999611948E+01 0.  0.
         12    1    1    2    0    0  0.28026105553E+02  0.12993810548E+02 -0.32784328066E+02  0.45045686494E+02  0.00000000000E+00 0. -1.
         11    1    3    3    0    0 -0.10104045495E+02 -0.41554316369E+01  0.13049175433E+02  0.17018822732E+02  0.51100000000E-03 0. -1.
        -11    1    3    3    0    0 -0.18887460133E+01  0.11272507640E+01  0.39257949535E+01  0.44999913407E+01  0.51100000000E-03 0.  1.
         12    1    3    3    0    0 -0.16033314044E+02 -0.99656296748E+01  0.15809357679E+02  0.24623499432E+02  0.00000000000E+00 0. -1.
</event>
<event>
 7    1  0.2313935E-008  0.4614232E+02  0.7816164E-02  0.1320468E+00
        -11   -1    0    0    0    0  0.00000000000E+00  0.00000000000E+00  0.45593999997E+02  0.45594000000E+02  0.51100000000E-03 0.  1.
         11   -1    0    0    0    0 -0.00000000000E+00 -0.00000000000E+00 -0.45593999997E+02  0.45594000000E+02  0.51100000000E-03 0. -1.
    9900012    2    1    2    0    0  0.22265261196E+02 -0.71944481841E+01  0.38491707565E+02  0.46142317720E+02  0.99999996238E+01 0.  0.
         12    1    1    2    0    0 -0.22265261196E+02  0.71944481841E+01 -0.38491707565E+02  0.45045682280E+02  0.00000000000E+00 0. -1.
         11    1    3    3    0    0  0.50103982415E+01 -0.23542663572E+00  0.11066026625E+02  0.12149751510E+02  0.51100000000E-03 0. -1.
        -11    1    3    3    0    0  0.51324407042E+01 -0.24744920498E+01  0.15071964961E+02  0.16113012956E+02  0.51100000000E-03 0.  1.
        -12    1    3    3    0    0  0.12122422250E+02 -0.44845294986E+01  0.12353715980E+02  0.17879553253E+02  0.00000000000E+00 0.  1.
</event>
<event>
 7    1  0.2313935E-008  0.4614232E+02  0.7816164E-02  0.1320468E+00
        -11   -1    0    0    0    0  0.00000000000E+00  0.00000000000E+00  0.45593999997E+02  0.45594000000E+02  0.51100000000E-03 0.  1.
         11   -1    0    0    0    0 -0.00000000000E+00 -0.00000000000E+00 -0.45593999997E+02  0.45594000000E+02  0.51100000000E-03 0. -1.
    9900012    2    1    2    0    0 -0.43391923683E+02  0.76374068435E+01  0.93767997261E+01  0.46142318772E+02  0.10000009218E+02 0.  0.
         12    1    1    2    0    0  0.43391923683E+02 -0.76374068435E+01 -0.93767997261E+01  0.45045681228E+02  0.00000000000E+00 0. -1.
         11    1    3    3    0    0 -0.14104887714E+01  0.52357465281E+00 -0.69978573913E+00  0.16593098967E+01  0.51100000000E-03 0. -1.
        -11    1    3    3    0    0 -0.14433907328E+02  0.32613979605E+00  0.19166682373E+00  0.14438863679E+02  0.51100000000E-03 0.  1.
        -12    1    3    3    0    0 -0.27547527584E+02  0.67876923947E+01  0.98849186415E+01  0.30044145196E+02  0.00000000000E+00 0.  1.
</event>
<event>
 7    1  0.2313935E-008  0.4614232E+02  0.7816164E-02  0.1320468E+00
        -11   -1    0    0    0    0  0.00000000000E+00  0.00000000000E+00  0.45593999997E+02  0.45594000000E+02  0.51100000000E-03 0.  1.
         11   -1    0    0    0    0 -0.00000000000E+00 -0.00000000000E+00 -0.45593999997E+02  0.45594000000E+02  0.51100000000E-03 0. -1.
    9900012    2    1    2    0    0 -0.26003259662E+02 -0.23666655679E+02  0.28157296638E+02  0.46142318097E+02  0.10000003066E+02 0.  0.
         12    1    1    2    0    0  0.26003259662E+02  0.23666655679E+02 -0.28157296638E+02  0.45045681903E+02  0.00000000000E+00 0. -1.
         11    1    3    3    0    0 -0.40108082614E+01 -0.95397400660E+00  0.16581350203E+01  0.44436540507E+01  0.51100000000E-03 0. -1.
        -11    1    3    3    0    0 -0.89360133835E+01 -0.96214745539E+01  0.14953994430E+02  0.19900931070E+02  0.51100000000E-03 0.  1.
        -12    1    3    3    0    0 -0.13056438017E+02 -0.13091207119E+02  0.11545167188E+02  0.21797732977E+02  0.00000000000E+00 0.  1.
</event>
<event>
 7    1  0.2313935E-008  0.4614232E+02  0.7816164E-02  0.1320468E+00
        -11   -1    0    0    0    0  0.00000000000E+00  0.00000000000E+00  0.45593999997E+02  0.45594000000E+02  0.51100000000E-03 0.  1.
         11   -1    0    0    0    0 -0.00000000000E+00 -0.00000000000E+00 -0.45593999997E+02  0.45594000000E+02  0.51100000000E-03 0. -1.
    9900012    2    1    2    0    0 -0.24829638773E+02  0.82080702703E+01  0.36677378803E+02  0.46142317688E+02  0.99999993298E+01 0.  0.
         12    1    1    2    0    0  0.24829638773E+02 -0.82080702703E+01 -0.36677378803E+02  0.45045682312E+02  0.00000000000E+00 0. -1.
         11    1    3    3    0    0 -0.56726995684E+01  0.32471394148E+01  0.14695971088E+02  0.16083998298E+02  0.51100000000E-03 0. -1.
        -11    1    3    3    0    0 -0.59824455279E+01 -0.94275885279E+00  0.61014510269E+01  0.85968688279E+01  0.51100000000E-03 0.  1.
         12    1    3    3    0    0 -0.13174493676E+02  0.59036897083E+01  0.15879956688E+02  0.21461450562E+02  0.00000000000E+00 0. -1.
</event>
<event>
 7    1  0.2313935E-008  0.4614232E+02  0.7816164E-02  0.1320468E+00
        -11   -1    0    0    0    0  0.00000000000E+00  0.00000000000E+00  0.45593999997E+02  0.45594000000E+02  0.51100000000E-03 0.  1.
         11   -1    0    0    0    0 -0.00000000000E+00 -0.00000000000E+00 -0.45593999997E+02  0.45594000000E+02  0.51100000000E-03 0. -1.
    9900012    2    1    2    0    0 -0.16302668380E+02  0.53752472857E+01  0.41646646966E+02  0.46142317819E+02  0.10000000524E+02 0.  0.
         12    1    1    2    0    0  0.16302668380E+02 -0.53752472857E+01 -0.41646646966E+02  0.45045682181E+02  0.00000000000E+00 0. -1.
         11    1    3    3    0    0 -0.20522841507E+01  0.29358839002E+01  0.89845587173E+01  0.96723099680E+01  0.51100000000E-03 0. -1.
        -11    1    3    3    0    0 -0.30916005954E+01 -0.23229235432E+01  0.10733660944E+02  0.11409007212E+02  0.51100000000E-03 0.  1.
        -12    1    3    3    0    0 -0.11158783634E+02  0.47622869288E+01  0.21928427304E+02  0.25061000639E+02  0.00000000000E+00 0.  1.
</event>
<event>
 7    1  0.2313935E-008  0.4614232E+02  0.7816164E-02  0.1320468E+00
        -11   -1    0    0    0    0  0.00000000000E+00  0.00000000000E+00  0.45593999997E+02  0.45594000000E+02  0.51100000000E-03 0.  1.
         11   -1    0    0    0    0 -0.00000000000E+00 -0.00000000000E+00 -0.45593999997E+02  0.45594000000E+02  0.51100000000E-03 0. -1.
    9900012    2    1    2    0    0  0.17313057598E+02  0.32773974699E+02  0.25597616956E+02  0.46142319022E+02  0.10000011496E+02 0.  0.
         12    1    1    2    0    0 -0.17313057598E+02 -0.32773974699E+02 -0.25597616956E+02  0.45045680978E+02  0.00000000000E+00 0. -1.
         11    1    3    3    0    0  0.31495791832E+01  0.85221465635E+00  0.15269770494E+01  0.36024683236E+01  0.51100000000E-03 0. -1.
        -11    1    3    3    0    0  0.76874148668E-01  0.14522627914E+01  0.56531417295E+00  0.15603067728E+01  0.51100000000E-03 0.  1.
        -12    1    3    3    0    0  0.14086604266E+02  0.30469497251E+02  0.23505325734E+02  0.40979543925E+02  0.00000000000E+00 0.  1.
</event>
<event>
 7    1  0.2313935E-008  0.4614232E+02  0.7816164E-02  0.1320468E+00
        -11   -1    0    0    0    0  0.00000000000E+00  0.00000000000E+00  0.45593999997E+02  0.45594000000E+02  0.51100000000E-03 0.  1.
         11   -1    0    0    0    0 -0.00000000000E+00 -0.00000000000E+00 -0.45593999997E+02  0.45594000000E+02  0.51100000000E-03 0. -1.
    9900012    2    1    2    0    0  0.23182236065E+02  0.33237588219E+02  0.19671303038E+02  0.46142317601E+02  0.99999985390E+01 0.  0.
         12    1    1    2    0    0 -0.23182236065E+02 -0.33237588219E+02 -0.19671303038E+02  0.45045682399E+02  0.00000000000E+00 0. -1.
         11    1    3    3    0    0  0.33676458618E+01  0.27212704954E+01  0.42282804674E+01  0.60518350714E+01  0.51100000000E-03 0. -1.
        -11    1    3    3    0    0  0.13745863660E+02  0.18328524673E+02  0.12723812739E+02  0.26206468579E+02  0.51100000000E-03 0.  1.
         12    1    3    3    0    0  0.60687265430E+01  0.12187793050E+02  0.27192098316E+01  0.13884013951E+02  0.00000000000E+00 0. -1.
</event>
<event>
 7    1  0.2313935E-008  0.4614232E+02  0.7816164E-02  0.1320468E+00
        -11   -1    0    0    0    0  0.00000000000E+00  0.00000000000E+00  0.45593999997E+02  0.45594000000E+02  0.51100000000E-03 0.  1.
         11   -1    0    0    0    0 -0.00000000000E+00 -0.00000000000E+00 -0.45593999997E+02  0.45594000000E+02  0.51100000000E-03 0. -1.
    9900012    2    1    2    0    0 -0.38375737952E+02  0.49372986574E+01  0.23065977336E+02  0.46142317723E+02  0.99999996481E+01 0.  0.
         12    1    1    2    0    0  0.38375737952E+02 -0.49372986574E+01 -0.23065977336E+02  0.45045682277E+02  0.00000000000E+00 0. -1.
         11    1    3    3    0    0 -0.14778742860E+02  0.14790670000E+01  0.12229221553E+02  0.19239353933E+02  0.51100000000E-03 0. -1.
        -11    1    3    3    0    0 -0.18674443254E+02  0.32605614279E+00  0.93249616104E+01  0.20875728795E+02  0.51100000000E-03 0.  1.
        -12    1    3    3    0    0 -0.49225518378E+01  0.31321755146E+01  0.15117941730E+01  0.60272349939E+01  0.00000000000E+00 0.  1.
</event>
<event>
 7    1  0.2313935E-008  0.4614232E+02  0.7816164E-02  0.1320468E+00
        -11   -1    0    0    0    0  0.00000000000E+00  0.00000000000E+00  0.45593999997E+02  0.45594000000E+02  0.51100000000E-03 0. -1.
         11   -1    0    0    0    0 -0.00000000000E+00 -0.00000000000E+00 -0.45593999997E+02  0.45594000000E+02  0.51100000000E-03 0.  1.
    9900012    2    1    2    0    0 -0.18225595281E+02 -0.13841753959E-01 -0.41193938426E+02  0.46142322316E+02  0.10000041539E+02 0.  0.
         12    1    1    2    0    0  0.18225595281E+02  0.13841753959E-01  0.41193938426E+02  0.45045677684E+02  0.00000000000E+00 0. -1.
         11    1    3    3    0    0 -0.14997939504E+01 -0.14245562666E+01 -0.27070785878E+01  0.34069072767E+01  0.51100000000E-03 0. -1.
        -11    1    3    3    0    0 -0.82624335786E+01 -0.32524628917E+01 -0.17147958796E+02  0.19310588148E+02  0.51100000000E-03 0.  1.
        -12    1    3    3    0    0 -0.84633677524E+01  0.46631774043E+01 -0.21338901042E+02  0.23424826892E+02  0.00000000000E+00 0.  1.
</event>
<event>
 7    1  0.2313935E-008  0.4614232E+02  0.7816164E-02  0.1320468E+00
        -11   -1    0    0    0    0  0.00000000000E+00  0.00000000000E+00  0.45593999997E+02  0.45594000000E+02  0.51100000000E-03 0. -1.
         11   -1    0    0    0    0 -0.00000000000E+00 -0.00000000000E+00 -0.45593999997E+02  0.45594000000E+02  0.51100000000E-03 0.  1.
    9900012    2    1    2    0    0 -0.66322799664E+01  0.43468619466E+02 -0.97778031998E+01  0.46142318173E+02  0.10000003758E+02 0.  0.
         12    1    1    2    0    0  0.66322799664E+01 -0.43468619466E+02  0.97778031998E+01  0.45045681827E+02  0.00000000000E+00 0. -1.
         11    1    3    3    0    0 -0.16265153647E+01  0.12054878330E+02 -0.87813016562E-01  0.12164429916E+02  0.51100000000E-03 0. -1.
        -11    1    3    3    0    0 -0.20439480483E+01  0.15539384806E+02 -0.11624635572E+01  0.15716282179E+02  0.51100000000E-03 0.  1.
        -12    1    3    3    0    0 -0.29618165534E+01  0.15874356330E+02 -0.85275266260E+01  0.18261606078E+02  0.00000000000E+00 0.  1.
</event>
<event>
 7    1  0.2313935E-008  0.4614232E+02  0.7816164E-02  0.1320468E+00
        -11   -1    0    0    0    0  0.00000000000E+00  0.00000000000E+00  0.45593999997E+02  0.45594000000E+02  0.51100000000E-03 0.  1.
         11   -1    0    0    0    0 -0.00000000000E+00 -0.00000000000E+00 -0.45593999997E+02  0.45594000000E+02  0.51100000000E-03 0. -1.
    9900012    2    1    2    0    0  0.27448590243E+02  0.34713334339E+02 -0.84067112737E+01  0.46142317835E+02  0.10000000671E+02 0.  0.
         12    1    1    2    0    0 -0.27448590243E+02 -0.34713334339E+02  0.84067112737E+01  0.45045682165E+02  0.00000000000E+00 0. -1.
         11    1    3    3    0    0  0.86376269194E+00  0.11234174484E+01 -0.16422819032E+01  0.21691571778E+01  0.51100000000E-03 0. -1.
        -11    1    3    3    0    0  0.75931174154E+01  0.95976039255E+01 -0.53070292847E+01  0.13339190129E+02  0.51100000000E-03 0.  1.
        -12    1    3    3    0    0  0.18991710136E+02  0.23992312965E+02 -0.14574000859E+01  0.30633970528E+02  0.00000000000E+00 0.  1.
</event>
<event>
 7    1  0.2313935E-008  0.4614232E+02  0.7816164E-02  0.1320468E+00
        -11   -1    0    0    0    0  0.00000000000E+00  0.00000000000E+00  0.45593999997E+02  0.45594000000E+02  0.51100000000E-03 0. -1.
         11   -1    0    0    0    0 -0.00000000000E+00 -0.00000000000E+00 -0.45593999997E+02  0.45594000000E+02  0.51100000000E-03 0.  1.
    9900012    2    1    2    0    0 -0.19065616059E+02  0.38353183211E+02 -0.13951667897E+02  0.46142318573E+02  0.10000007401E+02 0.  0.
         12    1    1    2    0    0  0.19065616059E+02 -0.38353183211E+02  0.13951667897E+02  0.45045681427E+02  0.00000000000E+00 0. -1.
         11    1    3    3    0    0 -0.67886600398E+01  0.62604952581E+01 -0.43897438182E+01  0.10224947778E+02  0.51100000000E-03 0. -1.
        -11    1    3    3    0    0 -0.11106249870E+02  0.24275121170E+02 -0.79034524422E+01  0.27840525404E+02  0.51100000000E-03 0.  1.
        -12    1    3    3    0    0 -0.11707061485E+01  0.78175667835E+01 -0.16584716363E+01  0.80768453909E+01  0.00000000000E+00 0.  1.
</event>
<event>
 7    1  0.2313935E-008  0.4614230E+02  0.7816164E-02  0.1320468E+00
        -11   -1    0    0    0    0  0.00000000000E+00  0.00000000000E+00  0.45593999997E+02  0.45594000000E+02  0.51100000000E-03 0.  1.
         11   -1    0    0    0    0 -0.00000000000E+00 -0.00000000000E+00 -0.45593999997E+02  0.45594000000E+02  0.51100000000E-03 0. -1.
    9900012    2    1    2    0    0 -0.38017751541E+02 -0.74787269009E+01  0.22974641127E+02  0.46142301835E+02  0.99998547739E+01 0.  0.
         12    1    1    2    0    0  0.38017751541E+02  0.74787269009E+01 -0.22974641127E+02  0.45045698165E+02  0.00000000000E+00 0. -1.
         11    1    3    3    0    0 -0.97705985611E+01 -0.22120057070E+01  0.10569770013E+02  0.14562884463E+02  0.51100000000E-03 0. -1.
        -11    1    3    3    0    0 -0.12186311900E+02 -0.15865798520E+00  0.52392278366E+01  0.13265778479E+02  0.51100000000E-03 0.  1.
        -12    1    3    3    0    0 -0.16060841080E+02 -0.51080632086E+01  0.71656432767E+01  0.18313638893E+02  0.00000000000E+00 0.  1.
</event>
<event>
 7    1  0.2313935E-008  0.4614232E+02  0.7816164E-02  0.1320468E+00
        -11   -1    0    0    0    0  0.00000000000E+00  0.00000000000E+00  0.45593999997E+02  0.45594000000E+02  0.51100000000E-03 0.  1.
         11   -1    0    0    0    0 -0.00000000000E+00 -0.00000000000E+00 -0.45593999997E+02  0.45594000000E+02  0.51100000000E-03 0. -1.
    9900012    2    1    2    0    0 -0.14127176282E+02 -0.24304134851E+02  0.35197236371E+02  0.46142317313E+02  0.99999959133E+01 0.  0.
         12    1    1    2    0    0  0.14127176282E+02  0.24304134851E+02 -0.35197236371E+02  0.45045682687E+02  0.00000000000E+00 0. -1.
         11    1    3    3    0    0 -0.34373085617E+01 -0.12886847117E+01  0.34884801948E+01  0.50641181626E+01  0.51100000000E-03 0. -1.
        -11    1    3    3    0    0 -0.69110903254E+01 -0.10812655037E+02  0.19918481819E+02  0.23694357909E+02  0.51100000000E-03 0.  1.
        -12    1    3    3    0    0 -0.37787773948E+01 -0.12202795102E+02  0.11790274357E+02  0.17383841242E+02  0.00000000000E+00 0.  1.
</event>
<event>
 7    1  0.2313935E-008  0.4614232E+02  0.7816164E-02  0.1320468E+00
        -11   -1    0    0    0    0  0.00000000000E+00  0.00000000000E+00  0.45593999997E+02  0.45594000000E+02  0.51100000000E-03 0.  1.
         11   -1    0    0    0    0 -0.00000000000E+00 -0.00000000000E+00 -0.45593999997E+02  0.45594000000E+02  0.51100000000E-03 0. -1.
    9900012    2    1    2    0    0  0.36042701372E+00 -0.35644354756E+02  0.27540217178E+02  0.46142317679E+02  0.99999992468E+01 0.  0.
         12    1    1    2    0    0 -0.36042701372E+00  0.35644354756E+02 -0.27540217178E+02  0.45045682321E+02  0.00000000000E+00 0. -1.
         11    1    3    3    0    0 -0.14629807400E+01 -0.12933532279E+02  0.79564638152E+01  0.15255224893E+02  0.51100000000E-03 0. -1.
        -11    1    3    3    0    0  0.86887308708E+00 -0.79273124624E+01  0.26860687265E+01  0.84149978481E+01  0.51100000000E-03 0.  1.
        -12    1    3    3    0    0  0.95453466668E+00 -0.14783510015E+02  0.16897684636E+02  0.22472094937E+02  0.00000000000E+00 0.  1.
</event>
<event>
 7    1  0.2313935E-008  0.4614232E+02  0.7816164E-02  0.1320468E+00
        -11   -1    0    0    0    0  0.00000000000E+00  0.00000000000E+00  0.45593999997E+02  0.45594000000E+02  0.51100000000E-03 0.  1.
         11   -1    0    0    0    0 -0.00000000000E+00 -0.00000000000E+00 -0.45593999997E+02  0.45594000000E+02  0.51100000000E-03 0. -1.
    9900012    2    1    2    0    0  0.21523030259E+02  0.35777616131E+02  0.16906648492E+02  0.46142318622E+02  0.10000007853E+02 0.  0.
         12    1    1    2    0    0 -0.21523030259E+02 -0.35777616131E+02 -0.16906648492E+02  0.45045681378E+02  0.00000000000E+00 0. -1.
         11    1    3    3    0    0  0.17418594141E+01  0.12994008751E+01 -0.95760861469E-01  0.21752441832E+01  0.51100000000E-03 0. -1.
        -11    1    3    3    0    0  0.12026989556E+02  0.27206276572E+02  0.14265238684E+02  0.32989801419E+02  0.51100000000E-03 0.  1.
        -12    1    3    3    0    0  0.77541812890E+01  0.72719386840E+01  0.27371706695E+01  0.10977273020E+02  0.00000000000E+00 0.  1.
</event>
<event>
 7    1  0.2313935E-008  0.4614232E+02  0.7816164E-02  0.1320468E+00
        -11   -1    0    0    0    0  0.00000000000E+00  0.00000000000E+00  0.45593999997E+02  0.45594000000E+02  0.51100000000E-03 0.  1.
         11   -1    0    0    0    0 -0.00000000000E+00 -0.00000000000E+00 -0.45593999997E+02  0.45594000000E+02  0.51100000000E-03 0. -1.
    9900012    2    1    2    0    0 -0.87398110403E+01 -0.18426941027E+02  0.40164375785E+02  0.46142317245E+02  0.99999952929E+01 0.  0.
         12    1    1    2    0    0  0.87398110403E+01  0.18426941027E+02 -0.40164375785E+02  0.45045682755E+02  0.00000000000E+00 0. -1.
         11    1    3    3    0    0  0.75675025164E+00 -0.12313298079E+01  0.90866516495E+00  0.17071955606E+01  0.51100000000E-03 0. -1.
        -11    1    3    3    0    0 -0.86540095001E+01 -0.95446302903E+01  0.27711650357E+02  0.30560226007E+02  0.51100000000E-03 0.  1.
         12    1    3    3    0    0 -0.84255179181E+00 -0.76509809292E+01  0.11544060263E+02  0.13874895678E+02  0.00000000000E+00 0. -1.
</event>
<event>
 7    1  0.2313935E-008  0.4614232E+02  0.7816164E-02  0.1320468E+00
        -11   -1    0    0    0    0  0.00000000000E+00  0.00000000000E+00  0.45593999997E+02  0.45594000000E+02  0.51100000000E-03 0. -1.
         11   -1    0    0    0    0 -0.00000000000E+00 -0.00000000000E+00 -0.45593999997E+02  0.45594000000E+02  0.51100000000E-03 0.  1.
    9900012    2    1    2    0    0 -0.43610207102E+02 -0.97554518118E+01  0.56651984437E+01  0.46142317888E+02  0.10000001154E+02 0.  0.
         12    1    1    2    0    0  0.43610207102E+02  0.97554518118E+01 -0.56651984437E+01  0.45045682112E+02  0.00000000000E+00 0. -1.
         11    1    3    3    0    0 -0.25128345156E+02 -0.92653564696E+01  0.15541094849E+01  0.26827147022E+02  0.51100000000E-03 0. -1.
        -11    1    3    3    0    0 -0.63586653301E+01 -0.16231787194E+01  0.25452570072E+01  0.70388683344E+01  0.51100000000E-03 0.  1.
         12    1    3    3    0    0 -0.12123196617E+02  0.11330833772E+01  0.15658319517E+01  0.12276302532E+02  0.00000000000E+00 0. -1.
</event>
<event>
 7    1  0.2313935E-008  0.4614232E+02  0.7816164E-02  0.1320468E+00
        -11   -1    0    0    0    0  0.00000000000E+00  0.00000000000E+00  0.45593999997E+02  0.45594000000E+02  0.51100000000E-03 0.  1.
         11   -1    0    0    0    0 -0.00000000000E+00 -0.00000000000E+00 -0.45593999997E+02  0.45594000000E+02  0.51100000000E-03 0. -1.
    9900012    2    1    2    0    0  0.10853440798E+02 -0.35740252288E+02  0.25178376386E+02  0.46142318207E+02  0.10000004067E+02 0.  0.
         12    1    1    2    0    0 -0.10853440798E+02  0.35740252288E+02 -0.25178376386E+02  0.45045681793E+02  0.00000000000E+00 0. -1.
         11    1    3    3    0    0  0.36678437315E+01 -0.17557859521E+02  0.16482070791E+02  0.24359601114E+02  0.51100000000E-03 0. -1.
        -11    1    3    3    0    0 -0.41082849710E+00 -0.22889296979E+01  0.63759226852E+00  0.24113281357E+01  0.51100000000E-03 0.  1.
         12    1    3    3    0    0  0.75964255637E+01 -0.15893463069E+02  0.80587133263E+01  0.19371388957E+02  0.00000000000E+00 0. -1.
</event>
<event>
 7    1  0.2313935E-008  0.4614232E+02  0.7816164E-02  0.1320468E+00
        -11   -1    0    0    0    0  0.00000000000E+00  0.00000000000E+00  0.45593999997E+02  0.45594000000E+02  0.51100000000E-03 0.  1.
         11   -1    0    0    0    0 -0.00000000000E+00 -0.00000000000E+00 -0.45593999997E+02  0.45594000000E+02  0.51100000000E-03 0. -1.
    9900012    2    1    2    0    0 -0.17016903712E+02  0.30629585524E+02  0.28308424406E+02  0.46142318590E+02  0.10000007558E+02 0.  0.
         12    1    1    2    0    0  0.17016903712E+02 -0.30629585524E+02 -0.28308424406E+02  0.45045681410E+02  0.00000000000E+00 0. -1.
         11    1    3    3    0    0 -0.49021866145E+01  0.90094915671E+01  0.58954504862E+01  0.11830414557E+02  0.51100000000E-03 0. -1.
        -11    1    3    3    0    0 -0.67705771115E+01  0.18652334733E+02  0.16496835321E+02  0.25804958463E+02  0.51100000000E-03 0.  1.
         12    1    3    3    0    0 -0.53441399862E+01  0.29677592244E+01  0.59161385991E+01  0.85069455699E+01  0.00000000000E+00 0. -1.
</event>
<event>
 7    1  0.2313935E-008  0.4614232E+02  0.7816164E-02  0.1320468E+00
        -11   -1    0    0    0    0  0.00000000000E+00  0.00000000000E+00  0.45593999997E+02  0.45594000000E+02  0.51100000000E-03 0.  1.
         11   -1    0    0    0    0 -0.00000000000E+00 -0.00000000000E+00 -0.45593999997E+02  0.45594000000E+02  0.51100000000E-03 0. -1.
    9900012    2    1    2    0    0  0.42100528695E+02 -0.66029186107E+01  0.14596588866E+02  0.46142318109E+02  0.10000003168E+02 0.  0.
         12    1    1    2    0    0 -0.42100528695E+02  0.66029186107E+01 -0.14596588866E+02  0.45045681891E+02  0.00000000000E+00 0. -1.
         11    1    3    3    0    0  0.30463107631E+01 -0.29051297903E+01  0.85575770606E+00  0.42955919122E+01  0.51100000000E-03 0. -1.
        -11    1    3    3    0    0  0.37333478829E+02 -0.25230783498E+01  0.13337298976E+02  0.39724527814E+02  0.51100000000E-03 0.  1.
        -12    1    3    3    0    0  0.17207391025E+01 -0.11747104707E+01  0.40353218390E+00  0.21221983819E+01  0.00000000000E+00 0.  1.
</event>
<event>
 7    1  0.2313935E-008  0.4614231E+02  0.7816164E-02  0.1320468E+00
        -11   -1    0    0    0    0  0.00000000000E+00  0.00000000000E+00  0.45593999997E+02  0.45594000000E+02  0.51100000000E-03 0. -1.
         11   -1    0    0    0    0 -0.00000000000E+00 -0.00000000000E+00 -0.45593999997E+02  0.45594000000E+02  0.51100000000E-03 0.  1.
    9900012    2    1    2    0    0  0.26125692742E+02 -0.21263464124E+02 -0.29906975219E+02  0.46142313252E+02  0.99999588822E+01 0.  0.
         12    1    1    2    0    0 -0.26125692742E+02  0.21263464124E+02  0.29906975219E+02  0.45045686748E+02  0.00000000000E+00 0. -1.
         11    1    3    3    0    0  0.54806656377E+01 -0.26649147496E+01 -0.91018403345E+01  0.10953673548E+02  0.51100000000E-03 0. -1.
        -11    1    3    3    0    0  0.13871171758E+02 -0.15358864188E+02 -0.16934507861E+02  0.26741011047E+02  0.51100000000E-03 0.  1.
        -12    1    3    3    0    0  0.67738553467E+01 -0.32396851869E+01 -0.38706270238E+01  0.84476286569E+01  0.00000000000E+00 0.  1.
</event>
<event>
 7    1  0.2313935E-008  0.4614232E+02  0.7816164E-02  0.1320468E+00
        -11   -1    0    0    0    0  0.00000000000E+00  0.00000000000E+00  0.45593999997E+02  0.45594000000E+02  0.51100000000E-03 0. -1.
         11   -1    0    0    0    0 -0.00000000000E+00 -0.00000000000E+00 -0.45593999997E+02  0.45594000000E+02  0.51100000000E-03 0.  1.
    9900012    2    1    2    0    0  0.31271752223E+02  0.31965454830E+02  0.54222523483E+01  0.46142316410E+02  0.99999876754E+01 0.  0.
         12    1    1    2    0    0 -0.31271752223E+02 -0.31965454830E+02 -0.54222523483E+01  0.45045683590E+02  0.00000000000E+00 0. -1.
         11    1    3    3    0    0  0.16231671664E+00  0.16660031880E+01  0.30509674625E+00  0.17014692547E+01  0.51100000000E-03 0. -1.
        -11    1    3    3    0    0  0.29269764971E+02  0.29223669114E+02  0.65447958726E+01  0.41875724844E+02  0.51100000000E-03 0.  1.
        -12    1    3    3    0    0  0.18396705352E+01  0.10757825279E+01 -0.14276402705E+01  0.25651223104E+01  0.00000000000E+00 0.  1.
</event>
<event>
 7    1  0.2313935E-008  0.4614232E+02  0.7816164E-02  0.1320468E+00
        -11   -1    0    0    0    0  0.00000000000E+00  0.00000000000E+00  0.45593999997E+02  0.45594000000E+02  0.51100000000E-03 0.  1.
         11   -1    0    0    0    0 -0.00000000000E+00 -0.00000000000E+00 -0.45593999997E+02  0.45594000000E+02  0.51100000000E-03 0. -1.
    9900012    2    1    2    0    0  0.18357916778E+02  0.78683586065E+01  0.40375599099E+02  0.46142321204E+02  0.10000031393E+02 0.  0.
         12    1    1    2    0    0 -0.18357916778E+02 -0.78683586065E+01 -0.40375599099E+02  0.45045678796E+02  0.00000000000E+00 0. -1.
         11    1    3    3    0    0  0.91942915518E+01  0.26365505532E+01  0.18920049150E+02  0.21200345659E+02  0.51100000000E-03 0. -1.
        -11    1    3    3    0    0  0.10327546966E+02  0.51745787042E+01  0.19364529349E+02  0.22548159310E+02  0.51100000000E-03 0.  1.
         12    1    3    3    0    0 -0.11639217399E+01  0.57229349117E-01  0.20910205998E+01  0.23938162343E+01  0.00000000000E+00 0. -1.
</event>
<event>
 7    1  0.2313935E-008  0.4614232E+02  0.7816164E-02  0.1320468E+00
        -11   -1    0    0    0    0  0.00000000000E+00  0.00000000000E+00  0.45593999997E+02  0.45594000000E+02  0.51100000000E-03 0. -1.
         11   -1    0    0    0    0 -0.00000000000E+00 -0.00000000000E+00 -0.45593999997E+02  0.45594000000E+02  0.51100000000E-03 0.  1.
    9900012    2    1    2    0    0 -0.21609015953E+02 -0.35944052086E+02  0.16437426167E+02  0.46142318411E+02  0.10000005928E+02 0.  0.
         12    1    1    2    0    0  0.21609015953E+02  0.35944052086E+02 -0.16437426167E+02  0.45045681589E+02  0.00000000000E+00 0. -1.
         11    1    3    3    0    0 -0.15875449318E+01 -0.53697535128E+01 -0.31262478902E+00  0.56082337878E+01  0.51100000000E-03 0. -1.
        -11    1    3    3    0    0 -0.18223452447E+02 -0.28760853642E+02  0.16826768726E+02  0.37979218888E+02  0.51100000000E-03 0.  1.
        -12    1    3    3    0    0 -0.17980185739E+01 -0.18134449316E+01 -0.76717770010E-01  0.25548657358E+01  0.00000000000E+00 0.  1.
</event>
<event>
 7    1  0.2313935E-008  0.4614232E+02  0.7816164E-02  0.1320468E+00
        -11   -1    0    0    0    0  0.00000000000E+00  0.00000000000E+00  0.45593999997E+02  0.45594000000E+02  0.51100000000E-03 0.  1.
         11   -1    0    0    0    0 -0.00000000000E+00 -0.00000000000E+00 -0.45593999997E+02  0.45594000000E+02  0.51100000000E-03 0. -1.
    9900012    2    1    2    0    0 -0.80862927224E+01 -0.44695279862E+01  0.44087962302E+02  0.46142320625E+02  0.10000026115E+02 0.  0.
         12    1    1    2    0    0  0.80862927224E+01  0.44695279862E+01 -0.44087962302E+02  0.45045679375E+02  0.00000000000E+00 0. -1.
         11    1    3    3    0    0 -0.41790574679E+01 -0.63653636553E+00  0.26081536030E+02  0.26421889066E+02  0.51100000000E-03 0. -1.
        -11    1    3    3    0    0 -0.29239630688E+01  0.49028196800E+00  0.11288419711E+02  0.11671261983E+02  0.51100000000E-03 0.  1.
        -12    1    3    3    0    0 -0.98327218563E+00 -0.43232735886E+01  0.67180065609E+01  0.80491695761E+01  0.00000000000E+00 0.  1.
</event>
<event>
 7    1  0.2313935E-008  0.4614232E+02  0.7816164E-02  0.1320468E+00
        -11   -1    0    0    0    0  0.00000000000E+00  0.00000000000E+00  0.45593999997E+02  0.45594000000E+02  0.51100000000E-03 0.  1.
         11   -1    0    0    0    0 -0.00000000000E+00 -0.00000000000E+00 -0.45593999997E+02  0.45594000000E+02  0.51100000000E-03 0. -1.
    9900012    2    1    2    0    0 -0.28444964413E+02  0.33921806336E+02  0.83251700075E+01  0.46142318729E+02  0.10000008824E+02 0.  0.
         12    1    1    2    0    0  0.28444964413E+02 -0.33921806336E+02 -0.83251700075E+01  0.45045681271E+02  0.00000000000E+00 0. -1.
         11    1    3    3    0    0 -0.44524981538E+01  0.24178799051E+01  0.33407583640E+01  0.60689002095E+01  0.51100000000E-03 0. -1.
        -11    1    3    3    0    0 -0.56326174307E+01  0.56721725537E+01  0.20091643252E+01  0.82423699350E+01  0.51100000000E-03 0.  1.
        -12    1    3    3    0    0 -0.18359848829E+02  0.25831753877E+02  0.29752473183E+01  0.31831048584E+02  0.00000000000E+00 0.  1.
</event>
<event>
 7    1  0.2313935E-008  0.4614231E+02  0.7816164E-02  0.1320468E+00
        -11   -1    0    0    0    0  0.00000000000E+00  0.00000000000E+00  0.45593999997E+02  0.45594000000E+02  0.51100000000E-03 0.  1.
         11   -1    0    0    0    0 -0.00000000000E+00 -0.00000000000E+00 -0.45593999997E+02  0.45594000000E+02  0.51100000000E-03 0. -1.
    9900012    2    1    2    0    0  0.22162957672E+02  0.17417540295E+02  0.35136112608E+02  0.46142314170E+02  0.99999672540E+01 0.  0.
         12    1    1    2    0    0 -0.22162957672E+02 -0.17417540295E+02 -0.35136112608E+02  0.45045685830E+02  0.00000000000E+00 0. -1.
         11    1    3    3    0    0  0.11607371174E+01  0.27673444799E+01  0.77542102913E+01  0.83146427241E+01  0.51100000000E-03 0. -1.
        -11    1    3    3    0    0  0.16273703246E+02  0.13379593600E+02  0.23639212452E+02  0.31664796033E+02  0.51100000000E-03 0.  1.
         12    1    3    3    0    0  0.47285173088E+01  0.12706022155E+01  0.37426898645E+01  0.61628754126E+01  0.00000000000E+00 0. -1.
</event>
<event>
 7    1  0.2313935E-008  0.4614232E+02  0.7816164E-02  0.1320468E+00
        -11   -1    0    0    0    0  0.00000000000E+00  0.00000000000E+00  0.45593999997E+02  0.45594000000E+02  0.51100000000E-03 0.  1.
         11   -1    0    0    0    0 -0.00000000000E+00 -0.00000000000E+00 -0.45593999997E+02  0.45594000000E+02  0.51100000000E-03 0. -1.
    9900012    2    1    2    0    0 -0.30877834294E+02 -0.28013877259E+02  0.17055659602E+02  0.46142317696E+02  0.99999994065E+01 0.  0.
         12    1    1    2    0    0  0.30877834294E+02  0.28013877259E+02 -0.17055659602E+02  0.45045682304E+02  0.00000000000E+00 0. -1.
         11    1    3    3    0    0 -0.20007033176E+01 -0.36042807354E+01 -0.37440654825E+00  0.41393035536E+01  0.51100000000E-03 0. -1.
        -11    1    3    3    0    0 -0.18540347397E+02 -0.14093023368E+02  0.13332503040E+02  0.26834929231E+02  0.51100000000E-03 0.  1.
        -12    1    3    3    0    0 -0.10336783580E+02 -0.10316573156E+02  0.40975631103E+01  0.15168084912E+02  0.00000000000E+00 0.  1.
</event>
<event>
 7    1  0.2313935E-008  0.4614232E+02  0.7816164E-02  0.1320468E+00
        -11   -1    0    0    0    0  0.00000000000E+00  0.00000000000E+00  0.45593999997E+02  0.45594000000E+02  0.51100000000E-03 0.  1.
         11   -1    0    0    0    0 -0.00000000000E+00 -0.00000000000E+00 -0.45593999997E+02  0.45594000000E+02  0.51100000000E-03 0. -1.
    9900012    2    1    2    0    0 -0.35482649309E+02  0.13532500969E+02  0.24227393275E+02  0.46142316862E+02  0.99999918035E+01 0.  0.
         12    1    1    2    0    0  0.35482649309E+02 -0.13532500969E+02 -0.24227393275E+02  0.45045683138E+02  0.00000000000E+00 0. -1.
         11    1    3    3    0    0 -0.69028399453E+01  0.53192936074E+01  0.32380450547E+01  0.92967209181E+01  0.51100000000E-03 0. -1.
        -11    1    3    3    0    0 -0.89774215900E+01  0.49077340605E+00  0.42923103496E+01  0.99628753550E+01  0.51100000000E-03 0.  1.
        -12    1    3    3    0    0 -0.19602387773E+02  0.77224339558E+01  0.16697037870E+02  0.26882720589E+02  0.00000000000E+00 0.  1.
</event>
<event>
 7    1  0.2313935E-008  0.4614232E+02  0.7816164E-02  0.1320468E+00
        -11   -1    0    0    0    0  0.00000000000E+00  0.00000000000E+00  0.45593999997E+02  0.45594000000E+02  0.51100000000E-03 0. -1.
         11   -1    0    0    0    0 -0.00000000000E+00 -0.00000000000E+00 -0.45593999997E+02  0.45594000000E+02  0.51100000000E-03 0.  1.
    9900012    2    1    2    0    0  0.21897207796E+02  0.31162707373E+02  0.24052264839E+02  0.46142317810E+02  0.10000000448E+02 0.  0.
         12    1    1    2    0    0 -0.21897207796E+02 -0.31162707373E+02 -0.24052264839E+02  0.45045682190E+02  0.00000000000E+00 0. -1.
         11    1    3    3    0    0  0.40910160825E+01  0.11305111609E+02  0.96463092472E+01  0.15414059927E+02  0.51100000000E-03 0. -1.
        -11    1    3    3    0    0  0.48875282285E+01  0.28821795208E+01  0.43232250000E+01  0.71333838840E+01  0.51100000000E-03 0.  1.
         12    1    3    3    0    0  0.12918663485E+02  0.16975416243E+02  0.10082730592E+02  0.23594873999E+02  0.00000000000E+00 0. -1.
</event>
<event>
 7    1  0.2313935E-008  0.4614232E+02  0.7816164E-02  0.1320468E+00
        -11   -1    0    0    0    0  0.00000000000E+00  0.00000000000E+00  0.45593999997E+02  0.45594000000E+02  0.51100000000E-03 0.  1.
         11   -1    0    0    0    0 -0.00000000000E+00 -0.00000000000E+00 -0.45593999997E+02  0.45594000000E+02  0.51100000000E-03 0. -1.
    9900012    2    1    2    0    0  0.25521677022E+02 -0.17853439551E+02  0.32542467432E+02  0.46142317761E+02  0.99999999972E+01 0.  0.
         12    1    1    2    0    0 -0.25521677022E+02  0.17853439551E+02 -0.32542467432E+02  0.45045682239E+02  0.00000000000E+00 0. -1.
         11    1    3    3    0    0  0.28299874615E+01 -0.44620618799E+01  0.24515354767E+01  0.58248477840E+01  0.51100000000E-03 0. -1.
        -11    1    3    3    0    0  0.27966381251E+01 -0.10948010994E+01  0.61724887925E+01  0.68643566636E+01  0.51100000000E-03 0.  1.
        -12    1    3    3    0    0  0.19895051436E+02 -0.12296576572E+02  0.23918443163E+02  0.33453113313E+02  0.00000000000E+00 0.  1.
</event>
<event>
 7    1  0.2313935E-008  0.4614232E+02  0.7816164E-02  0.1320468E+00
        -11   -1    0    0    0    0  0.00000000000E+00  0.00000000000E+00  0.45593999997E+02  0.45594000000E+02  0.51100000000E-03 0.  1.
         11   -1    0    0    0    0 -0.00000000000E+00 -0.00000000000E+00 -0.45593999997E+02  0.45594000000E+02  0.51100000000E-03 0. -1.
    9900012    2    1    2    0    0 -0.18688123197E+02  0.35968111453E+02  0.19651014851E+02  0.46142319022E+02  0.10000011496E+02 0.  0.
         12    1    1    2    0    0  0.18688123197E+02 -0.35968111453E+02 -0.19651014851E+02  0.45045680978E+02  0.00000000000E+00 0. -1.
         11    1    3    3    0    0 -0.74618774109E+01  0.10773081121E+02  0.84054319997E+01  0.15568884954E+02  0.51100000000E-03 0. -1.
        -11    1    3    3    0    0 -0.60509482887E+01  0.17548477597E+02  0.10460279647E+02  0.21306817963E+02  0.51100000000E-03 0.  1.
         12    1    3    3    0    0 -0.51752974974E+01  0.76465527347E+01  0.78530320450E+00  0.92666161048E+01  0.00000000000E+00 0. -1.
</event>
<event>
 7    1  0.2313935E-008  0.4614232E+02  0.7816164E-02  0.1320468E+00
        -11   -1    0    0    0    0  0.00000000000E+00  0.00000000000E+00  0.45593999997E+02  0.45594000000E+02  0.51100000000E-03 0. -1.
         11   -1    0    0    0    0 -0.00000000000E+00 -0.00000000000E+00 -0.45593999997E+02  0.45594000000E+02  0.51100000000E-03 0.  1.
    9900012    2    1    2    0    0  0.20543780012E+02  0.62372799077E+01 -0.39600036254E+02  0.46142318419E+02  0.10000006000E+02 0.  0.
         12    1    1    2    0    0 -0.20543780012E+02 -0.62372799077E+01  0.39600036254E+02  0.45045681581E+02  0.00000000000E+00 0. -1.
         11    1    3    3    0    0  0.30785317376E+01 -0.36200635377E-01 -0.12181701779E+02  0.12564733448E+02  0.51100000000E-03 0.  1.
        -11    1    3    3    0    0  0.12459650329E+02  0.65052440119E+01 -0.22672795797E+02  0.26676145814E+02  0.51100000000E-03 0. -1.
        -12    1    3    3    0    0  0.50055979446E+01 -0.23176346879E+00 -0.47455386783E+01  0.69014391568E+01  0.00000000000E+00 0.  1.
</event>
<event>
 7    1  0.2313935E-008  0.4614232E+02  0.7816164E-02  0.1320468E+00
        -11   -1    0    0    0    0  0.00000000000E+00  0.00000000000E+00  0.45593999997E+02  0.45594000000E+02  0.51100000000E-03 0.  1.
         11   -1    0    0    0    0 -0.00000000000E+00 -0.00000000000E+00 -0.45593999997E+02  0.45594000000E+02  0.51100000000E-03 0. -1.
    9900012    2    1    2    0    0 -0.26342185225E+02 -0.29311928281E+02  0.21817737118E+02  0.46142317466E+02  0.99999973087E+01 0.  0.
         12    1    1    2    0    0  0.26342185225E+02  0.29311928281E+02 -0.21817737118E+02  0.45045682534E+02  0.00000000000E+00 0. -1.
         11    1    3    3    0    0 -0.17980551956E+02 -0.16949637200E+02  0.14319319863E+02  0.28559295711E+02  0.51100000000E-03 0. -1.
        -11    1    3    3    0    0 -0.82654753458E+01 -0.96500756724E+01  0.77076984526E+01  0.14861045013E+02  0.51100000000E-03 0.  1.
         12    1    3    3    0    0 -0.96157922630E-01 -0.27122154084E+01 -0.20928119713E+00  0.27219767426E+01  0.00000000000E+00 0. -1.
</event>
<event>
 7    1  0.2313935E-008  0.4614232E+02  0.7816164E-02  0.1320468E+00
        -11   -1    0    0    0    0  0.00000000000E+00  0.00000000000E+00  0.45593999997E+02  0.45594000000E+02  0.51100000000E-03 0.  1.
         11   -1    0    0    0    0 -0.00000000000E+00 -0.00000000000E+00 -0.45593999997E+02  0.45594000000E+02  0.51100000000E-03 0. -1.
    9900012    2    1    2    0    0 -0.31841935742E+02 -0.41854842416E+01  0.31586174054E+02  0.46142317171E+02  0.99999946218E+01 0.  0.
         12    1    1    2    0    0  0.31841935742E+02  0.41854842416E+01 -0.31586174054E+02  0.45045682829E+02  0.00000000000E+00 0. -1.
         11    1    3    3    0    0 -0.27092870448E+01 -0.24305356699E+01  0.51146888611E+01  0.62775618150E+01  0.51100000000E-03 0. -1.
        -11    1    3    3    0    0 -0.12590079482E+02  0.16988836801E+01  0.90832182873E+01  0.15617335299E+02  0.51100000000E-03 0.  1.
         12    1    3    3    0    0 -0.16542569215E+02 -0.34538322518E+01  0.17388266905E+02  0.24247420057E+02  0.00000000000E+00 0. -1.
</event>
<event>
 7    1  0.2313935E-008  0.4614232E+02  0.7816164E-02  0.1320468E+00
        -11   -1    0    0    0    0  0.00000000000E+00  0.00000000000E+00  0.45593999997E+02  0.45594000000E+02  0.51100000000E-03 0.  1.
         11   -1    0    0    0    0 -0.00000000000E+00 -0.00000000000E+00 -0.45593999997E+02  0.45594000000E+02  0.51100000000E-03 0. -1.
    9900012    2    1    2    0    0  0.31565697380E+02 -0.28287665947E+02  0.15248877593E+02  0.46142316926E+02  0.99999923821E+01 0.  0.
         12    1    1    2    0    0 -0.31565697380E+02  0.28287665947E+02 -0.15248877593E+02  0.45045683074E+02  0.00000000000E+00 0. -1.
         11    1    3    3    0    0  0.21079277993E+02 -0.14240784870E+02  0.10889239387E+02  0.27671491631E+02  0.51100000000E-03 0. -1.
        -11    1    3    3    0    0  0.58424582053E+01 -0.91962537377E+01  0.94187803244E+00  0.10935837196E+02  0.51100000000E-03 0.  1.
         12    1    3    3    0    0  0.46439611816E+01 -0.48506273387E+01  0.34177601738E+01  0.75349880983E+01  0.00000000000E+00 0. -1.
</event>
<event>
 7    1  0.2313935E-008  0.4614232E+02  0.7816164E-02  0.1320468E+00
        -11   -1    0    0    0    0  0.00000000000E+00  0.00000000000E+00  0.45593999997E+02  0.45594000000E+02  0.51100000000E-03 0.  1.
         11   -1    0    0    0    0 -0.00000000000E+00 -0.00000000000E+00 -0.45593999997E+02  0.45594000000E+02  0.51100000000E-03 0. -1.
    9900012    2    1    2    0    0  0.17663203746E+02 -0.39563422998E+02  0.12323164936E+02  0.46142316523E+02  0.99999887062E+01 0.  0.
         12    1    1    2    0    0 -0.17663203746E+02  0.39563422998E+02 -0.12323164936E+02  0.45045683477E+02  0.00000000000E+00 0. -1.
         11    1    3    3    0    0  0.13791881891E+02 -0.26421580677E+02  0.60626926781E+01  0.30414999167E+02  0.51100000000E-03 0. -1.
        -11    1    3    3    0    0  0.17404444731E+01 -0.11737521993E+01  0.10617913620E+00  0.21019313641E+01  0.51100000000E-03 0.  1.
        -12    1    3    3    0    0  0.21308773817E+01 -0.11968090122E+02  0.61542931221E+01  0.13625385991E+02  0.00000000000E+00 0.  1.
</event>
<event>
 7    1  0.2313935E-008  0.4614232E+02  0.7816164E-02  0.1320468E+00
        -11   -1    0    0    0    0  0.00000000000E+00  0.00000000000E+00  0.45593999997E+02  0.45594000000E+02  0.51100000000E-03 0.  1.
         11   -1    0    0    0    0 -0.00000000000E+00 -0.00000000000E+00 -0.45593999997E+02  0.45594000000E+02  0.51100000000E-03 0. -1.
    9900012    2    1    2    0    0 -0.73904902465E+01  0.25646867008E+02  0.36286807067E+02  0.46142317626E+02  0.99999987698E+01 0.  0.
         12    1    1    2    0    0  0.73904902465E+01 -0.25646867008E+02 -0.36286807067E+02  0.45045682374E+02  0.00000000000E+00 0. -1.
         11    1    3    3    0    0 -0.58927421934E+00  0.83817242805E+01  0.89781507305E+01  0.12296655514E+02  0.51100000000E-03 0. -1.
        -11    1    3    3    0    0 -0.35660226742E+01  0.13468677941E+02  0.14542502434E+02  0.20139666842E+02  0.51100000000E-03 0.  1.
         12    1    3    3    0    0 -0.32351933530E+01  0.37964647868E+01  0.12766153902E+02  0.13705995271E+02  0.00000000000E+00 0. -1.
</event>
<event>
 7    1  0.2313935E-008  0.4614232E+02  0.7816164E-02  0.1320468E+00
        -11   -1    0    0    0    0  0.00000000000E+00  0.00000000000E+00  0.45593999997E+02  0.45594000000E+02  0.51100000000E-03 0.  1.
         11   -1    0    0    0    0 -0.00000000000E+00 -0.00000000000E+00 -0.45593999997E+02  0.45594000000E+02  0.51100000000E-03 0. -1.
    9900012    2    1    2    0    0  0.36195874454E+02  0.12852315828E+02 -0.23532745382E+02  0.46142318133E+02  0.10000003394E+02 0.  0.
         12    1    1    2    0    0 -0.36195874454E+02 -0.12852315828E+02  0.23532745382E+02  0.45045681867E+02  0.00000000000E+00 0. -1.
         11    1    3    3    0    0  0.93414268944E+00 -0.41325458196E-01  0.45116449800E+00  0.10382100092E+01  0.51100000000E-03 0. -1.
        -11    1    3    3    0    0  0.11824255020E+02  0.57692360217E+01 -0.12110490773E+02  0.17881864503E+02  0.51100000000E-03 0.  1.
        -12    1    3    3    0    0  0.23437476744E+02  0.71244052649E+01 -0.11873419107E+02  0.27222243622E+02  0.00000000000E+00 0.  1.
</event>
<event>
 7    1  0.2313935E-008  0.4614232E+02  0.7816164E-02  0.1320468E+00
        -11   -1    0    0    0    0  0.00000000000E+00  0.00000000000E+00  0.45593999997E+02  0.45594000000E+02  0.51100000000E-03 0.  1.
         11   -1    0    0    0    0 -0.00000000000E+00 -0.00000000000E+00 -0.45593999997E+02  0.45594000000E+02  0.51100000000E-03 0. -1.
    9900012    2    1    2    0    0  0.82746548689E+01  0.51760781743E+01  0.43975581413E+02  0.46142318086E+02  0.10000002961E+02 0.  0.
         12    1    1    2    0    0 -0.82746548689E+01 -0.51760781743E+01 -0.43975581413E+02  0.45045681914E+02  0.00000000000E+00 0. -1.
         11    1    3    3    0    0  0.90272184499E+00  0.50409124373E+00  0.27960246303E+00  0.10710707306E+01  0.51100000000E-03 0. -1.
        -11    1    3    3    0    0  0.76908849152E-01 -0.80932590740E+00  0.57593116538E+00  0.99630334931E+00  0.51100000000E-03 0.  1.
        -12    1    3    3    0    0  0.72950241748E+01  0.54813128380E+01  0.43120047785E+02  0.44074944006E+02  0.00000000000E+00 0.  1.
</event>
<event>
 7    1  0.2313935E-008  0.4614231E+02  0.7816164E-02  0.1320468E+00
        -11   -1    0    0    0    0  0.00000000000E+00  0.00000000000E+00  0.45593999997E+02  0.45594000000E+02  0.51100000000E-03 0.  1.
         11   -1    0    0    0    0 -0.00000000000E+00 -0.00000000000E+00 -0.45593999997E+02  0.45594000000E+02  0.51100000000E-03 0. -1.
    9900012    2    1    2    0    0  0.93817510190E+00 -0.15479652622E+02  0.42292008913E+02  0.46142313906E+02  0.99999648421E+01 0.  0.
         12    1    1    2    0    0 -0.93817510190E+00  0.15479652622E+02 -0.42292008913E+02  0.45045686094E+02  0.00000000000E+00 0. -1.
         11    1    3    3    0    0 -0.38186186944E+01 -0.84422005294E+01  0.25383156514E+02  0.27021421750E+02  0.51100000000E-03 0.  1.
        -11    1    3    3    0    0  0.17641311687E+01 -0.32782755570E+01  0.46677003799E+01  0.59704837748E+01  0.51100000000E-03 0. -1.
        -12    1    3    3    0    0  0.29926626276E+01 -0.37591765360E+01  0.12241152019E+02  0.13150408381E+02  0.00000000000E+00 0.  1.
</event>
<event>
 7    1  0.2313935E-008  0.4614232E+02  0.7816164E-02  0.1320468E+00
        -11   -1    0    0    0    0  0.00000000000E+00  0.00000000000E+00  0.45593999997E+02  0.45594000000E+02  0.51100000000E-03 0.  1.
         11   -1    0    0    0    0 -0.00000000000E+00 -0.00000000000E+00 -0.45593999997E+02  0.45594000000E+02  0.51100000000E-03 0. -1.
    9900012    2    1    2    0    0 -0.43047604868E+02 -0.13257550399E+02 -0.50454629852E+00  0.46142317694E+02  0.99999993860E+01 0.  0.
         12    1    1    2    0    0  0.43047604868E+02  0.13257550399E+02  0.50454629852E+00  0.45045682306E+02  0.00000000000E+00 0. -1.
         11    1    3    3    0    0 -0.12693237524E+02 -0.20970790953E+01  0.95470071825E+00  0.12900677242E+02  0.51100000000E-03 0. -1.
        -11    1    3    3    0    0 -0.12807071393E+02 -0.12823207612E+01  0.12143056641E+01  0.12928262169E+02  0.51100000000E-03 0.  1.
         12    1    3    3    0    0 -0.17547295951E+02 -0.98781505426E+01 -0.26735526809E+01  0.20313378283E+02  0.00000000000E+00 0. -1.
</event>
<event>
 7    1  0.2313935E-008  0.4614232E+02  0.7816164E-02  0.1320468E+00
        -11   -1    0    0    0    0  0.00000000000E+00  0.00000000000E+00  0.45593999997E+02  0.45594000000E+02  0.51100000000E-03 0.  1.
         11   -1    0    0    0    0 -0.00000000000E+00 -0.00000000000E+00 -0.45593999997E+02  0.45594000000E+02  0.51100000000E-03 0. -1.
    9900012    2    1    2    0    0 -0.11571879475E+01  0.21195162192E+02  0.39730838686E+02  0.46142317332E+02  0.99999960891E+01 0.  0.
         12    1    1    2    0    0  0.11571879475E+01 -0.21195162192E+02 -0.39730838686E+02  0.45045682668E+02  0.00000000000E+00 0. -1.
         11    1    3    3    0    0  0.22309568369E+01  0.35565831966E+01  0.51746456917E+01  0.66635884280E+01  0.51100000000E-03 0. -1.
        -11    1    3    3    0    0  0.46524848249E+00  0.11055068862E+02  0.24263585109E+02  0.26667443940E+02  0.51100000000E-03 0.  1.
        -12    1    3    3    0    0 -0.38533932669E+01  0.65835101339E+01  0.10292607886E+02  0.12811284965E+02  0.00000000000E+00 0.  1.
</event>
<event>
 7    1  0.2313935E-008  0.4614232E+02  0.7816164E-02  0.1320468E+00
        -11   -1    0    0    0    0  0.00000000000E+00  0.00000000000E+00  0.45593999997E+02  0.45594000000E+02  0.51100000000E-03 0.  1.
         11   -1    0    0    0    0 -0.00000000000E+00 -0.00000000000E+00 -0.45593999997E+02  0.45594000000E+02  0.51100000000E-03 0. -1.
    9900012    2    1    2    0    0  0.24916431809E+01  0.24405717796E+02  0.37779177817E+02  0.46142316262E+02  0.99999863300E+01 0.  0.
         12    1    1    2    0    0 -0.24916431809E+01 -0.24405717796E+02 -0.37779177817E+02  0.45045683738E+02  0.00000000000E+00 0. -1.
         11    1    3    3    0    0  0.48761734121E+00  0.70330420305E+01  0.12327074213E+02  0.14200641176E+02  0.51100000000E-03 0.  1.
        -11    1    3    3    0    0 -0.25218735051E+01  0.30425866975E+01  0.31731681712E+01  0.50681531440E+01  0.51100000000E-03 0. -1.
         12    1    3    3    0    0  0.45258993448E+01  0.14330089068E+02  0.22278935433E+02  0.26873521942E+02  0.00000000000E+00 0. -1.
</event>
<event>
 7    1  0.2313935E-008  0.4614232E+02  0.7816164E-02  0.1320468E+00
        -11   -1    0    0    0    0  0.00000000000E+00  0.00000000000E+00  0.45593999997E+02  0.45594000000E+02  0.51100000000E-03 0. -1.
         11   -1    0    0    0    0 -0.00000000000E+00 -0.00000000000E+00 -0.45593999997E+02  0.45594000000E+02  0.51100000000E-03 0.  1.
    9900012    2    1    2    0    0 -0.44906279014E+02  0.26325108183E+01  0.23684173549E+01  0.46142318643E+02  0.10000008045E+02 0.  0.
         12    1    1    2    0    0  0.44906279014E+02 -0.26325108183E+01 -0.23684173549E+01  0.45045681357E+02  0.00000000000E+00 0. -1.
         11    1    3    3    0    0 -0.14342418820E+02 -0.72702402996E+00  0.31463791090E+01  0.14701470787E+02  0.51100000000E-03 0. -1.
        -11    1    3    3    0    0 -0.30269179326E+02  0.30130095349E+01  0.13697018332E+00  0.30419076327E+02  0.51100000000E-03 0.  1.
        -12    1    3    3    0    0 -0.29468086841E+00  0.34652531341E+00 -0.91493193743E+00  0.10217715289E+01  0.00000000000E+00 0.  1.
</event>
<event>
 7    1  0.2313935E-008  0.4614232E+02  0.7816164E-02  0.1320468E+00
        -11   -1    0    0    0    0  0.00000000000E+00  0.00000000000E+00  0.45593999997E+02  0.45594000000E+02  0.51100000000E-03 0.  1.
         11   -1    0    0    0    0 -0.00000000000E+00 -0.00000000000E+00 -0.45593999997E+02  0.45594000000E+02  0.51100000000E-03 0. -1.
    9900012    2    1    2    0    0 -0.38291528312E+01  0.29582453150E+02  0.33753951023E+02  0.46142321456E+02  0.10000033696E+02 0.  0.
         12    1    1    2    0    0  0.38291528312E+01 -0.29582453150E+02 -0.33753951023E+02  0.45045678544E+02  0.00000000000E+00 0. -1.
         11    1    3    3    0    0  0.21646574883E+01  0.56833931320E+01  0.10814297658E+02  0.12407084010E+02  0.51100000000E-03 0. -1.
        -11    1    3    3    0    0 -0.32566798535E+01  0.15096261788E+02  0.13091959924E+02  0.20246048962E+02  0.51100000000E-03 0.  1.
         12    1    3    3    0    0 -0.27371304661E+01  0.88027982303E+01  0.98476934411E+01  0.13489188485E+02  0.00000000000E+00 0. -1.
</event>
<event>
 7    1  0.2313935E-008  0.4614232E+02  0.7816164E-02  0.1320468E+00
        -11   -1    0    0    0    0  0.00000000000E+00  0.00000000000E+00  0.45593999997E+02  0.45594000000E+02  0.51100000000E-03 0.  1.
         11   -1    0    0    0    0 -0.00000000000E+00 -0.00000000000E+00 -0.45593999997E+02  0.45594000000E+02  0.51100000000E-03 0. -1.
    9900012    2    1    2    0    0 -0.17619804963E+02 -0.28821867336E+02  0.29798588099E+02  0.46142318560E+02  0.10000007288E+02 0.  0.
         12    1    1    2    0    0  0.17619804963E+02  0.28821867336E+02 -0.29798588099E+02  0.45045681440E+02  0.00000000000E+00 0. -1.
         11    1    3    3    0    0 -0.23682936538E+00 -0.13972323834E+01  0.44455302927E+01  0.46659496703E+01  0.51100000000E-03 0. -1.
        -11    1    3    3    0    0 -0.12301601956E+01 -0.51632255829E+01  0.45459131195E+01  0.69883845685E+01  0.51100000000E-03 0.  1.
        -12    1    3    3    0    0 -0.16152815402E+02 -0.22261409370E+02  0.20807144686E+02  0.34487984321E+02  0.00000000000E+00 0.  1.
</event>
<event>
 7    1  0.2313935E-008  0.4614231E+02  0.7816164E-02  0.1320468E+00
        -11   -1    0    0    0    0  0.00000000000E+00  0.00000000000E+00  0.45593999997E+02  0.45594000000E+02  0.51100000000E-03 0.  1.
         11   -1    0    0    0    0 -0.00000000000E+00 -0.00000000000E+00 -0.45593999997E+02  0.45594000000E+02  0.51100000000E-03 0. -1.
    9900012    2    1    2    0    0  0.34936938255E+02 -0.28400114869E+02 -0.13992485207E+01  0.46142311242E+02  0.99999405549E+01 0.  0.
         12    1    1    2    0    0 -0.34936938255E+02  0.28400114869E+02  0.13992485207E+01  0.45045688758E+02  0.00000000000E+00 0. -1.
         11    1    3    3    0    0  0.48786697305E+01 -0.13156122871E+01  0.73854245358E+00  0.51066328677E+01  0.51100000000E-03 0. -1.
        -11    1    3    3    0    0  0.19440151326E+02 -0.19884009148E+02  0.10076028490E+01  0.27826400542E+02  0.51100000000E-03 0.  1.
         12    1    3    3    0    0  0.10618117199E+02 -0.72004934342E+01 -0.31453938232E+01  0.13209277832E+02  0.00000000000E+00 0. -1.
</event>
<event>
 7    1  0.2313935E-008  0.4614232E+02  0.7816164E-02  0.1320468E+00
        -11   -1    0    0    0    0  0.00000000000E+00  0.00000000000E+00  0.45593999997E+02  0.45594000000E+02  0.51100000000E-03 0.  1.
         11   -1    0    0    0    0 -0.00000000000E+00 -0.00000000000E+00 -0.45593999997E+02  0.45594000000E+02  0.51100000000E-03 0. -1.
    9900012    2    1    2    0    0  0.22663140024E+02  0.38825360219E+02  0.28437987549E+01  0.46142315376E+02  0.99999782531E+01 0.  0.
         12    1    1    2    0    0 -0.22663140024E+02 -0.38825360219E+02 -0.28437987549E+01  0.45045684624E+02  0.00000000000E+00 0. -1.
         11    1    3    3    0    0  0.33721459680E+01  0.20227878194E+01 -0.12672551902E+00  0.39343485624E+01  0.51100000000E-03 0. -1.
        -11    1    3    3    0    0  0.16723260593E+02  0.31882518829E+02  0.19489554534E+00  0.36002783729E+02  0.51100000000E-03 0.  1.
         12    1    3    3    0    0  0.25677334630E+01  0.49200535708E+01  0.27756287285E+01  0.62051830847E+01  0.00000000000E+00 0. -1.
</event>
<event>
 7    1  0.2313935E-008  0.4614232E+02  0.7816164E-02  0.1320468E+00
        -11   -1    0    0    0    0  0.00000000000E+00  0.00000000000E+00  0.45593999997E+02  0.45594000000E+02  0.51100000000E-03 0.  1.
         11   -1    0    0    0    0 -0.00000000000E+00 -0.00000000000E+00 -0.45593999997E+02  0.45594000000E+02  0.51100000000E-03 0. -1.
    9900012    2    1    2    0    0  0.39372226011E+01 -0.19927252045E+01  0.44829016810E+02  0.46142318479E+02  0.10000006545E+02 0.  0.
         12    1    1    2    0    0 -0.39372226011E+01  0.19927252045E+01 -0.44829016810E+02  0.45045681521E+02  0.00000000000E+00 0. -1.
         11    1    3    3    0    0 -0.21842121122E+00  0.19034747586E+00  0.25315071788E+01  0.25480323476E+01  0.51100000000E-03 0. -1.
        -11    1    3    3    0    0  0.51454986299E+01  0.23446072903E+01  0.27969455811E+02  0.28535307920E+02  0.51100000000E-03 0.  1.
        -12    1    3    3    0    0 -0.98985481758E+00 -0.45276799707E+01  0.14328053820E+02  0.15058978211E+02  0.00000000000E+00 0.  1.
</event>
<event>
 7    1  0.2313935E-008  0.4614232E+02  0.7816164E-02  0.1320468E+00
        -11   -1    0    0    0    0  0.00000000000E+00  0.00000000000E+00  0.45593999997E+02  0.45594000000E+02  0.51100000000E-03 0.  1.
         11   -1    0    0    0    0 -0.00000000000E+00 -0.00000000000E+00 -0.45593999997E+02  0.45594000000E+02  0.51100000000E-03 0. -1.
    9900012    2    1    2    0    0  0.13363968978E+00  0.16431466346E+02  0.41941656802E+02  0.46142317397E+02  0.99999966839E+01 0.  0.
         12    1    1    2    0    0 -0.13363968978E+00 -0.16431466346E+02 -0.41941656802E+02  0.45045682603E+02  0.00000000000E+00 0. -1.
         11    1    3    3    0    0  0.77760270940E-01  0.36329214071E+01  0.33888401758E+01  0.49687425581E+01  0.51100000000E-03 0. -1.
        -11    1    3    3    0    0  0.40789363345E+00  0.10486689905E+02  0.21110603249E+02  0.23575296651E+02  0.51100000000E-03 0.  1.
         12    1    3    3    0    0 -0.35201421460E+00  0.23118550335E+01  0.17442213377E+02  0.17598278188E+02  0.00000000000E+00 0. -1.
</event>
<event>
 7    1  0.2313935E-008  0.4614232E+02  0.7816164E-02  0.1320468E+00
        -11   -1    0    0    0    0  0.00000000000E+00  0.00000000000E+00  0.45593999997E+02  0.45594000000E+02  0.51100000000E-03 0.  1.
         11   -1    0    0    0    0 -0.00000000000E+00 -0.00000000000E+00 -0.45593999997E+02  0.45594000000E+02  0.51100000000E-03 0. -1.
    9900012    2    1    2    0    0  0.10021993481E+02 -0.43470357648E+02  0.62450860081E+01  0.46142318224E+02  0.10000004222E+02 0.  0.
         12    1    1    2    0    0 -0.10021993481E+02  0.43470357648E+02 -0.62450860081E+01  0.45045681776E+02  0.00000000000E+00 0. -1.
         11    1    3    3    0    0 -0.12124313701E+01 -0.41741421989E+01  0.12965214195E+01  0.45359035457E+01  0.51100000000E-03 0. -1.
        -11    1    3    3    0    0  0.94594061363E+01 -0.30086611790E+02  0.13717684530E+01  0.31568438707E+02  0.51100000000E-03 0.  1.
         12    1    3    3    0    0  0.17750187148E+01 -0.92096036591E+01  0.35767961356E+01  0.10037975971E+02  0.00000000000E+00 0. -1.
</event>
<event>
 7    1  0.2313935E-008  0.4614232E+02  0.7816164E-02  0.1320468E+00
        -11   -1    0    0    0    0  0.00000000000E+00  0.00000000000E+00  0.45593999997E+02  0.45594000000E+02  0.51100000000E-03 0. -1.
         11   -1    0    0    0    0 -0.00000000000E+00 -0.00000000000E+00 -0.45593999997E+02  0.45594000000E+02  0.51100000000E-03 0.  1.
    9900012    2    1    2    0    0 -0.19238722965E+02 -0.30881332261E+02 -0.26558019038E+02  0.46142317424E+02  0.99999969278E+01 0.  0.
         12    1    1    2    0    0  0.19238722965E+02  0.30881332261E+02  0.26558019038E+02  0.45045682576E+02  0.00000000000E+00 0. -1.
         11    1    3    3    0    0  0.26018123154E+00 -0.34510701601E+01 -0.17019282962E+01  0.38567006248E+01  0.51100000000E-03 0. -1.
        -11    1    3    3    0    0 -0.13774436332E+02 -0.23584537548E+02 -0.19785981917E+02  0.33726111372E+02  0.51100000000E-03 0.  1.
        -12    1    3    3    0    0 -0.57244678643E+01 -0.38457245529E+01 -0.50701088243E+01  0.85595054271E+01  0.00000000000E+00 0.  1.
</event>
<event>
 7    1  0.2313935E-008  0.4614232E+02  0.7816164E-02  0.1320468E+00
        -11   -1    0    0    0    0  0.00000000000E+00  0.00000000000E+00  0.45593999997E+02  0.45594000000E+02  0.51100000000E-03 0. -1.
         11   -1    0    0    0    0 -0.00000000000E+00 -0.00000000000E+00 -0.45593999997E+02  0.45594000000E+02  0.51100000000E-03 0.  1.
    9900012    2    1    2    0    0  0.20198457224E+02 -0.28627872485E+02 -0.28312200457E+02  0.46142318165E+02  0.10000003683E+02 0.  0.
         12    1    1    2    0    0 -0.20198457224E+02  0.28627872485E+02  0.28312200457E+02  0.45045681835E+02  0.00000000000E+00 0. -1.
         11    1    3    3    0    0  0.10300334925E+02 -0.17622553945E+02 -0.12805735833E+02  0.24096434956E+02  0.51100000000E-03 0. -1.
        -11    1    3    3    0    0  0.77712115513E+01 -0.48869227083E+01 -0.95327094939E+01  0.13234284759E+02  0.51100000000E-03 0.  1.
         12    1    3    3    0    0  0.21269107483E+01 -0.61183958317E+01 -0.59737551306E+01  0.88115984500E+01  0.00000000000E+00 0. -1.
</event>
<event>
 7    1  0.2313935E-008  0.4614232E+02  0.7816164E-02  0.1320468E+00
        -11   -1    0    0    0    0  0.00000000000E+00  0.00000000000E+00  0.45593999997E+02  0.45594000000E+02  0.51100000000E-03 0. -1.
         11   -1    0    0    0    0 -0.00000000000E+00 -0.00000000000E+00 -0.45593999997E+02  0.45594000000E+02  0.51100000000E-03 0.  1.
    9900012    2    1    2    0    0  0.95248974981E+01 -0.43828803999E+02 -0.41744147599E+01  0.46142317955E+02  0.10000001765E+02 0.  0.
         12    1    1    2    0    0 -0.95248974981E+01  0.43828803999E+02  0.41744147599E+01  0.45045682045E+02  0.00000000000E+00 0. -1.
         11    1    3    3    0    0  0.84845341547E+00 -0.82006998312E+01  0.15390991159E+01  0.83869051067E+01  0.51100000000E-03 0. -1.
        -11    1    3    3    0    0  0.41600507551E+01 -0.28195646647E+02 -0.30716442578E+01  0.28665929443E+02  0.51100000000E-03 0.  1.
        -12    1    3    3    0    0  0.45163933275E+01 -0.74324575208E+01 -0.26418696180E+01  0.90894834048E+01  0.00000000000E+00 0.  1.
</event>
<event>
 7    1  0.2313935E-008  0.4614232E+02  0.7816164E-02  0.1320468E+00
        -11   -1    0    0    0    0  0.00000000000E+00  0.00000000000E+00  0.45593999997E+02  0.45594000000E+02  0.51100000000E-03 0. -1.
         11   -1    0    0    0    0 -0.00000000000E+00 -0.00000000000E+00 -0.45593999997E+02  0.45594000000E+02  0.51100000000E-03 0.  1.
    9900012    2    1    2    0    0 -0.12244692886E+02  0.39429948224E+02 -0.18012775600E+02  0.46142318680E+02  0.10000008375E+02 0.  0.
         12    1    1    2    0    0  0.12244692886E+02 -0.39429948224E+02  0.18012775600E+02  0.45045681320E+02  0.00000000000E+00 0. -1.
         11    1    3    3    0    0 -0.69456960303E+00  0.80933221736E+01 -0.56735852455E+01  0.99082723286E+01  0.51100000000E-03 0.  1.
        -11    1    3    3    0    0 -0.15712613084E+01  0.32291515031E+01  0.73913947804E+00  0.36664163646E+01  0.51100000000E-03 0. -1.
        -12    1    3    3    0    0 -0.99788619742E+01  0.28107474547E+02 -0.13078329833E+02  0.32567629986E+02  0.00000000000E+00 0.  1.
</event>
<event>
 7    1  0.2313935E-008  0.4614232E+02  0.7816164E-02  0.1320468E+00
        -11   -1    0    0    0    0  0.00000000000E+00  0.00000000000E+00  0.45593999997E+02  0.45594000000E+02  0.51100000000E-03 0.  1.
         11   -1    0    0    0    0 -0.00000000000E+00 -0.00000000000E+00 -0.45593999997E+02  0.45594000000E+02  0.51100000000E-03 0. -1.
    9900012    2    1    2    0    0  0.41840627113E+02  0.40932248715E+01  0.16177792929E+02  0.46142317065E+02  0.99999936510E+01 0.  0.
         12    1    1    2    0    0 -0.41840627113E+02 -0.40932248715E+01 -0.16177792929E+02  0.45045682935E+02  0.00000000000E+00 0. -1.
         11    1    3    3    0    0  0.21346858046E+02  0.71819014296E+00  0.47295822100E+01  0.21876313530E+02  0.51100000000E-03 0. -1.
        -11    1    3    3    0    0  0.42831104947E+01 -0.75328510933E+00  0.75960892300E+00  0.44146891105E+01  0.51100000000E-03 0.  1.
        -12    1    3    3    0    0  0.16210658573E+02  0.41283198379E+01  0.10688601796E+02  0.19851314425E+02  0.00000000000E+00 0.  1.
</event>
<event>
 7    1  0.2313935E-008  0.4614233E+02  0.7816164E-02  0.1320468E+00
        -11   -1    0    0    0    0  0.00000000000E+00  0.00000000000E+00  0.45593999997E+02  0.45594000000E+02  0.51100000000E-03 0. -1.
         11   -1    0    0    0    0 -0.00000000000E+00 -0.00000000000E+00 -0.45593999997E+02  0.45594000000E+02  0.51100000000E-03 0.  1.
    9900012    2    1    2    0    0  0.33762536827E+02  0.27229520641E+02  0.12155526095E+02  0.46142328710E+02  0.10000099839E+02 0.  0.
         12    1    1    2    0    0 -0.33762536827E+02 -0.27229520641E+02 -0.12155526095E+02  0.45045671290E+02  0.00000000000E+00 0. -1.
         11    1    3    3    0    0  0.87128664244E+01  0.10076843826E+02  0.43145507628E+01  0.14002577312E+02  0.51100000000E-03 0. -1.
        -11    1    3    3    0    0  0.20647870109E+02  0.10612773442E+02  0.67798921644E+01  0.24185376536E+02  0.51100000000E-03 0.  1.
         12    1    3    3    0    0  0.44018002933E+01  0.65399033734E+01  0.10610831680E+01  0.79543748619E+01  0.00000000000E+00 0. -1.
</event>
<event>
 7    1  0.2313935E-008  0.4614232E+02  0.7816164E-02  0.1320468E+00
        -11   -1    0    0    0    0  0.00000000000E+00  0.00000000000E+00  0.45593999997E+02  0.45594000000E+02  0.51100000000E-03 0.  1.
         11   -1    0    0    0    0 -0.00000000000E+00 -0.00000000000E+00 -0.45593999997E+02  0.45594000000E+02  0.51100000000E-03 0. -1.
    9900012    2    1    2    0    0 -0.32024979352E+01  0.43134295493E+02  0.12581336182E+02  0.46142318067E+02  0.10000002792E+02 0.  0.
         12    1    1    2    0    0  0.32024979352E+01 -0.43134295493E+02 -0.12581336182E+02  0.45045681933E+02  0.00000000000E+00 0. -1.
         11    1    3    3    0    0 -0.57073617062E+00  0.88356559491E+01 -0.92860860657E+00  0.89026327585E+01  0.51100000000E-03 0. -1.
        -11    1    3    3    0    0 -0.15671138844E+01  0.31130882535E+02  0.13306108221E+02  0.33891594970E+02  0.51100000000E-03 0.  1.
        -12    1    3    3    0    0 -0.10646478802E+01  0.31677570081E+01  0.20383656735E+00  0.33480903389E+01  0.00000000000E+00 0.  1.
</event>
<event>
 7    1  0.2313935E-008  0.4614231E+02  0.7816164E-02  0.1320468E+00
        -11   -1    0    0    0    0  0.00000000000E+00  0.00000000000E+00  0.45593999997E+02  0.45594000000E+02  0.51100000000E-03 0. -1.
         11   -1    0    0    0    0 -0.00000000000E+00 -0.00000000000E+00 -0.45593999997E+02  0.45594000000E+02  0.51100000000E-03 0.  1.
    9900012    2    1    2    0    0 -0.29204530844E+02 -0.33297098260E+02 -0.82165990468E+01  0.46142313478E+02  0.99999609463E+01 0.  0.
         12    1    1    2    0    0  0.29204530844E+02  0.33297098260E+02  0.82165990468E+01  0.45045686522E+02  0.00000000000E+00 0. -1.
         11    1    3    3    0    0 -0.11345725343E+02 -0.97664548972E+01 -0.45381730261E+01  0.15643022071E+02  0.51100000000E-03 0. -1.
        -11    1    3    3    0    0 -0.70233687829E+01 -0.14725484322E+02 -0.19949688440E+01  0.16436164350E+02  0.51100000000E-03 0.  1.
        -12    1    3    3    0    0 -0.10835436718E+02 -0.88051590402E+01 -0.16834571767E+01  0.14063127058E+02  0.00000000000E+00 0.  1.
</event>
<event>
 7    1  0.2313935E-008  0.4614232E+02  0.7816164E-02  0.1320468E+00
        -11   -1    0    0    0    0  0.00000000000E+00  0.00000000000E+00  0.45593999997E+02  0.45594000000E+02  0.51100000000E-03 0.  1.
         11   -1    0    0    0    0 -0.00000000000E+00 -0.00000000000E+00 -0.45593999997E+02  0.45594000000E+02  0.51100000000E-03 0. -1.
    9900012    2    1    2    0    0  0.38663697358E+02  0.20630134241E+02 -0.10422550826E+02  0.46142317655E+02  0.99999990357E+01 0.  0.
         12    1    1    2    0    0 -0.38663697358E+02 -0.20630134241E+02  0.10422550826E+02  0.45045682345E+02  0.00000000000E+00 0. -1.
         11    1    3    3    0    0  0.15220523098E+02  0.10255768192E+02 -0.67870393870E+01  0.19568060928E+02  0.51100000000E-03 0. -1.
        -11    1    3    3    0    0 -0.50660439944E-01  0.51960332945E-01  0.56638995489E+00  0.57102031356E+00  0.51100000000E-03 0.  1.
        -12    1    3    3    0    0  0.23493834699E+02  0.10322405716E+02 -0.42019013936E+01  0.26003236413E+02  0.00000000000E+00 0.  1.
</event>
<event>
 7    1  0.2313935E-008  0.4614232E+02  0.7816164E-02  0.1320468E+00
        -11   -1    0    0    0    0  0.00000000000E+00  0.00000000000E+00  0.45593999997E+02  0.45594000000E+02  0.51100000000E-03 0.  1.
         11   -1    0    0    0    0 -0.00000000000E+00 -0.00000000000E+00 -0.45593999997E+02  0.45594000000E+02  0.51100000000E-03 0. -1.
    9900012    2    1    2    0    0 -0.74757465594E+01 -0.22705500252E+02  0.38179669840E+02  0.46142315218E+02  0.99999768138E+01 0.  0.
         12    1    1    2    0    0  0.74757465594E+01  0.22705500252E+02 -0.38179669840E+02  0.45045684782E+02  0.00000000000E+00 0. -1.
         11    1    3    3    0    0  0.12567535136E+01 -0.37904827680E-01  0.12136162963E+01  0.17474927598E+01  0.51100000000E-03 0. -1.
        -11    1    3    3    0    0 -0.37133951877E+01 -0.60257970009E+01  0.12801000006E+02  0.14627547119E+02  0.51100000000E-03 0.  1.
        -12    1    3    3    0    0 -0.50191048853E+01 -0.16641798424E+02  0.24165053538E+02  0.29767275339E+02  0.00000000000E+00 0.  1.
</event>
<event>
 7    1  0.2313935E-008  0.4614232E+02  0.7816164E-02  0.1320468E+00
        -11   -1    0    0    0    0  0.00000000000E+00  0.00000000000E+00  0.45593999997E+02  0.45594000000E+02  0.51100000000E-03 0.  1.
         11   -1    0    0    0    0 -0.00000000000E+00 -0.00000000000E+00 -0.45593999997E+02  0.45594000000E+02  0.51100000000E-03 0. -1.
    9900012    2    1    2    0    0  0.12764333622E+02  0.36540531641E+02  0.23042890402E+02  0.46142318037E+02  0.10000002519E+02 0.  0.
         12    1    1    2    0    0 -0.12764333622E+02 -0.36540531641E+02 -0.23042890402E+02  0.45045681963E+02  0.00000000000E+00 0. -1.
         11    1    3    3    0    0  0.46173372320E+01  0.96146799167E+01  0.89828881467E+01  0.13944681880E+02  0.51100000000E-03 0. -1.
        -11    1    3    3    0    0  0.39546174098E+01  0.15860813876E+02  0.11776402200E+02  0.20146663860E+02  0.51100000000E-03 0.  1.
         12    1    3    3    0    0  0.41923789800E+01  0.11065037849E+02  0.22836000554E+01  0.12050972298E+02  0.00000000000E+00 0. -1.
</event>
<event>
 7    1  0.2313935E-008  0.4614232E+02  0.7816164E-02  0.1320468E+00
        -11   -1    0    0    0    0  0.00000000000E+00  0.00000000000E+00  0.45593999997E+02  0.45594000000E+02  0.51100000000E-03 0. -1.
         11   -1    0    0    0    0 -0.00000000000E+00 -0.00000000000E+00 -0.45593999997E+02  0.45594000000E+02  0.51100000000E-03 0.  1.
    9900012    2    1    2    0    0 -0.45044701945E+02  0.10941649121E+00  0.27644745655E+00  0.46142316872E+02  0.99999918924E+01 0.  0.
         12    1    1    2    0    0  0.45044701945E+02 -0.10941649121E+00 -0.27644745655E+00  0.45045683128E+02  0.00000000000E+00 0. -1.
         11    1    3    3    0    0 -0.29004448539E+02 -0.10640490410E+01 -0.18334886169E+01  0.29081814183E+02  0.51100000000E-03 0. -1.
        -11    1    3    3    0    0 -0.50128357051E+01  0.15455020488E+01 -0.14920659581E+01  0.54537472873E+01  0.51100000000E-03 0.  1.
         12    1    3    3    0    0 -0.11027417701E+02 -0.37203651653E+00  0.36020020316E+01  0.11606755402E+02  0.00000000000E+00 0. -1.
</event>
<event>
 7    1  0.2313935E-008  0.4614232E+02  0.7816164E-02  0.1320468E+00
        -11   -1    0    0    0    0  0.00000000000E+00  0.00000000000E+00  0.45593999997E+02  0.45594000000E+02  0.51100000000E-03 0.  1.
         11   -1    0    0    0    0 -0.00000000000E+00 -0.00000000000E+00 -0.45593999997E+02  0.45594000000E+02  0.51100000000E-03 0. -1.
    9900012    2    1    2    0    0  0.30149977668E+02 -0.19173122838E+02  0.27431438565E+02  0.46142316361E+02  0.99999872361E+01 0.  0.
         12    1    1    2    0    0 -0.30149977668E+02  0.19173122838E+02 -0.27431438565E+02  0.45045683639E+02  0.00000000000E+00 0. -1.
         11    1    3    3    0    0  0.46802704988E+01 -0.11349463164E+01  0.49840300129E+01  0.69306269928E+01  0.51100000000E-03 0. -1.
        -11    1    3    3    0    0  0.18320217364E+01 -0.21328090403E+01 -0.19647437150E+00  0.28184713028E+01  0.51100000000E-03 0.  1.
        -12    1    3    3    0    0  0.23637685432E+02 -0.15905367482E+02  0.22643882923E+02  0.36393218066E+02  0.00000000000E+00 0.  1.
</event>
<event>
 7    1  0.2313935E-008  0.4614232E+02  0.7816164E-02  0.1320468E+00
        -11   -1    0    0    0    0  0.00000000000E+00  0.00000000000E+00  0.45593999997E+02  0.45594000000E+02  0.51100000000E-03 0.  1.
         11   -1    0    0    0    0 -0.00000000000E+00 -0.00000000000E+00 -0.45593999997E+02  0.45594000000E+02  0.51100000000E-03 0. -1.
    9900012    2    1    2    0    0  0.27793886897E+02 -0.44239918713E+01  0.35171602267E+02  0.46142318087E+02  0.10000002976E+02 0.  0.
         12    1    1    2    0    0 -0.27793886897E+02  0.44239918713E+01 -0.35171602267E+02  0.45045681913E+02  0.00000000000E+00 0. -1.
         11    1    3    3    0    0  0.47686837522E+01 -0.26863388967E+01  0.35164077885E+01  0.65055272955E+01  0.51100000000E-03 0. -1.
        -11    1    3    3    0    0  0.31470037868E+01 -0.23792930159E+01  0.46476142274E+01  0.60963092407E+01  0.51100000000E-03 0.  1.
        -12    1    3    3    0    0  0.19878199358E+02  0.64164004128E+00  0.27007580251E+02  0.33540481551E+02  0.00000000000E+00 0.  1.
</event>
<event>
 7    1  0.2313935E-008  0.4614232E+02  0.7816164E-02  0.1320468E+00
        -11   -1    0    0    0    0  0.00000000000E+00  0.00000000000E+00  0.45593999997E+02  0.45594000000E+02  0.51100000000E-03 0.  1.
         11   -1    0    0    0    0 -0.00000000000E+00 -0.00000000000E+00 -0.45593999997E+02  0.45594000000E+02  0.51100000000E-03 0. -1.
    9900012    2    1    2    0    0 -0.19129661483E+02 -0.40741056348E+02  0.18262589469E+01  0.46142324930E+02  0.10000065373E+02 0.  0.
         12    1    1    2    0    0  0.19129661483E+02  0.40741056348E+02 -0.18262589469E+01  0.45045675070E+02  0.00000000000E+00 0. -1.
         11    1    3    3    0    0 -0.46593638264E+00 -0.21609411998E+01 -0.13471010663E+01  0.25887149564E+01  0.51100000000E-03 0. -1.
        -11    1    3    3    0    0 -0.67624295610E+01 -0.12809092938E+02 -0.22367661558E+01  0.14656276422E+02  0.51100000000E-03 0.  1.
         12    1    3    3    0    0 -0.11901295539E+02 -0.25771022210E+02  0.54101261689E+01  0.28897333552E+02  0.00000000000E+00 0. -1.
</event>
<event>
 7    1  0.2313935E-008  0.4614232E+02  0.7816164E-02  0.1320468E+00
        -11   -1    0    0    0    0  0.00000000000E+00  0.00000000000E+00  0.45593999997E+02  0.45594000000E+02  0.51100000000E-03 0.  1.
         11   -1    0    0    0    0 -0.00000000000E+00 -0.00000000000E+00 -0.45593999997E+02  0.45594000000E+02  0.51100000000E-03 0. -1.
    9900012    2    1    2    0    0 -0.26165195362E+02  0.30649231833E+02  0.20127607395E+02  0.46142318301E+02  0.10000004924E+02 0.  0.
         12    1    1    2    0    0  0.26165195362E+02 -0.30649231833E+02 -0.20127607395E+02  0.45045681699E+02  0.00000000000E+00 0. -1.
         11    1    3    3    0    0 -0.48660212597E+01  0.32185784921E+01  0.43714554378E+01  0.72902011848E+01  0.51100000000E-03 0. -1.
        -11    1    3    3    0    0 -0.20513186925E+02  0.24871222218E+02  0.16291441137E+02  0.36121732891E+02  0.51100000000E-03 0.  1.
         12    1    3    3    0    0 -0.78598717651E+00  0.25594311226E+01 -0.53528917938E+00  0.27303842254E+01  0.00000000000E+00 0. -1.
</event>
<event>
 7    1  0.2313935E-008  0.4614232E+02  0.7816164E-02  0.1320468E+00
        -11   -1    0    0    0    0  0.00000000000E+00  0.00000000000E+00  0.45593999997E+02  0.45594000000E+02  0.51100000000E-03 0. -1.
         11   -1    0    0    0    0 -0.00000000000E+00 -0.00000000000E+00 -0.45593999997E+02  0.45594000000E+02  0.51100000000E-03 0.  1.
    9900012    2    1    2    0    0 -0.42731580308E+02  0.11849876165E+02 -0.79187060522E+01  0.46142318450E+02  0.10000006285E+02 0.  0.
         12    1    1    2    0    0  0.42731580308E+02 -0.11849876165E+02  0.79187060522E+01  0.45045681550E+02  0.00000000000E+00 0. -1.
         11    1    3    3    0    0 -0.71999710012E+01  0.19317817523E+01  0.28702848338E+00  0.74601440179E+01  0.51100000000E-03 0. -1.
        -11    1    3    3    0    0 -0.22108133518E+02  0.39354659751E+01 -0.84252913731E+01  0.23984223879E+02  0.51100000000E-03 0.  1.
        -12    1    3    3    0    0 -0.13423475789E+02  0.59826284371E+01  0.21955683749E+00  0.14697950554E+02  0.00000000000E+00 0.  1.
</event>
<event>
 7    1  0.2313935E-008  0.4614232E+02  0.7816164E-02  0.1320468E+00
        -11   -1    0    0    0    0  0.00000000000E+00  0.00000000000E+00  0.45593999997E+02  0.45594000000E+02  0.51100000000E-03 0.  1.
         11   -1    0    0    0    0 -0.00000000000E+00 -0.00000000000E+00 -0.45593999997E+02  0.45594000000E+02  0.51100000000E-03 0. -1.
    9900012    2    1    2    0    0  0.41411728198E+02  0.15251736108E+02  0.90314397581E+01  0.46142316624E+02  0.99999896336E+01 0.  0.
         12    1    1    2    0    0 -0.41411728198E+02 -0.15251736108E+02 -0.90314397581E+01  0.45045683376E+02  0.00000000000E+00 0. -1.
         11    1    3    3    0    0  0.12890702872E+01 -0.42290094887E+00  0.98297731042E+00  0.16753483434E+01  0.51100000000E-03 0. -1.
        -11    1    3    3    0    0  0.19328179599E+02  0.92404632261E+01  0.74821534056E+01  0.22692450443E+02  0.51100000000E-03 0.  1.
         12    1    3    3    0    0  0.20794478312E+02  0.64341738304E+01  0.56630904206E+00  0.21774517838E+02  0.00000000000E+00 0. -1.
</event>
<event>
 7    1  0.2313935E-008  0.4614232E+02  0.7816164E-02  0.1320468E+00
        -11   -1    0    0    0    0  0.00000000000E+00  0.00000000000E+00  0.45593999997E+02  0.45594000000E+02  0.51100000000E-03 0.  1.
         11   -1    0    0    0    0 -0.00000000000E+00 -0.00000000000E+00 -0.45593999997E+02  0.45594000000E+02  0.51100000000E-03 0. -1.
    9900012    2    1    2    0    0 -0.17658181827E+01  0.33697741699E+02  0.29840536270E+02  0.46142317473E+02  0.99999973691E+01 0.  0.
         12    1    1    2    0    0  0.17658181827E+01 -0.33697741699E+02 -0.29840536270E+02  0.45045682527E+02  0.00000000000E+00 0. -1.
         11    1    3    3    0    0  0.11749319827E+01  0.13959956454E+02  0.11033406998E+02  0.17832468130E+02  0.51100000000E-03 0. -1.
        -11    1    3    3    0    0  0.49150857942E+00  0.37053639283E+01  0.56138473215E+00  0.37797427959E+01  0.51100000000E-03 0.  1.
        -12    1    3    3    0    0 -0.34322587448E+01  0.16032421316E+02  0.18245744541E+02  0.24530106547E+02  0.00000000000E+00 0.  1.
</event>
<event>
 7    1  0.2313935E-008  0.4614232E+02  0.7816164E-02  0.1320468E+00
        -11   -1    0    0    0    0  0.00000000000E+00  0.00000000000E+00  0.45593999997E+02  0.45594000000E+02  0.51100000000E-03 0.  1.
         11   -1    0    0    0    0 -0.00000000000E+00 -0.00000000000E+00 -0.45593999997E+02  0.45594000000E+02  0.51100000000E-03 0. -1.
    9900012    2    1    2    0    0 -0.37348573300E+02  0.25125273462E+02  0.17082767606E+01  0.46142317592E+02  0.99999984607E+01 0.  0.
         12    1    1    2    0    0  0.37348573300E+02 -0.25125273462E+02 -0.17082767606E+01  0.45045682408E+02  0.00000000000E+00 0. -1.
         11    1    3    3    0    0 -0.17290188270E+02  0.87131113381E+01 -0.13338901776E+00  0.19361991439E+02  0.51100000000E-03 0. -1.
        -11    1    3    3    0    0 -0.16623733753E+02  0.11109619443E+02  0.33800408887E+01  0.20277989169E+02  0.51100000000E-03 0.  1.
         12    1    3    3    0    0 -0.34346512769E+01  0.53025426809E+01 -0.15383751103E+01  0.65023369842E+01  0.00000000000E+00 0. -1.
</event>
<event>
 7    1  0.2313935E-008  0.4614232E+02  0.7816164E-02  0.1320468E+00
        -11   -1    0    0    0    0  0.00000000000E+00  0.00000000000E+00  0.45593999997E+02  0.45594000000E+02  0.51100000000E-03 0.  1.
         11   -1    0    0    0    0 -0.00000000000E+00 -0.00000000000E+00 -0.45593999997E+02  0.45594000000E+02  0.51100000000E-03 0. -1.
    9900012    2    1    2    0    0 -0.12885546996E+01  0.39438385654E+02  0.21727099804E+02  0.46142317608E+02  0.99999986071E+01 0.  0.
         12    1    1    2    0    0  0.12885546996E+01 -0.39438385654E+02 -0.21727099804E+02  0.45045682392E+02  0.00000000000E+00 0. -1.
         11    1    3    3    0    0  0.18647377790E+01  0.93316490478E+01  0.69452127979E+01  0.11781039937E+02  0.51100000000E-03 0. -1.
        -11    1    3    3    0    0  0.14655827522E+01  0.85016461587E+01  0.20698702630E+01  0.88718816143E+01  0.51100000000E-03 0.  1.
         12    1    3    3    0    0 -0.46188752309E+01  0.21605090448E+02  0.12712016744E+02  0.25489396057E+02  0.00000000000E+00 0. -1.
</event>
<event>
 7    1  0.2313935E-008  0.4614232E+02  0.7816164E-02  0.1320468E+00
        -11   -1    0    0    0    0  0.00000000000E+00  0.00000000000E+00  0.45593999997E+02  0.45594000000E+02  0.51100000000E-03 0.  1.
         11   -1    0    0    0    0 -0.00000000000E+00 -0.00000000000E+00 -0.45593999997E+02  0.45594000000E+02  0.51100000000E-03 0. -1.
    9900012    2    1    2    0    0 -0.97203803101E+01 -0.38765391134E+02  0.20781532410E+02  0.46142318382E+02  0.10000005661E+02 0.  0.
         12    1    1    2    0    0  0.97203803101E+01  0.38765391134E+02 -0.20781532410E+02  0.45045681618E+02  0.00000000000E+00 0. -1.
         11    1    3    3    0    0 -0.21488138402E+01 -0.46407669215E+01  0.24617463811E+01  0.56757655030E+01  0.51100000000E-03 0.  1.
        -11    1    3    3    0    0  0.12225957442E+01 -0.10913102020E+02  0.33533388057E+01  0.11481960523E+02  0.51100000000E-03 0. -1.
         12    1    3    3    0    0 -0.87941622141E+01 -0.23211522192E+02  0.14966447223E+02  0.28984592356E+02  0.00000000000E+00 0. -1.
</event>
<event>
 7    1  0.2313935E-008  0.4614232E+02  0.7816164E-02  0.1320468E+00
        -11   -1    0    0    0    0  0.00000000000E+00  0.00000000000E+00  0.45593999997E+02  0.45594000000E+02  0.51100000000E-03 0. -1.
         11   -1    0    0    0    0 -0.00000000000E+00 -0.00000000000E+00 -0.45593999997E+02  0.45594000000E+02  0.51100000000E-03 0.  1.
    9900012    2    1    2    0    0 -0.22310582343E+02  0.29061143634E+02 -0.26206895875E+02  0.46142317130E+02  0.99999942485E+01 0.  0.
         12    1    1    2    0    0  0.22310582343E+02 -0.29061143634E+02  0.26206895875E+02  0.45045682870E+02  0.00000000000E+00 0. -1.
         11    1    3    3    0    0 -0.26428808632E+01  0.94728867184E+01 -0.55559506135E+01  0.11295529625E+02  0.51100000000E-03 0. -1.
        -11    1    3    3    0    0 -0.70511561954E+01  0.49071573164E+01 -0.78699678588E+01  0.11650553248E+02  0.51100000000E-03 0.  1.
        -12    1    3    3    0    0 -0.12616545284E+02  0.14681099599E+02 -0.12780977402E+02  0.23196234257E+02  0.00000000000E+00 0.  1.
</event>
<event>
 7    1  0.2313935E-008  0.4614232E+02  0.7816164E-02  0.1320468E+00
        -11   -1    0    0    0    0  0.00000000000E+00  0.00000000000E+00  0.45593999997E+02  0.45594000000E+02  0.51100000000E-03 0.  1.
         11   -1    0    0    0    0 -0.00000000000E+00 -0.00000000000E+00 -0.45593999997E+02  0.45594000000E+02  0.51100000000E-03 0. -1.
    9900012    2    1    2    0    0  0.56288309548E+01 -0.38976202596E+02  0.21869735703E+02  0.46142318227E+02  0.10000004245E+02 0.  0.
         12    1    1    2    0    0 -0.56288309548E+01  0.38976202596E+02 -0.21869735703E+02  0.45045681773E+02  0.00000000000E+00 0. -1.
         11    1    3    3    0    0  0.26199807803E+01 -0.47956283208E+01  0.41286189140E+01  0.68489301850E+01  0.51100000000E-03 0. -1.
        -11    1    3    3    0    0 -0.13589580586E+01 -0.32094452200E+01  0.34189601163E+00  0.35020278082E+01  0.51100000000E-03 0.  1.
        -12    1    3    3    0    0  0.43678082331E+01 -0.30971129055E+02  0.17399220777E+02  0.35791360233E+02  0.00000000000E+00 0.  1.
</event>
<event>
 7    1  0.2313935E-008  0.4614232E+02  0.7816164E-02  0.1320468E+00
        -11   -1    0    0    0    0  0.00000000000E+00  0.00000000000E+00  0.45593999997E+02  0.45594000000E+02  0.51100000000E-03 0. -1.
         11   -1    0    0    0    0 -0.00000000000E+00 -0.00000000000E+00 -0.45593999997E+02  0.45594000000E+02  0.51100000000E-03 0.  1.
    9900012    2    1    2    0    0 -0.33773502442E+02  0.19851846261E+02  0.22234392425E+02  0.46142317924E+02  0.10000001483E+02 0.  0.
         12    1    1    2    0    0  0.33773502442E+02 -0.19851846261E+02 -0.22234392425E+02  0.45045682076E+02  0.00000000000E+00 0. -1.
         11    1    3    3    0    0 -0.36872269669E+01  0.46511581166E+01  0.27421085364E+01  0.65382011301E+01  0.51100000000E-03 0. -1.
        -11    1    3    3    0    0 -0.31594434186E+01  0.21540689030E+01 -0.12433713517E+00  0.38259058455E+01  0.51100000000E-03 0.  1.
         12    1    3    3    0    0 -0.26926832057E+02  0.13046619241E+02  0.19616621024E+02  0.35778210948E+02  0.00000000000E+00 0. -1.
</event>
<event>
 7    1  0.2313935E-008  0.4614232E+02  0.7816164E-02  0.1320468E+00
        -11   -1    0    0    0    0  0.00000000000E+00  0.00000000000E+00  0.45593999997E+02  0.45594000000E+02  0.51100000000E-03 0.  1.
         11   -1    0    0    0    0 -0.00000000000E+00 -0.00000000000E+00 -0.45593999997E+02  0.45594000000E+02  0.51100000000E-03 0. -1.
    9900012    2    1    2    0    0  0.17789527865E+01 -0.23889832052E+02  0.38147407871E+02  0.46142317901E+02  0.10000001278E+02 0.  0.
         12    1    1    2    0    0 -0.17789527865E+01  0.23889832052E+02 -0.38147407871E+02  0.45045682099E+02  0.00000000000E+00 0. -1.
         11    1    3    3    0    0 -0.21493546134E+01 -0.10759655441E+02  0.20249163946E+02  0.23030817424E+02  0.51100000000E-03 0. -1.
        -11    1    3    3    0    0  0.78291306784E+00 -0.71160310877E+01  0.12637493299E+02  0.14524361895E+02  0.51100000000E-03 0.  1.
         12    1    3    3    0    0  0.31453943320E+01 -0.60141455231E+01  0.52607506258E+01  0.85871385818E+01  0.00000000000E+00 0. -1.
</event>
<event>
 7    1  0.2313935E-008  0.4614232E+02  0.7816164E-02  0.1320468E+00
        -11   -1    0    0    0    0  0.00000000000E+00  0.00000000000E+00  0.45593999997E+02  0.45594000000E+02  0.51100000000E-03 0.  1.
         11   -1    0    0    0    0 -0.00000000000E+00 -0.00000000000E+00 -0.45593999997E+02  0.45594000000E+02  0.51100000000E-03 0. -1.
    9900012    2    1    2    0    0 -0.28401972891E+02 -0.10675735384E+02  0.33293690377E+02  0.46142320862E+02  0.10000028274E+02 0.  0.
         12    1    1    2    0    0  0.28401972891E+02  0.10675735384E+02 -0.33293690377E+02  0.45045679138E+02  0.00000000000E+00 0. -1.
         11    1    3    3    0    0 -0.49188495780E+01 -0.14742095656E+01  0.16231823910E+01  0.53854522883E+01  0.51100000000E-03 0. -1.
        -11    1    3    3    0    0 -0.38240837810E+01 -0.25758765059E+01  0.83957720670E+01  0.95785043404E+01  0.51100000000E-03 0.  1.
        -12    1    3    3    0    0 -0.19659039532E+02 -0.66256493124E+01  0.23274735919E+02  0.31178364233E+02  0.00000000000E+00 0.  1.
</event>
<event>
 7    1  0.2313935E-008  0.4614232E+02  0.7816164E-02  0.1320468E+00
        -11   -1    0    0    0    0  0.00000000000E+00  0.00000000000E+00  0.45593999997E+02  0.45594000000E+02  0.51100000000E-03 0. -1.
         11   -1    0    0    0    0 -0.00000000000E+00 -0.00000000000E+00 -0.45593999997E+02  0.45594000000E+02  0.51100000000E-03 0.  1.
    9900012    2    1    2    0    0  0.40032454881E+02 -0.13438004530E+02 -0.15682344888E+02  0.46142319289E+02  0.10000013931E+02 0.  0.
         12    1    1    2    0    0 -0.40032454881E+02  0.13438004530E+02  0.15682344888E+02  0.45045680711E+02  0.00000000000E+00 0. -1.
         11    1    3    3    0    0  0.19573781001E+02 -0.39481767499E+01 -0.39237250391E+01  0.20349855546E+02  0.51100000000E-03 0. -1.
        -11    1    3    3    0    0  0.16896314839E+02 -0.61859560647E+01 -0.82199097910E+01  0.19781770012E+02  0.51100000000E-03 0.  1.
         12    1    3    3    0    0  0.35623590414E+01 -0.33038717155E+01 -0.35387100575E+01  0.60106937306E+01  0.00000000000E+00 0. -1.
</event>
<event>
 7    1  0.2313935E-008  0.4614232E+02  0.7816164E-02  0.1320468E+00
        -11   -1    0    0    0    0  0.00000000000E+00  0.00000000000E+00  0.45593999997E+02  0.45594000000E+02  0.51100000000E-03 0.  1.
         11   -1    0    0    0    0 -0.00000000000E+00 -0.00000000000E+00 -0.45593999997E+02  0.45594000000E+02  0.51100000000E-03 0. -1.
    9900012    2    1    2    0    0 -0.33429590444E+02 -0.29161323152E+02  0.78226136058E+01  0.46142316867E+02  0.99999918511E+01 0.  0.
         12    1    1    2    0    0  0.33429590444E+02  0.29161323152E+02 -0.78226136058E+01  0.45045683133E+02  0.00000000000E+00 0. -1.
         11    1    3    3    0    0 -0.11323781836E+02 -0.99381013395E+01  0.37918459960E+01  0.15536151056E+02  0.51100000000E-03 0. -1.
        -11    1    3    3    0    0 -0.14942582150E+02 -0.16801475559E+02  0.48448850511E+01  0.23000940279E+02  0.51100000000E-03 0.  1.
         12    1    3    3    0    0 -0.71632264575E+01 -0.24217462534E+01 -0.81411744135E+00  0.76052255329E+01  0.00000000000E+00 0. -1.
</event>
<event>
 7    1  0.2313935E-008  0.4614232E+02  0.7816164E-02  0.1320468E+00
        -11   -1    0    0    0    0  0.00000000000E+00  0.00000000000E+00  0.45593999997E+02  0.45594000000E+02  0.51100000000E-03 0.  1.
         11   -1    0    0    0    0 -0.00000000000E+00 -0.00000000000E+00 -0.45593999997E+02  0.45594000000E+02  0.51100000000E-03 0. -1.
    9900012    2    1    2    0    0 -0.44252084057E+02  0.44197830339E+00  0.84066188276E+01  0.46142317317E+02  0.99999959541E+01 0.  0.
         12    1    1    2    0    0  0.44252084057E+02 -0.44197830339E+00 -0.84066188276E+01  0.45045682683E+02  0.00000000000E+00 0. -1.
         11    1    3    3    0    0 -0.44023435877E+01 -0.10614350137E+01  0.85466611623E+00  0.46084409276E+01  0.51100000000E-03 0.  1.
        -11    1    3    3    0    0 -0.19489688285E+02  0.49644775316E+01  0.24486421201E+01  0.20260548737E+02  0.51100000000E-03 0. -1.
         12    1    3    3    0    0 -0.20360052184E+02 -0.34610642146E+01  0.51033105913E+01  0.21273327653E+02  0.00000000000E+00 0. -1.
</event>
<event>
 7    1  0.2313935E-008  0.4614232E+02  0.7816164E-02  0.1320468E+00
        -11   -1    0    0    0    0  0.00000000000E+00  0.00000000000E+00  0.45593999997E+02  0.45594000000E+02  0.51100000000E-03 0. -1.
         11   -1    0    0    0    0 -0.00000000000E+00 -0.00000000000E+00 -0.45593999997E+02  0.45594000000E+02  0.51100000000E-03 0.  1.
    9900012    2    1    2    0    0 -0.38483751748E+02 -0.17568381346E+02 -0.15474697988E+02  0.46142318192E+02  0.10000003929E+02 0.  0.
         12    1    1    2    0    0  0.38483751748E+02  0.17568381346E+02  0.15474697988E+02  0.45045681808E+02  0.00000000000E+00 0. -1.
         11    1    3    3    0    0 -0.16999119840E+01 -0.25114027522E+01 -0.43533029259E+00  0.30637162502E+01  0.51100000000E-03 0. -1.
        -11    1    3    3    0    0 -0.25950711679E+02 -0.11991891027E+02 -0.13824926704E+02  0.31754897035E+02  0.51100000000E-03 0.  1.
        -12    1    3    3    0    0 -0.10833128085E+02 -0.30650875669E+01 -0.12144409913E+01  0.11323704907E+02  0.00000000000E+00 0.  1.
</event>
<event>
 7    1  0.2313935E-008  0.4614232E+02  0.7816164E-02  0.1320468E+00
        -11   -1    0    0    0    0  0.00000000000E+00  0.00000000000E+00  0.45593999997E+02  0.45594000000E+02  0.51100000000E-03 0. -1.
         11   -1    0    0    0    0 -0.00000000000E+00 -0.00000000000E+00 -0.45593999997E+02  0.45594000000E+02  0.51100000000E-03 0.  1.
    9900012    2    1    2    0    0 -0.15801164693E+02  0.25413355617E+02 -0.33668948573E+02  0.46142317107E+02  0.99999940313E+01 0.  0.
         12    1    1    2    0    0  0.15801164693E+02 -0.25413355617E+02  0.33668948573E+02  0.45045682893E+02  0.00000000000E+00 0. -1.
         11    1    3    3    0    0 -0.54904923247E+01  0.24175497400E+01 -0.56267539761E+01  0.82249871296E+01  0.51100000000E-03 0. -1.
        -11    1    3    3    0    0  0.31897699476E+00  0.41590528297E+00 -0.92951742480E+00  0.10671112555E+01  0.51100000000E-03 0.  1.
        -12    1    3    3    0    0 -0.10629649363E+02  0.22579900594E+02 -0.27112677172E+02  0.36850218721E+02  0.00000000000E+00 0.  1.
</event>
<event>
 7    1  0.2313935E-008  0.4614232E+02  0.7816164E-02  0.1320468E+00
        -11   -1    0    0    0    0  0.00000000000E+00  0.00000000000E+00  0.45593999997E+02  0.45594000000E+02  0.51100000000E-03 0.  1.
         11   -1    0    0    0    0 -0.00000000000E+00 -0.00000000000E+00 -0.45593999997E+02  0.45594000000E+02  0.51100000000E-03 0. -1.
    9900012    2    1    2    0    0 -0.39175485346E+02 -0.13258054056E+02  0.17849897721E+02  0.46142317654E+02  0.99999990194E+01 0.  0.
         12    1    1    2    0    0  0.39175485346E+02  0.13258054056E+02 -0.17849897721E+02  0.45045682346E+02  0.00000000000E+00 0. -1.
         11    1    3    3    0    0 -0.24789346586E+02 -0.12303112626E+02  0.11398624588E+02  0.29930033866E+02  0.51100000000E-03 0. -1.
        -11    1    3    3    0    0 -0.14011433730E+02 -0.13917644264E+01  0.55328528992E+01  0.15128441588E+02  0.51100000000E-03 0.  1.
         12    1    3    3    0    0 -0.37470502914E+00  0.43682299683E+00  0.91842023345E+00  0.10838422001E+01  0.00000000000E+00 0. -1.
</event>
<event>
 7    1  0.2313935E-008  0.4614231E+02  0.7816164E-02  0.1320468E+00
        -11   -1    0    0    0    0  0.00000000000E+00  0.00000000000E+00  0.45593999997E+02  0.45594000000E+02  0.51100000000E-03 0. -1.
         11   -1    0    0    0    0 -0.00000000000E+00 -0.00000000000E+00 -0.45593999997E+02  0.45594000000E+02  0.51100000000E-03 0.  1.
    9900012    2    1    2    0    0 -0.19504650318E+02 -0.22908766119E+01 -0.40539302909E+02  0.46142305644E+02  0.99998895044E+01 0.  0.
         12    1    1    2    0    0  0.19504650318E+02  0.22908766119E+01  0.40539302909E+02  0.45045694356E+02  0.00000000000E+00 0. -1.
         11    1    3    3    0    0 -0.99115456991E+01 -0.30263607252E+01 -0.20375954551E+02  0.22859945790E+02  0.51100000000E-03 0.  1.
        -11    1    3    3    0    0  0.96954949851E-02  0.17933120260E+00  0.47756583753E+00  0.51021865229E+00  0.51100000000E-03 0. -1.
        -12    1    3    3    0    0 -0.96028001143E+01  0.55615291069E+00 -0.20640914195E+02  0.22772141202E+02  0.00000000000E+00 0.  1.
</event>
<event>
 7    1  0.2313935E-008  0.4614231E+02  0.7816164E-02  0.1320468E+00
        -11   -1    0    0    0    0  0.00000000000E+00  0.00000000000E+00  0.45593999997E+02  0.45594000000E+02  0.51100000000E-03 0.  1.
         11   -1    0    0    0    0 -0.00000000000E+00 -0.00000000000E+00 -0.45593999997E+02  0.45594000000E+02  0.51100000000E-03 0. -1.
    9900012    2    1    2    0    0 -0.38370526972E+02 -0.23196331250E+02 -0.43297532044E+01  0.46142313343E+02  0.99999597159E+01 0.  0.
         12    1    1    2    0    0  0.38370526972E+02  0.23196331250E+02  0.43297532044E+01  0.45045686657E+02  0.00000000000E+00 0. -1.
         11    1    3    3    0    0 -0.62984833340E+01 -0.61760439601E+01  0.19290911706E+01  0.90297178423E+01  0.51100000000E-03 0. -1.
        -11    1    3    3    0    0 -0.11225243205E+02 -0.40399840917E+01 -0.80897604258E+00  0.11957508059E+02  0.51100000000E-03 0.  1.
         12    1    3    3    0    0 -0.20846800433E+02 -0.12980303198E+02 -0.54498683324E+01  0.25155087442E+02  0.00000000000E+00 0. -1.
</event>
<event>
 7    1  0.2313935E-008  0.4614232E+02  0.7816164E-02  0.1320468E+00
        -11   -1    0    0    0    0  0.00000000000E+00  0.00000000000E+00  0.45593999997E+02  0.45594000000E+02  0.51100000000E-03 0.  1.
         11   -1    0    0    0    0 -0.00000000000E+00 -0.00000000000E+00 -0.45593999997E+02  0.45594000000E+02  0.51100000000E-03 0. -1.
    9900012    2    1    2    0    0 -0.99484914166E+01 -0.19079168659E+02  0.39574313314E+02  0.46142318381E+02  0.10000005656E+02 0.  0.
         12    1    1    2    0    0  0.99484914166E+01  0.19079168659E+02 -0.39574313314E+02  0.45045681619E+02  0.00000000000E+00 0. -1.
         11    1    3    3    0    0 -0.15879343589E+01 -0.50170385488E+01  0.65563462792E+01  0.84070142216E+01  0.51100000000E-03 0. -1.
        -11    1    3    3    0    0 -0.62569732192E+01 -0.13816960891E+02  0.31940997581E+02  0.35359375685E+02  0.51100000000E-03 0.  1.
         12    1    3    3    0    0 -0.21035838385E+01 -0.24516921980E+00  0.10769694545E+01  0.23759284749E+01  0.00000000000E+00 0. -1.
</event>
<event>
 7    1  0.2313935E-008  0.4614232E+02  0.7816164E-02  0.1320468E+00
        -11   -1    0    0    0    0  0.00000000000E+00  0.00000000000E+00  0.45593999997E+02  0.45594000000E+02  0.51100000000E-03 0.  1.
         11   -1    0    0    0    0 -0.00000000000E+00 -0.00000000000E+00 -0.45593999997E+02  0.45594000000E+02  0.51100000000E-03 0. -1.
    9900012    2    1    2    0    0 -0.25211548488E+01  0.28840751585E+02  0.34510405541E+02  0.46142320248E+02  0.10000022674E+02 0.  0.
         12    1    1    2    0    0  0.25211548488E+01 -0.28840751585E+02 -0.34510405541E+02  0.45045679752E+02  0.00000000000E+00 0. -1.
         11    1    3    3    0    0 -0.25666572741E+01  0.30079317069E+01  0.38259548256E+01  0.55021189832E+01  0.51100000000E-03 0. -1.
        -11    1    3    3    0    0 -0.25867076565E+01  0.19606528863E+02  0.21186539962E+02  0.28982348187E+02  0.51100000000E-03 0.  1.
        -12    1    3    3    0    0  0.26322100818E+01  0.62262910147E+01  0.94979107530E+01  0.11657853078E+02  0.00000000000E+00 0.  1.
</event>
<event>
 7    1  0.2313935E-008  0.4614232E+02  0.7816164E-02  0.1320468E+00
        -11   -1    0    0    0    0  0.00000000000E+00  0.00000000000E+00  0.45593999997E+02  0.45594000000E+02  0.51100000000E-03 0. -1.
         11   -1    0    0    0    0 -0.00000000000E+00 -0.00000000000E+00 -0.45593999997E+02  0.45594000000E+02  0.51100000000E-03 0.  1.
    9900012    2    1    2    0    0 -0.24663987603E+01  0.20417548664E+02 -0.40076850479E+02  0.46142319179E+02  0.10000012933E+02 0.  0.
         12    1    1    2    0    0  0.24663987603E+01 -0.20417548664E+02  0.40076850479E+02  0.45045680821E+02  0.00000000000E+00 0. -1.
         11    1    3    3    0    0  0.94571555018E+00  0.56931282765E+01 -0.11891686466E+02  0.13218104809E+02  0.51100000000E-03 0.  1.
        -11    1    3    3    0    0 -0.42042792014E+01  0.60134589918E+01 -0.18347779252E+02  0.19760532797E+02  0.51100000000E-03 0. -1.
         12    1    3    3    0    0  0.79216489094E+00  0.87109613954E+01 -0.98373847603E+01  0.13163681573E+02  0.00000000000E+00 0. -1.
</event>
<event>
 7    1  0.2313935E-008  0.4614232E+02  0.7816164E-02  0.1320468E+00
        -11   -1    0    0    0    0  0.00000000000E+00  0.00000000000E+00  0.45593999997E+02  0.45594000000E+02  0.51100000000E-03 0. -1.
         11   -1    0    0    0    0 -0.00000000000E+00 -0.00000000000E+00 -0.45593999997E+02  0.45594000000E+02  0.51100000000E-03 0.  1.
    9900012    2    1    2    0    0 -0.14232776935E+02  0.41803905560E+02 -0.88867882695E+01  0.46142318019E+02  0.10000002352E+02 0.  0.
         12    1    1    2    0    0  0.14232776935E+02 -0.41803905560E+02  0.88867882695E+01  0.45045681981E+02  0.00000000000E+00 0. -1.
         11    1    3    3    0    0 -0.34296604340E+01  0.13854131621E+02 -0.20194398351E+01  0.14414495176E+02  0.51100000000E-03 0. -1.
        -11    1    3    3    0    0 -0.11593611405E+02  0.21606157792E+02 -0.46198539667E+01  0.24951571711E+02  0.51100000000E-03 0.  1.
         12    1    3    3    0    0  0.79049490383E+00  0.63436161481E+01 -0.22474944677E+01  0.67762511324E+01  0.00000000000E+00 0. -1.
</event>
<event>
 7    1  0.2313935E-008  0.4614232E+02  0.7816164E-02  0.1320468E+00
        -11   -1    0    0    0    0  0.00000000000E+00  0.00000000000E+00  0.45593999997E+02  0.45594000000E+02  0.51100000000E-03 0.  1.
         11   -1    0    0    0    0 -0.00000000000E+00 -0.00000000000E+00 -0.45593999997E+02  0.45594000000E+02  0.51100000000E-03 0. -1.
    9900012    2    1    2    0    0 -0.23852324460E+02  0.32865462817E+02  0.19494656601E+02  0.46142315809E+02  0.99999821955E+01 0.  0.
         12    1    1    2    0    0  0.23852324460E+02 -0.32865462817E+02 -0.19494656601E+02  0.45045684191E+02  0.00000000000E+00 0. -1.
         11    1    3    3    0    0 -0.35977694384E+00 -0.13480287482E+00  0.26198406560E+00  0.46502384469E+00  0.51100000000E-03 0. -1.
        -11    1    3    3    0    0 -0.76221226639E+01  0.17700218450E+02  0.72796236124E+01  0.20600665215E+02  0.51100000000E-03 0.  1.
         12    1    3    3    0    0 -0.15870424852E+02  0.15300047241E+02  0.11953048923E+02  0.25076626749E+02  0.00000000000E+00 0. -1.
</event>
<event>
 7    1  0.2313935E-008  0.4614232E+02  0.7816164E-02  0.1320468E+00
        -11   -1    0    0    0    0  0.00000000000E+00  0.00000000000E+00  0.45593999997E+02  0.45594000000E+02  0.51100000000E-03 0.  1.
         11   -1    0    0    0    0 -0.00000000000E+00 -0.00000000000E+00 -0.45593999997E+02  0.45594000000E+02  0.51100000000E-03 0. -1.
    9900012    2    1    2    0    0  0.26126982951E+02  0.10097771304E+02  0.35277880515E+02  0.46142322327E+02  0.10000041632E+02 0.  0.
         12    1    1    2    0    0 -0.26126982951E+02 -0.10097771304E+02 -0.35277880515E+02  0.45045677673E+02  0.00000000000E+00 0. -1.
         11    1    3    3    0    0  0.55209250808E+01  0.51347650592E+01  0.83735473540E+01  0.11267773583E+02  0.51100000000E-03 0. -1.
        -11    1    3    3    0    0  0.16597726565E+02  0.25158783051E+01  0.16889272836E+02  0.23813057509E+02  0.51100000000E-03 0.  1.
         12    1    3    3    0    0  0.40083313048E+01  0.24471279395E+01  0.10015060326E+02  0.11061491234E+02  0.00000000000E+00 0. -1.
</event>
<event>
 7    1  0.2313935E-008  0.4614232E+02  0.7816164E-02  0.1320468E+00
        -11   -1    0    0    0    0  0.00000000000E+00  0.00000000000E+00  0.45593999997E+02  0.45594000000E+02  0.51100000000E-03 0.  1.
         11   -1    0    0    0    0 -0.00000000000E+00 -0.00000000000E+00 -0.45593999997E+02  0.45594000000E+02  0.51100000000E-03 0. -1.
    9900012    2    1    2    0    0 -0.18860480607E+02 -0.20037150680E+02  0.35663825178E+02  0.46142316939E+02  0.99999925055E+01 0.  0.
         12    1    1    2    0    0  0.18860480607E+02  0.20037150680E+02 -0.35663825178E+02  0.45045683061E+02  0.00000000000E+00 0. -1.
         11    1    3    3    0    0 -0.78417443228E+01 -0.55020563924E+01  0.84000301894E+01  0.12740725490E+02  0.51100000000E-03 0. -1.
        -11    1    3    3    0    0 -0.89988898339E+01 -0.81394797343E+01  0.20837069493E+02  0.24112540594E+02  0.51100000000E-03 0.  1.
        -12    1    3    3    0    0 -0.20198464505E+01 -0.63956145530E+01  0.64267254956E+01  0.92890508552E+01  0.00000000000E+00 0.  1.
</event>
<event>
 7    1  0.2313935E-008  0.4614232E+02  0.7816164E-02  0.1320468E+00
        -11   -1    0    0    0    0  0.00000000000E+00  0.00000000000E+00  0.45593999997E+02  0.45594000000E+02  0.51100000000E-03 0. -1.
         11   -1    0    0    0    0 -0.00000000000E+00 -0.00000000000E+00 -0.45593999997E+02  0.45594000000E+02  0.51100000000E-03 0.  1.
    9900012    2    1    2    0    0  0.35135506499E+02 -0.22756673193E+02 -0.16635609673E+02  0.46142317622E+02  0.99999987282E+01 0.  0.
         12    1    1    2    0    0 -0.35135506499E+02  0.22756673193E+02  0.16635609673E+02  0.45045682378E+02  0.00000000000E+00 0. -1.
         11    1    3    3    0    0  0.24207514773E+02 -0.17185791015E+02 -0.85794657809E+01  0.30902466207E+02  0.51100000000E-03 0.  1.
        -11    1    3    3    0    0  0.57610405886E+01 -0.51161250521E+01 -0.41886024889E+01  0.87697614154E+01  0.51100000000E-03 0. -1.
        -12    1    3    3    0    0  0.51669511369E+01 -0.45475712587E+00 -0.38675414037E+01  0.64700899997E+01  0.00000000000E+00 0.  1.
</event>
<event>
 7    1  0.2313935E-008  0.4614232E+02  0.7816164E-02  0.1320468E+00
        -11   -1    0    0    0    0  0.00000000000E+00  0.00000000000E+00  0.45593999997E+02  0.45594000000E+02  0.51100000000E-03 0.  1.
         11   -1    0    0    0    0 -0.00000000000E+00 -0.00000000000E+00 -0.45593999997E+02  0.45594000000E+02  0.51100000000E-03 0. -1.
    9900012    2    1    2    0    0  0.11479955729E+02 -0.16775683620E+02  0.40198264686E+02  0.46142318429E+02  0.10000006090E+02 0.  0.
         12    1    1    2    0    0 -0.11479955729E+02  0.16775683620E+02 -0.40198264686E+02  0.45045681571E+02  0.00000000000E+00 0. -1.
         11    1    3    3    0    0  0.94619096897E+01 -0.10457013648E+02  0.19504310955E+02  0.24068548263E+02  0.51100000000E-03 0.  1.
        -11    1    3    3    0    0  0.10408079902E+01 -0.49932525235E+01  0.97203477383E+01  0.10977295316E+02  0.51100000000E-03 0. -1.
        -12    1    3    3    0    0  0.97723804864E+00 -0.13254174484E+01  0.10973605992E+02  0.11096474850E+02  0.00000000000E+00 0.  1.
</event>
<event>
 7    1  0.2313935E-008  0.4614232E+02  0.7816164E-02  0.1320468E+00
        -11   -1    0    0    0    0  0.00000000000E+00  0.00000000000E+00  0.45593999997E+02  0.45594000000E+02  0.51100000000E-03 0. -1.
         11   -1    0    0    0    0 -0.00000000000E+00 -0.00000000000E+00 -0.45593999997E+02  0.45594000000E+02  0.51100000000E-03 0.  1.
    9900012    2    1    2    0    0 -0.44011668092E+02 -0.37655404369E+01 -0.88265115510E+01  0.46142317308E+02  0.99999958687E+01 0.  0.
         12    1    1    2    0    0  0.44011668092E+02  0.37655404369E+01  0.88265115510E+01  0.45045682692E+02  0.00000000000E+00 0. -1.
         11    1    3    3    0    0 -0.11070192477E+02  0.15420944216E+00 -0.40450308306E+01  0.11787078379E+02  0.51100000000E-03 0. -1.
        -11    1    3    3    0    0 -0.72132755628E+01 -0.25482033950E+01 -0.38726010779E+01  0.85744809905E+01  0.51100000000E-03 0.  1.
         12    1    3    3    0    0 -0.25728200052E+02 -0.13715464840E+01 -0.90887964255E+00  0.25780757938E+02  0.00000000000E+00 0. -1.
</event>
<event>
 7    1  0.2313935E-008  0.4614232E+02  0.7816164E-02  0.1320468E+00
        -11   -1    0    0    0    0  0.00000000000E+00  0.00000000000E+00  0.45593999997E+02  0.45594000000E+02  0.51100000000E-03 0.  1.
         11   -1    0    0    0    0 -0.00000000000E+00 -0.00000000000E+00 -0.45593999997E+02  0.45594000000E+02  0.51100000000E-03 0. -1.
    9900012    2    1    2    0    0 -0.10244252788E+01 -0.20351182994E+02  0.40173291940E+02  0.46142317834E+02  0.10000000669E+02 0.  0.
         12    1    1    2    0    0  0.10244252788E+01  0.20351182994E+02 -0.40173291940E+02  0.45045682166E+02  0.00000000000E+00 0. -1.
         11    1    3    3    0    0 -0.19674742346E+01  0.12551127922E+00  0.23762719590E+01  0.30876166585E+01  0.51100000000E-03 0. -1.
        -11    1    3    3    0    0 -0.61269120663E+00 -0.10112978185E+02  0.19116331583E+02  0.21635199369E+02  0.51100000000E-03 0.  1.
         12    1    3    3    0    0  0.15557401625E+01 -0.10363716088E+02  0.18680688399E+02  0.21419501807E+02  0.00000000000E+00 0. -1.
</event>
<event>
 7    1  0.2313935E-008  0.4614232E+02  0.7816164E-02  0.1320468E+00
        -11   -1    0    0    0    0  0.00000000000E+00  0.00000000000E+00  0.45593999997E+02  0.45594000000E+02  0.51100000000E-03 0. -1.
         11   -1    0    0    0    0 -0.00000000000E+00 -0.00000000000E+00 -0.45593999997E+02  0.45594000000E+02  0.51100000000E-03 0.  1.
    9900012    2    1    2    0    0 -0.13623413765E+02  0.42934904311E+02  0.33173244198E+00  0.46142318106E+02  0.10000003148E+02 0.  0.
         12    1    1    2    0    0  0.13623413765E+02 -0.42934904311E+02 -0.33173244198E+00  0.45045681894E+02  0.00000000000E+00 0. -1.
         11    1    3    3    0    0 -0.19933690210E+01  0.12024651391E+02  0.23478361357E+01  0.12412819821E+02  0.51100000000E-03 0. -1.
        -11    1    3    3    0    0  0.79502540120E+00  0.23661695055E+01  0.29064529195E+00  0.25130257588E+01  0.51100000000E-03 0.  1.
        -12    1    3    3    0    0 -0.12425070145E+02  0.28544083415E+02 -0.23067489857E+01  0.31216472526E+02  0.00000000000E+00 0.  1.
</event>
<event>
 7    1  0.2313935E-008  0.4614232E+02  0.7816164E-02  0.1320468E+00
        -11   -1    0    0    0    0  0.00000000000E+00  0.00000000000E+00  0.45593999997E+02  0.45594000000E+02  0.51100000000E-03 0.  1.
         11   -1    0    0    0    0 -0.00000000000E+00 -0.00000000000E+00 -0.45593999997E+02  0.45594000000E+02  0.51100000000E-03 0. -1.
    9900012    2    1    2    0    0  0.22710017687E+02  0.18208369998E+02  0.34377664442E+02  0.46142318145E+02  0.10000003500E+02 0.  0.
         12    1    1    2    0    0 -0.22710017687E+02 -0.18208369998E+02 -0.34377664442E+02  0.45045681855E+02  0.00000000000E+00 0. -1.
         11    1    3    3    0    0  0.59521850309E+01  0.33069364347E+01  0.11563118838E+02  0.13419018323E+02  0.51100000000E-03 0. -1.
        -11    1    3    3    0    0  0.93163367349E+01  0.93019851498E+01  0.17819964597E+02  0.22155635771E+02  0.51100000000E-03 0.  1.
         12    1    3    3    0    0  0.74414959210E+01  0.55994484132E+01  0.49945810064E+01  0.10567664051E+02  0.00000000000E+00 0. -1.
</event>
<event>
 7    1  0.2313935E-008  0.4614232E+02  0.7816164E-02  0.1320468E+00
        -11   -1    0    0    0    0  0.00000000000E+00  0.00000000000E+00  0.45593999997E+02  0.45594000000E+02  0.51100000000E-03 0.  1.
         11   -1    0    0    0    0 -0.00000000000E+00 -0.00000000000E+00 -0.45593999997E+02  0.45594000000E+02  0.51100000000E-03 0. -1.
    9900012    2    1    2    0    0  0.20732232655E+02 -0.37858427569E+02  0.12885168155E+02  0.46142316886E+02  0.99999920173E+01 0.  0.
         12    1    1    2    0    0 -0.20732232655E+02  0.37858427569E+02 -0.12885168155E+02  0.45045683114E+02  0.00000000000E+00 0. -1.
         11    1    3    3    0    0  0.28593126486E+01 -0.58725709113E+01  0.68765725266E+00  0.65677721253E+01  0.51100000000E-03 0. -1.
        -11    1    3    3    0    0  0.14779677806E+02 -0.27146239147E+02  0.67057986315E+01  0.31627913486E+02  0.51100000000E-03 0.  1.
         12    1    3    3    0    0  0.30932422005E+01 -0.48396175100E+01  0.54917122707E+01  0.79466312748E+01  0.00000000000E+00 0. -1.
</event>
<event>
 7    1  0.2313935E-008  0.4614232E+02  0.7816164E-02  0.1320468E+00
        -11   -1    0    0    0    0  0.00000000000E+00  0.00000000000E+00  0.45593999997E+02  0.45594000000E+02  0.51100000000E-03 0.  1.
         11   -1    0    0    0    0 -0.00000000000E+00 -0.00000000000E+00 -0.45593999997E+02  0.45594000000E+02  0.51100000000E-03 0. -1.
    9900012    2    1    2    0    0  0.11315347800E+01  0.17934383165E+02  0.41306065089E+02  0.46142317814E+02  0.10000000479E+02 0.  0.
         12    1    1    2    0    0 -0.11315347800E+01 -0.17934383165E+02 -0.41306065089E+02  0.45045682186E+02  0.00000000000E+00 0. -1.
         11    1    3    3    0    0  0.46365372318E+01  0.91315576617E+01  0.21125897160E+02  0.23477358324E+02  0.51100000000E-03 0. -1.
        -11    1    3    3    0    0  0.19577739245E+00 -0.28196769613E+00  0.17841529493E+01  0.18168754984E+01  0.51100000000E-03 0.  1.
        -12    1    3    3    0    0 -0.37007798442E+01  0.90847931997E+01  0.18396014980E+02  0.20848083991E+02  0.00000000000E+00 0.  1.
</event>
<event>
 7    1  0.2313935E-008  0.4614232E+02  0.7816164E-02  0.1320468E+00
        -11   -1    0    0    0    0  0.00000000000E+00  0.00000000000E+00  0.45593999997E+02  0.45594000000E+02  0.51100000000E-03 0.  1.
         11   -1    0    0    0    0 -0.00000000000E+00 -0.00000000000E+00 -0.45593999997E+02  0.45594000000E+02  0.51100000000E-03 0. -1.
    9900012    2    1    2    0    0 -0.14390835869E+02 -0.22802030875E+02  0.36084411702E+02  0.46142317222E+02  0.99999950885E+01 0.  0.
         12    1    1    2    0    0  0.14390835869E+02  0.22802030875E+02 -0.36084411702E+02  0.45045682778E+02  0.00000000000E+00 0. -1.
         11    1    3    3    0    0 -0.55588994940E+01 -0.44456645310E+01  0.12380498541E+02  0.14280827745E+02  0.51100000000E-03 0. -1.
        -11    1    3    3    0    0 -0.70653752794E+01 -0.14933964360E+02  0.22319612372E+02  0.27768829936E+02  0.51100000000E-03 0.  1.
        -12    1    3    3    0    0 -0.17665610959E+01 -0.34224019842E+01  0.13843007894E+01  0.40926595415E+01  0.00000000000E+00 0.  1.
</event>
<event>
 7    1  0.2313935E-008  0.4614232E+02  0.7816164E-02  0.1320468E+00
        -11   -1    0    0    0    0  0.00000000000E+00  0.00000000000E+00  0.45593999997E+02  0.45594000000E+02  0.51100000000E-03 0. -1.
         11   -1    0    0    0    0 -0.00000000000E+00 -0.00000000000E+00 -0.45593999997E+02  0.45594000000E+02  0.51100000000E-03 0.  1.
    9900012    2    1    2    0    0 -0.16663859156E+02  0.28442207618E+02 -0.30699674833E+02  0.46142318620E+02  0.10000007829E+02 0.  0.
         12    1    1    2    0    0  0.16663859156E+02 -0.28442207618E+02  0.30699674833E+02  0.45045681380E+02  0.00000000000E+00 0. -1.
         11    1    3    3    0    0 -0.34888828417E+01  0.13063307764E+02 -0.81083216673E+01  0.15766013883E+02  0.51100000000E-03 0. -1.
        -11    1    3    3    0    0 -0.24357616274E+01  0.25905063995E+01 -0.31818135749E+01  0.47715402123E+01  0.51100000000E-03 0.  1.
         12    1    3    3    0    0 -0.10739214687E+02  0.12788393455E+02 -0.19409539591E+02  0.25604764525E+02  0.00000000000E+00 0. -1.
</event>
<event>
 7    1  0.2313935E-008  0.4614232E+02  0.7816164E-02  0.1320468E+00
        -11   -1    0    0    0    0  0.00000000000E+00  0.00000000000E+00  0.45593999997E+02  0.45594000000E+02  0.51100000000E-03 0.  1.
         11   -1    0    0    0    0 -0.00000000000E+00 -0.00000000000E+00 -0.45593999997E+02  0.45594000000E+02  0.51100000000E-03 0. -1.
    9900012    2    1    2    0    0 -0.37870777850E+02  0.20074320540E+02  0.13854213947E+02  0.46142318695E+02  0.10000008519E+02 0.  0.
         12    1    1    2    0    0  0.37870777850E+02 -0.20074320540E+02 -0.13854213947E+02  0.45045681305E+02  0.00000000000E+00 0. -1.
         11    1    3    3    0    0 -0.10338101796E+02  0.66052223366E+01  0.63129632810E+01  0.13797058255E+02  0.51100000000E-03 0. -1.
        -11    1    3    3    0    0 -0.47509627577E+01 -0.34083342247E+00  0.18077977211E+01  0.50946979703E+01  0.51100000000E-03 0.  1.
        -12    1    3    3    0    0 -0.22781713297E+02  0.13809931626E+02  0.57334529448E+01  0.27250562470E+02  0.00000000000E+00 0.  1.
</event>
<event>
 7    1  0.2313935E-008  0.4614232E+02  0.7816164E-02  0.1320468E+00
        -11   -1    0    0    0    0  0.00000000000E+00  0.00000000000E+00  0.45593999997E+02  0.45594000000E+02  0.51100000000E-03 0. -1.
         11   -1    0    0    0    0 -0.00000000000E+00 -0.00000000000E+00 -0.45593999997E+02  0.45594000000E+02  0.51100000000E-03 0.  1.
    9900012    2    1    2    0    0 -0.18066204663E+02 -0.30194415290E+02 -0.28125133682E+02  0.46142316408E+02  0.99999876633E+01 0.  0.
         12    1    1    2    0    0  0.18066204663E+02  0.30194415290E+02  0.28125133682E+02  0.45045683592E+02  0.00000000000E+00 0. -1.
         11    1    3    3    0    0 -0.31755430381E-01  0.35669341971E+00 -0.13683891007E+00  0.38335851556E+00  0.51100000000E-03 0. -1.
        -11    1    3    3    0    0 -0.10961311384E+02 -0.14476082253E+02 -0.17938685237E+02  0.25524571160E+02  0.51100000000E-03 0.  1.
        -12    1    3    3    0    0 -0.70731378488E+01 -0.16075026457E+02 -0.10049609535E+02  0.20234386732E+02  0.00000000000E+00 0.  1.
</event>
<event>
 7    1  0.2313935E-008  0.4614232E+02  0.7816164E-02  0.1320468E+00
        -11   -1    0    0    0    0  0.00000000000E+00  0.00000000000E+00  0.45593999997E+02  0.45594000000E+02  0.51100000000E-03 0.  1.
         11   -1    0    0    0    0 -0.00000000000E+00 -0.00000000000E+00 -0.45593999997E+02  0.45594000000E+02  0.51100000000E-03 0. -1.
    9900012    2    1    2    0    0 -0.45035312324E+02 -0.28815140339E+00  0.92226472042E+00  0.46142323631E+02  0.10000053527E+02 0.  0.
         12    1    1    2    0    0  0.45035312324E+02  0.28815140339E+00 -0.92226472042E+00  0.45045676369E+02  0.00000000000E+00 0. -1.
         11    1    3    3    0    0 -0.12922529876E+02  0.72305379820E+00  0.25317943274E+01  0.13188046404E+02  0.51100000000E-03 0. -1.
        -11    1    3    3    0    0 -0.24807855924E+02  0.10444055495E+01  0.12086749964E+01  0.24859231565E+02  0.51100000000E-03 0.  1.
         12    1    3    3    0    0 -0.73049265234E+01 -0.20556107510E+01 -0.28182046034E+01  0.80950456613E+01  0.00000000000E+00 0. -1.
</event>
<event>
 7    1  0.2313935E-008  0.4614232E+02  0.7816164E-02  0.1320468E+00
        -11   -1    0    0    0    0  0.00000000000E+00  0.00000000000E+00  0.45593999997E+02  0.45594000000E+02  0.51100000000E-03 0.  1.
         11   -1    0    0    0    0 -0.00000000000E+00 -0.00000000000E+00 -0.45593999997E+02  0.45594000000E+02  0.51100000000E-03 0. -1.
    9900012    2    1    2    0    0  0.28177491313E+01 -0.30478625861E+02  0.33048862135E+02  0.46142316156E+02  0.99999853630E+01 0.  0.
         12    1    1    2    0    0 -0.28177491313E+01  0.30478625861E+02 -0.33048862135E+02  0.45045683844E+02  0.00000000000E+00 0. -1.
         11    1    3    3    0    0 -0.11426757183E+01 -0.15691841277E+02  0.11681201139E+02  0.19595664081E+02  0.51100000000E-03 0. -1.
        -11    1    3    3    0    0  0.35496446149E+01 -0.14677446096E+02  0.21309705502E+02  0.26117636754E+02  0.51100000000E-03 0.  1.
         12    1    3    3    0    0  0.41078023480E+00 -0.10933848791E+00  0.57955494534E-01  0.42901532093E+00  0.00000000000E+00 0. -1.
</event>
<event>
 7    1  0.2313935E-008  0.4614232E+02  0.7816164E-02  0.1320468E+00
        -11   -1    0    0    0    0  0.00000000000E+00  0.00000000000E+00  0.45593999997E+02  0.45594000000E+02  0.51100000000E-03 0. -1.
         11   -1    0    0    0    0 -0.00000000000E+00 -0.00000000000E+00 -0.45593999997E+02  0.45594000000E+02  0.51100000000E-03 0.  1.
    9900012    2    1    2    0    0 -0.15257294216E+01  0.42939906281E+02  0.13525903598E+02  0.46142317967E+02  0.10000001873E+02 0.  0.
         12    1    1    2    0    0  0.15257294216E+01 -0.42939906281E+02 -0.13525903598E+02  0.45045682033E+02  0.00000000000E+00 0. -1.
         11    1    3    3    0    0 -0.16409860339E+01  0.23084541928E+02  0.88424226232E+01  0.24774530254E+02  0.51100000000E-03 0. -1.
        -11    1    3    3    0    0 -0.25093619185E+01  0.36936110606E+01  0.74242141097E+00  0.45266819766E+01  0.51100000000E-03 0.  1.
         12    1    3    3    0    0  0.26246185308E+01  0.16161753293E+02  0.39410595638E+01  0.16841105736E+02  0.00000000000E+00 0. -1.
</event>
<event>
 7    1  0.2313935E-008  0.4614232E+02  0.7816164E-02  0.1320468E+00
        -11   -1    0    0    0    0  0.00000000000E+00  0.00000000000E+00  0.45593999997E+02  0.45594000000E+02  0.51100000000E-03 0. -1.
         11   -1    0    0    0    0 -0.00000000000E+00 -0.00000000000E+00 -0.45593999997E+02  0.45594000000E+02  0.51100000000E-03 0.  1.
    9900012    2    1    2    0    0  0.24312329834E+02  0.27464827519E+02 -0.26147799819E+02  0.46142316878E+02  0.99999919431E+01 0.  0.
         12    1    1    2    0    0 -0.24312329834E+02 -0.27464827519E+02  0.26147799819E+02  0.45045683122E+02  0.00000000000E+00 0. -1.
         11    1    3    3    0    0  0.55376677432E+01  0.59069154136E+01 -0.34844966899E+01  0.88147110662E+01  0.51100000000E-03 0. -1.
        -11    1    3    3    0    0  0.17987757369E+02  0.16119239787E+02 -0.18859424755E+02  0.30644203511E+02  0.51100000000E-03 0.  1.
         12    1    3    3    0    0  0.78690472230E+00  0.54386723182E+01 -0.38038783745E+01  0.66834023008E+01  0.00000000000E+00 0. -1.
</event>
<event>
 7    1  0.2313935E-008  0.4614232E+02  0.7816164E-02  0.1320468E+00
        -11   -1    0    0    0    0  0.00000000000E+00  0.00000000000E+00  0.45593999997E+02  0.45594000000E+02  0.51100000000E-03 0.  1.
         11   -1    0    0    0    0 -0.00000000000E+00 -0.00000000000E+00 -0.45593999997E+02  0.45594000000E+02  0.51100000000E-03 0. -1.
    9900012    2    1    2    0    0 -0.40146919349E+02 -0.17822795770E+02 -0.99843005584E+01  0.46142318299E+02  0.10000004905E+02 0.  0.
         12    1    1    2    0    0  0.40146919349E+02  0.17822795770E+02  0.99843005584E+01  0.45045681701E+02  0.00000000000E+00 0. -1.
         11    1    3    3    0    0 -0.52149036644E+01 -0.15095406581E+01 -0.25471976451E+01  0.59968449481E+01  0.51100000000E-03 0. -1.
        -11    1    3    3    0    0 -0.15446787268E+02 -0.98373569717E+01 -0.18737625862E-01  0.18313306104E+02  0.51100000000E-03 0.  1.
        -12    1    3    3    0    0 -0.19485228416E+02 -0.64758981404E+01 -0.74183652874E+01  0.21832167247E+02  0.00000000000E+00 0.  1.
</event>
<event>
 7    1  0.2313935E-008  0.4614232E+02  0.7816164E-02  0.1320468E+00
        -11   -1    0    0    0    0  0.00000000000E+00  0.00000000000E+00  0.45593999997E+02  0.45594000000E+02  0.51100000000E-03 0.  1.
         11   -1    0    0    0    0 -0.00000000000E+00 -0.00000000000E+00 -0.45593999997E+02  0.45594000000E+02  0.51100000000E-03 0. -1.
    9900012    2    1    2    0    0  0.10302086777E+00  0.32669274007E+02  0.31013244944E+02  0.46142318305E+02  0.10000004956E+02 0.  0.
         12    1    1    2    0    0 -0.10302086777E+00 -0.32669274007E+02 -0.31013244944E+02  0.45045681695E+02  0.00000000000E+00 0. -1.
         11    1    3    3    0    0  0.79996627760E+00  0.16550311033E+02  0.10567868425E+02  0.19652800936E+02  0.51100000000E-03 0. -1.
        -11    1    3    3    0    0 -0.13100426737E+01  0.28639358467E+01  0.18737505097E+01  0.36645984193E+01  0.51100000000E-03 0.  1.
        -12    1    3    3    0    0  0.61309726389E+00  0.13255027128E+02  0.18571626009E+02  0.22824918949E+02  0.00000000000E+00 0.  1.
</event>
<event>
 7    1  0.2313935E-008  0.4614232E+02  0.7816164E-02  0.1320468E+00
        -11   -1    0    0    0    0  0.00000000000E+00  0.00000000000E+00  0.45593999997E+02  0.45594000000E+02  0.51100000000E-03 0.  1.
         11   -1    0    0    0    0 -0.00000000000E+00 -0.00000000000E+00 -0.45593999997E+02  0.45594000000E+02  0.51100000000E-03 0. -1.
    9900012    2    1    2    0    0 -0.58564547509E+01  0.10901624482E+02  0.43312468308E+02  0.46142318859E+02  0.10000010007E+02 0.  0.
         12    1    1    2    0    0  0.58564547509E+01 -0.10901624482E+02 -0.43312468308E+02  0.45045681141E+02  0.00000000000E+00 0. -1.
         11    1    3    3    0    0 -0.64034821414E+01  0.60962346696E+01  0.24473720332E+02  0.26021753358E+02  0.51100000000E-03 0. -1.
        -11    1    3    3    0    0 -0.22826513648E+01  0.21417732659E+01  0.96124134579E+01  0.10109212765E+02  0.51100000000E-03 0.  1.
         12    1    3    3    0    0  0.28296787552E+01  0.26636165463E+01  0.92263345182E+01  0.10011352736E+02  0.00000000000E+00 0. -1.
</event>
<event>
 7    1  0.2313935E-008  0.4614232E+02  0.7816164E-02  0.1320468E+00
        -11   -1    0    0    0    0  0.00000000000E+00  0.00000000000E+00  0.45593999997E+02  0.45594000000E+02  0.51100000000E-03 0.  1.
         11   -1    0    0    0    0 -0.00000000000E+00 -0.00000000000E+00 -0.45593999997E+02  0.45594000000E+02  0.51100000000E-03 0. -1.
    9900012    2    1    2    0    0  0.18078590639E+02 -0.31068164682E+02  0.27148613282E+02  0.46142317640E+02  0.99999988923E+01 0.  0.
         12    1    1    2    0    0 -0.18078590639E+02  0.31068164682E+02 -0.27148613282E+02  0.45045682360E+02  0.00000000000E+00 0. -1.
         11    1    3    3    0    0  0.17101961524E+00 -0.28893911592E+01  0.14725544665E+01  0.32474984061E+01  0.51100000000E-03 0. -1.
        -11    1    3    3    0    0  0.84321058736E+01 -0.12208960464E+02  0.16472448510E+02  0.22169814732E+02  0.51100000000E-03 0.  1.
        -12    1    3    3    0    0  0.94754651500E+01 -0.15969813059E+02  0.92036103054E+01  0.20725004502E+02  0.00000000000E+00 0.  1.
</event>
<event>
 7    1  0.2313935E-008  0.4614232E+02  0.7816164E-02  0.1320468E+00
        -11   -1    0    0    0    0  0.00000000000E+00  0.00000000000E+00  0.45593999997E+02  0.45594000000E+02  0.51100000000E-03 0.  1.
         11   -1    0    0    0    0 -0.00000000000E+00 -0.00000000000E+00 -0.45593999997E+02  0.45594000000E+02  0.51100000000E-03 0. -1.
    9900012    2    1    2    0    0  0.35937634205E+02 -0.24614596580E+02  0.11477008245E+02  0.46142316130E+02  0.99999851299E+01 0.  0.
         12    1    1    2    0    0 -0.35937634205E+02  0.24614596580E+02 -0.11477008245E+02  0.45045683870E+02  0.00000000000E+00 0. -1.
         11    1    3    3    0    0  0.38978666590E+01 -0.10088310639E+00  0.19764334465E+01  0.43714793060E+01  0.51100000000E-03 0. -1.
        -11    1    3    3    0    0  0.12020673188E+02 -0.63467245555E+01  0.22114769451E+01  0.13772005192E+02  0.51100000000E-03 0.  1.
        -12    1    3    3    0    0  0.20019094358E+02 -0.18166988918E+02  0.72890978530E+01  0.27998831632E+02  0.00000000000E+00 0.  1.
</event>
<event>
 7    1  0.2313935E-008  0.4614232E+02  0.7816164E-02  0.1320468E+00
        -11   -1    0    0    0    0  0.00000000000E+00  0.00000000000E+00  0.45593999997E+02  0.45594000000E+02  0.51100000000E-03 0.  1.
         11   -1    0    0    0    0 -0.00000000000E+00 -0.00000000000E+00 -0.45593999997E+02  0.45594000000E+02  0.51100000000E-03 0. -1.
    9900012    2    1    2    0    0  0.11346100769E+02  0.38380954785E+02  0.20670792003E+02  0.46142319465E+02  0.10000015537E+02 0.  0.
         12    1    1    2    0    0 -0.11346100769E+02 -0.38380954785E+02 -0.20670792003E+02  0.45045680535E+02  0.00000000000E+00 0. -1.
         11    1    3    3    0    0  0.62629090094E+01  0.20028136850E+02  0.62764368133E+01  0.21903058104E+02  0.51100000000E-03 0. -1.
        -11    1    3    3    0    0  0.55143002742E+01  0.17746347517E+02  0.13066902428E+02  0.22717488792E+02  0.51100000000E-03 0.  1.
         12    1    3    3    0    0 -0.43110851475E+00  0.60647041784E+00  0.13274527615E+01  0.15217725695E+01  0.00000000000E+00 0. -1.
</event>
<event>
 7    1  0.2313935E-008  0.4614232E+02  0.7816164E-02  0.1320468E+00
        -11   -1    0    0    0    0  0.00000000000E+00  0.00000000000E+00  0.45593999997E+02  0.45594000000E+02  0.51100000000E-03 0.  1.
         11   -1    0    0    0    0 -0.00000000000E+00 -0.00000000000E+00 -0.45593999997E+02  0.45594000000E+02  0.51100000000E-03 0. -1.
    9900012    2    1    2    0    0 -0.14431511609E+02  0.16649086493E+02  0.39289348065E+02  0.46142317857E+02  0.10000000871E+02 0.  0.
         12    1    1    2    0    0  0.14431511609E+02 -0.16649086493E+02 -0.39289348065E+02  0.45045682143E+02  0.00000000000E+00 0. -1.
         11    1    3    3    0    0 -0.58690915161E+01  0.95739489770E+01  0.20215813357E+02  0.23125437167E+02  0.51100000000E-03 0.  1.
        -11    1    3    3    0    0 -0.40988443894E+01  0.59767253844E+01  0.69089472499E+01  0.10012758062E+02  0.51100000000E-03 0. -1.
        -12    1    3    3    0    0 -0.44635757031E+01  0.10984121320E+01  0.12164587459E+02  0.13004122627E+02  0.00000000000E+00 0.  1.
</event>
<event>
 7    1  0.2313935E-008  0.4614232E+02  0.7816164E-02  0.1320468E+00
        -11   -1    0    0    0    0  0.00000000000E+00  0.00000000000E+00  0.45593999997E+02  0.45594000000E+02  0.51100000000E-03 0.  1.
         11   -1    0    0    0    0 -0.00000000000E+00 -0.00000000000E+00 -0.45593999997E+02  0.45594000000E+02  0.51100000000E-03 0. -1.
    9900012    2    1    2    0    0  0.38849730531E+02 -0.46404693406E+01  0.22322141330E+02  0.46142317503E+02  0.99999976494E+01 0.  0.
         12    1    1    2    0    0 -0.38849730531E+02  0.46404693406E+01 -0.22322141330E+02  0.45045682497E+02  0.00000000000E+00 0. -1.
         11    1    3    3    0    0  0.14127017321E+02 -0.13516142647E+01  0.11098356028E+02  0.18015909256E+02  0.51100000000E-03 0. -1.
        -11    1    3    3    0    0  0.12804200449E+02  0.14181393417E+01  0.68207740656E+01  0.14576749550E+02  0.51100000000E-03 0.  1.
         12    1    3    3    0    0  0.11918512761E+02 -0.47069944176E+01  0.44030112361E+01  0.13549658698E+02  0.00000000000E+00 0. -1.
</event>
<event>
 7    1  0.2313935E-008  0.4614231E+02  0.7816164E-02  0.1320468E+00
        -11   -1    0    0    0    0  0.00000000000E+00  0.00000000000E+00  0.45593999997E+02  0.45594000000E+02  0.51100000000E-03 0.  1.
         11   -1    0    0    0    0 -0.00000000000E+00 -0.00000000000E+00 -0.45593999997E+02  0.45594000000E+02  0.51100000000E-03 0. -1.
    9900012    2    1    2    0    0  0.88998967168E+01  0.30613976879E+02  0.31822791802E+02  0.46142314080E+02  0.99999664308E+01 0.  0.
         12    1    1    2    0    0 -0.88998967168E+01 -0.30613976879E+02 -0.31822791802E+02  0.45045685920E+02  0.00000000000E+00 0. -1.
         11    1    3    3    0    0  0.10944063882E+01  0.34104122295E+01  0.60971542153E+01  0.70713454663E+01  0.51100000000E-03 0. -1.
        -11    1    3    3    0    0  0.19373578898E+01  0.16424449488E+01  0.51306794904E+01  0.57249326020E+01  0.51100000000E-03 0.  1.
        -12    1    3    3    0    0  0.58681324388E+01  0.25561119701E+02  0.20594958097E+02  0.33346036012E+02  0.00000000000E+00 0.  1.
</event>
<event>
 7    1  0.2313935E-008  0.4614232E+02  0.7816164E-02  0.1320468E+00
        -11   -1    0    0    0    0  0.00000000000E+00  0.00000000000E+00  0.45593999997E+02  0.45594000000E+02  0.51100000000E-03 0. -1.
         11   -1    0    0    0    0 -0.00000000000E+00 -0.00000000000E+00 -0.45593999997E+02  0.45594000000E+02  0.51100000000E-03 0.  1.
    9900012    2    1    2    0    0 -0.15431036972E+02  0.35679556179E+02 -0.22758864393E+02  0.46142317192E+02  0.99999948118E+01 0.  0.
         12    1    1    2    0    0  0.15431036972E+02 -0.35679556179E+02  0.22758864393E+02  0.45045682808E+02  0.00000000000E+00 0. -1.
         11    1    3    3    0    0 -0.20912380289E+01  0.17891718746E+01 -0.12085398796E+01  0.30058245777E+01  0.51100000000E-03 0. -1.
        -11    1    3    3    0    0 -0.14312493240E+02  0.29930299319E+02 -0.18086570655E+02  0.37786165701E+02  0.51100000000E-03 0.  1.
        -12    1    3    3    0    0  0.97269429698E+00  0.39600849856E+01 -0.34637538587E+01  0.53503269136E+01  0.00000000000E+00 0.  1.
</event>
<event>
 7    1  0.2313935E-008  0.4614232E+02  0.7816164E-02  0.1320468E+00
        -11   -1    0    0    0    0  0.00000000000E+00  0.00000000000E+00  0.45593999997E+02  0.45594000000E+02  0.51100000000E-03 0. -1.
         11   -1    0    0    0    0 -0.00000000000E+00 -0.00000000000E+00 -0.45593999997E+02  0.45594000000E+02  0.51100000000E-03 0.  1.
    9900012    2    1    2    0    0  0.34137995302E+02 -0.26562621245E+02  0.12575288961E+02  0.46142318042E+02  0.10000002560E+02 0.  0.
         12    1    1    2    0    0 -0.34137995302E+02  0.26562621245E+02 -0.12575288961E+02  0.45045681958E+02  0.00000000000E+00 0. -1.
         11    1    3    3    0    0  0.20457524492E+01 -0.32891707545E+00  0.24160590526E+01  0.31828652395E+01  0.51100000000E-03 0. -1.
        -11    1    3    3    0    0  0.85723155896E+01 -0.75813133574E+01  0.50538666047E+01  0.12510094912E+02  0.51100000000E-03 0.  1.
        -12    1    3    3    0    0  0.23519927263E+02 -0.18652390812E+02  0.51053633034E+01  0.30449357890E+02  0.00000000000E+00 0.  1.
</event>
<event>
 7    1  0.2313935E-008  0.4614232E+02  0.7816164E-02  0.1320468E+00
        -11   -1    0    0    0    0  0.00000000000E+00  0.00000000000E+00  0.45593999997E+02  0.45594000000E+02  0.51100000000E-03 0. -1.
         11   -1    0    0    0    0 -0.00000000000E+00 -0.00000000000E+00 -0.45593999997E+02  0.45594000000E+02  0.51100000000E-03 0.  1.
    9900012    2    1    2    0    0  0.34818653926E+02  0.12481024467E+02 -0.25709897229E+02  0.46142318203E+02  0.10000004030E+02 0.  0.
         12    1    1    2    0    0 -0.34818653926E+02 -0.12481024467E+02  0.25709897229E+02  0.45045681797E+02  0.00000000000E+00 0. -1.
         11    1    3    3    0    0  0.30409173030E+01  0.28443743786E+01 -0.27651169613E+01  0.49983513002E+01  0.51100000000E-03 0. -1.
        -11    1    3    3    0    0  0.23967042416E+02  0.85093428242E+01 -0.13359742634E+02  0.28728222377E+02  0.51100000000E-03 0.  1.
         12    1    3    3    0    0  0.78106942077E+01  0.11273072646E+01 -0.95850376341E+01  0.12415744525E+02  0.00000000000E+00 0. -1.
</event>
<event>
 7    1  0.2313935E-008  0.4614232E+02  0.7816164E-02  0.1320468E+00
        -11   -1    0    0    0    0  0.00000000000E+00  0.00000000000E+00  0.45593999997E+02  0.45594000000E+02  0.51100000000E-03 0.  1.
         11   -1    0    0    0    0 -0.00000000000E+00 -0.00000000000E+00 -0.45593999997E+02  0.45594000000E+02  0.51100000000E-03 0. -1.
    9900012    2    1    2    0    0 -0.40517215370E+02 -0.15105081550E+02  0.12621621291E+02  0.46142317033E+02  0.99999933604E+01 0.  0.
         12    1    1    2    0    0  0.40517215370E+02  0.15105081550E+02 -0.12621621291E+02  0.45045682967E+02  0.00000000000E+00 0. -1.
         11    1    3    3    0    0 -0.23357165146E+02 -0.78732133708E+01  0.68488995900E+01  0.25582261008E+02  0.51100000000E-03 0.  1.
        -11    1    3    3    0    0 -0.16806823004E+02 -0.74872554733E+01  0.41252889542E+01  0.18855935491E+02  0.51100000000E-03 0. -1.
         12    1    3    3    0    0 -0.35322721955E+00  0.25538729451E+00  0.16474327466E+01  0.17041205337E+01  0.00000000000E+00 0. -1.
</event>
<event>
 7    1  0.2313935E-008  0.4614232E+02  0.7816164E-02  0.1320468E+00
        -11   -1    0    0    0    0  0.00000000000E+00  0.00000000000E+00  0.45593999997E+02  0.45594000000E+02  0.51100000000E-03 0.  1.
         11   -1    0    0    0    0 -0.00000000000E+00 -0.00000000000E+00 -0.45593999997E+02  0.45594000000E+02  0.51100000000E-03 0. -1.
    9900012    2    1    2    0    0  0.22754109614E+02 -0.34580725436E+02  0.17763368622E+02  0.46142319399E+02  0.10000014935E+02 0.  0.
         12    1    1    2    0    0 -0.22754109614E+02  0.34580725436E+02 -0.17763368622E+02  0.45045680601E+02  0.00000000000E+00 0. -1.
         11    1    3    3    0    0 -0.24739580284E+00 -0.31113832382E+00  0.83713903236E+00  0.92672205134E+00  0.51100000000E-03 0. -1.
        -11    1    3    3    0    0  0.53164224523E+00 -0.10514903707E+01 -0.74160547695E+00  0.13922120604E+01  0.51100000000E-03 0.  1.
        -12    1    3    3    0    0  0.22469863172E+02 -0.33218096741E+02  0.17667835067E+02  0.43823385287E+02  0.00000000000E+00 0.  1.
</event>
<event>
 7    1  0.2313935E-008  0.4614232E+02  0.7816164E-02  0.1320468E+00
        -11   -1    0    0    0    0  0.00000000000E+00  0.00000000000E+00  0.45593999997E+02  0.45594000000E+02  0.51100000000E-03 0.  1.
         11   -1    0    0    0    0 -0.00000000000E+00 -0.00000000000E+00 -0.45593999997E+02  0.45594000000E+02  0.51100000000E-03 0. -1.
    9900012    2    1    2    0    0 -0.31514236749E+02  0.21076416861E+01  0.32117353947E+02  0.46142315457E+02  0.99999789918E+01 0.  0.
         12    1    1    2    0    0  0.31514236749E+02 -0.21076416861E+01 -0.32117353947E+02  0.45045684543E+02  0.00000000000E+00 0. -1.
         11    1    3    3    0    0 -0.44488479502E+01  0.37804049484E+01  0.47556089003E+01  0.75299087598E+01  0.51100000000E-03 0. -1.
        -11    1    3    3    0    0 -0.28872058799E+01  0.57002204890E+00  0.25201252384E+01  0.38745211843E+01  0.51100000000E-03 0.  1.
        -12    1    3    3    0    0 -0.24178182919E+02 -0.22427853112E+01  0.24841619809E+02  0.34737885513E+02  0.00000000000E+00 0.  1.
</event>
<event>
 7    1  0.2313935E-008  0.4614232E+02  0.7816164E-02  0.1320468E+00
        -11   -1    0    0    0    0  0.00000000000E+00  0.00000000000E+00  0.45593999997E+02  0.45594000000E+02  0.51100000000E-03 0.  1.
         11   -1    0    0    0    0 -0.00000000000E+00 -0.00000000000E+00 -0.45593999997E+02  0.45594000000E+02  0.51100000000E-03 0. -1.
    9900012    2    1    2    0    0  0.35574563596E+02 -0.15821430269E+02  0.22654938485E+02  0.46142317981E+02  0.10000002005E+02 0.  0.
         12    1    1    2    0    0 -0.35574563596E+02  0.15821430269E+02 -0.22654938485E+02  0.45045682019E+02  0.00000000000E+00 0. -1.
         11    1    3    3    0    0  0.67080218373E+01 -0.58536806390E+01  0.49156818230E+01  0.10169909638E+02  0.51100000000E-03 0. -1.
        -11    1    3    3    0    0  0.86874755947E+00  0.26649107407E+00 -0.48831200023E+00  0.10315952139E+01  0.51100000000E-03 0.  1.
        -12    1    3    3    0    0  0.27997794199E+02 -0.10234240704E+02  0.18227568662E+02  0.34940813129E+02  0.00000000000E+00 0.  1.
</event>
<event>
 7    1  0.2313935E-008  0.4614232E+02  0.7816164E-02  0.1320468E+00
        -11   -1    0    0    0    0  0.00000000000E+00  0.00000000000E+00  0.45593999997E+02  0.45594000000E+02  0.51100000000E-03 0.  1.
         11   -1    0    0    0    0 -0.00000000000E+00 -0.00000000000E+00 -0.45593999997E+02  0.45594000000E+02  0.51100000000E-03 0. -1.
    9900012    2    1    2    0    0  0.25866403954E+02 -0.32833901576E+02  0.16792177695E+02  0.46142321206E+02  0.10000031418E+02 0.  0.
         12    1    1    2    0    0 -0.25866403954E+02  0.32833901576E+02 -0.16792177695E+02  0.45045678794E+02  0.00000000000E+00 0. -1.
         11    1    3    3    0    0  0.10759703472E+01 -0.18485789663E+01  0.19276967870E+01  0.28794047209E+01  0.51100000000E-03 0. -1.
        -11    1    3    3    0    0  0.20200595095E+02 -0.29074541629E+02  0.14564825624E+02  0.38282204206E+02  0.51100000000E-03 0.  1.
         12    1    3    3    0    0  0.45898385121E+01 -0.19107809801E+01  0.29965528371E+00  0.49807122794E+01  0.00000000000E+00 0. -1.
</event>
<event>
 7    1  0.2313935E-008  0.4614232E+02  0.7816164E-02  0.1320468E+00
        -11   -1    0    0    0    0  0.00000000000E+00  0.00000000000E+00  0.45593999997E+02  0.45594000000E+02  0.51100000000E-03 0.  1.
         11   -1    0    0    0    0 -0.00000000000E+00 -0.00000000000E+00 -0.45593999997E+02  0.45594000000E+02  0.51100000000E-03 0. -1.
    9900012    2    1    2    0    0 -0.13161406767E+01 -0.20097496300E+02  0.40292330936E+02  0.46142317454E+02  0.99999972018E+01 0.  0.
         12    1    1    2    0    0  0.13161406767E+01  0.20097496300E+02 -0.40292330936E+02  0.45045682546E+02  0.00000000000E+00 0. -1.
         11    1    3    3    0    0 -0.27084375398E+01 -0.55099137288E+01  0.14245007901E+02  0.15511770807E+02  0.51100000000E-03 0.  1.
        -11    1    3    3    0    0 -0.31414727512E+00 -0.37240980241E+01  0.13203445589E+02  0.13722192619E+02  0.51100000000E-03 0. -1.
        -12    1    3    3    0    0  0.17064441382E+01 -0.10863484547E+02  0.12843877445E+02  0.16908354027E+02  0.00000000000E+00 0.  1.
</event>
<event>
 7    1  0.2313935E-008  0.4614232E+02  0.7816164E-02  0.1320468E+00
        -11   -1    0    0    0    0  0.00000000000E+00  0.00000000000E+00  0.45593999997E+02  0.45594000000E+02  0.51100000000E-03 0.  1.
         11   -1    0    0    0    0 -0.00000000000E+00 -0.00000000000E+00 -0.45593999997E+02  0.45594000000E+02  0.51100000000E-03 0. -1.
    9900012    2    1    2    0    0 -0.26821294468E+00  0.11750827150E+02  0.43485164874E+02  0.46142318287E+02  0.10000004793E+02 0.  0.
         12    1    1    2    0    0  0.26821294468E+00 -0.11750827150E+02 -0.43485164874E+02  0.45045681713E+02  0.00000000000E+00 0. -1.
         11    1    3    3    0    0 -0.24831787141E+01 -0.59358204866E-01  0.13508598072E+02  0.13735061779E+02  0.51100000000E-03 0. -1.
        -11    1    3    3    0    0  0.19944156565E+01  0.37287899832E+01  0.10101340851E+02  0.10950737683E+02  0.51100000000E-03 0.  1.
         12    1    3    3    0    0  0.22055011290E+00  0.80813953713E+01  0.19875225950E+02  0.21456518825E+02  0.00000000000E+00 0. -1.
</event>
<event>
 7    1  0.2313935E-008  0.4614232E+02  0.7816164E-02  0.1320468E+00
        -11   -1    0    0    0    0  0.00000000000E+00  0.00000000000E+00  0.45593999997E+02  0.45594000000E+02  0.51100000000E-03 0.  1.
         11   -1    0    0    0    0 -0.00000000000E+00 -0.00000000000E+00 -0.45593999997E+02  0.45594000000E+02  0.51100000000E-03 0. -1.
    9900012    2    1    2    0    0  0.14248059807E+02  0.37119991146E+02  0.21171029584E+02  0.46142318247E+02  0.10000004434E+02 0.  0.
         12    1    1    2    0    0 -0.14248059807E+02 -0.37119991146E+02 -0.21171029584E+02  0.45045681753E+02  0.00000000000E+00 0. -1.
         11    1    3    3    0    0  0.11900933978E+02  0.29144432685E+02  0.14309676997E+02  0.34580298467E+02  0.51100000000E-03 0. -1.
        -11    1    3    3    0    0  0.35133136787E+01  0.58938347970E+01  0.56370104173E+01  0.88801209634E+01  0.51100000000E-03 0.  1.
         12    1    3    3    0    0 -0.11661878499E+01  0.20817236640E+01  0.12243421695E+01  0.26818988166E+01  0.00000000000E+00 0. -1.
</event>
<event>
 7    1  0.2313935E-008  0.4614232E+02  0.7816164E-02  0.1320468E+00
        -11   -1    0    0    0    0  0.00000000000E+00  0.00000000000E+00  0.45593999997E+02  0.45594000000E+02  0.51100000000E-03 0.  1.
         11   -1    0    0    0    0 -0.00000000000E+00 -0.00000000000E+00 -0.45593999997E+02  0.45594000000E+02  0.51100000000E-03 0. -1.
    9900012    2    1    2    0    0 -0.34893096888E+02 -0.26840969263E+02  0.95471356646E+01  0.46142316069E+02  0.99999845680E+01 0.  0.
         12    1    1    2    0    0  0.34893096888E+02  0.26840969263E+02 -0.95471356646E+01  0.45045683931E+02  0.00000000000E+00 0. -1.
         11    1    3    3    0    0 -0.68805466093E+01 -0.26766548609E+01  0.54356692248E+00  0.74028283883E+01  0.51100000000E-03 0. -1.
        -11    1    3    3    0    0 -0.52373266474E+01 -0.60100165678E+01 -0.79174616636E+00  0.80110393714E+01  0.51100000000E-03 0.  1.
         12    1    3    3    0    0 -0.22775223632E+02 -0.18154297834E+02  0.97953149085E+01  0.30728448309E+02  0.00000000000E+00 0. -1.
</event>
<event>
 7    1  0.2313935E-008  0.4614232E+02  0.7816164E-02  0.1320468E+00
        -11   -1    0    0    0    0  0.00000000000E+00  0.00000000000E+00  0.45593999997E+02  0.45594000000E+02  0.51100000000E-03 0.  1.
         11   -1    0    0    0    0 -0.00000000000E+00 -0.00000000000E+00 -0.45593999997E+02  0.45594000000E+02  0.51100000000E-03 0. -1.
    9900012    2    1    2    0    0  0.49153616685E+01 -0.38877068953E+02 -0.22215449418E+02  0.46142318037E+02  0.10000002512E+02 0.  0.
         12    1    1    2    0    0 -0.49153616685E+01  0.38877068953E+02  0.22215449418E+02  0.45045681963E+02  0.00000000000E+00 0. -1.
         11    1    3    3    0    0  0.28699793429E+01 -0.62761558904E+01 -0.88305795010E+00  0.69574927807E+01  0.51100000000E-03 0. -1.
        -11    1    3    3    0    0 -0.63333407382E+00 -0.94229155481E+01 -0.75047003764E+01  0.12062876003E+02  0.51100000000E-03 0.  1.
        -12    1    3    3    0    0  0.26787163995E+01 -0.23177997515E+02 -0.13827691091E+02  0.27121949252E+02  0.00000000000E+00 0.  1.
</event>
<event>
 7    1  0.2313935E-008  0.4614232E+02  0.7816164E-02  0.1320468E+00
        -11   -1    0    0    0    0  0.00000000000E+00  0.00000000000E+00  0.45593999997E+02  0.45594000000E+02  0.51100000000E-03 0.  1.
         11   -1    0    0    0    0 -0.00000000000E+00 -0.00000000000E+00 -0.45593999997E+02  0.45594000000E+02  0.51100000000E-03 0. -1.
    9900012    2    1    2    0    0 -0.76854205431E+01 -0.30676406305E+02  0.32078121861E+02  0.46142317689E+02  0.99999993462E+01 0.  0.
         12    1    1    2    0    0  0.76854205431E+01  0.30676406305E+02 -0.32078121861E+02  0.45045682311E+02  0.00000000000E+00 0. -1.
         11    1    3    3    0    0  0.24533483616E+00 -0.61776250599E+01  0.66221767786E+01  0.90596062889E+01  0.51100000000E-03 0.  1.
        -11    1    3    3    0    0 -0.41103274411E+01 -0.19374677817E+02  0.22690232459E+02  0.30118425946E+02  0.51100000000E-03 0. -1.
         12    1    3    3    0    0 -0.38204279382E+01 -0.51241034282E+01  0.27657126235E+01  0.69642854544E+01  0.00000000000E+00 0. -1.
</event>
<event>
 7    1  0.2313935E-008  0.4614232E+02  0.7816164E-02  0.1320468E+00
        -11   -1    0    0    0    0  0.00000000000E+00  0.00000000000E+00  0.45593999997E+02  0.45594000000E+02  0.51100000000E-03 0. -1.
         11   -1    0    0    0    0 -0.00000000000E+00 -0.00000000000E+00 -0.45593999997E+02  0.45594000000E+02  0.51100000000E-03 0.  1.
    9900012    2    1    2    0    0  0.50763610605E+01  0.43917810415E+02 -0.86353897336E+01  0.46142317975E+02  0.10000001946E+02 0.  0.
         12    1    1    2    0    0 -0.50763610605E+01 -0.43917810415E+02  0.86353897336E+01  0.45045682025E+02  0.00000000000E+00 0. -1.
         11    1    3    3    0    0 -0.45303969801E+00  0.44808535491E+01  0.13653866598E+01  0.47061209598E+01  0.51100000000E-03 0. -1.
        -11    1    3    3    0    0  0.20554172373E+01  0.17318434106E+02 -0.72164543081E+01  0.18874059260E+02  0.51100000000E-03 0.  1.
         12    1    3    3    0    0  0.34739835212E+01  0.22118522760E+02 -0.27843220852E+01  0.22562137755E+02  0.00000000000E+00 0. -1.
</event>
<event>
 7    1  0.2313935E-008  0.4614232E+02  0.7816164E-02  0.1320468E+00
        -11   -1    0    0    0    0  0.00000000000E+00  0.00000000000E+00  0.45593999997E+02  0.45594000000E+02  0.51100000000E-03 0. -1.
         11   -1    0    0    0    0 -0.00000000000E+00 -0.00000000000E+00 -0.45593999997E+02  0.45594000000E+02  0.51100000000E-03 0.  1.
    9900012    2    1    2    0    0  0.40806027978E+02  0.16049750726E+02 -0.10314414742E+02  0.46142316864E+02  0.99999918212E+01 0.  0.
         12    1    1    2    0    0 -0.40806027978E+02 -0.16049750726E+02  0.10314414742E+02  0.45045683136E+02  0.00000000000E+00 0. -1.
         11    1    3    3    0    0  0.37878553909E+00 -0.59226991976E+00  0.66285555020E+00  0.96625042511E+00  0.51100000000E-03 0. -1.
        -11    1    3    3    0    0  0.31039436582E+02  0.11501953408E+02 -0.77482229289E+01  0.33996713287E+02  0.51100000000E-03 0.  1.
        -12    1    3    3    0    0  0.93878058569E+01  0.51400672384E+01 -0.32290473631E+01  0.11179353152E+02  0.00000000000E+00 0.  1.
</event>
<event>
 7    1  0.2313935E-008  0.4614232E+02  0.7816164E-02  0.1320468E+00
        -11   -1    0    0    0    0  0.00000000000E+00  0.00000000000E+00  0.45593999997E+02  0.45594000000E+02  0.51100000000E-03 0.  1.
         11   -1    0    0    0    0 -0.00000000000E+00 -0.00000000000E+00 -0.45593999997E+02  0.45594000000E+02  0.51100000000E-03 0. -1.
    9900012    2    1    2    0    0 -0.31087059527E+02  0.31998190374E+02  0.62308889086E+01  0.46142318366E+02  0.10000005519E+02 0.  0.
         12    1    1    2    0    0  0.31087059527E+02 -0.31998190374E+02 -0.62308889086E+01  0.45045681634E+02  0.00000000000E+00 0. -1.
         11    1    3    3    0    0 -0.20192022175E+02  0.25618568036E+02  0.17402981792E+01  0.32665844941E+02  0.51100000000E-03 0. -1.
        -11    1    3    3    0    0 -0.16514786081E+01  0.13196023614E+01  0.12296722273E+01  0.24455727413E+01  0.51100000000E-03 0.  1.
        -12    1    3    3    0    0 -0.92435587439E+01  0.50600199770E+01  0.32609185021E+01  0.11030900684E+02  0.00000000000E+00 0.  1.
</event>
<event>
 7    1  0.2313935E-008  0.4614232E+02  0.7816164E-02  0.1320468E+00
        -11   -1    0    0    0    0  0.00000000000E+00  0.00000000000E+00  0.45593999997E+02  0.45594000000E+02  0.51100000000E-03 0.  1.
         11   -1    0    0    0    0 -0.00000000000E+00 -0.00000000000E+00 -0.45593999997E+02  0.45594000000E+02  0.51100000000E-03 0. -1.
    9900012    2    1    2    0    0  0.11805886123E+02  0.39650773602E+02  0.17819951040E+02  0.46142318193E+02  0.10000003938E+02 0.  0.
         12    1    1    2    0    0 -0.11805886123E+02 -0.39650773602E+02 -0.17819951040E+02  0.45045681807E+02  0.00000000000E+00 0. -1.
         11    1    3    3    0    0  0.69895382278E+01  0.15322512348E+02  0.10361878247E+02  0.19773759135E+02  0.51100000000E-03 0. -1.
        -11    1    3    3    0    0 -0.20377983766E+00  0.86032602215E+01  0.40610026781E+01  0.95157425183E+01  0.51100000000E-03 0.  1.
        -12    1    3    3    0    0  0.50201277329E+01  0.15725001033E+02  0.33970701149E+01  0.16852816539E+02  0.00000000000E+00 0.  1.
</event>
<event>
 7    1  0.2313935E-008  0.4614232E+02  0.7816164E-02  0.1320468E+00
        -11   -1    0    0    0    0  0.00000000000E+00  0.00000000000E+00  0.45593999997E+02  0.45594000000E+02  0.51100000000E-03 0. -1.
         11   -1    0    0    0    0 -0.00000000000E+00 -0.00000000000E+00 -0.45593999997E+02  0.45594000000E+02  0.51100000000E-03 0.  1.
    9900012    2    1    2    0    0  0.27971866006E+02 -0.33554766378E+02  0.10989352677E+02  0.46142317556E+02  0.99999981280E+01 0.  0.
         12    1    1    2    0    0 -0.27971866006E+02  0.33554766378E+02 -0.10989352677E+02  0.45045682444E+02  0.00000000000E+00 0. -1.
         11    1    3    3    0    0  0.97313824228E+01 -0.99592487113E+01  0.61490818687E+01  0.15221617747E+02  0.51100000000E-03 0.  1.
        -11    1    3    3    0    0  0.12519494247E+02 -0.12174567645E+02  0.49338375853E+01  0.18146641208E+02  0.51100000000E-03 0. -1.
         12    1    3    3    0    0  0.57209893367E+01 -0.11420950022E+02 -0.93566776876E-01  0.12774058601E+02  0.00000000000E+00 0. -1.
</event>
<event>
 7    1  0.2313935E-008  0.4614232E+02  0.7816164E-02  0.1320468E+00
        -11   -1    0    0    0    0  0.00000000000E+00  0.00000000000E+00  0.45593999997E+02  0.45594000000E+02  0.51100000000E-03 0.  1.
         11   -1    0    0    0    0 -0.00000000000E+00 -0.00000000000E+00 -0.45593999997E+02  0.45594000000E+02  0.51100000000E-03 0. -1.
    9900012    2    1    2    0    0  0.92695513053E+01  0.12100236746E+01  0.44065005773E+02  0.46142317937E+02  0.10000001606E+02 0.  0.
         12    1    1    2    0    0 -0.92695513053E+01 -0.12100236746E+01 -0.44065005773E+02  0.45045682063E+02  0.00000000000E+00 0. -1.
         11    1    3    3    0    0  0.10395311402E+01  0.20301950737E+01  0.23663364274E+01  0.32866191409E+01  0.51100000000E-03 0. -1.
        -11    1    3    3    0    0  0.87129714912E+01 -0.16765719341E-01  0.39744319460E+02  0.40688168832E+02  0.51100000000E-03 0.  1.
         12    1    3    3    0    0 -0.48295132622E+00 -0.80340567969E+00  0.19543498862E+01  0.21675299646E+01  0.00000000000E+00 0. -1.
</event>
<event>
 7    1  0.2313935E-008  0.4614232E+02  0.7816164E-02  0.1320468E+00
        -11   -1    0    0    0    0  0.00000000000E+00  0.00000000000E+00  0.45593999997E+02  0.45594000000E+02  0.51100000000E-03 0.  1.
         11   -1    0    0    0    0 -0.00000000000E+00 -0.00000000000E+00 -0.45593999997E+02  0.45594000000E+02  0.51100000000E-03 0. -1.
    9900012    2    1    2    0    0  0.15223017861E+02 -0.20868123959E+01  0.42344048911E+02  0.46142317222E+02  0.99999950853E+01 0.  0.
         12    1    1    2    0    0 -0.15223017861E+02  0.20868123959E+01 -0.42344048911E+02  0.45045682778E+02  0.00000000000E+00 0. -1.
         11    1    3    3    0    0  0.39759606231E+01 -0.37659115850E+01  0.63093316400E+01  0.83545208688E+01  0.51100000000E-03 0. -1.
        -11    1    3    3    0    0  0.31338832245E+01  0.58246447706E+00  0.10388788063E+02  0.10866802962E+02  0.51100000000E-03 0.  1.
         12    1    3    3    0    0  0.81131740139E+01  0.10966347120E+01  0.25645929208E+02  0.26920993392E+02  0.00000000000E+00 0. -1.
</event>
<event>
 7    1  0.2313935E-008  0.4614232E+02  0.7816164E-02  0.1320468E+00
        -11   -1    0    0    0    0  0.00000000000E+00  0.00000000000E+00  0.45593999997E+02  0.45594000000E+02  0.51100000000E-03 0.  1.
         11   -1    0    0    0    0 -0.00000000000E+00 -0.00000000000E+00 -0.45593999997E+02  0.45594000000E+02  0.51100000000E-03 0. -1.
    9900012    2    1    2    0    0  0.44241164421E+02  0.82728906872E+01 -0.18417554557E+01  0.46142318600E+02  0.10000007646E+02 0.  0.
         12    1    1    2    0    0 -0.44241164421E+02 -0.82728906872E+01  0.18417554557E+01  0.45045681400E+02  0.00000000000E+00 0. -1.
         11    1    3    3    0    0  0.94812135193E+01 -0.20065609845E+01 -0.51203162562E+00  0.97047345883E+01  0.51100000000E-03 0. -1.
        -11    1    3    3    0    0  0.18435298977E+02  0.65836706754E+01 -0.20611719210E+01  0.19683835954E+02  0.51100000000E-03 0.  1.
         12    1    3    3    0    0  0.16324651925E+02  0.36957809962E+01  0.73144809085E+00  0.16753748057E+02  0.00000000000E+00 0. -1.
</event>
<event>
 7    1  0.2313935E-008  0.4614232E+02  0.7816164E-02  0.1320468E+00
        -11   -1    0    0    0    0  0.00000000000E+00  0.00000000000E+00  0.45593999997E+02  0.45594000000E+02  0.51100000000E-03 0.  1.
         11   -1    0    0    0    0 -0.00000000000E+00 -0.00000000000E+00 -0.45593999997E+02  0.45594000000E+02  0.51100000000E-03 0. -1.
    9900012    2    1    2    0    0 -0.32911056680E+01 -0.39501360284E+02  0.21399174510E+02  0.46142317516E+02  0.99999977609E+01 0.  0.
         12    1    1    2    0    0  0.32911056680E+01  0.39501360284E+02 -0.21399174510E+02  0.45045682484E+02  0.00000000000E+00 0. -1.
         11    1    3    3    0    0 -0.25639940421E+01 -0.43938586365E+01  0.21251270329E+01  0.55132770955E+01  0.51100000000E-03 0. -1.
        -11    1    3    3    0    0 -0.18349002528E+01 -0.14591029332E+02  0.11471594810E+02  0.18651071917E+02  0.51100000000E-03 0.  1.
        -12    1    3    3    0    0  0.11077886268E+01 -0.20516472315E+02  0.78024526673E+01  0.21977968503E+02  0.00000000000E+00 0.  1.
</event>
<event>
 7    1  0.2313935E-008  0.4614232E+02  0.7816164E-02  0.1320468E+00
        -11   -1    0    0    0    0  0.00000000000E+00  0.00000000000E+00  0.45593999997E+02  0.45594000000E+02  0.51100000000E-03 0.  1.
         11   -1    0    0    0    0 -0.00000000000E+00 -0.00000000000E+00 -0.45593999997E+02  0.45594000000E+02  0.51100000000E-03 0. -1.
    9900012    2    1    2    0    0  0.28541654894E+02  0.13632973769E+02  0.32072252579E+02  0.46142318482E+02  0.10000006577E+02 0.  0.
         12    1    1    2    0    0 -0.28541654894E+02 -0.13632973769E+02 -0.32072252579E+02  0.45045681518E+02  0.00000000000E+00 0. -1.
         11    1    3    3    0    0  0.14528869671E+02  0.33503693065E+01  0.17185776358E+02  0.22752229291E+02  0.51100000000E-03 0. -1.
        -11    1    3    3    0    0  0.13726960030E+02  0.10788551596E+02  0.14450827502E+02  0.22663819028E+02  0.51100000000E-03 0.  1.
         12    1    3    3    0    0  0.28582519335E+00 -0.50594713362E+00  0.43564871889E+00  0.72627016285E+00  0.00000000000E+00 0. -1.
</event>
<event>
 7    1  0.2313935E-008  0.4614231E+02  0.7816164E-02  0.1320468E+00
        -11   -1    0    0    0    0  0.00000000000E+00  0.00000000000E+00  0.45593999997E+02  0.45594000000E+02  0.51100000000E-03 0. -1.
         11   -1    0    0    0    0 -0.00000000000E+00 -0.00000000000E+00 -0.45593999997E+02  0.45594000000E+02  0.51100000000E-03 0.  1.
    9900012    2    1    2    0    0 -0.30432422401E+02  0.13696634614E+02 -0.30255308393E+02  0.46142314092E+02  0.99999665439E+01 0.  0.
         12    1    1    2    0    0  0.30432422401E+02 -0.13696634614E+02  0.30255308393E+02  0.45045685908E+02  0.00000000000E+00 0. -1.
         11    1    3    3    0    0 -0.18703591738E+02  0.50662598464E+01 -0.21079354708E+02  0.28632682862E+02  0.51100000000E-03 0. -1.
        -11    1    3    3    0    0 -0.39757691795E+01  0.11489876136E+01 -0.25110528015E+01  0.48406920515E+01  0.51100000000E-03 0.  1.
         12    1    3    3    0    0 -0.77530614840E+01  0.74813871538E+01 -0.66649008835E+01  0.12668939178E+02  0.00000000000E+00 0. -1.
</event>
<event>
 7    1  0.2313935E-008  0.4614232E+02  0.7816164E-02  0.1320468E+00
        -11   -1    0    0    0    0  0.00000000000E+00  0.00000000000E+00  0.45593999997E+02  0.45594000000E+02  0.51100000000E-03 0.  1.
         11   -1    0    0    0    0 -0.00000000000E+00 -0.00000000000E+00 -0.45593999997E+02  0.45594000000E+02  0.51100000000E-03 0. -1.
    9900012    2    1    2    0    0  0.42896925596E+02  0.85541096831E+01  0.10760777946E+02  0.46142319185E+02  0.10000012986E+02 0.  0.
         12    1    1    2    0    0 -0.42896925596E+02 -0.85541096831E+01 -0.10760777946E+02  0.45045680815E+02  0.00000000000E+00 0. -1.
         11    1    3    3    0    0  0.26734668111E+01  0.51327933162E+00  0.19463719456E+00  0.27292424518E+01  0.51100000000E-03 0. -1.
        -11    1    3    3    0    0  0.37177154965E+02  0.84562917455E+01  0.71041606379E+01  0.38782970748E+02  0.51100000000E-03 0.  1.
         12    1    3    3    0    0  0.30463038200E+01 -0.41546139400E+00  0.34619801134E+01  0.46301059858E+01  0.00000000000E+00 0. -1.
</event>
<event>
 7    1  0.2313935E-008  0.4614232E+02  0.7816164E-02  0.1320468E+00
        -11   -1    0    0    0    0  0.00000000000E+00  0.00000000000E+00  0.45593999997E+02  0.45594000000E+02  0.51100000000E-03 0. -1.
         11   -1    0    0    0    0 -0.00000000000E+00 -0.00000000000E+00 -0.45593999997E+02  0.45594000000E+02  0.51100000000E-03 0.  1.
    9900012    2    1    2    0    0  0.42363358522E+02 -0.15200086435E+02 -0.18484274971E+01  0.46142318108E+02  0.10000003167E+02 0.  0.
         12    1    1    2    0    0 -0.42363358522E+02  0.15200086435E+02  0.18484274971E+01  0.45045681892E+02  0.00000000000E+00 0. -1.
         11    1    3    3    0    0  0.31636076909E+02 -0.97953278212E+01  0.22760774925E+01  0.33195938582E+02  0.51100000000E-03 0. -1.
        -11    1    3    3    0    0  0.42431135041E+00 -0.21604936711E+00 -0.81732706919E+00  0.94590763305E+00  0.51100000000E-03 0.  1.
         12    1    3    3    0    0  0.10302970263E+02 -0.51887092465E+01 -0.33071779204E+01  0.12000471894E+02  0.00000000000E+00 0. -1.
</event>
<event>
 7    1  0.2313935E-008  0.4614232E+02  0.7816164E-02  0.1320468E+00
        -11   -1    0    0    0    0  0.00000000000E+00  0.00000000000E+00  0.45593999997E+02  0.45594000000E+02  0.51100000000E-03 0.  1.
         11   -1    0    0    0    0 -0.00000000000E+00 -0.00000000000E+00 -0.45593999997E+02  0.45594000000E+02  0.51100000000E-03 0. -1.
    9900012    2    1    2    0    0 -0.12431986236E+02 -0.53087411088E+01  0.42969483080E+02  0.46142317742E+02  0.99999998283E+01 0.  0.
         12    1    1    2    0    0  0.12431986236E+02  0.53087411088E+01 -0.42969483080E+02  0.45045682258E+02  0.00000000000E+00 0. -1.
         11    1    3    3    0    0 -0.56596729378E+00 -0.19581222884E+01  0.33655995886E+01  0.39346947437E+01  0.51100000000E-03 0. -1.
        -11    1    3    3    0    0 -0.12011307167E+02 -0.49478280008E+01  0.35113423868E+02  0.37439351460E+02  0.51100000000E-03 0.  1.
         12    1    3    3    0    0  0.14528822513E+00  0.15972091804E+01  0.44904596236E+01  0.47682715386E+01  0.00000000000E+00 0. -1.
</event>
<event>
 7    1  0.2313935E-008  0.4614232E+02  0.7816164E-02  0.1320468E+00
        -11   -1    0    0    0    0  0.00000000000E+00  0.00000000000E+00  0.45593999997E+02  0.45594000000E+02  0.51100000000E-03 0.  1.
         11   -1    0    0    0    0 -0.00000000000E+00 -0.00000000000E+00 -0.45593999997E+02  0.45594000000E+02  0.51100000000E-03 0. -1.
    9900012    2    1    2    0    0  0.10840347002E+02  0.42460969401E+02  0.10424319220E+02  0.46142317889E+02  0.10000001168E+02 0.  0.
         12    1    1    2    0    0 -0.10840347002E+02 -0.42460969401E+02 -0.10424319220E+02  0.45045682111E+02  0.00000000000E+00 0. -1.
         11    1    3    3    0    0  0.43352579424E+01  0.14221750264E+02  0.97801272687E+00  0.14899971515E+02  0.51100000000E-03 0. -1.
        -11    1    3    3    0    0  0.34992757503E+00 -0.24538875561E+00  0.69279862720E+00  0.81402404640E+00  0.51100000000E-03 0.  1.
        -12    1    3    3    0    0  0.61551614844E+01  0.28484607893E+02  0.87535078658E+01  0.30428322328E+02  0.00000000000E+00 0.  1.
</event>
<event>
 7    1  0.2313935E-008  0.4614232E+02  0.7816164E-02  0.1320468E+00
        -11   -1    0    0    0    0  0.00000000000E+00  0.00000000000E+00  0.45593999997E+02  0.45594000000E+02  0.51100000000E-03 0.  1.
         11   -1    0    0    0    0 -0.00000000000E+00 -0.00000000000E+00 -0.45593999997E+02  0.45594000000E+02  0.51100000000E-03 0. -1.
    9900012    2    1    2    0    0 -0.17206404412E+02  0.54585930025E+01  0.41270528009E+02  0.46142322377E+02  0.10000042087E+02 0.  0.
         12    1    1    2    0    0  0.17206404412E+02 -0.54585930025E+01 -0.41270528009E+02  0.45045677623E+02  0.00000000000E+00 0. -1.
         11    1    3    3    0    0 -0.69865678477E+01  0.33326075708E+01  0.86853765107E+01  0.11634181059E+02  0.51100000000E-03 0. -1.
        -11    1    3    3    0    0 -0.26823422724E+01 -0.12264864921E+01  0.11348405549E+02  0.11725422719E+02  0.51100000000E-03 0.  1.
        -12    1    3    3    0    0 -0.75374942924E+01  0.33524719239E+01  0.21236745950E+02  0.22782718599E+02  0.00000000000E+00 0.  1.
</event>
<event>
 7    1  0.2313935E-008  0.4614232E+02  0.7816164E-02  0.1320468E+00
        -11   -1    0    0    0    0  0.00000000000E+00  0.00000000000E+00  0.45593999997E+02  0.45594000000E+02  0.51100000000E-03 0.  1.
         11   -1    0    0    0    0 -0.00000000000E+00 -0.00000000000E+00 -0.45593999997E+02  0.45594000000E+02  0.51100000000E-03 0. -1.
    9900012    2    1    2    0    0  0.42253971486E+02  0.12892228285E+02  0.88037331032E+01  0.46142319042E+02  0.10000011676E+02 0.  0.
         12    1    1    2    0    0 -0.42253971486E+02 -0.12892228285E+02 -0.88037331032E+01  0.45045680958E+02  0.00000000000E+00 0. -1.
         11    1    3    3    0    0  0.57560931661E+01  0.29709249878E+01  0.45770392014E+01  0.79314747641E+01  0.51100000000E-03 0. -1.
        -11    1    3    3    0    0  0.26441236748E+02  0.60847328223E+01  0.41436808516E+01  0.27446913589E+02  0.51100000000E-03 0.  1.
        -12    1    3    3    0    0  0.10056641571E+02  0.38365704753E+01  0.83013050203E-01  0.10763930689E+02  0.00000000000E+00 0.  1.
</event>
<event>
 7    1  0.2313935E-008  0.4614232E+02  0.7816164E-02  0.1320468E+00
        -11   -1    0    0    0    0  0.00000000000E+00  0.00000000000E+00  0.45593999997E+02  0.45594000000E+02  0.51100000000E-03 0.  1.
         11   -1    0    0    0    0 -0.00000000000E+00 -0.00000000000E+00 -0.45593999997E+02  0.45594000000E+02  0.51100000000E-03 0. -1.
    9900012    2    1    2    0    0  0.17992225759E+02  0.10619515524E+02  0.39907635600E+02  0.46142315669E+02  0.99999809183E+01 0.  0.
         12    1    1    2    0    0 -0.17992225759E+02 -0.10619515524E+02 -0.39907635600E+02  0.45045684331E+02  0.00000000000E+00 0. -1.
         11    1    3    3    0    0  0.84915720866E+01  0.35604755366E+01  0.19344876646E+02  0.21424472812E+02  0.51100000000E-03 0.  1.
        -11    1    3    3    0    0  0.76754995057E+01  0.61611122151E+01  0.20432622569E+02  0.22679608941E+02  0.51100000000E-03 0. -1.
         12    1    3    3    0    0  0.18251541671E+01  0.89792777203E+00  0.13013638425E+00  0.20382339159E+01  0.00000000000E+00 0. -1.
</event>
<event>
 7    1  0.2313935E-008  0.4614232E+02  0.7816164E-02  0.1320468E+00
        -11   -1    0    0    0    0  0.00000000000E+00  0.00000000000E+00  0.45593999997E+02  0.45594000000E+02  0.51100000000E-03 0. -1.
         11   -1    0    0    0    0 -0.00000000000E+00 -0.00000000000E+00 -0.45593999997E+02  0.45594000000E+02  0.51100000000E-03 0.  1.
    9900012    2    1    2    0    0  0.43977988498E+02  0.49086038716E+01  0.84235147311E+01  0.46142318024E+02  0.10000002396E+02 0.  0.
         12    1    1    2    0    0 -0.43977988498E+02 -0.49086038716E+01 -0.84235147311E+01  0.45045681976E+02  0.00000000000E+00 0. -1.
         11    1    3    3    0    0  0.87677420524E+01  0.74643788306E+00 -0.99855091283E+00  0.88559344169E+01  0.51100000000E-03 0. -1.
        -11    1    3    3    0    0  0.14089787051E+02 -0.10128443398E+01  0.17821828735E+01  0.14238122378E+02  0.51100000000E-03 0.  1.
        -12    1    3    3    0    0  0.21120459395E+02  0.51750103283E+01  0.76398827704E+01  0.23048261229E+02  0.00000000000E+00 0.  1.
</event>
<event>
 7    1  0.2313935E-008  0.4614232E+02  0.7816164E-02  0.1320468E+00
        -11   -1    0    0    0    0  0.00000000000E+00  0.00000000000E+00  0.45593999997E+02  0.45594000000E+02  0.51100000000E-03 0.  1.
         11   -1    0    0    0    0 -0.00000000000E+00 -0.00000000000E+00 -0.45593999997E+02  0.45594000000E+02  0.51100000000E-03 0. -1.
    9900012    2    1    2    0    0  0.14627819630E+02 -0.57754943181E+01  0.42211184959E+02  0.46142316773E+02  0.99999909924E+01 0.  0.
         12    1    1    2    0    0 -0.14627819630E+02  0.57754943181E+01 -0.42211184959E+02  0.45045683227E+02  0.00000000000E+00 0. -1.
         11    1    3    3    0    0  0.90386462054E-01 -0.12525032041E+01  0.53232377181E+01  0.54693504234E+01  0.51100000000E-03 0. -1.
        -11    1    3    3    0    0  0.14543391000E+02 -0.40304664865E+01  0.37161882963E+02  0.40109355860E+02  0.51100000000E-03 0.  1.
        -12    1    3    3    0    0 -0.59578316979E-02 -0.49252462752E+00 -0.27393572256E+00  0.56361049011E+00  0.00000000000E+00 0.  1.
</event>
<event>
 7    1  0.2313935E-008  0.4614232E+02  0.7816164E-02  0.1320468E+00
        -11   -1    0    0    0    0  0.00000000000E+00  0.00000000000E+00  0.45593999997E+02  0.45594000000E+02  0.51100000000E-03 0.  1.
         11   -1    0    0    0    0 -0.00000000000E+00 -0.00000000000E+00 -0.45593999997E+02  0.45594000000E+02  0.51100000000E-03 0. -1.
    9900012    2    1    2    0    0 -0.24032131270E+02  0.19650538181E+02  0.32640871633E+02  0.46142317797E+02  0.10000000327E+02 0.  0.
         12    1    1    2    0    0  0.24032131270E+02 -0.19650538181E+02 -0.32640871633E+02  0.45045682203E+02  0.00000000000E+00 0. -1.
         11    1    3    3    0    0 -0.91978658135E+01  0.40675632590E+01  0.92943686197E+01  0.13694199308E+02  0.51100000000E-03 0. -1.
        -11    1    3    3    0    0 -0.31590083244E+01  0.79542945453E+01  0.80782802728E+01  0.11768973946E+02  0.51100000000E-03 0.  1.
        -12    1    3    3    0    0 -0.11675257132E+02  0.76286803773E+01  0.15268222740E+02  0.20679144543E+02  0.00000000000E+00 0.  1.
</event>
<event>
 7    1  0.2313935E-008  0.4614232E+02  0.7816164E-02  0.1320468E+00
        -11   -1    0    0    0    0  0.00000000000E+00  0.00000000000E+00  0.45593999997E+02  0.45594000000E+02  0.51100000000E-03 0. -1.
         11   -1    0    0    0    0 -0.00000000000E+00 -0.00000000000E+00 -0.45593999997E+02  0.45594000000E+02  0.51100000000E-03 0.  1.
    9900012    2    1    2    0    0  0.31915045774E+02 -0.98759642431E+01 -0.30216033326E+02  0.46142317782E+02  0.10000000195E+02 0.  0.
         12    1    1    2    0    0 -0.31915045774E+02  0.98759642431E+01  0.30216033326E+02  0.45045682218E+02  0.00000000000E+00 0. -1.
         11    1    3    3    0    0  0.15195106081E+02 -0.65617212241E+01 -0.16600589046E+02  0.23441992047E+02  0.51100000000E-03 0. -1.
        -11    1    3    3    0    0  0.69534358429E+01 -0.43197938409E+01 -0.76969761545E+01  0.11236295254E+02  0.51100000000E-03 0.  1.
         12    1    3    3    0    0  0.97665038507E+01  0.10055508219E+01 -0.59184681254E+01  0.11464030481E+02  0.00000000000E+00 0. -1.
</event>
<event>
 7    1  0.2313935E-008  0.4614232E+02  0.7816164E-02  0.1320468E+00
        -11   -1    0    0    0    0  0.00000000000E+00  0.00000000000E+00  0.45593999997E+02  0.45594000000E+02  0.51100000000E-03 0. -1.
         11   -1    0    0    0    0 -0.00000000000E+00 -0.00000000000E+00 -0.45593999997E+02  0.45594000000E+02  0.51100000000E-03 0.  1.
    9900012    2    1    2    0    0  0.27523952589E+02 -0.33656641356E+02 -0.11780318664E+02  0.46142318950E+02  0.10000010837E+02 0.  0.
         12    1    1    2    0    0 -0.27523952589E+02  0.33656641356E+02  0.11780318664E+02  0.45045681050E+02  0.00000000000E+00 0. -1.
         11    1    3    3    0    0  0.81317414839E+01 -0.13010129195E+02 -0.67370953651E+01  0.16756405803E+02  0.51100000000E-03 0.  1.
        -11    1    3    3    0    0  0.12399269767E+00 -0.24267633115E+01 -0.33712810821E+00  0.24532040236E+01  0.51100000000E-03 0. -1.
         12    1    3    3    0    0  0.19268218407E+02 -0.18219748850E+02 -0.47060951907E+01  0.26932709123E+02  0.00000000000E+00 0. -1.
</event>
<event>
 7    1  0.2313935E-008  0.4614231E+02  0.7816164E-02  0.1320468E+00
        -11   -1    0    0    0    0  0.00000000000E+00  0.00000000000E+00  0.45593999997E+02  0.45594000000E+02  0.51100000000E-03 0.  1.
         11   -1    0    0    0    0 -0.00000000000E+00 -0.00000000000E+00 -0.45593999997E+02  0.45594000000E+02  0.51100000000E-03 0. -1.
    9900012    2    1    2    0    0 -0.42354263019E+02 -0.50372839387E+01  0.14486412318E+02  0.46142312446E+02  0.99999515284E+01 0.  0.
         12    1    1    2    0    0  0.42354263019E+02  0.50372839387E+01 -0.14486412318E+02  0.45045687554E+02  0.00000000000E+00 0. -1.
         11    1    3    3    0    0 -0.87560843342E+01  0.20064516222E+01  0.40324008974E+01  0.98465790120E+01  0.51100000000E-03 0. -1.
        -11    1    3    3    0    0 -0.11840645015E+02 -0.29074979853E+01  0.64366052740E+01  0.13787106536E+02  0.51100000000E-03 0.  1.
         12    1    3    3    0    0 -0.21757533670E+02 -0.41362375757E+01  0.40174061470E+01  0.22508626898E+02  0.00000000000E+00 0. -1.
</event>
<event>
 7    1  0.2313935E-008  0.4614232E+02  0.7816164E-02  0.1320468E+00
        -11   -1    0    0    0    0  0.00000000000E+00  0.00000000000E+00  0.45593999997E+02  0.45594000000E+02  0.51100000000E-03 0.  1.
         11   -1    0    0    0    0 -0.00000000000E+00 -0.00000000000E+00 -0.45593999997E+02  0.45594000000E+02  0.51100000000E-03 0. -1.
    9900012    2    1    2    0    0  0.75701051500E+01  0.40361669976E+02 -0.18513310640E+02  0.46142316899E+02  0.99999921351E+01 0.  0.
         12    1    1    2    0    0 -0.75701051500E+01 -0.40361669976E+02  0.18513310640E+02  0.45045683101E+02  0.00000000000E+00 0. -1.
         11    1    3    3    0    0  0.59096632898E+01  0.29123885474E+02 -0.15294133499E+02  0.33422078707E+02  0.51100000000E-03 0. -1.
        -11    1    3    3    0    0  0.32137809991E+01  0.85424966890E+01 -0.29757014710E+01  0.95998665354E+01  0.51100000000E-03 0.  1.
         12    1    3    3    0    0 -0.15533391388E+01  0.26952878127E+01 -0.24347566925E+00  0.31203716566E+01  0.00000000000E+00 0. -1.
</event>
<event>
 7    1  0.2313935E-008  0.4614232E+02  0.7816164E-02  0.1320468E+00
        -11   -1    0    0    0    0  0.00000000000E+00  0.00000000000E+00  0.45593999997E+02  0.45594000000E+02  0.51100000000E-03 0.  1.
         11   -1    0    0    0    0 -0.00000000000E+00 -0.00000000000E+00 -0.45593999997E+02  0.45594000000E+02  0.51100000000E-03 0. -1.
    9900012    2    1    2    0    0 -0.38237148931E+02 -0.88701912886E+01  0.22098723197E+02  0.46142318534E+02  0.10000007045E+02 0.  0.
         12    1    1    2    0    0  0.38237148931E+02  0.88701912886E+01 -0.22098723197E+02  0.45045681466E+02  0.00000000000E+00 0. -1.
         11    1    3    3    0    0 -0.22886536416E+02 -0.22862586570E+01  0.12502048490E+02  0.26178650547E+02  0.51100000000E-03 0. -1.
        -11    1    3    3    0    0 -0.84290264978E+01 -0.11381200378E+01  0.32381428070E+01  0.91010644444E+01  0.51100000000E-03 0.  1.
         12    1    3    3    0    0 -0.69215860171E+01 -0.54458125939E+01  0.63585318996E+01  0.10862603542E+02  0.00000000000E+00 0. -1.
</event>
<event>
 7    1  0.2313935E-008  0.4614232E+02  0.7816164E-02  0.1320468E+00
        -11   -1    0    0    0    0  0.00000000000E+00  0.00000000000E+00  0.45593999997E+02  0.45594000000E+02  0.51100000000E-03 0. -1.
         11   -1    0    0    0    0 -0.00000000000E+00 -0.00000000000E+00 -0.45593999997E+02  0.45594000000E+02  0.51100000000E-03 0.  1.
    9900012    2    1    2    0    0  0.19123267507E+02  0.27004816382E+02 -0.30563932700E+02  0.46142318186E+02  0.10000003877E+02 0.  0.
         12    1    1    2    0    0 -0.19123267507E+02 -0.27004816382E+02  0.30563932700E+02  0.45045681814E+02  0.00000000000E+00 0. -1.
         11    1    3    3    0    0  0.23354475279E+01  0.12778796782E+01 -0.12150346632E+01  0.29263631219E+01  0.51100000000E-03 0. -1.
        -11    1    3    3    0    0  0.11337960803E+02  0.11813723356E+02 -0.18766352775E+02  0.24905610040E+02  0.51100000000E-03 0.  1.
        -12    1    3    3    0    0  0.54498591757E+01  0.13913213349E+02 -0.10582545261E+02  0.18310345025E+02  0.00000000000E+00 0.  1.
</event>
<event>
 7    1  0.2313935E-008  0.4614232E+02  0.7816164E-02  0.1320468E+00
        -11   -1    0    0    0    0  0.00000000000E+00  0.00000000000E+00  0.45593999997E+02  0.45594000000E+02  0.51100000000E-03 0. -1.
         11   -1    0    0    0    0 -0.00000000000E+00 -0.00000000000E+00 -0.45593999997E+02  0.45594000000E+02  0.51100000000E-03 0.  1.
    9900012    2    1    2    0    0 -0.38017862005E+02  0.24040275340E+02  0.24126484803E+01  0.46142317159E+02  0.99999945125E+01 0.  0.
         12    1    1    2    0    0  0.38017862005E+02 -0.24040275340E+02 -0.24126484803E+01  0.45045682841E+02  0.00000000000E+00 0. -1.
         11    1    3    3    0    0 -0.97174256326E+01  0.77827094334E+01  0.31293390226E+01  0.12837121563E+02  0.51100000000E-03 0. -1.
        -11    1    3    3    0    0  0.22423284631E+00  0.84530360594E+00  0.18392691667E-01  0.87473259217E+00  0.51100000000E-03 0.  1.
        -12    1    3    3    0    0 -0.28524669219E+02  0.15412262301E+02 -0.73508323396E+00  0.32430463004E+02  0.00000000000E+00 0.  1.
</event>
<event>
 7    1  0.2313935E-008  0.4614232E+02  0.7816164E-02  0.1320468E+00
        -11   -1    0    0    0    0  0.00000000000E+00  0.00000000000E+00  0.45593999997E+02  0.45594000000E+02  0.51100000000E-03 0.  1.
         11   -1    0    0    0    0 -0.00000000000E+00 -0.00000000000E+00 -0.45593999997E+02  0.45594000000E+02  0.51100000000E-03 0. -1.
    9900012    2    1    2    0    0 -0.21769792074E+02  0.23274318597E+02  0.31835447182E+02  0.46142318183E+02  0.10000003845E+02 0.  0.
         12    1    1    2    0    0  0.21769792074E+02 -0.23274318597E+02 -0.31835447182E+02  0.45045681817E+02  0.00000000000E+00 0. -1.
         11    1    3    3    0    0 -0.96738283195E+01  0.11339359716E+02  0.21009795926E+02  0.25759960370E+02  0.51100000000E-03 0.  1.
        -11    1    3    3    0    0 -0.49595181762E+01  0.38970309767E+01  0.55819362026E+01  0.84226885853E+01  0.51100000000E-03 0. -1.
        -12    1    3    3    0    0 -0.71364455782E+01  0.80379279036E+01  0.52437150538E+01  0.11959669228E+02  0.00000000000E+00 0.  1.
</event>
<event>
 7    1  0.2313935E-008  0.4614232E+02  0.7816164E-02  0.1320468E+00
        -11   -1    0    0    0    0  0.00000000000E+00  0.00000000000E+00  0.45593999997E+02  0.45594000000E+02  0.51100000000E-03 0. -1.
         11   -1    0    0    0    0 -0.00000000000E+00 -0.00000000000E+00 -0.45593999997E+02  0.45594000000E+02  0.51100000000E-03 0.  1.
    9900012    2    1    2    0    0 -0.16586540001E+01  0.16095800960E+02 -0.42039119917E+02  0.46142317132E+02  0.99999942670E+01 0.  0.
         12    1    1    2    0    0  0.16586540001E+01 -0.16095800960E+02  0.42039119917E+02  0.45045682868E+02  0.00000000000E+00 0. -1.
         11    1    3    3    0    0  0.88416620907E+00  0.55577776935E+01 -0.77598544248E+01  0.95857176952E+01  0.51100000000E-03 0. -1.
        -11    1    3    3    0    0 -0.33181437751E+01  0.18606605485E+01 -0.13479443160E+02  0.14005981720E+02  0.51100000000E-03 0.  1.
        -12    1    3    3    0    0  0.77532356589E+00  0.86773627176E+01 -0.20799822332E+02  0.22550617717E+02  0.00000000000E+00 0.  1.
</event>
<event>
 7    1  0.2313935E-008  0.4614232E+02  0.7816164E-02  0.1320468E+00
        -11   -1    0    0    0    0  0.00000000000E+00  0.00000000000E+00  0.45593999997E+02  0.45594000000E+02  0.51100000000E-03 0.  1.
         11   -1    0    0    0    0 -0.00000000000E+00 -0.00000000000E+00 -0.45593999997E+02  0.45594000000E+02  0.51100000000E-03 0. -1.
    9900012    2    1    2    0    0  0.16721107887E+02 -0.33506479070E+02  0.25036654799E+02  0.46142315721E+02  0.99999813937E+01 0.  0.
         12    1    1    2    0    0 -0.16721107887E+02  0.33506479070E+02 -0.25036654799E+02  0.45045684279E+02  0.00000000000E+00 0. -1.
         11    1    3    3    0    0 -0.19581162443E+00 -0.22001681435E+01  0.18125815161E+01  0.28573648814E+01  0.51100000000E-03 0.  1.
        -11    1    3    3    0    0  0.92159925326E+01 -0.98249413209E+01  0.62836151704E+01  0.14864313310E+02  0.51100000000E-03 0. -1.
         12    1    3    3    0    0  0.77009269793E+01 -0.21481369606E+02  0.16940458113E+02  0.28420637529E+02  0.00000000000E+00 0. -1.
</event>
<event>
 7    1  0.2313935E-008  0.4614232E+02  0.7816164E-02  0.1320468E+00
        -11   -1    0    0    0    0  0.00000000000E+00  0.00000000000E+00  0.45593999997E+02  0.45594000000E+02  0.51100000000E-03 0.  1.
         11   -1    0    0    0    0 -0.00000000000E+00 -0.00000000000E+00 -0.45593999997E+02  0.45594000000E+02  0.51100000000E-03 0. -1.
    9900012    2    1    2    0    0  0.34672035139E+02 -0.10604063387E+02  0.26730457969E+02  0.46142316919E+02  0.99999923193E+01 0.  0.
         12    1    1    2    0    0 -0.34672035139E+02  0.10604063387E+02 -0.26730457969E+02  0.45045683081E+02  0.00000000000E+00 0. -1.
         11    1    3    3    0    0  0.13048882633E+01 -0.27199785458E+01  0.33148001747E+01  0.44820661673E+01  0.51100000000E-03 0. -1.
        -11    1    3    3    0    0  0.13179555104E+02 -0.15096437606E+01  0.97342305408E+01  0.16454025085E+02  0.51100000000E-03 0.  1.
         12    1    3    3    0    0  0.20187591772E+02 -0.63744410808E+01  0.13681427254E+02  0.25206225666E+02  0.00000000000E+00 0. -1.
</event>
<event>
 7    1  0.2313935E-008  0.4614232E+02  0.7816164E-02  0.1320468E+00
        -11   -1    0    0    0    0  0.00000000000E+00  0.00000000000E+00  0.45593999997E+02  0.45594000000E+02  0.51100000000E-03 0.  1.
         11   -1    0    0    0    0 -0.00000000000E+00 -0.00000000000E+00 -0.45593999997E+02  0.45594000000E+02  0.51100000000E-03 0. -1.
    9900012    2    1    2    0    0 -0.31564450068E+01  0.97401837197E+01  0.43866605888E+02  0.46142318342E+02  0.10000005294E+02 0.  0.
         12    1    1    2    0    0  0.31564450068E+01 -0.97401837197E+01 -0.43866605888E+02  0.45045681658E+02  0.00000000000E+00 0. -1.
         11    1    3    3    0    0 -0.36886424219E+01  0.35423185767E+01  0.13139028109E+02  0.14099225642E+02  0.51100000000E-03 0. -1.
        -11    1    3    3    0    0  0.15270596137E+01  0.27259905825E+01  0.40153834896E+01  0.50878522531E+01  0.51100000000E-03 0.  1.
        -12    1    3    3    0    0 -0.99486219861E+00  0.34718745605E+01  0.26712194289E+02  0.26955240446E+02  0.00000000000E+00 0.  1.
</event>
<event>
 7    1  0.2313935E-008  0.4614232E+02  0.7816164E-02  0.1320468E+00
        -11   -1    0    0    0    0  0.00000000000E+00  0.00000000000E+00  0.45593999997E+02  0.45594000000E+02  0.51100000000E-03 0.  1.
         11   -1    0    0    0    0 -0.00000000000E+00 -0.00000000000E+00 -0.45593999997E+02  0.45594000000E+02  0.51100000000E-03 0. -1.
    9900012    2    1    2    0    0 -0.65633624605E+00  0.78532704018E+01  0.44350973200E+02  0.46142318108E+02  0.10000003167E+02 0.  0.
         12    1    1    2    0    0  0.65633624605E+00 -0.78532704018E+01 -0.44350973200E+02  0.45045681892E+02  0.00000000000E+00 0. -1.
         11    1    3    3    0    0  0.50833634789E+00 -0.11498017928E+01  0.31115430026E+01  0.33559127110E+01  0.51100000000E-03 0. -1.
        -11    1    3    3    0    0 -0.18602776829E+01 -0.44511424484E+00  0.77724481312E+01  0.80043556869E+01  0.51100000000E-03 0.  1.
        -12    1    3    3    0    0  0.69560508898E+00  0.94481864395E+01  0.33466982066E+02  0.34782049711E+02  0.00000000000E+00 0.  1.
</event>
<event>
 7    1  0.2313935E-008  0.4614232E+02  0.7816164E-02  0.1320468E+00
        -11   -1    0    0    0    0  0.00000000000E+00  0.00000000000E+00  0.45593999997E+02  0.45594000000E+02  0.51100000000E-03 0. -1.
         11   -1    0    0    0    0 -0.00000000000E+00 -0.00000000000E+00 -0.45593999997E+02  0.45594000000E+02  0.51100000000E-03 0.  1.
    9900012    2    1    2    0    0  0.33421932767E+02 -0.30186545628E+02  0.92753255647E+00  0.46142318259E+02  0.10000004539E+02 0.  0.
         12    1    1    2    0    0 -0.33421932767E+02  0.30186545628E+02 -0.92753255647E+00  0.45045681741E+02  0.00000000000E+00 0. -1.
         11    1    3    3    0    0  0.16823150942E+02 -0.16103731729E+02  0.14206395490E+01  0.23331669469E+02  0.51100000000E-03 0. -1.
        -11    1    3    3    0    0  0.77099754915E+01 -0.97495159005E+01  0.20560350589E+01  0.12598573840E+02  0.51100000000E-03 0.  1.
        -12    1    3    3    0    0  0.88888063336E+01 -0.43332979984E+01 -0.25491420515E+01  0.10212074950E+02  0.00000000000E+00 0.  1.
</event>
<event>
 7    1  0.2313935E-008  0.4614232E+02  0.7816164E-02  0.1320468E+00
        -11   -1    0    0    0    0  0.00000000000E+00  0.00000000000E+00  0.45593999997E+02  0.45594000000E+02  0.51100000000E-03 0.  1.
         11   -1    0    0    0    0 -0.00000000000E+00 -0.00000000000E+00 -0.45593999997E+02  0.45594000000E+02  0.51100000000E-03 0. -1.
    9900012    2    1    2    0    0 -0.15242066695E+02 -0.66237898098E+01  0.41867867496E+02  0.46142317440E+02  0.99999970731E+01 0.  0.
         12    1    1    2    0    0  0.15242066695E+02  0.66237898098E+01 -0.41867867496E+02  0.45045682560E+02  0.00000000000E+00 0. -1.
         11    1    3    3    0    0 -0.80088259331E+01 -0.88677108893E-01  0.13331565588E+02  0.15552485260E+02  0.51100000000E-03 0. -1.
        -11    1    3    3    0    0 -0.21319395545E+01 -0.62423481906E+00  0.22234752180E+01  0.31430363790E+01  0.51100000000E-03 0.  1.
        -12    1    3    3    0    0 -0.51013012075E+01 -0.59108778818E+01  0.26312826690E+02  0.27446795801E+02  0.00000000000E+00 0.  1.
</event>
<event>
 7    1  0.2313935E-008  0.4614232E+02  0.7816164E-02  0.1320468E+00
        -11   -1    0    0    0    0  0.00000000000E+00  0.00000000000E+00  0.45593999997E+02  0.45594000000E+02  0.51100000000E-03 0. -1.
         11   -1    0    0    0    0 -0.00000000000E+00 -0.00000000000E+00 -0.45593999997E+02  0.45594000000E+02  0.51100000000E-03 0.  1.
    9900012    2    1    2    0    0 -0.40895941085E+02 -0.62399933517E+01  0.17824084373E+02  0.46142317654E+02  0.99999990262E+01 0.  0.
         12    1    1    2    0    0  0.40895941085E+02  0.62399933517E+01 -0.17824084373E+02  0.45045682346E+02  0.00000000000E+00 0. -1.
         11    1    3    3    0    0 -0.20103710148E+01  0.48024364301E+00  0.27559962972E+00  0.20852292418E+01  0.51100000000E-03 0. -1.
        -11    1    3    3    0    0 -0.13802267416E+02  0.17512518208E+01  0.67575065862E+01  0.15467170532E+02  0.51100000000E-03 0.  1.
        -12    1    3    3    0    0 -0.25083302655E+02 -0.84714888155E+01  0.10790978157E+02  0.28589917880E+02  0.00000000000E+00 0.  1.
</event>
<event>
 7    1  0.2313935E-008  0.4614232E+02  0.7816164E-02  0.1320468E+00
        -11   -1    0    0    0    0  0.00000000000E+00  0.00000000000E+00  0.45593999997E+02  0.45594000000E+02  0.51100000000E-03 0.  1.
         11   -1    0    0    0    0 -0.00000000000E+00 -0.00000000000E+00 -0.45593999997E+02  0.45594000000E+02  0.51100000000E-03 0. -1.
    9900012    2    1    2    0    0  0.72657819928E+01 -0.43948761615E+02  0.66953938550E+01  0.46142317251E+02  0.99999953507E+01 0.  0.
         12    1    1    2    0    0 -0.72657819928E+01  0.43948761615E+02 -0.66953938550E+01  0.45045682749E+02  0.00000000000E+00 0. -1.
         11    1    3    3    0    0 -0.29599000796E+00 -0.44866376456E+01  0.21185912459E+01  0.49705086838E+01  0.51100000000E-03 0. -1.
        -11    1    3    3    0    0 -0.10237957961E+00 -0.16549455551E+02  0.38937707667E+01  0.17001659086E+02  0.51100000000E-03 0.  1.
         12    1    3    3    0    0  0.76641515804E+01 -0.22912668418E+02  0.68303184239E+00  0.24170149482E+02  0.00000000000E+00 0. -1.
</event>
<event>
 7    1  0.2313935E-008  0.4614232E+02  0.7816164E-02  0.1320468E+00
        -11   -1    0    0    0    0  0.00000000000E+00  0.00000000000E+00  0.45593999997E+02  0.45594000000E+02  0.51100000000E-03 0. -1.
         11   -1    0    0    0    0 -0.00000000000E+00 -0.00000000000E+00 -0.45593999997E+02  0.45594000000E+02  0.51100000000E-03 0.  1.
    9900012    2    1    2    0    0 -0.15661641428E+02 -0.14657944046E+02 -0.39610239717E+02  0.46142318450E+02  0.10000006283E+02 0.  0.
         12    1    1    2    0    0  0.15661641428E+02  0.14657944046E+02  0.39610239717E+02  0.45045681550E+02  0.00000000000E+00 0. -1.
         11    1    3    3    0    0 -0.93195940550E+00  0.88982933587E+00 -0.25242395312E+01  0.28341012777E+01  0.51100000000E-03 0. -1.
        -11    1    3    3    0    0 -0.11552194983E+02 -0.76752003087E+01 -0.23517825159E+02  0.27302930414E+02  0.51100000000E-03 0.  1.
        -12    1    3    3    0    0 -0.31774870391E+01 -0.78725730732E+01 -0.13568175027E+02  0.16005286759E+02  0.00000000000E+00 0.  1.
</event>
<event>
 7    1  0.2313935E-008  0.4614232E+02  0.7816164E-02  0.1320468E+00
        -11   -1    0    0    0    0  0.00000000000E+00  0.00000000000E+00  0.45593999997E+02  0.45594000000E+02  0.51100000000E-03 0.  1.
         11   -1    0    0    0    0 -0.00000000000E+00 -0.00000000000E+00 -0.45593999997E+02  0.45594000000E+02  0.51100000000E-03 0. -1.
    9900012    2    1    2    0    0  0.79210496268E+01  0.13751939731E+02  0.42157496334E+02  0.46142319067E+02  0.10000011909E+02 0.  0.
         12    1    1    2    0    0 -0.79210496268E+01 -0.13751939731E+02 -0.42157496334E+02  0.45045680933E+02  0.00000000000E+00 0. -1.
         11    1    3    3    0    0  0.11141440547E+01  0.33988796231E+01  0.15634027831E+02  0.16037971385E+02  0.51100000000E-03 0. -1.
        -11    1    3    3    0    0  0.51559690217E+01  0.52755380965E+01  0.21661746749E+02  0.22883325616E+02  0.51100000000E-03 0.  1.
         12    1    3    3    0    0  0.16509365504E+01  0.50775220110E+01  0.48617217544E+01  0.72210220663E+01  0.00000000000E+00 0. -1.
</event>
<event>
 7    1  0.2313935E-008  0.4614232E+02  0.7816164E-02  0.1320468E+00
        -11   -1    0    0    0    0  0.00000000000E+00  0.00000000000E+00  0.45593999997E+02  0.45594000000E+02  0.51100000000E-03 0.  1.
         11   -1    0    0    0    0 -0.00000000000E+00 -0.00000000000E+00 -0.45593999997E+02  0.45594000000E+02  0.51100000000E-03 0. -1.
    9900012    2    1    2    0    0 -0.73345781035E+01  0.19667544543E+02  0.39856055032E+02  0.46142317998E+02  0.10000002162E+02 0.  0.
         12    1    1    2    0    0  0.73345781035E+01 -0.19667544543E+02 -0.39856055032E+02  0.45045682002E+02  0.00000000000E+00 0. -1.
         11    1    3    3    0    0 -0.11247312364E+01  0.14389867805E+00  0.30018233951E+00  0.11729607333E+01  0.51100000000E-03 0. -1.
        -11    1    3    3    0    0 -0.51060953128E+01  0.95617230994E+01  0.25477849763E+02  0.27687896034E+02  0.51100000000E-03 0.  1.
        -12    1    3    3    0    0 -0.11037515543E+01  0.99619227654E+01  0.14078022929E+02  0.17281461231E+02  0.00000000000E+00 0.  1.
</event>
<event>
 7    1  0.2313935E-008  0.4614232E+02  0.7816164E-02  0.1320468E+00
        -11   -1    0    0    0    0  0.00000000000E+00  0.00000000000E+00  0.45593999997E+02  0.45594000000E+02  0.51100000000E-03 0.  1.
         11   -1    0    0    0    0 -0.00000000000E+00 -0.00000000000E+00 -0.45593999997E+02  0.45594000000E+02  0.51100000000E-03 0. -1.
    9900012    2    1    2    0    0 -0.32923467812E+02 -0.22114771830E+02  0.21356394654E+02  0.46142318093E+02  0.10000003023E+02 0.  0.
         12    1    1    2    0    0  0.32923467812E+02  0.22114771830E+02 -0.21356394654E+02  0.45045681907E+02  0.00000000000E+00 0. -1.
         11    1    3    3    0    0 -0.36339559214E+01 -0.17028918099E+01  0.10798545223E+01  0.41559069053E+01  0.51100000000E-03 0. -1.
        -11    1    3    3    0    0 -0.65878929760E+01 -0.51772127410E+01  0.79634142155E+00  0.84165328699E+01  0.51100000000E-03 0.  1.
        -12    1    3    3    0    0 -0.22701618915E+02 -0.15234667279E+02  0.19480198710E+02  0.33569878317E+02  0.00000000000E+00 0.  1.
</event>
<event>
 7    1  0.2313935E-008  0.4614232E+02  0.7816164E-02  0.1320468E+00
        -11   -1    0    0    0    0  0.00000000000E+00  0.00000000000E+00  0.45593999997E+02  0.45594000000E+02  0.51100000000E-03 0.  1.
         11   -1    0    0    0    0 -0.00000000000E+00 -0.00000000000E+00 -0.45593999997E+02  0.45594000000E+02  0.51100000000E-03 0. -1.
    9900012    2    1    2    0    0 -0.18149992342E+02  0.25677765775E+02  0.32254356278E+02  0.46142319008E+02  0.10000011368E+02 0.  0.
         12    1    1    2    0    0  0.18149992342E+02 -0.25677765775E+02 -0.32254356278E+02  0.45045680992E+02  0.00000000000E+00 0. -1.
         11    1    3    3    0    0 -0.90489996864E+01  0.14312113398E+02  0.16417630454E+02  0.23585155824E+02  0.51100000000E-03 0. -1.
        -11    1    3    3    0    0 -0.56957089746E+01  0.95874922212E+01  0.14885707807E+02  0.18599607657E+02  0.51100000000E-03 0.  1.
         12    1    3    3    0    0 -0.34052836805E+01  0.17781601554E+01  0.95101801657E+00  0.39575555272E+01  0.00000000000E+00 0. -1.
</event>
<event>
 7    1  0.2313935E-008  0.4614232E+02  0.7816164E-02  0.1320468E+00
        -11   -1    0    0    0    0  0.00000000000E+00  0.00000000000E+00  0.45593999997E+02  0.45594000000E+02  0.51100000000E-03 0.  1.
         11   -1    0    0    0    0 -0.00000000000E+00 -0.00000000000E+00 -0.45593999997E+02  0.45594000000E+02  0.51100000000E-03 0. -1.
    9900012    2    1    2    0    0 -0.70314125966E+01 -0.21065117135E+02  0.39190987057E+02  0.46142318858E+02  0.10000010003E+02 0.  0.
         12    1    1    2    0    0  0.70314125966E+01  0.21065117135E+02 -0.39190987057E+02  0.45045681142E+02  0.00000000000E+00 0. -1.
         11    1    3    3    0    0  0.46797237169E+00 -0.40184083551E+01  0.65441544242E+01  0.76936702059E+01  0.51100000000E-03 0. -1.
        -11    1    3    3    0    0 -0.79978785578E+01 -0.16274057279E+02  0.25768632073E+02  0.31509258972E+02  0.51100000000E-03 0.  1.
        -12    1    3    3    0    0  0.49849358957E+00 -0.77265150120E+00  0.68782005596E+01  0.69393896806E+01  0.00000000000E+00 0.  1.
</event>
<event>
 7    1  0.2313935E-008  0.4614232E+02  0.7816164E-02  0.1320468E+00
        -11   -1    0    0    0    0  0.00000000000E+00  0.00000000000E+00  0.45593999997E+02  0.45594000000E+02  0.51100000000E-03 0. -1.
         11   -1    0    0    0    0 -0.00000000000E+00 -0.00000000000E+00 -0.45593999997E+02  0.45594000000E+02  0.51100000000E-03 0.  1.
    9900012    2    1    2    0    0  0.44130760872E+02  0.90112598001E+01 -0.62186696874E+00  0.46142316779E+02  0.99999910422E+01 0.  0.
         12    1    1    2    0    0 -0.44130760872E+02 -0.90112598001E+01  0.62186696874E+00  0.45045683221E+02  0.00000000000E+00 0. -1.
         11    1    3    3    0    0  0.20711550498E+01  0.14105766156E+01  0.14738988337E+01  0.29071958417E+01  0.51100000000E-03 0. -1.
        -11    1    3    3    0    0  0.35484527440E+01  0.20100798449E+01 -0.14072731003E+01  0.43142039473E+01  0.51100000000E-03 0.  1.
        -12    1    3    3    0    0  0.38511153078E+02  0.55906033396E+01 -0.68849270214E+00  0.38920916990E+02  0.00000000000E+00 0.  1.
</event>
<event>
 7    1  0.2313935E-008  0.4614232E+02  0.7816164E-02  0.1320468E+00
        -11   -1    0    0    0    0  0.00000000000E+00  0.00000000000E+00  0.45593999997E+02  0.45594000000E+02  0.51100000000E-03 0.  1.
         11   -1    0    0    0    0 -0.00000000000E+00 -0.00000000000E+00 -0.45593999997E+02  0.45594000000E+02  0.51100000000E-03 0. -1.
    9900012    2    1    2    0    0  0.17848129203E+02  0.21073786366E+02  0.35587263208E+02  0.46142317737E+02  0.99999997817E+01 0.  0.
         12    1    1    2    0    0 -0.17848129203E+02 -0.21073786366E+02 -0.35587263208E+02  0.45045682263E+02  0.00000000000E+00 0. -1.
         11    1    3    3    0    0  0.51922977329E+01  0.85291185619E+01  0.85373660441E+01  0.13137444136E+02  0.51100000000E-03 0. -1.
        -11    1    3    3    0    0  0.94216951357E+01  0.87525979509E+01  0.13871175618E+02  0.18915227290E+02  0.51100000000E-03 0.  1.
        -12    1    3    3    0    0  0.32341363345E+01  0.37920698534E+01  0.13178721546E+02  0.14089646312E+02  0.00000000000E+00 0.  1.
</event>
<event>
 7    1  0.2313935E-008  0.4614232E+02  0.7816164E-02  0.1320468E+00
        -11   -1    0    0    0    0  0.00000000000E+00  0.00000000000E+00  0.45593999997E+02  0.45594000000E+02  0.51100000000E-03 0. -1.
         11   -1    0    0    0    0 -0.00000000000E+00 -0.00000000000E+00 -0.45593999997E+02  0.45594000000E+02  0.51100000000E-03 0.  1.
    9900012    2    1    2    0    0  0.34327137331E+00 -0.28459352312E+02 -0.34915044624E+02  0.46142324177E+02  0.10000058508E+02 0.  0.
         12    1    1    2    0    0 -0.34327137331E+00  0.28459352312E+02  0.34915044624E+02  0.45045675823E+02  0.00000000000E+00 0. -1.
         11    1    3    3    0    0  0.33358662737E+01 -0.89227727190E+01 -0.75925686508E+01  0.12181583467E+02  0.51100000000E-03 0. -1.
        -11    1    3    3    0    0 -0.78534383742E+00 -0.13661637252E+02 -0.16356208000E+02  0.21325633350E+02  0.51100000000E-03 0.  1.
        -12    1    3    3    0    0 -0.22072510630E+01 -0.58749423403E+01 -0.10966267973E+02  0.12635107361E+02  0.00000000000E+00 0.  1.
</event>
<event>
 7    1  0.2313935E-008  0.4614232E+02  0.7816164E-02  0.1320468E+00
        -11   -1    0    0    0    0  0.00000000000E+00  0.00000000000E+00  0.45593999997E+02  0.45594000000E+02  0.51100000000E-03 0.  1.
         11   -1    0    0    0    0 -0.00000000000E+00 -0.00000000000E+00 -0.45593999997E+02  0.45594000000E+02  0.51100000000E-03 0. -1.
    9900012    2    1    2    0    0  0.98984180662E+01 -0.42933489562E+02  0.93728442221E+01  0.46142318576E+02  0.10000007430E+02 0.  0.
         12    1    1    2    0    0 -0.98984180662E+01  0.42933489562E+02 -0.93728442221E+01  0.45045681424E+02  0.00000000000E+00 0. -1.
         11    1    3    3    0    0 -0.24919319068E+00 -0.72954561318E+01  0.24982955990E+01  0.77153910192E+01  0.51100000000E-03 0. -1.
        -11    1    3    3    0    0  0.98485981344E+01 -0.21542027383E+02  0.49314699930E+01  0.24194487503E+02  0.51100000000E-03 0.  1.
        -12    1    3    3    0    0  0.29901312243E+00 -0.14096006046E+02  0.19430786301E+01  0.14232440053E+02  0.00000000000E+00 0.  1.
</event>
<event>
 7    1  0.2313935E-008  0.4614232E+02  0.7816164E-02  0.1320468E+00
        -11   -1    0    0    0    0  0.00000000000E+00  0.00000000000E+00  0.45593999997E+02  0.45594000000E+02  0.51100000000E-03 0.  1.
         11   -1    0    0    0    0 -0.00000000000E+00 -0.00000000000E+00 -0.45593999997E+02  0.45594000000E+02  0.51100000000E-03 0. -1.
    9900012    2    1    2    0    0  0.78804014540E+01 -0.41952689961E+02  0.14386958430E+02  0.46142317689E+02  0.99999993384E+01 0.  0.
         12    1    1    2    0    0 -0.78804014540E+01  0.41952689961E+02 -0.14386958430E+02  0.45045682311E+02  0.00000000000E+00 0. -1.
         11    1    3    3    0    0  0.40974177153E+01 -0.48442312260E+01  0.22617875237E+01  0.67358066456E+01  0.51100000000E-03 0. -1.
        -11    1    3    3    0    0  0.45710987978E+01 -0.31262258498E+02  0.10319309115E+02  0.33237206433E+02  0.51100000000E-03 0.  1.
        -12    1    3    3    0    0 -0.78811505903E+00 -0.58462002371E+01  0.18058617906E+01  0.61693046096E+01  0.00000000000E+00 0.  1.
</event>
<event>
 7    1  0.2313935E-008  0.4614232E+02  0.7816164E-02  0.1320468E+00
        -11   -1    0    0    0    0  0.00000000000E+00  0.00000000000E+00  0.45593999997E+02  0.45594000000E+02  0.51100000000E-03 0.  1.
         11   -1    0    0    0    0 -0.00000000000E+00 -0.00000000000E+00 -0.45593999997E+02  0.45594000000E+02  0.51100000000E-03 0. -1.
    9900012    2    1    2    0    0 -0.16145518364E+02 -0.21234454408E+02  0.36297847839E+02  0.46142316799E+02  0.99999912274E+01 0.  0.
         12    1    1    2    0    0  0.16145518364E+02  0.21234454408E+02 -0.36297847839E+02  0.45045683201E+02  0.00000000000E+00 0. -1.
         11    1    3    3    0    0 -0.76753480746E+00 -0.32846412894E+00 -0.11491315529E-01  0.83494351673E+00  0.51100000000E-03 0. -1.
        -11    1    3    3    0    0 -0.10100643670E+02 -0.17402510083E+02  0.31397399834E+02  0.37291648882E+02  0.51100000000E-03 0.  1.
        -12    1    3    3    0    0 -0.52773398873E+01 -0.35034801966E+01  0.49119393204E+01  0.80157244003E+01  0.00000000000E+00 0.  1.
</event>
<event>
 7    1  0.2313935E-008  0.4614232E+02  0.7816164E-02  0.1320468E+00
        -11   -1    0    0    0    0  0.00000000000E+00  0.00000000000E+00  0.45593999997E+02  0.45594000000E+02  0.51100000000E-03 0. -1.
         11   -1    0    0    0    0 -0.00000000000E+00 -0.00000000000E+00 -0.45593999997E+02  0.45594000000E+02  0.51100000000E-03 0.  1.
    9900012    2    1    2    0    0 -0.32852845513E+02 -0.13064985286E+02 -0.27912545132E+02  0.46142317914E+02  0.10000001396E+02 0.  0.
         12    1    1    2    0    0  0.32852845513E+02  0.13064985286E+02  0.27912545132E+02  0.45045682086E+02  0.00000000000E+00 0. -1.
         11    1    3    3    0    0 -0.35401089949E+01 -0.31931327353E+01 -0.18662589409E+01  0.51197061494E+01  0.51100000000E-03 0. -1.
        -11    1    3    3    0    0 -0.14912845432E+02 -0.59919044822E+01 -0.17796667296E+02  0.23979517204E+02  0.51100000000E-03 0.  1.
        -12    1    3    3    0    0 -0.14399891086E+02 -0.38799480689E+01 -0.82496188944E+01  0.17043094561E+02  0.00000000000E+00 0.  1.
</event>
<event>
 7    1  0.2313935E-008  0.4614232E+02  0.7816164E-02  0.1320468E+00
        -11   -1    0    0    0    0  0.00000000000E+00  0.00000000000E+00  0.45593999997E+02  0.45594000000E+02  0.51100000000E-03 0. -1.
         11   -1    0    0    0    0 -0.00000000000E+00 -0.00000000000E+00 -0.45593999997E+02  0.45594000000E+02  0.51100000000E-03 0.  1.
    9900012    2    1    2    0    0 -0.41644582302E+01  0.44414690965E+02 -0.62534779636E+01  0.46142317937E+02  0.10000001606E+02 0.  0.
         12    1    1    2    0    0  0.41644582302E+01 -0.44414690965E+02  0.62534779636E+01  0.45045682063E+02  0.00000000000E+00 0. -1.
         11    1    3    3    0    0 -0.38145902965E+01  0.39247363555E+02 -0.46551626091E+01  0.39706135348E+02  0.51100000000E-03 0. -1.
        -11    1    3    3    0    0  0.97187023381E+00  0.24186613217E+01  0.60219944797E+00  0.26752754581E+01  0.51100000000E-03 0.  1.
         12    1    3    3    0    0 -0.13217381675E+01  0.27486660886E+01 -0.22005148025E+01  0.37609071307E+01  0.00000000000E+00 0. -1.
</event>
<event>
 7    1  0.2313935E-008  0.4614232E+02  0.7816164E-02  0.1320468E+00
        -11   -1    0    0    0    0  0.00000000000E+00  0.00000000000E+00  0.45593999997E+02  0.45594000000E+02  0.51100000000E-03 0. -1.
         11   -1    0    0    0    0 -0.00000000000E+00 -0.00000000000E+00 -0.45593999997E+02  0.45594000000E+02  0.51100000000E-03 0.  1.
    9900012    2    1    2    0    0  0.38580985296E+01  0.42330756751E+02 -0.14910918906E+02  0.46142318808E+02  0.10000009550E+02 0.  0.
         12    1    1    2    0    0 -0.38580985296E+01 -0.42330756751E+02  0.14910918906E+02  0.45045681192E+02  0.00000000000E+00 0. -1.
         11    1    3    3    0    0  0.87704410823E+00  0.62057034519E+01 -0.49587733737E+00  0.62869592249E+01  0.51100000000E-03 0. -1.
        -11    1    3    3    0    0  0.38899941452E+01  0.35928879387E+02 -0.13581723636E+02  0.38606730574E+02  0.51100000000E-03 0.  1.
        -12    1    3    3    0    0 -0.90893972386E+00  0.19617391240E+00 -0.83331793302E+00  0.12486290094E+01  0.00000000000E+00 0.  1.
</event>
<event>
 7    1  0.2313935E-008  0.4614232E+02  0.7816164E-02  0.1320468E+00
        -11   -1    0    0    0    0  0.00000000000E+00  0.00000000000E+00  0.45593999997E+02  0.45594000000E+02  0.51100000000E-03 0.  1.
         11   -1    0    0    0    0 -0.00000000000E+00 -0.00000000000E+00 -0.45593999997E+02  0.45594000000E+02  0.51100000000E-03 0. -1.
    9900012    2    1    2    0    0 -0.13888351749E+02  0.56339786776E+01  0.42479235966E+02  0.46142317429E+02  0.99999969685E+01 0.  0.
         12    1    1    2    0    0  0.13888351749E+02 -0.56339786776E+01 -0.42479235966E+02  0.45045682571E+02  0.00000000000E+00 0. -1.
         11    1    3    3    0    0 -0.98927780400E+01  0.69791762836E+01  0.22803359439E+02  0.25818000715E+02  0.51100000000E-03 0. -1.
        -11    1    3    3    0    0 -0.39242069926E+01 -0.19460129303E+01  0.15581305653E+02  0.16185285075E+02  0.51100000000E-03 0.  1.
         12    1    3    3    0    0 -0.71366716017E-01  0.60081532427E+00  0.40945708742E+01  0.41390316387E+01  0.00000000000E+00 0. -1.
</event>
<event>
 7    1  0.2313935E-008  0.4614232E+02  0.7816164E-02  0.1320468E+00
        -11   -1    0    0    0    0  0.00000000000E+00  0.00000000000E+00  0.45593999997E+02  0.45594000000E+02  0.51100000000E-03 0.  1.
         11   -1    0    0    0    0 -0.00000000000E+00 -0.00000000000E+00 -0.45593999997E+02  0.45594000000E+02  0.51100000000E-03 0. -1.
    9900012    2    1    2    0    0 -0.37281768513E+02 -0.14717599865E+02  0.20556644489E+02  0.46142316057E+02  0.99999844562E+01 0.  0.
         12    1    1    2    0    0  0.37281768513E+02  0.14717599865E+02 -0.20556644489E+02  0.45045683943E+02  0.00000000000E+00 0. -1.
         11    1    3    3    0    0 -0.34691094175E+02 -0.13190678045E+02  0.19154121642E+02  0.41765372960E+02  0.51100000000E-03 0. -1.
        -11    1    3    3    0    0 -0.18661990865E+01 -0.34682919349E+00  0.20964305620E+01  0.28280754732E+01  0.51100000000E-03 0.  1.
         12    1    3    3    0    0 -0.72447525213E+00 -0.11800926262E+01 -0.69390771505E+00  0.15488676232E+01  0.00000000000E+00 0. -1.
</event>
<event>
 7    1  0.2313935E-008  0.4614232E+02  0.7816164E-02  0.1320468E+00
        -11   -1    0    0    0    0  0.00000000000E+00  0.00000000000E+00  0.45593999997E+02  0.45594000000E+02  0.51100000000E-03 0.  1.
         11   -1    0    0    0    0 -0.00000000000E+00 -0.00000000000E+00 -0.45593999997E+02  0.45594000000E+02  0.51100000000E-03 0. -1.
    9900012    2    1    2    0    0 -0.34734257604E+02 -0.53985066383E+01  0.28169150262E+02  0.46142317057E+02  0.99999935838E+01 0.  0.
         12    1    1    2    0    0  0.34734257604E+02  0.53985066383E+01 -0.28169150262E+02  0.45045682943E+02  0.00000000000E+00 0. -1.
         11    1    3    3    0    0 -0.91855663463E+01 -0.35390052216E-02  0.48884150112E+01  0.10405346857E+02  0.51100000000E-03 0. -1.
        -11    1    3    3    0    0 -0.21723669274E+02 -0.18564091930E+01  0.17525959266E+02  0.27973618112E+02  0.51100000000E-03 0.  1.
         12    1    3    3    0    0 -0.38250219838E+01 -0.35385584401E+01  0.57547759855E+01  0.77633520887E+01  0.00000000000E+00 0. -1.
</event>
<event>
 7    1  0.2313935E-008  0.4614232E+02  0.7816164E-02  0.1320468E+00
        -11   -1    0    0    0    0  0.00000000000E+00  0.00000000000E+00  0.45593999997E+02  0.45594000000E+02  0.51100000000E-03 0.  1.
         11   -1    0    0    0    0 -0.00000000000E+00 -0.00000000000E+00 -0.45593999997E+02  0.45594000000E+02  0.51100000000E-03 0. -1.
    9900012    2    1    2    0    0 -0.26935769709E+00  0.35968703869E+02  0.27116292816E+02  0.46142317103E+02  0.99999939990E+01 0.  0.
         12    1    1    2    0    0  0.26935769709E+00 -0.35968703869E+02 -0.27116292816E+02  0.45045682897E+02  0.00000000000E+00 0. -1.
         11    1    3    3    0    0  0.18855550674E+01  0.10037805313E+02  0.47831702402E+01  0.11277924066E+02  0.51100000000E-03 0. -1.
        -11    1    3    3    0    0 -0.35029138531E+00  0.11286441845E+02  0.13757227930E+02  0.17797971630E+02  0.51100000000E-03 0.  1.
         12    1    3    3    0    0 -0.18046213792E+01  0.14644456711E+02  0.85758946454E+01  0.17066421407E+02  0.00000000000E+00 0. -1.
</event>
<event>
 7    1  0.2313935E-008  0.4614232E+02  0.7816164E-02  0.1320468E+00
        -11   -1    0    0    0    0  0.00000000000E+00  0.00000000000E+00  0.45593999997E+02  0.45594000000E+02  0.51100000000E-03 0.  1.
         11   -1    0    0    0    0 -0.00000000000E+00 -0.00000000000E+00 -0.45593999997E+02  0.45594000000E+02  0.51100000000E-03 0. -1.
    9900012    2    1    2    0    0  0.27453152737E+02 -0.35548088058E+02 -0.34309435538E+01  0.46142317261E+02  0.99999954385E+01 0.  0.
         12    1    1    2    0    0 -0.27453152737E+02  0.35548088058E+02  0.34309435538E+01  0.45045682739E+02  0.00000000000E+00 0. -1.
         11    1    3    3    0    0  0.52582510758E+01 -0.31281413594E+01 -0.18639017320E+01  0.63959833230E+01  0.51100000000E-03 0. -1.
        -11    1    3    3    0    0  0.13187439318E+02 -0.14881085040E+02 -0.22996470968E+01  0.20016084151E+02  0.51100000000E-03 0.  1.
         12    1    3    3    0    0  0.90074623430E+01 -0.17538861659E+02  0.73260527492E+00  0.19730249787E+02  0.00000000000E+00 0. -1.
</event>
<event>
 7    1  0.2313935E-008  0.4614232E+02  0.7816164E-02  0.1320468E+00
        -11   -1    0    0    0    0  0.00000000000E+00  0.00000000000E+00  0.45593999997E+02  0.45594000000E+02  0.51100000000E-03 0. -1.
         11   -1    0    0    0    0 -0.00000000000E+00 -0.00000000000E+00 -0.45593999997E+02  0.45594000000E+02  0.51100000000E-03 0.  1.
    9900012    2    1    2    0    0  0.40635155108E+02 -0.90763595652E+00 -0.19418388897E+02  0.46142318064E+02  0.10000002764E+02 0.  0.
         12    1    1    2    0    0 -0.40635155108E+02  0.90763595652E+00  0.19418388897E+02  0.45045681936E+02  0.00000000000E+00 0. -1.
         11    1    3    3    0    0  0.10181595581E+02 -0.44204137320E+01 -0.48162208972E+01  0.12099625206E+02  0.51100000000E-03 0. -1.
        -11    1    3    3    0    0  0.55059378659E+01 -0.15515859743E+00 -0.20689674173E+01  0.58838807269E+01  0.51100000000E-03 0.  1.
        -12    1    3    3    0    0  0.24947621661E+02  0.36679363729E+01 -0.12533200583E+02  0.28158812131E+02  0.00000000000E+00 0.  1.
</event>
<event>
 7    1  0.2313935E-008  0.4614232E+02  0.7816164E-02  0.1320468E+00
        -11   -1    0    0    0    0  0.00000000000E+00  0.00000000000E+00  0.45593999997E+02  0.45594000000E+02  0.51100000000E-03 0.  1.
         11   -1    0    0    0    0 -0.00000000000E+00 -0.00000000000E+00 -0.45593999997E+02  0.45594000000E+02  0.51100000000E-03 0. -1.
    9900012    2    1    2    0    0  0.35626135146E+02 -0.27289628977E+02 -0.38946296418E+01  0.46142317685E+02  0.99999993076E+01 0.  0.
         12    1    1    2    0    0 -0.35626135146E+02  0.27289628977E+02  0.38946296418E+01  0.45045682315E+02  0.00000000000E+00 0. -1.
         11    1    3    3    0    0  0.21987493841E+02 -0.19745353317E+02 -0.42693985979E+00  0.29555221889E+02  0.51100000000E-03 0. -1.
        -11    1    3    3    0    0  0.71436973893E+01 -0.62653241736E+01 -0.11398478344E+01  0.95700550018E+01  0.51100000000E-03 0.  1.
         12    1    3    3    0    0  0.64949439161E+01 -0.12789514869E+01 -0.23278419477E+01  0.70170407945E+01  0.00000000000E+00 0. -1.
</event>
<event>
 7    1  0.2313935E-008  0.4614232E+02  0.7816164E-02  0.1320468E+00
        -11   -1    0    0    0    0  0.00000000000E+00  0.00000000000E+00  0.45593999997E+02  0.45594000000E+02  0.51100000000E-03 0.  1.
         11   -1    0    0    0    0 -0.00000000000E+00 -0.00000000000E+00 -0.45593999997E+02  0.45594000000E+02  0.51100000000E-03 0. -1.
    9900012    2    1    2    0    0 -0.13515923516E+02  0.31739487049E+02  0.28966160574E+02  0.46142315578E+02  0.99999800916E+01 0.  0.
         12    1    1    2    0    0  0.13515923516E+02 -0.31739487049E+02 -0.28966160574E+02  0.45045684422E+02  0.00000000000E+00 0. -1.
         11    1    3    3    0    0  0.32684406232E+00  0.80566486620E+00  0.57346575261E+00  0.10415306756E+01  0.51100000000E-03 0. -1.
        -11    1    3    3    0    0 -0.42004885398E+01  0.17676788345E+02  0.11190653562E+02  0.21338783414E+02  0.51100000000E-03 0.  1.
         12    1    3    3    0    0 -0.96422790389E+01  0.13257033838E+02  0.17202041260E+02  0.23762001489E+02  0.00000000000E+00 0. -1.
</event>
<event>
 7    1  0.2313935E-008  0.4614232E+02  0.7816164E-02  0.1320468E+00
        -11   -1    0    0    0    0  0.00000000000E+00  0.00000000000E+00  0.45593999997E+02  0.45594000000E+02  0.51100000000E-03 0. -1.
         11   -1    0    0    0    0 -0.00000000000E+00 -0.00000000000E+00 -0.45593999997E+02  0.45594000000E+02  0.51100000000E-03 0.  1.
    9900012    2    1    2    0    0  0.44043702724E+01  0.41229063612E+02 -0.17603393397E+02  0.46142316267E+02  0.99999863793E+01 0.  0.
         12    1    1    2    0    0 -0.44043702724E+01 -0.41229063612E+02  0.17603393397E+02  0.45045683733E+02  0.00000000000E+00 0. -1.
         11    1    3    3    0    0 -0.61015180723E+00  0.23754989557E+02 -0.12805276421E+02  0.26993460663E+02  0.51100000000E-03 0. -1.
        -11    1    3    3    0    0  0.34697648313E+01  0.13413065168E+02 -0.51706856002E+01  0.14788021336E+02  0.51100000000E-03 0.  1.
         12    1    3    3    0    0  0.15447572484E+01  0.40610088874E+01  0.37256862451E+00  0.43608342688E+01  0.00000000000E+00 0. -1.
</event>
<event>
 7    1  0.2313935E-008  0.4614232E+02  0.7816164E-02  0.1320468E+00
        -11   -1    0    0    0    0  0.00000000000E+00  0.00000000000E+00  0.45593999997E+02  0.45594000000E+02  0.51100000000E-03 0.  1.
         11   -1    0    0    0    0 -0.00000000000E+00 -0.00000000000E+00 -0.45593999997E+02  0.45594000000E+02  0.51100000000E-03 0. -1.
    9900012    2    1    2    0    0 -0.29029878143E+02  0.13599600430E+02  0.31645386899E+02  0.46142317978E+02  0.10000001980E+02 0.  0.
         12    1    1    2    0    0  0.29029878143E+02 -0.13599600430E+02 -0.31645386899E+02  0.45045682022E+02  0.00000000000E+00 0. -1.
         11    1    3    3    0    0 -0.13050950092E+02  0.14454363122E+01  0.14324150798E+02  0.19431877952E+02  0.51100000000E-03 0. -1.
        -11    1    3    3    0    0 -0.43641826701E+01  0.22053803962E+01  0.28713858255E+01  0.56705070223E+01  0.51100000000E-03 0.  1.
        -12    1    3    3    0    0 -0.11614745381E+02  0.99487837215E+01  0.14449850276E+02  0.21039933003E+02  0.00000000000E+00 0.  1.
</event>
<event>
 7    1  0.2313935E-008  0.4614232E+02  0.7816164E-02  0.1320468E+00
        -11   -1    0    0    0    0  0.00000000000E+00  0.00000000000E+00  0.45593999997E+02  0.45594000000E+02  0.51100000000E-03 0. -1.
         11   -1    0    0    0    0 -0.00000000000E+00 -0.00000000000E+00 -0.45593999997E+02  0.45594000000E+02  0.51100000000E-03 0.  1.
    9900012    2    1    2    0    0 -0.50481911729E+00 -0.41258530107E+02 -0.18071867239E+02  0.46142317249E+02  0.99999953324E+01 0.  0.
         12    1    1    2    0    0  0.50481911729E+00  0.41258530107E+02  0.18071867239E+02  0.45045682751E+02  0.00000000000E+00 0. -1.
         11    1    3    3    0    0 -0.20303306178E+01 -0.18426495575E+02 -0.10581275540E+02  0.21345289267E+02  0.51100000000E-03 0. -1.
        -11    1    3    3    0    0 -0.14627961338E+01 -0.16883996305E+02 -0.47674841903E+01  0.17605056362E+02  0.51100000000E-03 0.  1.
         12    1    3    3    0    0  0.29883076343E+01 -0.59480382279E+01 -0.27231075093E+01  0.71919716201E+01  0.00000000000E+00 0. -1.
</event>
<event>
 7    1  0.2313935E-008  0.4614232E+02  0.7816164E-02  0.1320468E+00
        -11   -1    0    0    0    0  0.00000000000E+00  0.00000000000E+00  0.45593999997E+02  0.45594000000E+02  0.51100000000E-03 0.  1.
         11   -1    0    0    0    0 -0.00000000000E+00 -0.00000000000E+00 -0.45593999997E+02  0.45594000000E+02  0.51100000000E-03 0. -1.
    9900012    2    1    2    0    0 -0.46138717952E+01 -0.21797355506E+01  0.44755719441E+02  0.46142317825E+02  0.10000000578E+02 0.  0.
         12    1    1    2    0    0  0.46138717952E+01  0.21797355506E+01 -0.44755719441E+02  0.45045682175E+02  0.00000000000E+00 0. -1.
         11    1    3    3    0    0 -0.33250898924E+01  0.20167201600E+01  0.69477551929E+01  0.79620779623E+01  0.51100000000E-03 0. -1.
        -11    1    3    3    0    0 -0.59523343833E+00 -0.82295219312E+00  0.20921563369E+02  0.20946201738E+02  0.51100000000E-03 0.  1.
        -12    1    3    3    0    0 -0.69354846443E+00 -0.33735035174E+01  0.16886400878E+02  0.17234038125E+02  0.00000000000E+00 0.  1.
</event>
<event>
 7    1  0.2313935E-008  0.4614231E+02  0.7816164E-02  0.1320468E+00
        -11   -1    0    0    0    0  0.00000000000E+00  0.00000000000E+00  0.45593999997E+02  0.45594000000E+02  0.51100000000E-03 0.  1.
         11   -1    0    0    0    0 -0.00000000000E+00 -0.00000000000E+00 -0.45593999997E+02  0.45594000000E+02  0.51100000000E-03 0. -1.
    9900012    2    1    2    0    0 -0.41360585429E+02 -0.82056719614E+01  0.15845588886E+02  0.46142314674E+02  0.99999718475E+01 0.  0.
         12    1    1    2    0    0  0.41360585429E+02  0.82056719614E+01 -0.15845588886E+02  0.45045685326E+02  0.00000000000E+00 0. -1.
         11    1    3    3    0    0 -0.19416158138E+02 -0.14780985740E+01  0.11884342957E+02  0.22812487370E+02  0.51100000000E-03 0. -1.
        -11    1    3    3    0    0 -0.13980698754E+02 -0.42877609051E+01  0.31714001514E+01  0.14963375635E+02  0.51100000000E-03 0.  1.
         12    1    3    3    0    0 -0.79637285374E+01 -0.24398124823E+01  0.78984577708E+00  0.83664516683E+01  0.00000000000E+00 0. -1.
</event>
<event>
 7    1  0.2313935E-008  0.4614232E+02  0.7816164E-02  0.1320468E+00
        -11   -1    0    0    0    0  0.00000000000E+00  0.00000000000E+00  0.45593999997E+02  0.45594000000E+02  0.51100000000E-03 0.  1.
         11   -1    0    0    0    0 -0.00000000000E+00 -0.00000000000E+00 -0.45593999997E+02  0.45594000000E+02  0.51100000000E-03 0. -1.
    9900012    2    1    2    0    0 -0.14827675952E+02  0.41647752666E+02  0.86439744885E+01  0.46142316841E+02  0.99999916109E+01 0.  0.
         12    1    1    2    0    0  0.14827675952E+02 -0.41647752666E+02 -0.86439744885E+01  0.45045683159E+02  0.00000000000E+00 0. -1.
         11    1    3    3    0    0 -0.38629305303E+01  0.13344988661E+02  0.41268348905E+01  0.14492816190E+02  0.51100000000E-03 0.  1.
        -11    1    3    3    0    0 -0.11856040843E+02  0.27957506453E+02  0.44422911108E+01  0.30690744894E+02  0.51100000000E-03 0. -1.
         12    1    3    3    0    0  0.89129542200E+00  0.34525755269E+00  0.74848487136E-01  0.95875575774E+00  0.00000000000E+00 0. -1.
</event>
<event>
 7    1  0.2313935E-008  0.4614232E+02  0.7816164E-02  0.1320468E+00
        -11   -1    0    0    0    0  0.00000000000E+00  0.00000000000E+00  0.45593999997E+02  0.45594000000E+02  0.51100000000E-03 0.  1.
         11   -1    0    0    0    0 -0.00000000000E+00 -0.00000000000E+00 -0.45593999997E+02  0.45594000000E+02  0.51100000000E-03 0. -1.
    9900012    2    1    2    0    0  0.44993052671E+02  0.14347041417E+01 -0.16371525065E+01  0.46142318376E+02  0.10000005610E+02 0.  0.
         12    1    1    2    0    0 -0.44993052671E+02 -0.14347041417E+01  0.16371525065E+01  0.45045681624E+02  0.00000000000E+00 0. -1.
         11    1    3    3    0    0  0.19633525881E+02  0.24166508982E+01 -0.43287703330E+01  0.20249785010E+02  0.51100000000E-03 0. -1.
        -11    1    3    3    0    0  0.12237879012E+01  0.51814698419E+00  0.97713208882E+00  0.16495212956E+01  0.51100000000E-03 0.  1.
        -12    1    3    3    0    0  0.24135738888E+02 -0.15000937407E+01  0.17144857377E+01  0.24243012071E+02  0.00000000000E+00 0.  1.
</event>
<event>
 7    1  0.2313935E-008  0.4614232E+02  0.7816164E-02  0.1320468E+00
        -11   -1    0    0    0    0  0.00000000000E+00  0.00000000000E+00  0.45593999997E+02  0.45594000000E+02  0.51100000000E-03 0.  1.
         11   -1    0    0    0    0 -0.00000000000E+00 -0.00000000000E+00 -0.45593999997E+02  0.45594000000E+02  0.51100000000E-03 0. -1.
    9900012    2    1    2    0    0 -0.37499593126E+02 -0.51342061890E+01  0.24424043630E+02  0.46142318020E+02  0.10000002364E+02 0.  0.
         12    1    1    2    0    0  0.37499593126E+02  0.51342061890E+01 -0.24424043630E+02  0.45045681980E+02  0.00000000000E+00 0. -1.
         11    1    3    3    0    0 -0.44293178376E+00  0.34951376918E+00  0.27664115784E+01  0.28233635477E+01  0.51100000000E-03 0. -1.
        -11    1    3    3    0    0 -0.39192336886E+01 -0.53392630224E+00  0.15841662757E+01  0.42608746816E+01  0.51100000000E-03 0.  1.
         12    1    3    3    0    0 -0.33137427653E+02 -0.49497936560E+01  0.20073465775E+02  0.39058079791E+02  0.00000000000E+00 0. -1.
</event>
<event>
 7    1  0.2313935E-008  0.4614232E+02  0.7816164E-02  0.1320468E+00
        -11   -1    0    0    0    0  0.00000000000E+00  0.00000000000E+00  0.45593999997E+02  0.45594000000E+02  0.51100000000E-03 0.  1.
         11   -1    0    0    0    0 -0.00000000000E+00 -0.00000000000E+00 -0.45593999997E+02  0.45594000000E+02  0.51100000000E-03 0. -1.
    9900012    2    1    2    0    0 -0.27134455239E+02  0.15439657440E+02  0.32472326706E+02  0.46142315582E+02  0.99999801287E+01 0.  0.
         12    1    1    2    0    0  0.27134455239E+02 -0.15439657440E+02 -0.32472326706E+02  0.45045684418E+02  0.00000000000E+00 0. -1.
         11    1    3    3    0    0 -0.15389070515E+02  0.13183110544E+02  0.20341748776E+02  0.28712447448E+02  0.51100000000E-03 0. -1.
        -11    1    3    3    0    0 -0.89778187828E+01  0.30404006286E+00  0.99327231460E+01  0.13392261191E+02  0.51100000000E-03 0.  1.
         12    1    3    3    0    0 -0.27675659413E+01  0.19525068327E+01  0.21978547842E+01  0.40376069426E+01  0.00000000000E+00 0. -1.
</event>
<event>
 7    1  0.2313935E-008  0.4614232E+02  0.7816164E-02  0.1320468E+00
        -11   -1    0    0    0    0  0.00000000000E+00  0.00000000000E+00  0.45593999997E+02  0.45594000000E+02  0.51100000000E-03 0.  1.
         11   -1    0    0    0    0 -0.00000000000E+00 -0.00000000000E+00 -0.45593999997E+02  0.45594000000E+02  0.51100000000E-03 0. -1.
    9900012    2    1    2    0    0  0.19648933563E+02  0.36719514882E+02  0.17167122236E+02  0.46142318196E+02  0.10000003964E+02 0.  0.
         12    1    1    2    0    0 -0.19648933563E+02 -0.36719514882E+02 -0.17167122236E+02  0.45045681804E+02  0.00000000000E+00 0. -1.
         11    1    3    3    0    0  0.37555040468E+01  0.11432969633E+02  0.14596482879E+01  0.12122177142E+02  0.51100000000E-03 0. -1.
        -11    1    3    3    0    0  0.96328351632E+01  0.18671665455E+02  0.99678666137E+01  0.23254697789E+02  0.51100000000E-03 0.  1.
        -12    1    3    3    0    0  0.62605943528E+01  0.66148797934E+01  0.57396073348E+01  0.10765443265E+02  0.00000000000E+00 0.  1.
</event>
<event>
 7    1  0.2313935E-008  0.4614232E+02  0.7816164E-02  0.1320468E+00
        -11   -1    0    0    0    0  0.00000000000E+00  0.00000000000E+00  0.45593999997E+02  0.45594000000E+02  0.51100000000E-03 0.  1.
         11   -1    0    0    0    0 -0.00000000000E+00 -0.00000000000E+00 -0.45593999997E+02  0.45594000000E+02  0.51100000000E-03 0. -1.
    9900012    2    1    2    0    0  0.38597161209E+02 -0.21396177222E+01  0.23125628846E+02  0.46142317333E+02  0.99999960969E+01 0.  0.
         12    1    1    2    0    0 -0.38597161209E+02  0.21396177222E+01 -0.23125628846E+02  0.45045682667E+02  0.00000000000E+00 0. -1.
         11    1    3    3    0    0  0.17427393870E+02  0.10991273804E+01  0.12162498916E+02  0.21280237739E+02  0.51100000000E-03 0. -1.
        -11    1    3    3    0    0  0.12039329454E+02  0.92940236492E-01  0.87786742684E+01  0.14900309184E+02  0.51100000000E-03 0.  1.
        -12    1    3    3    0    0  0.91304378854E+01 -0.33316853390E+01  0.21844556620E+01  0.99617704108E+01  0.00000000000E+00 0.  1.
</event>
<event>
 7    1  0.2313935E-008  0.4614231E+02  0.7816164E-02  0.1320468E+00
        -11   -1    0    0    0    0  0.00000000000E+00  0.00000000000E+00  0.45593999997E+02  0.45594000000E+02  0.51100000000E-03 0.  1.
         11   -1    0    0    0    0 -0.00000000000E+00 -0.00000000000E+00 -0.45593999997E+02  0.45594000000E+02  0.51100000000E-03 0. -1.
    9900012    2    1    2    0    0 -0.17744679263E+02  0.32036765589E+02  0.26227580097E+02  0.46142312645E+02  0.99999533455E+01 0.  0.
         12    1    1    2    0    0  0.17744679263E+02 -0.32036765589E+02 -0.26227580097E+02  0.45045687355E+02  0.00000000000E+00 0. -1.
         11    1    3    3    0    0 -0.99425579611E+01  0.20012738148E+02  0.18907287158E+02  0.29271994379E+02  0.51100000000E-03 0.  1.
        -11    1    3    3    0    0 -0.54032518465E+01  0.11492494800E+02  0.56510800330E+01  0.13899901908E+02  0.51100000000E-03 0. -1.
        -12    1    3    3    0    0 -0.23988694557E+01  0.53153264063E+00  0.16692129062E+01  0.29704163579E+01  0.00000000000E+00 0.  1.
</event>
<event>
 7    1  0.2313935E-008  0.4614232E+02  0.7816164E-02  0.1320468E+00
        -11   -1    0    0    0    0  0.00000000000E+00  0.00000000000E+00  0.45593999997E+02  0.45594000000E+02  0.51100000000E-03 0. -1.
         11   -1    0    0    0    0 -0.00000000000E+00 -0.00000000000E+00 -0.45593999997E+02  0.45594000000E+02  0.51100000000E-03 0.  1.
    9900012    2    1    2    0    0 -0.12255061212E+02  0.43341494846E+02 -0.66466221555E+00  0.46142317891E+02  0.10000001182E+02 0.  0.
         12    1    1    2    0    0  0.12255061212E+02 -0.43341494846E+02  0.66466221555E+00  0.45045682109E+02  0.00000000000E+00 0. -1.
         11    1    3    3    0    0 -0.15721945187E+01  0.22887685005E+01 -0.21789358653E+01  0.35295918489E+01  0.51100000000E-03 0. -1.
        -11    1    3    3    0    0 -0.39931554624E+01  0.99133028718E+01 -0.50169482108E+00  0.10699091659E+02  0.51100000000E-03 0.  1.
        -12    1    3    3    0    0 -0.66897112311E+01  0.31139423474E+02  0.20159684708E+01  0.31913634383E+02  0.00000000000E+00 0.  1.
</event>
<event>
 7    1  0.2313935E-008  0.4614232E+02  0.7816164E-02  0.1320468E+00
        -11   -1    0    0    0    0  0.00000000000E+00  0.00000000000E+00  0.45593999997E+02  0.45594000000E+02  0.51100000000E-03 0.  1.
         11   -1    0    0    0    0 -0.00000000000E+00 -0.00000000000E+00 -0.45593999997E+02  0.45594000000E+02  0.51100000000E-03 0. -1.
    9900012    2    1    2    0    0  0.26815671366E+02  0.77524016715E+00  0.36186080081E+02  0.46142316303E+02  0.99999867029E+01 0.  0.
         12    1    1    2    0    0 -0.26815671366E+02 -0.77524016715E+00 -0.36186080081E+02  0.45045683697E+02  0.00000000000E+00 0. -1.
         11    1    3    3    0    0  0.77201856838E+01  0.33195558527E+01  0.15423224578E+02  0.17564070561E+02  0.51100000000E-03 0. -1.
        -11    1    3    3    0    0  0.11253761191E+01 -0.70503160986E+00  0.28218756073E+01  0.31187374344E+01  0.51100000000E-03 0.  1.
        -12    1    3    3    0    0  0.17970109563E+02 -0.18392840756E+01  0.17940979896E+02  0.25459508307E+02  0.00000000000E+00 0.  1.
</event>
<event>
 7    1  0.2313935E-008  0.4614232E+02  0.7816164E-02  0.1320468E+00
        -11   -1    0    0    0    0  0.00000000000E+00  0.00000000000E+00  0.45593999997E+02  0.45594000000E+02  0.51100000000E-03 0. -1.
         11   -1    0    0    0    0 -0.00000000000E+00 -0.00000000000E+00 -0.45593999997E+02  0.45594000000E+02  0.51100000000E-03 0.  1.
    9900012    2    1    2    0    0 -0.43649872822E+02  0.17034242944E+01 -0.10995475780E+02  0.46142317195E+02  0.99999948421E+01 0.  0.
         12    1    1    2    0    0  0.43649872822E+02 -0.17034242944E+01  0.10995475780E+02  0.45045682805E+02  0.00000000000E+00 0. -1.
         11    1    3    3    0    0 -0.20737877304E+02  0.35055271971E+01 -0.79581567601E+01  0.22487341668E+02  0.51100000000E-03 0. -1.
        -11    1    3    3    0    0 -0.23117335197E+02 -0.19512116525E+01 -0.30587408074E+01  0.23400305748E+02  0.51100000000E-03 0.  1.
         12    1    3    3    0    0  0.20533967966E+00  0.14910874984E+00  0.21421787343E-01  0.25466977892E+00  0.00000000000E+00 0. -1.
</event>
<event>
 7    1  0.2313935E-008  0.4614232E+02  0.7816164E-02  0.1320468E+00
        -11   -1    0    0    0    0  0.00000000000E+00  0.00000000000E+00  0.45593999997E+02  0.45594000000E+02  0.51100000000E-03 0.  1.
         11   -1    0    0    0    0 -0.00000000000E+00 -0.00000000000E+00 -0.45593999997E+02  0.45594000000E+02  0.51100000000E-03 0. -1.
    9900012    2    1    2    0    0 -0.51642062516E+01 -0.77159158872E+01  0.44078442145E+02  0.46142318230E+02  0.10000004279E+02 0.  0.
         12    1    1    2    0    0  0.51642062516E+01  0.77159158872E+01 -0.44078442145E+02  0.45045681770E+02  0.00000000000E+00 0. -1.
         11    1    3    3    0    0 -0.22173303407E+01  0.11927560460E+01  0.10637313502E+02  0.10931224068E+02  0.51100000000E-03 0. -1.
        -11    1    3    3    0    0 -0.11816926825E+01 -0.44768171939E+01  0.25732680699E+02  0.26145920255E+02  0.51100000000E-03 0.  1.
         12    1    3    3    0    0 -0.17651832284E+01 -0.44318547394E+01  0.77084479439E+01  0.90651739070E+01  0.00000000000E+00 0. -1.
</event>
<event>
 7    1  0.2313935E-008  0.4614232E+02  0.7816164E-02  0.1320468E+00
        -11   -1    0    0    0    0  0.00000000000E+00  0.00000000000E+00  0.45593999997E+02  0.45594000000E+02  0.51100000000E-03 0.  1.
         11   -1    0    0    0    0 -0.00000000000E+00 -0.00000000000E+00 -0.45593999997E+02  0.45594000000E+02  0.51100000000E-03 0. -1.
    9900012    2    1    2    0    0 -0.96693229905E+01 -0.17048980247E+02  0.40557983980E+02  0.46142316532E+02  0.99999887948E+01 0.  0.
         12    1    1    2    0    0  0.96693229905E+01  0.17048980247E+02 -0.40557983980E+02  0.45045683468E+02  0.00000000000E+00 0. -1.
         11    1    3    3    0    0 -0.12979132259E+01 -0.18162783500E+00  0.54834099907E+01  0.56378500157E+01  0.51100000000E-03 0. -1.
        -11    1    3    3    0    0  0.88411050031E+00 -0.55395410968E+01  0.10546314408E+02  0.11945413965E+02  0.51100000000E-03 0.  1.
         12    1    3    3    0    0 -0.92555202649E+01 -0.11327811315E+02  0.24528259581E+02  0.28559052552E+02  0.00000000000E+00 0. -1.
</event>
<event>
 7    1  0.2313935E-008  0.4614232E+02  0.7816164E-02  0.1320468E+00
        -11   -1    0    0    0    0  0.00000000000E+00  0.00000000000E+00  0.45593999997E+02  0.45594000000E+02  0.51100000000E-03 0. -1.
         11   -1    0    0    0    0 -0.00000000000E+00 -0.00000000000E+00 -0.45593999997E+02  0.45594000000E+02  0.51100000000E-03 0.  1.
    9900012    2    1    2    0    0  0.23978680093E+02 -0.11353185209E+02 -0.36403867633E+02  0.46142317721E+02  0.99999996335E+01 0.  0.
         12    1    1    2    0    0 -0.23978680093E+02  0.11353185209E+02  0.36403867633E+02  0.45045682279E+02  0.00000000000E+00 0. -1.
         11    1    3    3    0    0 -0.50556582123E+00 -0.11749988539E+00  0.20452992412E+00  0.55788509000E+00  0.51100000000E-03 0. -1.
        -11    1    3    3    0    0  0.10628245408E+02 -0.37573794897E+01 -0.17615639930E+02  0.20913829670E+02  0.51100000000E-03 0.  1.
         12    1    3    3    0    0  0.13856000506E+02 -0.74783058338E+01 -0.18992757627E+02  0.24670602961E+02  0.00000000000E+00 0. -1.
</event>
<event>
 7    1  0.2313935E-008  0.4614232E+02  0.7816164E-02  0.1320468E+00
        -11   -1    0    0    0    0  0.00000000000E+00  0.00000000000E+00  0.45593999997E+02  0.45594000000E+02  0.51100000000E-03 0.  1.
         11   -1    0    0    0    0 -0.00000000000E+00 -0.00000000000E+00 -0.45593999997E+02  0.45594000000E+02  0.51100000000E-03 0. -1.
    9900012    2    1    2    0    0 -0.21795179615E+02 -0.35126044646E+02  0.17895378310E+02  0.46142318389E+02  0.10000005729E+02 0.  0.
         12    1    1    2    0    0  0.21795179615E+02  0.35126044646E+02 -0.17895378310E+02  0.45045681611E+02  0.00000000000E+00 0. -1.
         11    1    3    3    0    0 -0.46241393817E+01 -0.34003863501E+01  0.28372791483E+01  0.64027685869E+01  0.51100000000E-03 0. -1.
        -11    1    3    3    0    0 -0.15854934862E+02 -0.27234917329E+02  0.15344817272E+02  0.35051149750E+02  0.51100000000E-03 0.  1.
         12    1    3    3    0    0 -0.13161053707E+01 -0.44907409667E+01 -0.28671811056E+00  0.46884000525E+01  0.00000000000E+00 0. -1.
</event>
<event>
 7    1  0.2313935E-008  0.4614232E+02  0.7816164E-02  0.1320468E+00
        -11   -1    0    0    0    0  0.00000000000E+00  0.00000000000E+00  0.45593999997E+02  0.45594000000E+02  0.51100000000E-03 0.  1.
         11   -1    0    0    0    0 -0.00000000000E+00 -0.00000000000E+00 -0.45593999997E+02  0.45594000000E+02  0.51100000000E-03 0. -1.
    9900012    2    1    2    0    0  0.16051177189E+02  0.88612064137E+01  0.41145502893E+02  0.46142315672E+02  0.99999809495E+01 0.  0.
         12    1    1    2    0    0 -0.16051177189E+02 -0.88612064137E+01 -0.41145502893E+02  0.45045684328E+02  0.00000000000E+00 0. -1.
         11    1    3    3    0    0  0.28125320270E+01 -0.67553261605E+00  0.12742977975E+02  0.13067140799E+02  0.51100000000E-03 0. -1.
        -11    1    3    3    0    0  0.10504654602E+02  0.53456952459E+01  0.21897781190E+02  0.24868394546E+02  0.51100000000E-03 0.  1.
         12    1    3    3    0    0  0.27339905591E+01  0.41910437839E+01  0.65047437284E+01  0.82067803277E+01  0.00000000000E+00 0. -1.
</event>
<event>
 7    1  0.2313935E-008  0.4614232E+02  0.7816164E-02  0.1320468E+00
        -11   -1    0    0    0    0  0.00000000000E+00  0.00000000000E+00  0.45593999997E+02  0.45594000000E+02  0.51100000000E-03 0. -1.
         11   -1    0    0    0    0 -0.00000000000E+00 -0.00000000000E+00 -0.45593999997E+02  0.45594000000E+02  0.51100000000E-03 0.  1.
    9900012    2    1    2    0    0 -0.36929755191E+02 -0.78800327610E+01 -0.24560372548E+02  0.46142316139E+02  0.99999852115E+01 0.  0.
         12    1    1    2    0    0  0.36929755191E+02  0.78800327610E+01  0.24560372548E+02  0.45045683861E+02  0.00000000000E+00 0. -1.
         11    1    3    3    0    0 -0.93664628376E+01 -0.14149797160E+01 -0.56016396984E+01  0.11005051624E+02  0.51100000000E-03 0. -1.
        -11    1    3    3    0    0 -0.17673822600E+02 -0.17754362594E+01 -0.74701863924E+01  0.19269661757E+02  0.51100000000E-03 0.  1.
         12    1    3    3    0    0 -0.98894697528E+01 -0.46896167856E+01 -0.11488546457E+02  0.15867602758E+02  0.00000000000E+00 0. -1.
</event>
<event>
 7    1  0.2313935E-008  0.4614232E+02  0.7816164E-02  0.1320468E+00
        -11   -1    0    0    0    0  0.00000000000E+00  0.00000000000E+00  0.45593999997E+02  0.45594000000E+02  0.51100000000E-03 0. -1.
         11   -1    0    0    0    0 -0.00000000000E+00 -0.00000000000E+00 -0.45593999997E+02  0.45594000000E+02  0.51100000000E-03 0.  1.
    9900012    2    1    2    0    0  0.16706144915E+02 -0.21549406096E+02 -0.35855842757E+02  0.46142316069E+02  0.99999845674E+01 0.  0.
         12    1    1    2    0    0 -0.16706144915E+02  0.21549406096E+02  0.35855842757E+02  0.45045683931E+02  0.00000000000E+00 0. -1.
         11    1    3    3    0    0  0.61372377429E+00  0.27115510181E+00 -0.29951580311E+01  0.30693898177E+01  0.51100000000E-03 0. -1.
        -11    1    3    3    0    0  0.12006155382E+02 -0.13265043313E+02 -0.25080409063E+02  0.30808051873E+02  0.51100000000E-03 0.  1.
         12    1    3    3    0    0  0.40862657591E+01 -0.85555178844E+01 -0.77802756625E+01  0.12264874378E+02  0.00000000000E+00 0. -1.
</event>
<event>
 7    1  0.2313935E-008  0.4614232E+02  0.7816164E-02  0.1320468E+00
        -11   -1    0    0    0    0  0.00000000000E+00  0.00000000000E+00  0.45593999997E+02  0.45594000000E+02  0.51100000000E-03 0. -1.
         11   -1    0    0    0    0 -0.00000000000E+00 -0.00000000000E+00 -0.45593999997E+02  0.45594000000E+02  0.51100000000E-03 0.  1.
    9900012    2    1    2    0    0  0.19482138339E+02 -0.13825092983E+02 -0.38189351984E+02  0.46142317463E+02  0.99999972800E+01 0.  0.
         12    1    1    2    0    0 -0.19482138339E+02  0.13825092983E+02  0.38189351984E+02  0.45045682537E+02  0.00000000000E+00 0. -1.
         11    1    3    3    0    0  0.82052497144E+01 -0.99599869117E+01 -0.20380566393E+02  0.24122498811E+02  0.51100000000E-03 0. -1.
        -11    1    3    3    0    0  0.35894308625E+00  0.43649921452E+00  0.13362084399E+00  0.58071205818E+00  0.51100000000E-03 0.  1.
        -12    1    3    3    0    0  0.10917945539E+02 -0.43016052862E+01 -0.17942406436E+02  0.21439106593E+02  0.00000000000E+00 0.  1.
</event>
<event>
 7    1  0.2313935E-008  0.4614232E+02  0.7816164E-02  0.1320468E+00
        -11   -1    0    0    0    0  0.00000000000E+00  0.00000000000E+00  0.45593999997E+02  0.45594000000E+02  0.51100000000E-03 0.  1.
         11   -1    0    0    0    0 -0.00000000000E+00 -0.00000000000E+00 -0.45593999997E+02  0.45594000000E+02  0.51100000000E-03 0. -1.
    9900012    2    1    2    0    0  0.40982329894E+02 -0.16719041988E+02 -0.83687282680E+01  0.46142319393E+02  0.10000014881E+02 0.  0.
         12    1    1    2    0    0 -0.40982329894E+02  0.16719041988E+02  0.83687282680E+01  0.45045680607E+02  0.00000000000E+00 0. -1.
         11    1    3    3    0    0  0.51311459113E+01 -0.50479556631E+01 -0.40981738837E+00  0.72096092330E+01  0.51100000000E-03 0. -1.
        -11    1    3    3    0    0  0.29831510889E+02 -0.11821665729E+02 -0.67724664378E+01  0.32795382670E+02  0.51100000000E-03 0.  1.
         12    1    3    3    0    0  0.60196730931E+01  0.15057940450E+00 -0.11864444418E+01  0.61373274900E+01  0.00000000000E+00 0. -1.
</event>
<event>
 7    1  0.2313935E-008  0.4614232E+02  0.7816164E-02  0.1320468E+00
        -11   -1    0    0    0    0  0.00000000000E+00  0.00000000000E+00  0.45593999997E+02  0.45594000000E+02  0.51100000000E-03 0.  1.
         11   -1    0    0    0    0 -0.00000000000E+00 -0.00000000000E+00 -0.45593999997E+02  0.45594000000E+02  0.51100000000E-03 0. -1.
    9900012    2    1    2    0    0  0.28719312686E+02 -0.91704391977E+01  0.33469651501E+02  0.46142318211E+02  0.10000004103E+02 0.  0.
         12    1    1    2    0    0 -0.28719312686E+02  0.91704391977E+01 -0.33469651501E+02  0.45045681789E+02  0.00000000000E+00 0. -1.
         11    1    3    3    0    0  0.47807485968E+01  0.27971465675E+00  0.10492355565E+02  0.11533573730E+02  0.51100000000E-03 0. -1.
        -11    1    3    3    0    0  0.36563306855E+01 -0.20778943766E+01  0.48996054946E+01  0.64569755603E+01  0.51100000000E-03 0.  1.
         12    1    3    3    0    0  0.20282233404E+02 -0.73722594778E+01  0.18077690442E+02  0.28151768921E+02  0.00000000000E+00 0. -1.
</event>
<event>
 7    1  0.2313935E-008  0.4614232E+02  0.7816164E-02  0.1320468E+00
        -11   -1    0    0    0    0  0.00000000000E+00  0.00000000000E+00  0.45593999997E+02  0.45594000000E+02  0.51100000000E-03 0.  1.
         11   -1    0    0    0    0 -0.00000000000E+00 -0.00000000000E+00 -0.45593999997E+02  0.45594000000E+02  0.51100000000E-03 0. -1.
    9900012    2    1    2    0    0  0.14301773406E+02 -0.19182211197E+02  0.38165632935E+02  0.46142317785E+02  0.10000000214E+02 0.  0.
         12    1    1    2    0    0 -0.14301773406E+02  0.19182211197E+02 -0.38165632935E+02  0.45045682215E+02  0.00000000000E+00 0. -1.
         11    1    3    3    0    0 -0.21033197500E+00  0.87655844982E+00  0.84813852620E+00  0.12377130024E+01  0.51100000000E-03 0. -1.
        -11    1    3    3    0    0  0.72699995122E+01 -0.84695462778E+01  0.14364447262E+02  0.18191301561E+02  0.51100000000E-03 0.  1.
        -12    1    3    3    0    0  0.72421058690E+01 -0.11589223369E+02  0.22953047146E+02  0.26713303221E+02  0.00000000000E+00 0.  1.
</event>
<event>
 7    1  0.2313935E-008  0.4614232E+02  0.7816164E-02  0.1320468E+00
        -11   -1    0    0    0    0  0.00000000000E+00  0.00000000000E+00  0.45593999997E+02  0.45594000000E+02  0.51100000000E-03 0. -1.
         11   -1    0    0    0    0 -0.00000000000E+00 -0.00000000000E+00 -0.45593999997E+02  0.45594000000E+02  0.51100000000E-03 0.  1.
    9900012    2    1    2    0    0 -0.27842787162E+02  0.22204716627E+02  0.27583386274E+02  0.46142318345E+02  0.10000005322E+02 0.  0.
         12    1    1    2    0    0  0.27842787162E+02 -0.22204716627E+02 -0.27583386274E+02  0.45045681655E+02  0.00000000000E+00 0. -1.
         11    1    3    3    0    0 -0.19213340709E+02  0.14237585509E+02  0.12922112655E+02  0.27181653704E+02  0.51100000000E-03 0. -1.
        -11    1    3    3    0    0 -0.43067532375E+00  0.13147595599E+01  0.10627017398E+01  0.17445369540E+01  0.51100000000E-03 0.  1.
        -12    1    3    3    0    0 -0.81987711286E+01  0.66523715580E+01  0.13598571880E+02  0.17216127687E+02  0.00000000000E+00 0.  1.
</event>
<event>
 7    1  0.2313935E-008  0.4614232E+02  0.7816164E-02  0.1320468E+00
        -11   -1    0    0    0    0  0.00000000000E+00  0.00000000000E+00  0.45593999997E+02  0.45594000000E+02  0.51100000000E-03 0.  1.
         11   -1    0    0    0    0 -0.00000000000E+00 -0.00000000000E+00 -0.45593999997E+02  0.45594000000E+02  0.51100000000E-03 0. -1.
    9900012    2    1    2    0    0  0.34102104648E+02  0.20535983343E+02  0.21081588076E+02  0.46142317531E+02  0.99999978999E+01 0.  0.
         12    1    1    2    0    0 -0.34102104648E+02 -0.20535983343E+02 -0.21081588076E+02  0.45045682469E+02  0.00000000000E+00 0. -1.
         11    1    3    3    0    0  0.13560433165E+02  0.96204853303E+01  0.50261764597E+01  0.17369557728E+02  0.51100000000E-03 0. -1.
        -11    1    3    3    0    0  0.17671484794E+02  0.84416748636E+01  0.11022975304E+02  0.22473300473E+02  0.51100000000E-03 0.  1.
         12    1    3    3    0    0  0.28701866891E+01  0.24738231488E+01  0.50324363130E+01  0.62994593297E+01  0.00000000000E+00 0. -1.
</event>
<event>
 7    1  0.2313935E-008  0.4614232E+02  0.7816164E-02  0.1320468E+00
        -11   -1    0    0    0    0  0.00000000000E+00  0.00000000000E+00  0.45593999997E+02  0.45594000000E+02  0.51100000000E-03 0.  1.
         11   -1    0    0    0    0 -0.00000000000E+00 -0.00000000000E+00 -0.45593999997E+02  0.45594000000E+02  0.51100000000E-03 0. -1.
    9900012    2    1    2    0    0  0.24512806820E+02 -0.26545109251E+02  0.26899681856E+02  0.46142318661E+02  0.10000008203E+02 0.  0.
         12    1    1    2    0    0 -0.24512806820E+02  0.26545109251E+02 -0.26899681856E+02  0.45045681339E+02  0.00000000000E+00 0. -1.
         11    1    3    3    0    0  0.16221046746E+01 -0.69357848450E+00  0.36267366470E+01  0.40330501679E+01  0.51100000000E-03 0. -1.
        -11    1    3    3    0    0  0.23149497885E+02 -0.25459524124E+02  0.23411506921E+02  0.41619530001E+02  0.51100000000E-03 0.  1.
        -12    1    3    3    0    0 -0.25879573925E+00 -0.39200664201E+00 -0.13856171162E+00  0.48973849141E+00  0.00000000000E+00 0.  1.
</event>
<event>
 7    1  0.2313935E-008  0.4614231E+02  0.7816164E-02  0.1320468E+00
        -11   -1    0    0    0    0  0.00000000000E+00  0.00000000000E+00  0.45593999997E+02  0.45594000000E+02  0.51100000000E-03 0.  1.
         11   -1    0    0    0    0 -0.00000000000E+00 -0.00000000000E+00 -0.45593999997E+02  0.45594000000E+02  0.51100000000E-03 0. -1.
    9900012    2    1    2    0    0 -0.15326115761E+02  0.10798944339E+02  0.40958598142E+02  0.46142314470E+02  0.99999699886E+01 0.  0.
         12    1    1    2    0    0  0.15326115761E+02 -0.10798944339E+02 -0.40958598142E+02  0.45045685530E+02  0.00000000000E+00 0. -1.
         11    1    3    3    0    0 -0.66509751940E+00  0.24437450374E+00  0.36610078303E+00  0.79756106528E+00  0.51100000000E-03 0. -1.
        -11    1    3    3    0    0 -0.58503235007E+01  0.94759405128E+01  0.19414355478E+02  0.22381620418E+02  0.51100000000E-03 0.  1.
        -12    1    3    3    0    0 -0.88106947407E+01  0.10786293220E+01  0.21178141881E+02  0.22963132987E+02  0.00000000000E+00 0.  1.
</event>
<event>
 7    1  0.2313935E-008  0.4614232E+02  0.7816164E-02  0.1320468E+00
        -11   -1    0    0    0    0  0.00000000000E+00  0.00000000000E+00  0.45593999997E+02  0.45594000000E+02  0.51100000000E-03 0.  1.
         11   -1    0    0    0    0 -0.00000000000E+00 -0.00000000000E+00 -0.45593999997E+02  0.45594000000E+02  0.51100000000E-03 0. -1.
    9900012    2    1    2    0    0  0.41505467698E+02 -0.22523655664E+01  0.17359047388E+02  0.46142317346E+02  0.99999962173E+01 0.  0.
         12    1    1    2    0    0 -0.41505467698E+02  0.22523655664E+01 -0.17359047388E+02  0.45045682654E+02  0.00000000000E+00 0. -1.
         11    1    3    3    0    0  0.65553760216E+01 -0.16372355524E+01  0.55945699985E+00  0.67798589538E+01  0.51100000000E-03 0. -1.
        -11    1    3    3    0    0  0.79572404471E+01 -0.15023807160E+01  0.12362283492E+01  0.81916472178E+01  0.51100000000E-03 0.  1.
         12    1    3    3    0    0  0.26992851230E+02  0.88725070196E+00  0.15563362039E+02  0.31170811175E+02  0.00000000000E+00 0. -1.
</event>
<event>
 7    1  0.2313935E-008  0.4614232E+02  0.7816164E-02  0.1320468E+00
        -11   -1    0    0    0    0  0.00000000000E+00  0.00000000000E+00  0.45593999997E+02  0.45594000000E+02  0.51100000000E-03 0.  1.
         11   -1    0    0    0    0 -0.00000000000E+00 -0.00000000000E+00 -0.45593999997E+02  0.45594000000E+02  0.51100000000E-03 0. -1.
    9900012    2    1    2    0    0 -0.13237008099E+02  0.41269002051E+02  0.12278623616E+02  0.46142317503E+02  0.99999976476E+01 0.  0.
         12    1    1    2    0    0  0.13237008099E+02 -0.41269002051E+02 -0.12278623616E+02  0.45045682497E+02  0.00000000000E+00 0. -1.
         11    1    3    3    0    0  0.10620844614E+00  0.20668331839E+01  0.34560180455E+00  0.20982184139E+01  0.51100000000E-03 0. -1.
        -11    1    3    3    0    0 -0.41787107088E+00  0.18801622212E+01 -0.13739782436E+01  0.23658915201E+01  0.51100000000E-03 0.  1.
        -12    1    3    3    0    0 -0.12925345475E+02  0.37322006646E+02  0.13307000055E+02  0.41678207569E+02  0.00000000000E+00 0.  1.
</event>
<event>
 7    1  0.2313935E-008  0.4614232E+02  0.7816164E-02  0.1320468E+00
        -11   -1    0    0    0    0  0.00000000000E+00  0.00000000000E+00  0.45593999997E+02  0.45594000000E+02  0.51100000000E-03 0.  1.
         11   -1    0    0    0    0 -0.00000000000E+00 -0.00000000000E+00 -0.45593999997E+02  0.45594000000E+02  0.51100000000E-03 0. -1.
    9900012    2    1    2    0    0 -0.15392265523E+02 -0.20893782322E+02  0.36819036879E+02  0.46142318139E+02  0.10000003443E+02 0.  0.
         12    1    1    2    0    0  0.15392265523E+02  0.20893782322E+02 -0.36819036879E+02  0.45045681861E+02  0.00000000000E+00 0. -1.
         11    1    3    3    0    0 -0.27311133716E+01 -0.75894653279E+00  0.57781823854E+01  0.64360214441E+01  0.51100000000E-03 0. -1.
        -11    1    3    3    0    0 -0.13459126041E+02 -0.17995379146E+02  0.28397440589E+02  0.36213207213E+02  0.51100000000E-03 0.  1.
        -12    1    3    3    0    0  0.79797388926E+00 -0.21394566428E+01  0.26434139048E+01  0.34930894816E+01  0.00000000000E+00 0.  1.
</event>
<event>
 7    1  0.2313935E-008  0.4614232E+02  0.7816164E-02  0.1320468E+00
        -11   -1    0    0    0    0  0.00000000000E+00  0.00000000000E+00  0.45593999997E+02  0.45594000000E+02  0.51100000000E-03 0.  1.
         11   -1    0    0    0    0 -0.00000000000E+00 -0.00000000000E+00 -0.45593999997E+02  0.45594000000E+02  0.51100000000E-03 0. -1.
    9900012    2    1    2    0    0 -0.33586115851E+02 -0.11417508887E+02  0.27761967430E+02  0.46142317380E+02  0.99999965216E+01 0.  0.
         12    1    1    2    0    0  0.33586115851E+02  0.11417508887E+02 -0.27761967430E+02  0.45045682620E+02  0.00000000000E+00 0. -1.
         11    1    3    3    0    0 -0.99175812847E+01 -0.76057012238E+01  0.66785705798E+01  0.14170688582E+02  0.51100000000E-03 0. -1.
        -11    1    3    3    0    0 -0.13403243977E+02 -0.27953090430E+01  0.12781158849E+02  0.18730155459E+02  0.51100000000E-03 0.  1.
         12    1    3    3    0    0 -0.10265290589E+02 -0.10164986200E+01  0.83022380017E+01  0.13241473338E+02  0.00000000000E+00 0. -1.
</event>
<event>
 7    1  0.2313935E-008  0.4614232E+02  0.7816164E-02  0.1320468E+00
        -11   -1    0    0    0    0  0.00000000000E+00  0.00000000000E+00  0.45593999997E+02  0.45594000000E+02  0.51100000000E-03 0.  1.
         11   -1    0    0    0    0 -0.00000000000E+00 -0.00000000000E+00 -0.45593999997E+02  0.45594000000E+02  0.51100000000E-03 0. -1.
    9900012    2    1    2    0    0  0.18507127745E+02 -0.14591452736E+02  0.38388659704E+02  0.46142318029E+02  0.10000002447E+02 0.  0.
         12    1    1    2    0    0 -0.18507127745E+02  0.14591452736E+02 -0.38388659704E+02  0.45045681971E+02  0.00000000000E+00 0. -1.
         11    1    3    3    0    0  0.87481283405E+01 -0.30060933768E+01  0.10777168307E+02  0.14202594968E+02  0.51100000000E-03 0. -1.
        -11    1    3    3    0    0  0.10318925289E+02 -0.11370870260E+02  0.27116592684E+02  0.31162260968E+02  0.51100000000E-03 0.  1.
        -12    1    3    3    0    0 -0.55992588476E+00 -0.21448909887E+00  0.49489871314E+00  0.77746209311E+00  0.00000000000E+00 0.  1.
</event>
<event>
 7    1  0.2313935E-008  0.4614232E+02  0.7816164E-02  0.1320468E+00
        -11   -1    0    0    0    0  0.00000000000E+00  0.00000000000E+00  0.45593999997E+02  0.45594000000E+02  0.51100000000E-03 0. -1.
         11   -1    0    0    0    0 -0.00000000000E+00 -0.00000000000E+00 -0.45593999997E+02  0.45594000000E+02  0.51100000000E-03 0.  1.
    9900012    2    1    2    0    0 -0.12978620786E+02 -0.43012845584E+02 -0.32502408688E+01  0.46142317095E+02  0.99999939215E+01 0.  0.
         12    1    1    2    0    0  0.12978620786E+02  0.43012845584E+02  0.32502408688E+01  0.45045682905E+02  0.00000000000E+00 0. -1.
         11    1    3    3    0    0 -0.94595985546E+01 -0.21207113265E+02 -0.32071445959E+01  0.23441660235E+02  0.51100000000E-03 0. -1.
        -11    1    3    3    0    0 -0.46224365702E+01 -0.19173378894E+02  0.75420991922E+00  0.19737127727E+02  0.51100000000E-03 0.  1.
        -12    1    3    3    0    0  0.11034143385E+01 -0.26323534255E+01 -0.79730619210E+00  0.29635291331E+01  0.00000000000E+00 0.  1.
</event>
<event>
 7    1  0.2313935E-008  0.4614231E+02  0.7816164E-02  0.1320468E+00
        -11   -1    0    0    0    0  0.00000000000E+00  0.00000000000E+00  0.45593999997E+02  0.45594000000E+02  0.51100000000E-03 0.  1.
         11   -1    0    0    0    0 -0.00000000000E+00 -0.00000000000E+00 -0.45593999997E+02  0.45594000000E+02  0.51100000000E-03 0. -1.
    9900012    2    1    2    0    0 -0.24723542424E+02 -0.20918662583E+02  0.31309261150E+02  0.46142313991E+02  0.99999656247E+01 0.  0.
         12    1    1    2    0    0  0.24723542424E+02  0.20918662583E+02 -0.31309261150E+02  0.45045686009E+02  0.00000000000E+00 0. -1.
         11    1    3    3    0    0 -0.13755379629E+02 -0.17251047383E+02  0.18922493553E+02  0.29066645267E+02  0.51100000000E-03 0. -1.
        -11    1    3    3    0    0 -0.35925636162E+01 -0.18293495906E+01  0.31682631407E+01  0.51274676841E+01  0.51100000000E-03 0.  1.
         12    1    3    3    0    0 -0.73755991784E+01 -0.18382656092E+01  0.92185044562E+01  0.11948201040E+02  0.00000000000E+00 0. -1.
</event>
<event>
 7    1  0.2313935E-008  0.4614232E+02  0.7816164E-02  0.1320468E+00
        -11   -1    0    0    0    0  0.00000000000E+00  0.00000000000E+00  0.45593999997E+02  0.45594000000E+02  0.51100000000E-03 0.  1.
         11   -1    0    0    0    0 -0.00000000000E+00 -0.00000000000E+00 -0.45593999997E+02  0.45594000000E+02  0.51100000000E-03 0. -1.
    9900012    2    1    2    0    0  0.16480478840E+02 -0.40299680453E+02  0.11551753879E+02  0.46142318241E+02  0.10000004377E+02 0.  0.
         12    1    1    2    0    0 -0.16480478840E+02  0.40299680453E+02 -0.11551753879E+02  0.45045681759E+02  0.00000000000E+00 0. -1.
         11    1    3    3    0    0  0.41248701778E+01 -0.68465280136E+01 -0.11245896109E+01  0.80718152779E+01  0.51100000000E-03 0. -1.
        -11    1    3    3    0    0  0.31240885393E+01 -0.13658943919E+02  0.58913774651E+01  0.15199835752E+02  0.51100000000E-03 0.  1.
         12    1    3    3    0    0  0.92315201227E+01 -0.19794208521E+02  0.67849660251E+01  0.22870667212E+02  0.00000000000E+00 0. -1.
</event>
<event>
 7    1  0.2313935E-008  0.4614232E+02  0.7816164E-02  0.1320468E+00
        -11   -1    0    0    0    0  0.00000000000E+00  0.00000000000E+00  0.45593999997E+02  0.45594000000E+02  0.51100000000E-03 0. -1.
         11   -1    0    0    0    0 -0.00000000000E+00 -0.00000000000E+00 -0.45593999997E+02  0.45594000000E+02  0.51100000000E-03 0.  1.
    9900012    2    1    2    0    0  0.35076182410E+02 -0.20248866598E+02  0.19716953462E+02  0.46142318467E+02  0.10000006437E+02 0.  0.
         12    1    1    2    0    0 -0.35076182410E+02  0.20248866598E+02 -0.19716953462E+02  0.45045681533E+02  0.00000000000E+00 0. -1.
         11    1    3    3    0    0  0.15557553408E+02 -0.87495874514E+01  0.48630447501E+01  0.18499782516E+02  0.51100000000E-03 0. -1.
        -11    1    3    3    0    0  0.27091650135E+01 -0.10425252156E+01  0.16494993540E-01  0.29028789574E+01  0.51100000000E-03 0.  1.
         12    1    3    3    0    0  0.16809463988E+02 -0.10456753931E+02  0.14837413718E+02  0.24739656994E+02  0.00000000000E+00 0. -1.
</event>
<event>
 7    1  0.2313935E-008  0.4614232E+02  0.7816164E-02  0.1320468E+00
        -11   -1    0    0    0    0  0.00000000000E+00  0.00000000000E+00  0.45593999997E+02  0.45594000000E+02  0.51100000000E-03 0. -1.
         11   -1    0    0    0    0 -0.00000000000E+00 -0.00000000000E+00 -0.45593999997E+02  0.45594000000E+02  0.51100000000E-03 0.  1.
    9900012    2    1    2    0    0 -0.30160307177E+02  0.68615893187E+01 -0.32747336874E+02  0.46142316419E+02  0.99999877588E+01 0.  0.
         12    1    1    2    0    0  0.30160307177E+02 -0.68615893187E+01  0.32747336874E+02  0.45045683581E+02  0.00000000000E+00 0. -1.
         11    1    3    3    0    0 -0.21715797914E+01 -0.12866199880E+01 -0.94429026483E+00  0.26949645915E+01  0.51100000000E-03 0. -1.
        -11    1    3    3    0    0 -0.15903480645E+02  0.26282844008E+01 -0.19897239008E+02  0.25607200080E+02  0.51100000000E-03 0.  1.
         12    1    3    3    0    0 -0.12085246740E+02  0.55199249058E+01 -0.11905807601E+02  0.17840151747E+02  0.00000000000E+00 0. -1.
</event>
<event>
 7    1  0.2313935E-008  0.4614232E+02  0.7816164E-02  0.1320468E+00
        -11   -1    0    0    0    0  0.00000000000E+00  0.00000000000E+00  0.45593999997E+02  0.45594000000E+02  0.51100000000E-03 0.  1.
         11   -1    0    0    0    0 -0.00000000000E+00 -0.00000000000E+00 -0.45593999997E+02  0.45594000000E+02  0.51100000000E-03 0. -1.
    9900012    2    1    2    0    0 -0.58754388012E+01 -0.19429985447E+02  0.40212788779E+02  0.46142317665E+02  0.99999991268E+01 0.  0.
         12    1    1    2    0    0  0.58754388012E+01  0.19429985447E+02 -0.40212788779E+02  0.45045682335E+02  0.00000000000E+00 0. -1.
         11    1    3    3    0    0 -0.63510501017E+01 -0.10769382341E+02  0.16793378145E+02  0.20936403301E+02  0.51100000000E-03 0. -1.
        -11    1    3    3    0    0  0.88947447372E+00 -0.88014821202E+00  0.15625956148E+01  0.20018818724E+01  0.51100000000E-03 0.  1.
         12    1    3    3    0    0 -0.41386317321E+00 -0.77804548939E+01  0.21856815020E+02  0.23204032492E+02  0.00000000000E+00 0. -1.
</event>
<event>
 7    1  0.2313935E-008  0.4614232E+02  0.7816164E-02  0.1320468E+00
        -11   -1    0    0    0    0  0.00000000000E+00  0.00000000000E+00  0.45593999997E+02  0.45594000000E+02  0.51100000000E-03 0.  1.
         11   -1    0    0    0    0 -0.00000000000E+00 -0.00000000000E+00 -0.45593999997E+02  0.45594000000E+02  0.51100000000E-03 0. -1.
    9900012    2    1    2    0    0 -0.30162693666E+02 -0.18926358799E+02  0.27588374301E+02  0.46142317153E+02  0.99999944537E+01 0.  0.
         12    1    1    2    0    0  0.30162693666E+02  0.18926358799E+02 -0.27588374301E+02  0.45045682847E+02  0.00000000000E+00 0. -1.
         11    1    3    3    0    0 -0.65210841108E+01 -0.33250259086E+01  0.15078737458E+01  0.74735546273E+01  0.51100000000E-03 0. -1.
        -11    1    3    3    0    0 -0.69127516911E+01 -0.26916012530E+01  0.68687362037E+01  0.10109915457E+02  0.51100000000E-03 0.  1.
        -12    1    3    3    0    0 -0.16728857864E+02 -0.12909731638E+02  0.19211764352E+02  0.28558847069E+02  0.00000000000E+00 0.  1.
</event>
<event>
 7    1  0.2313935E-008  0.4614232E+02  0.7816164E-02  0.1320468E+00
        -11   -1    0    0    0    0  0.00000000000E+00  0.00000000000E+00  0.45593999997E+02  0.45594000000E+02  0.51100000000E-03 0.  1.
         11   -1    0    0    0    0 -0.00000000000E+00 -0.00000000000E+00 -0.45593999997E+02  0.45594000000E+02  0.51100000000E-03 0. -1.
    9900012    2    1    2    0    0 -0.18725088596E+01  0.12734729078E+02  0.43167511839E+02  0.46142315495E+02  0.99999793383E+01 0.  0.
         12    1    1    2    0    0  0.18725088596E+01 -0.12734729078E+02 -0.43167511839E+02  0.45045684505E+02  0.00000000000E+00 0. -1.
         11    1    3    3    0    0  0.14840610329E+01  0.82430442641E+01  0.31785786067E+02  0.32870753141E+02  0.51100000000E-03 0. -1.
        -11    1    3    3    0    0 -0.17681609690E+01  0.38566655114E+01  0.10546539565E+02  0.11367926773E+02  0.51100000000E-03 0.  1.
         12    1    3    3    0    0 -0.15884089235E+01  0.63501930275E+00  0.83518620709E+00  0.19036355806E+01  0.00000000000E+00 0. -1.
</event>
<event>
 7    1  0.2313935E-008  0.4614232E+02  0.7816164E-02  0.1320468E+00
        -11   -1    0    0    0    0  0.00000000000E+00  0.00000000000E+00  0.45593999997E+02  0.45594000000E+02  0.51100000000E-03 0. -1.
         11   -1    0    0    0    0 -0.00000000000E+00 -0.00000000000E+00 -0.45593999997E+02  0.45594000000E+02  0.51100000000E-03 0.  1.
    9900012    2    1    2    0    0  0.37835143895E+02  0.19292969400E+02 -0.15013215352E+02  0.46142318553E+02  0.10000007224E+02 0.  0.
         12    1    1    2    0    0 -0.37835143895E+02 -0.19292969400E+02  0.15013215352E+02  0.45045681447E+02  0.00000000000E+00 0. -1.
         11    1    3    3    0    0  0.12404762706E+02  0.57882231595E+01 -0.32124018181E+01  0.14060625549E+02  0.51100000000E-03 0. -1.
        -11    1    3    3    0    0  0.12864472575E+02  0.11187400130E+02 -0.64231679640E+01  0.18218388053E+02  0.51100000000E-03 0.  1.
         12    1    3    3    0    0  0.12565908614E+02  0.23173461101E+01 -0.53776455701E+01  0.13863304951E+02  0.00000000000E+00 0. -1.
</event>
<event>
 7    1  0.2313935E-008  0.4614231E+02  0.7816164E-02  0.1320468E+00
        -11   -1    0    0    0    0  0.00000000000E+00  0.00000000000E+00  0.45593999997E+02  0.45594000000E+02  0.51100000000E-03 0.  1.
         11   -1    0    0    0    0 -0.00000000000E+00 -0.00000000000E+00 -0.45593999997E+02  0.45594000000E+02  0.51100000000E-03 0. -1.
    9900012    2    1    2    0    0 -0.31059720657E+02 -0.33005198010E+01  0.32457885569E+02  0.46142311928E+02  0.99999468133E+01 0.  0.
         12    1    1    2    0    0  0.31059720657E+02  0.33005198010E+01 -0.32457885569E+02  0.45045688072E+02  0.00000000000E+00 0. -1.
         11    1    3    3    0    0 -0.30956094169E+01  0.71143385139E+00  0.49044683984E+01  0.58431794700E+01  0.51100000000E-03 0. -1.
        -11    1    3    3    0    0 -0.10914148173E+02 -0.12477706854E+01  0.16397522931E+02  0.19737130505E+02  0.51100000000E-03 0.  1.
         12    1    3    3    0    0 -0.17049963067E+02 -0.27641829670E+01  0.11155894239E+02  0.20562001953E+02  0.00000000000E+00 0. -1.
</event>
<event>
 7    1  0.2313935E-008  0.4614232E+02  0.7816164E-02  0.1320468E+00
        -11   -1    0    0    0    0  0.00000000000E+00  0.00000000000E+00  0.45593999997E+02  0.45594000000E+02  0.51100000000E-03 0. -1.
         11   -1    0    0    0    0 -0.00000000000E+00 -0.00000000000E+00 -0.45593999997E+02  0.45594000000E+02  0.51100000000E-03 0.  1.
    9900012    2    1    2    0    0  0.24641770857E+02  0.88311971332E+01 -0.36659324707E+02  0.46142323162E+02  0.10000049250E+02 0.  0.
         12    1    1    2    0    0 -0.24641770857E+02 -0.88311971332E+01  0.36659324707E+02  0.45045676838E+02  0.00000000000E+00 0. -1.
         11    1    3    3    0    0  0.24468793195E+02  0.79389525520E+01 -0.30903269075E+02  0.40208964769E+02  0.51100000000E-03 0.  1.
        -11    1    3    3    0    0 -0.15949551011E+00 -0.22351788644E+00 -0.10223932036E+01  0.10586251400E+01  0.51100000000E-03 0. -1.
        -12    1    3    3    0    0  0.33247317238E+00  0.11157624677E+01 -0.47336624291E+01  0.48747332529E+01  0.00000000000E+00 0.  1.
</event>
<event>
 7    1  0.2313935E-008  0.4614232E+02  0.7816164E-02  0.1320468E+00
        -11   -1    0    0    0    0  0.00000000000E+00  0.00000000000E+00  0.45593999997E+02  0.45594000000E+02  0.51100000000E-03 0. -1.
         11   -1    0    0    0    0 -0.00000000000E+00 -0.00000000000E+00 -0.45593999997E+02  0.45594000000E+02  0.51100000000E-03 0.  1.
    9900012    2    1    2    0    0  0.23176561686E+02 -0.13885551541E+02 -0.36043750802E+02  0.46142317354E+02  0.99999962840E+01 0.  0.
         12    1    1    2    0    0 -0.23176561686E+02  0.13885551541E+02  0.36043750802E+02  0.45045682646E+02  0.00000000000E+00 0. -1.
         11    1    3    3    0    0  0.10469483227E+02 -0.93738537058E+01 -0.24459347109E+02  0.28208843890E+02  0.51100000000E-03 0. -1.
        -11    1    3    3    0    0  0.33559156153E+01 -0.18098939176E+01 -0.44800584016E+01  0.58829252208E+01  0.51100000000E-03 0.  1.
         12    1    3    3    0    0  0.93511628432E+01 -0.27018039175E+01 -0.71043452914E+01  0.12050548243E+02  0.00000000000E+00 0. -1.
</event>
<event>
 7    1  0.2313935E-008  0.4614232E+02  0.7816164E-02  0.1320468E+00
        -11   -1    0    0    0    0  0.00000000000E+00  0.00000000000E+00  0.45593999997E+02  0.45594000000E+02  0.51100000000E-03 0. -1.
         11   -1    0    0    0    0 -0.00000000000E+00 -0.00000000000E+00 -0.45593999997E+02  0.45594000000E+02  0.51100000000E-03 0.  1.
    9900012    2    1    2    0    0 -0.33145346827E+02  0.23552887015E+02 -0.19384555156E+02  0.46142317836E+02  0.10000000678E+02 0.  0.
         12    1    1    2    0    0  0.33145346827E+02 -0.23552887015E+02  0.19384555156E+02  0.45045682164E+02  0.00000000000E+00 0. -1.
         11    1    3    3    0    0 -0.72827134558E+01  0.61698882776E+01 -0.80841959654E+01  0.12508383641E+02  0.51100000000E-03 0. -1.
        -11    1    3    3    0    0 -0.81594598390E+01  0.72645376595E+01 -0.15580392768E+01  0.11035296957E+02  0.51100000000E-03 0.  1.
        -12    1    3    3    0    0 -0.17703173532E+02  0.10118461078E+02 -0.97423199141E+01  0.22598637238E+02  0.00000000000E+00 0.  1.
</event>
<event>
 7    1  0.2313935E-008  0.4614231E+02  0.7816164E-02  0.1320468E+00
        -11   -1    0    0    0    0  0.00000000000E+00  0.00000000000E+00  0.45593999997E+02  0.45594000000E+02  0.51100000000E-03 0. -1.
         11   -1    0    0    0    0 -0.00000000000E+00 -0.00000000000E+00 -0.45593999997E+02  0.45594000000E+02  0.51100000000E-03 0.  1.
    9900012    2    1    2    0    0 -0.29114890266E+02 -0.20296635518E+02 -0.27739565557E+02  0.46142314903E+02  0.99999739391E+01 0.  0.
         12    1    1    2    0    0  0.29114890266E+02  0.20296635518E+02  0.27739565557E+02  0.45045685097E+02  0.00000000000E+00 0. -1.
         11    1    3    3    0    0 -0.10686745584E+02 -0.71154706868E+01 -0.48881557355E+01  0.13737922733E+02  0.51100000000E-03 0. -1.
        -11    1    3    3    0    0 -0.16558306050E+02 -0.13074789914E+02 -0.21155263701E+02  0.29877630647E+02  0.51100000000E-03 0.  1.
        -12    1    3    3    0    0 -0.18698386316E+01 -0.10637491708E+00 -0.16961461205E+01  0.25267615229E+01  0.00000000000E+00 0.  1.
</event>
<event>
 7    1  0.2313935E-008  0.4614232E+02  0.7816164E-02  0.1320468E+00
        -11   -1    0    0    0    0  0.00000000000E+00  0.00000000000E+00  0.45593999997E+02  0.45594000000E+02  0.51100000000E-03 0.  1.
         11   -1    0    0    0    0 -0.00000000000E+00 -0.00000000000E+00 -0.45593999997E+02  0.45594000000E+02  0.51100000000E-03 0. -1.
    9900012    2    1    2    0    0  0.20619225341E+02 -0.27773555102E+02  0.28854647203E+02  0.46142317833E+02  0.10000000653E+02 0.  0.
         12    1    1    2    0    0 -0.20619225341E+02  0.27773555102E+02 -0.28854647203E+02  0.45045682167E+02  0.00000000000E+00 0. -1.
         11    1    3    3    0    0  0.54137890091E+01 -0.90259416743E+01  0.49470298764E+01  0.11629696445E+02  0.51100000000E-03 0. -1.
        -11    1    3    3    0    0  0.99149003121E+01 -0.98252275086E+01  0.10037773731E+02  0.17192941736E+02  0.51100000000E-03 0.  1.
         12    1    3    3    0    0  0.52905360199E+01 -0.89223859192E+01  0.13869843596E+02  0.17319679652E+02  0.00000000000E+00 0. -1.
</event>
<event>
 7    1  0.2313935E-008  0.4614232E+02  0.7816164E-02  0.1320468E+00
        -11   -1    0    0    0    0  0.00000000000E+00  0.00000000000E+00  0.45593999997E+02  0.45594000000E+02  0.51100000000E-03 0. -1.
         11   -1    0    0    0    0 -0.00000000000E+00 -0.00000000000E+00 -0.45593999997E+02  0.45594000000E+02  0.51100000000E-03 0.  1.
    9900012    2    1    2    0    0  0.44535494376E+02  0.52565636859E+01 -0.42510890473E+01  0.46142317863E+02  0.10000000928E+02 0.  0.
         12    1    1    2    0    0 -0.44535494376E+02 -0.52565636859E+01  0.42510890473E+01  0.45045682137E+02  0.00000000000E+00 0. -1.
         11    1    3    3    0    0  0.66645951362E+01 -0.49974711568E+00 -0.37186182164E+01  0.76481826083E+01  0.51100000000E-03 0. -1.
        -11    1    3    3    0    0  0.68151965594E+01 -0.59763124368E-01  0.85013823650E+00  0.68682756974E+01  0.51100000000E-03 0.  1.
         12    1    3    3    0    0  0.31055702681E+02  0.58160739260E+01 -0.13826090675E+01  0.31625859557E+02  0.00000000000E+00 0. -1.
</event>
<event>
 7    1  0.2313935E-008  0.4614232E+02  0.7816164E-02  0.1320468E+00
        -11   -1    0    0    0    0  0.00000000000E+00  0.00000000000E+00  0.45593999997E+02  0.45594000000E+02  0.51100000000E-03 0.  1.
         11   -1    0    0    0    0 -0.00000000000E+00 -0.00000000000E+00 -0.45593999997E+02  0.45594000000E+02  0.51100000000E-03 0. -1.
    9900012    2    1    2    0    0 -0.25901406754E+02  0.36847063524E+02 -0.72425151663E+00  0.46142317605E+02  0.99999985731E+01 0.  0.
         12    1    1    2    0    0  0.25901406754E+02 -0.36847063524E+02  0.72425151663E+00  0.45045682395E+02  0.00000000000E+00 0. -1.
         11    1    3    3    0    0 -0.19943649630E+01  0.83306192099E+01 -0.72143401531E+00  0.85963466266E+01  0.51100000000E-03 0. -1.
        -11    1    3    3    0    0 -0.13829426741E+01  0.38206908543E+01  0.64937272475E+00  0.41148383007E+01  0.51100000000E-03 0.  1.
        -12    1    3    3    0    0 -0.22524099117E+02  0.24695753460E+02 -0.65219022607E+00  0.33431132677E+02  0.00000000000E+00 0.  1.
</event>
<event>
 7    1  0.2313935E-008  0.4614232E+02  0.7816164E-02  0.1320468E+00
        -11   -1    0    0    0    0  0.00000000000E+00  0.00000000000E+00  0.45593999997E+02  0.45594000000E+02  0.51100000000E-03 0.  1.
         11   -1    0    0    0    0 -0.00000000000E+00 -0.00000000000E+00 -0.45593999997E+02  0.45594000000E+02  0.51100000000E-03 0. -1.
    9900012    2    1    2    0    0 -0.34764252218E+02  0.19297212461E+02  0.21170212813E+02  0.46142317060E+02  0.99999936029E+01 0.  0.
         12    1    1    2    0    0  0.34764252218E+02 -0.19297212461E+02 -0.21170212813E+02  0.45045682940E+02  0.00000000000E+00 0. -1.
         11    1    3    3    0    0 -0.27831711145E+01  0.25340853654E+01 -0.53365151073E+00  0.38016331080E+01  0.51100000000E-03 0. -1.
        -11    1    3    3    0    0 -0.19633676934E+02  0.11207840986E+02  0.15732326000E+02  0.27542749520E+02  0.51100000000E-03 0.  1.
        -12    1    3    3    0    0 -0.12347404170E+02  0.55552861103E+01  0.59715383238E+01  0.14797934432E+02  0.00000000000E+00 0.  1.
</event>
<event>
 7    1  0.2313935E-008  0.4614230E+02  0.7816164E-02  0.1320468E+00
        -11   -1    0    0    0    0  0.00000000000E+00  0.00000000000E+00  0.45593999997E+02  0.45594000000E+02  0.51100000000E-03 0. -1.
         11   -1    0    0    0    0 -0.00000000000E+00 -0.00000000000E+00 -0.45593999997E+02  0.45594000000E+02  0.51100000000E-03 0.  1.
    9900012    2    1    2    0    0  0.27665416252E+02  0.11172799706E+02  0.33747710907E+02  0.46142304300E+02  0.99998772455E+01 0.  0.
         12    1    1    2    0    0 -0.27665416252E+02 -0.11172799706E+02 -0.33747710907E+02  0.45045695700E+02  0.00000000000E+00 0. -1.
         11    1    3    3    0    0  0.90833472656E+00  0.91350145287E+00 -0.17547158003E+00  0.13001336148E+01  0.51100000000E-03 0. -1.
        -11    1    3    3    0    0  0.69438738264E+01  0.22200074389E+01  0.13123045103E+02  0.15011999527E+02  0.51100000000E-03 0.  1.
        -12    1    3    3    0    0  0.19813207699E+02  0.80392908144E+01  0.20800137384E+02  0.29830171158E+02  0.00000000000E+00 0.  1.
</event>
<event>
 7    1  0.2313935E-008  0.4614232E+02  0.7816164E-02  0.1320468E+00
        -11   -1    0    0    0    0  0.00000000000E+00  0.00000000000E+00  0.45593999997E+02  0.45594000000E+02  0.51100000000E-03 0.  1.
         11   -1    0    0    0    0 -0.00000000000E+00 -0.00000000000E+00 -0.45593999997E+02  0.45594000000E+02  0.51100000000E-03 0. -1.
    9900012    2    1    2    0    0  0.40239315720E+02 -0.26783956312E+01  0.20068312889E+02  0.46142317466E+02  0.99999973081E+01 0.  0.
         12    1    1    2    0    0 -0.40239315720E+02  0.26783956312E+01 -0.20068312889E+02  0.45045682534E+02  0.00000000000E+00 0. -1.
         11    1    3    3    0    0  0.16219607474E+02 -0.52671678534E+01  0.99471316055E+01  0.19742445422E+02  0.51100000000E-03 0. -1.
        -11    1    3    3    0    0  0.61913226153E+01  0.17777386730E+01  0.16771729252E+01  0.66562556891E+01  0.51100000000E-03 0.  1.
        -12    1    3    3    0    0  0.17828385631E+02  0.81103354928E+00  0.84440083585E+01  0.19743616355E+02  0.00000000000E+00 0.  1.
</event>
<event>
 7    1  0.2313935E-008  0.4614232E+02  0.7816164E-02  0.1320468E+00
        -11   -1    0    0    0    0  0.00000000000E+00  0.00000000000E+00  0.45593999997E+02  0.45594000000E+02  0.51100000000E-03 0. -1.
         11   -1    0    0    0    0 -0.00000000000E+00 -0.00000000000E+00 -0.45593999997E+02  0.45594000000E+02  0.51100000000E-03 0.  1.
    9900012    2    1    2    0    0 -0.36032990275E+02  0.26134788149E+02 -0.69072431705E+01  0.46142317099E+02  0.99999939656E+01 0.  0.
         12    1    1    2    0    0  0.36032990275E+02 -0.26134788149E+02  0.69072431705E+01  0.45045682901E+02  0.00000000000E+00 0. -1.
         11    1    3    3    0    0 -0.16651043691E+02  0.10787102891E+02 -0.35691035279E+01  0.20158307097E+02  0.51100000000E-03 0. -1.
        -11    1    3    3    0    0 -0.80851449648E+01  0.76827884945E+01 -0.50166328989E+01  0.12229530410E+02  0.51100000000E-03 0.  1.
         12    1    3    3    0    0 -0.11296801620E+02  0.76648967638E+01  0.16784932563E+01  0.13754479592E+02  0.00000000000E+00 0. -1.
</event>
<event>
 7    1  0.2313935E-008  0.4614232E+02  0.7816164E-02  0.1320468E+00
        -11   -1    0    0    0    0  0.00000000000E+00  0.00000000000E+00  0.45593999997E+02  0.45594000000E+02  0.51100000000E-03 0.  1.
         11   -1    0    0    0    0 -0.00000000000E+00 -0.00000000000E+00 -0.45593999997E+02  0.45594000000E+02  0.51100000000E-03 0. -1.
    9900012    2    1    2    0    0 -0.21404947242E+02  0.34432302627E+02 -0.19630547418E+02  0.46142316271E+02  0.99999864159E+01 0.  0.
         12    1    1    2    0    0  0.21404947242E+02 -0.34432302627E+02  0.19630547418E+02  0.45045683729E+02  0.00000000000E+00 0. -1.
         11    1    3    3    0    0 -0.17944205863E+01  0.66671723159E+00 -0.15926513102E+01  0.24901798257E+01  0.51100000000E-03 0. -1.
        -11    1    3    3    0    0 -0.16637821632E+02  0.22716636149E+02 -0.11070823614E+02  0.30256004401E+02  0.51100000000E-03 0.  1.
        -12    1    3    3    0    0 -0.29727050234E+01  0.11048949247E+02 -0.69670724943E+01  0.13396132044E+02  0.00000000000E+00 0.  1.
</event>
<event>
 7    1  0.2313935E-008  0.4614232E+02  0.7816164E-02  0.1320468E+00
        -11   -1    0    0    0    0  0.00000000000E+00  0.00000000000E+00  0.45593999997E+02  0.45594000000E+02  0.51100000000E-03 0.  1.
         11   -1    0    0    0    0 -0.00000000000E+00 -0.00000000000E+00 -0.45593999997E+02  0.45594000000E+02  0.51100000000E-03 0. -1.
    9900012    2    1    2    0    0 -0.14474593682E+02  0.11277690286E+02  0.41138952034E+02  0.46142317245E+02  0.99999952899E+01 0.  0.
         12    1    1    2    0    0  0.14474593682E+02 -0.11277690286E+02 -0.41138952034E+02  0.45045682755E+02  0.00000000000E+00 0. -1.
         11    1    3    3    0    0 -0.22265554433E+01  0.31333801720E+01  0.15101532453E+02  0.15583064626E+02  0.51100000000E-03 0. -1.
        -11    1    3    3    0    0 -0.10565432216E+02  0.64452105965E+01  0.25110269132E+02  0.27994547928E+02  0.51100000000E-03 0.  1.
         12    1    3    3    0    0 -0.16826060219E+01  0.16990995173E+01  0.92715044908E+00  0.25647046906E+01  0.00000000000E+00 0. -1.
</event>
<event>
 7    1  0.2313935E-008  0.4614232E+02  0.7816164E-02  0.1320468E+00
        -11   -1    0    0    0    0  0.00000000000E+00  0.00000000000E+00  0.45593999997E+02  0.45594000000E+02  0.51100000000E-03 0.  1.
         11   -1    0    0    0    0 -0.00000000000E+00 -0.00000000000E+00 -0.45593999997E+02  0.45594000000E+02  0.51100000000E-03 0. -1.
    9900012    2    1    2    0    0 -0.36690709189E+02 -0.17146202140E+02  0.19720879487E+02  0.46142317894E+02  0.10000001215E+02 0.  0.
         12    1    1    2    0    0  0.36690709189E+02  0.17146202140E+02 -0.19720879487E+02  0.45045682106E+02  0.00000000000E+00 0. -1.
         11    1    3    3    0    0 -0.15823476218E+02 -0.28858663131E+01  0.78204931886E+01  0.17884930471E+02  0.51100000000E-03 0. -1.
        -11    1    3    3    0    0 -0.81901123379E+01 -0.33330711857E+01  0.32791743008E+01  0.94308158710E+01  0.51100000000E-03 0.  1.
         12    1    3    3    0    0 -0.12677120633E+02 -0.10927264642E+02  0.86212119975E+01  0.18826571552E+02  0.00000000000E+00 0. -1.
</event>
<event>
 7    1  0.2313935E-008  0.4614232E+02  0.7816164E-02  0.1320468E+00
        -11   -1    0    0    0    0  0.00000000000E+00  0.00000000000E+00  0.45593999997E+02  0.45594000000E+02  0.51100000000E-03 0.  1.
         11   -1    0    0    0    0 -0.00000000000E+00 -0.00000000000E+00 -0.45593999997E+02  0.45594000000E+02  0.51100000000E-03 0. -1.
    9900012    2    1    2    0    0  0.23110367438E+02 -0.29802689138E+02  0.24633801368E+02  0.46142317267E+02  0.99999954981E+01 0.  0.
         12    1    1    2    0    0 -0.23110367438E+02  0.29802689138E+02 -0.24633801368E+02  0.45045682733E+02  0.00000000000E+00 0. -1.
         11    1    3    3    0    0  0.43696495437E+01 -0.35563063964E+01  0.17201582583E+01  0.58906788245E+01  0.51100000000E-03 0. -1.
        -11    1    3    3    0    0  0.30427841770E+01 -0.10066308853E+02  0.64558773307E+01  0.12339670248E+02  0.51100000000E-03 0.  1.
        -12    1    3    3    0    0  0.15697933718E+02 -0.16180073890E+02  0.16457765779E+02  0.27911968195E+02  0.00000000000E+00 0.  1.
</event>
<event>
 7    1  0.2313935E-008  0.4614232E+02  0.7816164E-02  0.1320468E+00
        -11   -1    0    0    0    0  0.00000000000E+00  0.00000000000E+00  0.45593999997E+02  0.45594000000E+02  0.51100000000E-03 0. -1.
         11   -1    0    0    0    0 -0.00000000000E+00 -0.00000000000E+00 -0.45593999997E+02  0.45594000000E+02  0.51100000000E-03 0.  1.
    9900012    2    1    2    0    0  0.26861822125E+02 -0.97927582140E+01 -0.34808875538E+02  0.46142318547E+02  0.10000007169E+02 0.  0.
         12    1    1    2    0    0 -0.26861822125E+02  0.97927582140E+01  0.34808875538E+02  0.45045681453E+02  0.00000000000E+00 0. -1.
         11    1    3    3    0    0  0.88512551605E+01 -0.53249409562E+01 -0.77713740105E+01  0.12926483218E+02  0.51100000000E-03 0. -1.
        -11    1    3    3    0    0  0.53670671469E+01 -0.39055891308E+01 -0.91903144901E+01  0.11336706616E+02  0.51100000000E-03 0.  1.
         12    1    3    3    0    0  0.12643499817E+02 -0.56222812709E+00 -0.17847187038E+02  0.21879128713E+02  0.00000000000E+00 0. -1.
</event>
<event>
 7    1  0.2313935E-008  0.4614231E+02  0.7816164E-02  0.1320468E+00
        -11   -1    0    0    0    0  0.00000000000E+00  0.00000000000E+00  0.45593999997E+02  0.45594000000E+02  0.51100000000E-03 0.  1.
         11   -1    0    0    0    0 -0.00000000000E+00 -0.00000000000E+00 -0.45593999997E+02  0.45594000000E+02  0.51100000000E-03 0. -1.
    9900012    2    1    2    0    0  0.14235966055E+02  0.23550671169E+02  0.35662550574E+02  0.46142308137E+02  0.99999122358E+01 0.  0.
         12    1    1    2    0    0 -0.14235966055E+02 -0.23550671169E+02 -0.35662550574E+02  0.45045691863E+02  0.00000000000E+00 0. -1.
         11    1    3    3    0    0  0.11788144228E+02  0.22253452578E+02  0.30685509810E+02  0.39696057846E+02  0.51100000000E-03 0. -1.
        -11    1    3    3    0    0  0.28920081135E+01  0.71684129343E+00  0.48678035529E+01  0.57072834220E+01  0.51100000000E-03 0.  1.
         12    1    3    3    0    0 -0.44418628675E+00  0.58037729707E+00  0.10923721153E+00  0.73896686846E+00  0.00000000000E+00 0. -1.
</event>
<event>
 7    1  0.2313935E-008  0.4614232E+02  0.7816164E-02  0.1320468E+00
        -11   -1    0    0    0    0  0.00000000000E+00  0.00000000000E+00  0.45593999997E+02  0.45594000000E+02  0.51100000000E-03 0. -1.
         11   -1    0    0    0    0 -0.00000000000E+00 -0.00000000000E+00 -0.45593999997E+02  0.45594000000E+02  0.51100000000E-03 0.  1.
    9900012    2    1    2    0    0 -0.22839991143E+02 -0.36378433697E+02 -0.13566793481E+02  0.46142317421E+02  0.99999968952E+01 0.  0.
         12    1    1    2    0    0  0.22839991143E+02  0.36378433697E+02  0.13566793481E+02  0.45045682579E+02  0.00000000000E+00 0. -1.
         11    1    3    3    0    0 -0.11331407774E+01 -0.38109400780E+01  0.13710526049E+01  0.42055983886E+01  0.51100000000E-03 0. -1.
        -11    1    3    3    0    0 -0.15162081004E+02 -0.21220170882E+02 -0.10296999940E+02  0.28039482175E+02  0.51100000000E-03 0.  1.
         12    1    3    3    0    0 -0.65447693614E+01 -0.11347322737E+02 -0.46408461460E+01  0.13897236857E+02  0.00000000000E+00 0. -1.
</event>
<event>
 7    1  0.2313935E-008  0.4614232E+02  0.7816164E-02  0.1320468E+00
        -11   -1    0    0    0    0  0.00000000000E+00  0.00000000000E+00  0.45593999997E+02  0.45594000000E+02  0.51100000000E-03 0. -1.
         11   -1    0    0    0    0 -0.00000000000E+00 -0.00000000000E+00 -0.45593999997E+02  0.45594000000E+02  0.51100000000E-03 0.  1.
    9900012    2    1    2    0    0  0.12015065179E+02 -0.32830658605E+02 -0.28405977463E+02  0.46142317728E+02  0.99999997006E+01 0.  0.
         12    1    1    2    0    0 -0.12015065179E+02  0.32830658605E+02  0.28405977463E+02  0.45045682272E+02  0.00000000000E+00 0. -1.
         11    1    3    3    0    0 -0.27510541772E+00 -0.54633574667E+01 -0.66095539862E+01  0.85796364700E+01  0.51100000000E-03 0. -1.
        -11    1    3    3    0    0  0.46522250725E+01 -0.75938160449E+01 -0.35263834761E+01  0.95783412411E+01  0.51100000000E-03 0.  1.
        -12    1    3    3    0    0  0.76379455238E+01 -0.19773485094E+02 -0.18270040000E+02  0.27984340017E+02  0.00000000000E+00 0.  1.
</event>
<event>
 7    1  0.2313935E-008  0.4614231E+02  0.7816164E-02  0.1320468E+00
        -11   -1    0    0    0    0  0.00000000000E+00  0.00000000000E+00  0.45593999997E+02  0.45594000000E+02  0.51100000000E-03 0.  1.
         11   -1    0    0    0    0 -0.00000000000E+00 -0.00000000000E+00 -0.45593999997E+02  0.45594000000E+02  0.51100000000E-03 0. -1.
    9900012    2    1    2    0    0  0.40359968188E+02  0.76130360410E+01  0.18499426835E+02  0.46142310493E+02  0.99999337254E+01 0.  0.
         12    1    1    2    0    0 -0.40359968188E+02 -0.76130360410E+01 -0.18499426835E+02  0.45045689507E+02  0.00000000000E+00 0. -1.
         11    1    3    3    0    0  0.11135475520E+02  0.22643236972E+01  0.87363012766E+01  0.14333490053E+02  0.51100000000E-03 0. -1.
        -11    1    3    3    0    0  0.97045435643E+01 -0.19830928774E+00  0.11894959785E+01  0.97791816278E+01  0.51100000000E-03 0.  1.
        -12    1    3    3    0    0  0.19519949104E+02  0.55470216315E+01  0.85736295795E+01  0.22029638812E+02  0.00000000000E+00 0.  1.
</event>
<event>
 7    1  0.2313935E-008  0.4614232E+02  0.7816164E-02  0.1320468E+00
        -11   -1    0    0    0    0  0.00000000000E+00  0.00000000000E+00  0.45593999997E+02  0.45594000000E+02  0.51100000000E-03 0.  1.
         11   -1    0    0    0    0 -0.00000000000E+00 -0.00000000000E+00 -0.45593999997E+02  0.45594000000E+02  0.51100000000E-03 0. -1.
    9900012    2    1    2    0    0 -0.34044246093E+02  0.24355881247E+02  0.16640132775E+02  0.46142315832E+02  0.99999824119E+01 0.  0.
         12    1    1    2    0    0  0.34044246093E+02 -0.24355881247E+02 -0.16640132775E+02  0.45045684168E+02  0.00000000000E+00 0. -1.
         11    1    3    3    0    0 -0.25945159229E+02  0.17203541194E+02  0.92708419353E+01  0.32481712201E+02  0.51100000000E-03 0. -1.
        -11    1    3    3    0    0 -0.80603291180E+01  0.73404920143E+01  0.63355403956E+01  0.12609155438E+02  0.51100000000E-03 0.  1.
        -12    1    3    3    0    0 -0.38757745630E-01 -0.18815196072E+00  0.10337504437E+01  0.10514481932E+01  0.00000000000E+00 0.  1.
</event>
<event>
 7    1  0.2313935E-008  0.4614232E+02  0.7816164E-02  0.1320468E+00
        -11   -1    0    0    0    0  0.00000000000E+00  0.00000000000E+00  0.45593999997E+02  0.45594000000E+02  0.51100000000E-03 0.  1.
         11   -1    0    0    0    0 -0.00000000000E+00 -0.00000000000E+00 -0.45593999997E+02  0.45594000000E+02  0.51100000000E-03 0. -1.
    9900012    2    1    2    0    0 -0.35897089688E+02  0.24168740497E+02  0.12505378595E+02  0.46142316976E+02  0.99999928438E+01 0.  0.
         12    1    1    2    0    0  0.35897089688E+02 -0.24168740497E+02 -0.12505378595E+02  0.45045683024E+02  0.00000000000E+00 0. -1.
         11    1    3    3    0    0 -0.17868157738E+02  0.96476571845E+01  0.99625831481E+01  0.22618607679E+02  0.51100000000E-03 0.  1.
        -11    1    3    3    0    0 -0.23377963817E+01  0.77680780542E+00 -0.25847370506E+00  0.24770004453E+01  0.51100000000E-03 0. -1.
        -12    1    3    3    0    0 -0.15691135568E+02  0.13744275508E+02  0.28012691518E+01  0.21046708852E+02  0.00000000000E+00 0.  1.
</event>
<event>
 7    1  0.2313935E-008  0.4614232E+02  0.7816164E-02  0.1320468E+00
        -11   -1    0    0    0    0  0.00000000000E+00  0.00000000000E+00  0.45593999997E+02  0.45594000000E+02  0.51100000000E-03 0. -1.
         11   -1    0    0    0    0 -0.00000000000E+00 -0.00000000000E+00 -0.45593999997E+02  0.45594000000E+02  0.51100000000E-03 0.  1.
    9900012    2    1    2    0    0  0.20294202011E+02 -0.39909488620E+02  0.49488961678E+01  0.46142317738E+02  0.99999997865E+01 0.  0.
         12    1    1    2    0    0 -0.20294202011E+02  0.39909488620E+02 -0.49488961678E+01  0.45045682262E+02  0.00000000000E+00 0. -1.
         11    1    3    3    0    0  0.59641797854E+01 -0.17218253742E+02  0.29955091216E+01  0.18466531282E+02  0.51100000000E-03 0.  1.
        -11    1    3    3    0    0  0.73176115871E+01 -0.10982416417E+02  0.41888268479E+01  0.13845836209E+02  0.51100000000E-03 0. -1.
         12    1    3    3    0    0  0.70124106385E+01 -0.11708818461E+02 -0.22354398017E+01  0.13829950247E+02  0.00000000000E+00 0. -1.
</event>
<event>
 7    1  0.2313935E-008  0.4614232E+02  0.7816164E-02  0.1320468E+00
        -11   -1    0    0    0    0  0.00000000000E+00  0.00000000000E+00  0.45593999997E+02  0.45594000000E+02  0.51100000000E-03 0.  1.
         11   -1    0    0    0    0 -0.00000000000E+00 -0.00000000000E+00 -0.45593999997E+02  0.45594000000E+02  0.51100000000E-03 0. -1.
    9900012    2    1    2    0    0  0.39978152708E+02 -0.16401077999E+02  0.12722634761E+02  0.46142317757E+02  0.99999999625E+01 0.  0.
         12    1    1    2    0    0 -0.39978152708E+02  0.16401077999E+02 -0.12722634761E+02  0.45045682243E+02  0.00000000000E+00 0. -1.
         11    1    3    3    0    0  0.15758477074E+02 -0.28199161711E+01  0.45590214106E+01  0.16645305747E+02  0.51100000000E-03 0. -1.
        -11    1    3    3    0    0  0.57383668474E+01 -0.80711660234E+00  0.77233372868E+00  0.58460919369E+01  0.51100000000E-03 0.  1.
        -12    1    3    3    0    0  0.18481308786E+02 -0.12774045225E+02  0.73912796213E+01  0.23650920073E+02  0.00000000000E+00 0.  1.
</event>
<event>
 7    1  0.2313935E-008  0.4614232E+02  0.7816164E-02  0.1320468E+00
        -11   -1    0    0    0    0  0.00000000000E+00  0.00000000000E+00  0.45593999997E+02  0.45594000000E+02  0.51100000000E-03 0.  1.
         11   -1    0    0    0    0 -0.00000000000E+00 -0.00000000000E+00 -0.45593999997E+02  0.45594000000E+02  0.51100000000E-03 0. -1.
    9900012    2    1    2    0    0 -0.10529350258E+01 -0.39967798790E+01  0.44855664016E+02  0.46142317455E+02  0.99999972129E+01 0.  0.
         12    1    1    2    0    0  0.10529350258E+01  0.39967798790E+01 -0.44855664016E+02  0.45045682545E+02  0.00000000000E+00 0. -1.
         11    1    3    3    0    0  0.21771869971E+01  0.80540704996E+00  0.17512395759E+02  0.17665583184E+02  0.51100000000E-03 0. -1.
        -11    1    3    3    0    0  0.12910759098E+01 -0.22127869778E+01  0.12080785682E+02  0.12349440723E+02  0.51100000000E-03 0.  1.
        -12    1    3    3    0    0 -0.45211979327E+01 -0.25893999512E+01  0.15262482575E+02  0.16127293549E+02  0.00000000000E+00 0.  1.
</event>
<event>
 7    1  0.2313935E-008  0.4614232E+02  0.7816164E-02  0.1320468E+00
        -11   -1    0    0    0    0  0.00000000000E+00  0.00000000000E+00  0.45593999997E+02  0.45594000000E+02  0.51100000000E-03 0.  1.
         11   -1    0    0    0    0 -0.00000000000E+00 -0.00000000000E+00 -0.45593999997E+02  0.45594000000E+02  0.51100000000E-03 0. -1.
    9900012    2    1    2    0    0  0.20185783437E+02 -0.33261278993E+02  0.22700990434E+02  0.46142317634E+02  0.99999988394E+01 0.  0.
         12    1    1    2    0    0 -0.20185783437E+02  0.33261278993E+02 -0.22700990434E+02  0.45045682366E+02  0.00000000000E+00 0. -1.
         11    1    3    3    0    0  0.56030553498E+01 -0.54848239313E+01  0.42897841788E+01  0.89375483983E+01  0.51100000000E-03 0. -1.
        -11    1    3    3    0    0  0.89765375707E+01 -0.17052313267E+02  0.68033231430E+01  0.20436360257E+02  0.51100000000E-03 0.  1.
        -12    1    3    3    0    0  0.56061905160E+01 -0.10724141794E+02  0.11607883112E+02  0.16768408978E+02  0.00000000000E+00 0.  1.
</event>
<event>
 7    1  0.2313935E-008  0.4614232E+02  0.7816164E-02  0.1320468E+00
        -11   -1    0    0    0    0  0.00000000000E+00  0.00000000000E+00  0.45593999997E+02  0.45594000000E+02  0.51100000000E-03 0. -1.
         11   -1    0    0    0    0 -0.00000000000E+00 -0.00000000000E+00 -0.45593999997E+02  0.45594000000E+02  0.51100000000E-03 0.  1.
    9900012    2    1    2    0    0 -0.33626948192E+02 -0.24892403125E+02 -0.16694614612E+02  0.46142317243E+02  0.99999952718E+01 0.  0.
         12    1    1    2    0    0  0.33626948192E+02  0.24892403125E+02  0.16694614612E+02  0.45045682757E+02  0.00000000000E+00 0. -1.
         11    1    3    3    0    0 -0.32973840092E+02 -0.24944890145E+02 -0.16732664471E+02  0.44603853369E+02  0.51100000000E-03 0.  1.
        -11    1    3    3    0    0 -0.67249067148E+00  0.13917087742E+00 -0.58925935730E+00  0.90489728016E+00  0.51100000000E-03 0. -1.
        -12    1    3    3    0    0  0.19382571685E-01 -0.86683856950E-01  0.62730921661E+00  0.63356659349E+00  0.00000000000E+00 0.  1.
</event>
<event>
 7    1  0.2313935E-008  0.4614232E+02  0.7816164E-02  0.1320468E+00
        -11   -1    0    0    0    0  0.00000000000E+00  0.00000000000E+00  0.45593999997E+02  0.45594000000E+02  0.51100000000E-03 0.  1.
         11   -1    0    0    0    0 -0.00000000000E+00 -0.00000000000E+00 -0.45593999997E+02  0.45594000000E+02  0.51100000000E-03 0. -1.
    9900012    2    1    2    0    0  0.19054618063E+02  0.40738156978E+02  0.25372371672E+01  0.46142317899E+02  0.10000001254E+02 0.  0.
         12    1    1    2    0    0 -0.19054618063E+02 -0.40738156978E+02 -0.25372371672E+01  0.45045682101E+02  0.00000000000E+00 0. -1.
         11    1    3    3    0    0  0.98758555203E+00  0.28537504251E+01  0.29533742007E+00  0.30342117863E+01  0.51100000000E-03 0. -1.
        -11    1    3    3    0    0  0.39491494650E+01  0.18670730116E+02  0.26164878247E+01  0.19262345479E+02  0.51100000000E-03 0.  1.
         12    1    3    3    0    0  0.14117883046E+02  0.19213676438E+02 -0.37458807762E+00  0.23845760633E+02  0.00000000000E+00 0. -1.
</event>
<event>
 7    1  0.2313935E-008  0.4614232E+02  0.7816164E-02  0.1320468E+00
        -11   -1    0    0    0    0  0.00000000000E+00  0.00000000000E+00  0.45593999997E+02  0.45594000000E+02  0.51100000000E-03 0. -1.
         11   -1    0    0    0    0 -0.00000000000E+00 -0.00000000000E+00 -0.45593999997E+02  0.45594000000E+02  0.51100000000E-03 0.  1.
    9900012    2    1    2    0    0  0.44455308813E+02 -0.60594412166E+01 -0.40152357310E+01  0.46142318436E+02  0.10000006158E+02 0.  0.
         12    1    1    2    0    0 -0.44455308813E+02  0.60594412166E+01  0.40152357310E+01  0.45045681564E+02  0.00000000000E+00 0. -1.
         11    1    3    3    0    0  0.94890099866E-01  0.62278956014E-01 -0.82109730755E+00  0.82890521111E+00  0.51100000000E-03 0. -1.
        -11    1    3    3    0    0  0.17467233639E+02 -0.41430532240E+01  0.11997651310E+01  0.17991903113E+02  0.51100000000E-03 0.  1.
         12    1    3    3    0    0  0.26893185075E+02 -0.19786669485E+01 -0.43939035544E+01  0.27321510112E+02  0.00000000000E+00 0. -1.
</event>
<event>
 7    1  0.2313935E-008  0.4614232E+02  0.7816164E-02  0.1320468E+00
        -11   -1    0    0    0    0  0.00000000000E+00  0.00000000000E+00  0.45593999997E+02  0.45594000000E+02  0.51100000000E-03 0.  1.
         11   -1    0    0    0    0 -0.00000000000E+00 -0.00000000000E+00 -0.45593999997E+02  0.45594000000E+02  0.51100000000E-03 0. -1.
    9900012    2    1    2    0    0 -0.28367512179E+02  0.25228312829E+02  0.24247263777E+02  0.46142319673E+02  0.10000017436E+02 0.  0.
         12    1    1    2    0    0  0.28367512179E+02 -0.25228312829E+02 -0.24247263777E+02  0.45045680327E+02  0.00000000000E+00 0. -1.
         11    1    3    3    0    0 -0.17654838101E+02  0.14057366229E+02  0.10807413348E+02  0.25022051019E+02  0.51100000000E-03 0. -1.
        -11    1    3    3    0    0 -0.11051319385E+02  0.11352295819E+02  0.12773555117E+02  0.20351166824E+02  0.51100000000E-03 0.  1.
         12    1    3    3    0    0  0.33864530747E+00 -0.18134921758E+00  0.66629531153E+00  0.76910183016E+00  0.00000000000E+00 0. -1.
</event>
<event>
 7    1  0.2313935E-008  0.4614232E+02  0.7816164E-02  0.1320468E+00
        -11   -1    0    0    0    0  0.00000000000E+00  0.00000000000E+00  0.45593999997E+02  0.45594000000E+02  0.51100000000E-03 0.  1.
         11   -1    0    0    0    0 -0.00000000000E+00 -0.00000000000E+00 -0.45593999997E+02  0.45594000000E+02  0.51100000000E-03 0. -1.
    9900012    2    1    2    0    0 -0.24589150837E+02 -0.13731113002E+02  0.35155991766E+02  0.46142316963E+02  0.99999927233E+01 0.  0.
         12    1    1    2    0    0  0.24589150837E+02  0.13731113002E+02 -0.35155991766E+02  0.45045683037E+02  0.00000000000E+00 0. -1.
         11    1    3    3    0    0 -0.64695601219E+01 -0.54608639859E+01  0.74711203843E+01  0.11291318953E+02  0.51100000000E-03 0. -1.
        -11    1    3    3    0    0 -0.14644500780E+02 -0.33002370636E+01  0.18187567551E+02  0.23582633047E+02  0.51100000000E-03 0.  1.
         12    1    3    3    0    0 -0.34750899358E+01 -0.49700119526E+01  0.94973038313E+01  0.11268364963E+02  0.00000000000E+00 0. -1.
</event>
<event>
 7    1  0.2313935E-008  0.4614232E+02  0.7816164E-02  0.1320468E+00
        -11   -1    0    0    0    0  0.00000000000E+00  0.00000000000E+00  0.45593999997E+02  0.45594000000E+02  0.51100000000E-03 0.  1.
         11   -1    0    0    0    0 -0.00000000000E+00 -0.00000000000E+00 -0.45593999997E+02  0.45594000000E+02  0.51100000000E-03 0. -1.
    9900012    2    1    2    0    0  0.26585061521E+02 -0.36084978194E+02  0.44969256185E+01  0.46142317773E+02  0.10000000104E+02 0.  0.
         12    1    1    2    0    0 -0.26585061521E+02  0.36084978194E+02 -0.44969256185E+01  0.45045682227E+02  0.00000000000E+00 0. -1.
         11    1    3    3    0    0  0.73115730864E+01 -0.93100380204E+01 -0.19326971441E+01  0.11994633277E+02  0.51100000000E-03 0. -1.
        -11    1    3    3    0    0  0.15866382142E+02 -0.24411891117E+02  0.41304138318E+01  0.29406509975E+02  0.51100000000E-03 0.  1.
        -12    1    3    3    0    0  0.34071062928E+01 -0.23630490558E+01  0.22992089308E+01  0.47411745209E+01  0.00000000000E+00 0.  1.
</event>
<event>
 7    1  0.2313935E-008  0.4614232E+02  0.7816164E-02  0.1320468E+00
        -11   -1    0    0    0    0  0.00000000000E+00  0.00000000000E+00  0.45593999997E+02  0.45594000000E+02  0.51100000000E-03 0.  1.
         11   -1    0    0    0    0 -0.00000000000E+00 -0.00000000000E+00 -0.45593999997E+02  0.45594000000E+02  0.51100000000E-03 0. -1.
    9900012    2    1    2    0    0  0.40393892498E+02  0.14675543004E+02 -0.13493531223E+02  0.46142317648E+02  0.99999989730E+01 0.  0.
         12    1    1    2    0    0 -0.40393892498E+02 -0.14675543004E+02  0.13493531223E+02  0.45045682352E+02  0.00000000000E+00 0. -1.
         11    1    3    3    0    0  0.14224671386E+02  0.79243334127E+01 -0.94242344963E+00  0.16310257457E+02  0.51100000000E-03 0. -1.
        -11    1    3    3    0    0  0.14817424696E+02  0.34141792165E+01 -0.64149355079E+01  0.16503456976E+02  0.51100000000E-03 0.  1.
         12    1    3    3    0    0  0.11351796416E+02  0.33370303751E+01 -0.61361722657E+01  0.13328603216E+02  0.00000000000E+00 0. -1.
</event>
<event>
 7    1  0.2313935E-008  0.4614232E+02  0.7816164E-02  0.1320468E+00
        -11   -1    0    0    0    0  0.00000000000E+00  0.00000000000E+00  0.45593999997E+02  0.45594000000E+02  0.51100000000E-03 0.  1.
         11   -1    0    0    0    0 -0.00000000000E+00 -0.00000000000E+00 -0.45593999997E+02  0.45594000000E+02  0.51100000000E-03 0. -1.
    9900012    2    1    2    0    0  0.20292667722E+02  0.25072650780E+02  0.31443335160E+02  0.46142317561E+02  0.99999981757E+01 0.  0.
         12    1    1    2    0    0 -0.20292667722E+02 -0.25072650780E+02 -0.31443335160E+02  0.45045682439E+02  0.00000000000E+00 0. -1.
         11    1    3    3    0    0  0.14377776253E+02  0.15961318241E+02  0.19047494658E+02  0.28710471661E+02  0.51100000000E-03 0. -1.
        -11    1    3    3    0    0  0.56496753023E+01  0.84796609492E+01  0.13000721486E+02  0.16517936925E+02  0.51100000000E-03 0.  1.
         12    1    3    3    0    0  0.26521616591E+00  0.63167158944E+00 -0.60488098328E+00  0.91390897550E+00  0.00000000000E+00 0. -1.
</event>
<event>
 7    1  0.2313935E-008  0.4614232E+02  0.7816164E-02  0.1320468E+00
        -11   -1    0    0    0    0  0.00000000000E+00  0.00000000000E+00  0.45593999997E+02  0.45594000000E+02  0.51100000000E-03 0.  1.
         11   -1    0    0    0    0 -0.00000000000E+00 -0.00000000000E+00 -0.45593999997E+02  0.45594000000E+02  0.51100000000E-03 0. -1.
    9900012    2    1    2    0    0  0.99202255901E+01 -0.41662524182E+02  0.13961973952E+02  0.46142317481E+02  0.99999974466E+01 0.  0.
         12    1    1    2    0    0 -0.99202255901E+01  0.41662524182E+02 -0.13961973952E+02  0.45045682519E+02  0.00000000000E+00 0. -1.
         11    1    3    3    0    0 -0.15653883828E+00 -0.94832771758E-01  0.49487600973E+00  0.52763641706E+00  0.51100000000E-03 0.  1.
        -11    1    3    3    0    0  0.79399935260E+01 -0.16194803886E+02  0.42088426344E+01  0.18521056306E+02  0.51100000000E-03 0. -1.
        -12    1    3    3    0    0  0.21367709024E+01 -0.25372887524E+02  0.92582553078E+01  0.27093624758E+02  0.00000000000E+00 0.  1.
</event>
<event>
 7    1  0.2313935E-008  0.4614232E+02  0.7816164E-02  0.1320468E+00
        -11   -1    0    0    0    0  0.00000000000E+00  0.00000000000E+00  0.45593999997E+02  0.45594000000E+02  0.51100000000E-03 0.  1.
         11   -1    0    0    0    0 -0.00000000000E+00 -0.00000000000E+00 -0.45593999997E+02  0.45594000000E+02  0.51100000000E-03 0. -1.
    9900012    2    1    2    0    0  0.18805143984E+02 -0.26215322436E+02  0.31436234866E+02  0.46142318374E+02  0.10000005585E+02 0.  0.
         12    1    1    2    0    0 -0.18805143984E+02  0.26215322436E+02 -0.31436234866E+02  0.45045681626E+02  0.00000000000E+00 0. -1.
         11    1    3    3    0    0  0.67988605609E+01 -0.55620785583E+01  0.12984219144E+02  0.15676452719E+02  0.51100000000E-03 0. -1.
        -11    1    3    3    0    0  0.13907687313E+01 -0.22333216326E+01  0.38930901562E+01  0.46987354047E+01  0.51100000000E-03 0.  1.
        -12    1    3    3    0    0  0.10615514692E+02 -0.18419922245E+02  0.14558925565E+02  0.25767130249E+02  0.00000000000E+00 0.  1.
</event>
<event>
 7    1  0.2313935E-008  0.4614232E+02  0.7816164E-02  0.1320468E+00
        -11   -1    0    0    0    0  0.00000000000E+00  0.00000000000E+00  0.45593999997E+02  0.45594000000E+02  0.51100000000E-03 0.  1.
         11   -1    0    0    0    0 -0.00000000000E+00 -0.00000000000E+00 -0.45593999997E+02  0.45594000000E+02  0.51100000000E-03 0. -1.
    9900012    2    1    2    0    0  0.76031055935E+01  0.41692430461E+01  0.44203208970E+02  0.46142317793E+02  0.10000000290E+02 0.  0.
         12    1    1    2    0    0 -0.76031055935E+01 -0.41692430461E+01 -0.44203208970E+02  0.45045682207E+02  0.00000000000E+00 0. -1.
         11    1    3    3    0    0  0.44239750321E+01 -0.18427075122E+00  0.18932663462E+02  0.19443540233E+02  0.51100000000E-03 0. -1.
        -11    1    3    3    0    0  0.38452659239E+01  0.47707427773E+01  0.25171472717E+02  0.25906545421E+02  0.51100000000E-03 0.  1.
         12    1    3    3    0    0 -0.66613536251E+00 -0.41722897998E+00  0.99072791715E-01  0.79223213832E+00  0.00000000000E+00 0. -1.
</event>
<event>
 7    1  0.2313935E-008  0.4614232E+02  0.7816164E-02  0.1320468E+00
        -11   -1    0    0    0    0  0.00000000000E+00  0.00000000000E+00  0.45593999997E+02  0.45594000000E+02  0.51100000000E-03 0.  1.
         11   -1    0    0    0    0 -0.00000000000E+00 -0.00000000000E+00 -0.45593999997E+02  0.45594000000E+02  0.51100000000E-03 0. -1.
    9900012    2    1    2    0    0 -0.97783273234E+00 -0.11012606195E+02  0.43667835046E+02  0.46142317968E+02  0.10000001890E+02 0.  0.
         12    1    1    2    0    0  0.97783273234E+00  0.11012606195E+02 -0.43667835046E+02  0.45045682032E+02  0.00000000000E+00 0. -1.
         11    1    3    3    0    0 -0.21156649271E+00  0.61464244489E+00  0.10290966655E+01  0.12172041423E+01  0.51100000000E-03 0. -1.
        -11    1    3    3    0    0  0.31016653629E+01 -0.57393383560E+01  0.26931892255E+02  0.27710776848E+02  0.51100000000E-03 0.  1.
         12    1    3    3    0    0 -0.38679316026E+01 -0.58879102838E+01  0.15706846126E+02  0.17214336978E+02  0.00000000000E+00 0. -1.
</event>
<event>
 7    1  0.2313935E-008  0.4614232E+02  0.7816164E-02  0.1320468E+00
        -11   -1    0    0    0    0  0.00000000000E+00  0.00000000000E+00  0.45593999997E+02  0.45594000000E+02  0.51100000000E-03 0.  1.
         11   -1    0    0    0    0 -0.00000000000E+00 -0.00000000000E+00 -0.45593999997E+02  0.45594000000E+02  0.51100000000E-03 0. -1.
    9900012    2    1    2    0    0  0.21135624080E+02  0.24116320977E+02 -0.31635454521E+02  0.46142317349E+02  0.99999962417E+01 0.  0.
         12    1    1    2    0    0 -0.21135624080E+02 -0.24116320977E+02  0.31635454521E+02  0.45045682651E+02  0.00000000000E+00 0. -1.
         11    1    3    3    0    0  0.56171608424E+01  0.48607301767E+01 -0.13144585233E+02  0.15098321595E+02  0.51100000000E-03 0. -1.
        -11    1    3    3    0    0  0.13770624221E+02  0.15313667463E+02 -0.15847905289E+02  0.25986431169E+02  0.51100000000E-03 0.  1.
         12    1    3    3    0    0  0.17478390169E+01  0.39419233372E+01 -0.26429639994E+01  0.50575645846E+01  0.00000000000E+00 0. -1.
</event>
<event>
 7    1  0.2313935E-008  0.4614232E+02  0.7816164E-02  0.1320468E+00
        -11   -1    0    0    0    0  0.00000000000E+00  0.00000000000E+00  0.45593999997E+02  0.45594000000E+02  0.51100000000E-03 0. -1.
         11   -1    0    0    0    0 -0.00000000000E+00 -0.00000000000E+00 -0.45593999997E+02  0.45594000000E+02  0.51100000000E-03 0.  1.
    9900012    2    1    2    0    0 -0.26783679475E+02 -0.95690743230E+01 -0.34931088416E+02  0.46142316438E+02  0.99999879330E+01 0.  0.
         12    1    1    2    0    0  0.26783679475E+02  0.95690743230E+01  0.34931088416E+02  0.45045683562E+02  0.00000000000E+00 0. -1.
         11    1    3    3    0    0 -0.45483886728E+01  0.18619220681E+01 -0.49255105414E+01  0.69581066146E+01  0.51100000000E-03 0. -1.
        -11    1    3    3    0    0 -0.16663969048E+02 -0.10037682571E+02 -0.22869857133E+02  0.30024544982E+02  0.51100000000E-03 0.  1.
         12    1    3    3    0    0 -0.55713217549E+01 -0.13933138196E+01 -0.71357207416E+01  0.91596648409E+01  0.00000000000E+00 0. -1.
</event>
<event>
 7    1  0.2313935E-008  0.4614232E+02  0.7816164E-02  0.1320468E+00
        -11   -1    0    0    0    0  0.00000000000E+00  0.00000000000E+00  0.45593999997E+02  0.45594000000E+02  0.51100000000E-03 0.  1.
         11   -1    0    0    0    0 -0.00000000000E+00 -0.00000000000E+00 -0.45593999997E+02  0.45594000000E+02  0.51100000000E-03 0. -1.
    9900012    2    1    2    0    0 -0.30135508289E+02  0.86035371305E+01  0.32356509891E+02  0.46142318261E+02  0.10000004557E+02 0.  0.
         12    1    1    2    0    0  0.30135508289E+02 -0.86035371305E+01 -0.32356509891E+02  0.45045681739E+02  0.00000000000E+00 0. -1.
         11    1    3    3    0    0 -0.31660897950E+01 -0.26777058037E+00  0.17633173688E+01  0.36338841586E+01  0.51100000000E-03 0. -1.
        -11    1    3    3    0    0 -0.20640541075E+02  0.94924408615E+01  0.26677180925E+02  0.35040124882E+02  0.51100000000E-03 0.  1.
        -12    1    3    3    0    0 -0.63288774197E+01 -0.62113315059E+00  0.39160115972E+01  0.74683092205E+01  0.00000000000E+00 0.  1.
</event>
<event>
 7    1  0.2313935E-008  0.4614232E+02  0.7816164E-02  0.1320468E+00
        -11   -1    0    0    0    0  0.00000000000E+00  0.00000000000E+00  0.45593999997E+02  0.45594000000E+02  0.51100000000E-03 0.  1.
         11   -1    0    0    0    0 -0.00000000000E+00 -0.00000000000E+00 -0.45593999997E+02  0.45594000000E+02  0.51100000000E-03 0. -1.
    9900012    2    1    2    0    0  0.19338861892E+02 -0.36320018910E+02  0.18329706683E+02  0.46142317632E+02  0.99999988270E+01 0.  0.
         12    1    1    2    0    0 -0.19338861892E+02  0.36320018910E+02 -0.18329706683E+02  0.45045682368E+02  0.00000000000E+00 0. -1.
         11    1    3    3    0    0  0.32415487069E+01 -0.24520145316E+01  0.20148733601E+01  0.45364885320E+01  0.51100000000E-03 0. -1.
        -11    1    3    3    0    0  0.69663577044E+01 -0.22574732634E+02  0.84551523567E+01  0.25092594421E+02  0.51100000000E-03 0.  1.
        -12    1    3    3    0    0  0.91309554811E+01 -0.11293271744E+02  0.78596809660E+01  0.16513234679E+02  0.00000000000E+00 0.  1.
</event>
<event>
 7    1  0.2313935E-008  0.4614232E+02  0.7816164E-02  0.1320468E+00
        -11   -1    0    0    0    0  0.00000000000E+00  0.00000000000E+00  0.45593999997E+02  0.45594000000E+02  0.51100000000E-03 0.  1.
         11   -1    0    0    0    0 -0.00000000000E+00 -0.00000000000E+00 -0.45593999997E+02  0.45594000000E+02  0.51100000000E-03 0. -1.
    9900012    2    1    2    0    0  0.67721463197E+00 -0.28066744595E+02  0.35226588411E+02  0.46142319820E+02  0.10000018774E+02 0.  0.
         12    1    1    2    0    0 -0.67721463197E+00  0.28066744595E+02 -0.35226588411E+02  0.45045680180E+02  0.00000000000E+00 0. -1.
         11    1    3    3    0    0 -0.33029705419E+01 -0.90654853494E+01  0.11736679656E+02  0.15193494945E+02  0.51100000000E-03 0. -1.
        -11    1    3    3    0    0  0.25466609795E+01 -0.35191650180E+01  0.73517671642E+01  0.85392321240E+01  0.51100000000E-03 0.  1.
        -12    1    3    3    0    0  0.14335241944E+01 -0.15482094228E+02  0.16138141590E+02  0.22409592751E+02  0.00000000000E+00 0.  1.
</event>
<event>
 7    1  0.2313935E-008  0.4614232E+02  0.7816164E-02  0.1320468E+00
        -11   -1    0    0    0    0  0.00000000000E+00  0.00000000000E+00  0.45593999997E+02  0.45594000000E+02  0.51100000000E-03 0. -1.
         11   -1    0    0    0    0 -0.00000000000E+00 -0.00000000000E+00 -0.45593999997E+02  0.45594000000E+02  0.51100000000E-03 0.  1.
    9900012    2    1    2    0    0 -0.26821990488E+02 -0.36101999183E+02  0.25179174545E+01  0.46142318442E+02  0.10000006209E+02 0.  0.
         12    1    1    2    0    0  0.26821990488E+02  0.36101999183E+02 -0.25179174545E+01  0.45045681558E+02  0.00000000000E+00 0. -1.
         11    1    3    3    0    0 -0.10628454027E+01 -0.19538765171E+01 -0.31385629836E+00  0.22462813340E+01  0.51100000000E-03 0. -1.
        -11    1    3    3    0    0 -0.22413892983E+02 -0.31547587861E+02 -0.17634859538E+00  0.38699664050E+02  0.51100000000E-03 0.  1.
         12    1    3    3    0    0 -0.33452521020E+01 -0.26005348047E+01  0.30081223482E+01  0.51963730580E+01  0.00000000000E+00 0. -1.
</event>
<event>
 7    1  0.2313935E-008  0.4614232E+02  0.7816164E-02  0.1320468E+00
        -11   -1    0    0    0    0  0.00000000000E+00  0.00000000000E+00  0.45593999997E+02  0.45594000000E+02  0.51100000000E-03 0. -1.
         11   -1    0    0    0    0 -0.00000000000E+00 -0.00000000000E+00 -0.45593999997E+02  0.45594000000E+02  0.51100000000E-03 0.  1.
    9900012    2    1    2    0    0 -0.22326451810E+02 -0.11485819905E+02 -0.37399452293E+02  0.46142317175E+02  0.99999946592E+01 0.  0.
         12    1    1    2    0    0  0.22326451810E+02  0.11485819905E+02  0.37399452293E+02  0.45045682825E+02  0.00000000000E+00 0. -1.
         11    1    3    3    0    0 -0.35939868175E+01 -0.49893030091E-01 -0.22105690942E+01  0.42196974465E+01  0.51100000000E-03 0. -1.
        -11    1    3    3    0    0 -0.70843666126E+01 -0.10384914335E+01 -0.10405194054E+02  0.12630707752E+02  0.51100000000E-03 0.  1.
        -12    1    3    3    0    0 -0.11648098380E+02 -0.10397435441E+02 -0.24783689145E+02  0.29291911977E+02  0.00000000000E+00 0.  1.
</event>
<event>
 7    1  0.2313935E-008  0.4614232E+02  0.7816164E-02  0.1320468E+00
        -11   -1    0    0    0    0  0.00000000000E+00  0.00000000000E+00  0.45593999997E+02  0.45594000000E+02  0.51100000000E-03 0. -1.
         11   -1    0    0    0    0 -0.00000000000E+00 -0.00000000000E+00 -0.45593999997E+02  0.45594000000E+02  0.51100000000E-03 0.  1.
    9900012    2    1    2    0    0 -0.34758403653E+02 -0.28445391811E+02 -0.34389746723E+01  0.46142317781E+02  0.10000000180E+02 0.  0.
         12    1    1    2    0    0  0.34758403653E+02  0.28445391811E+02  0.34389746723E+01  0.45045682219E+02  0.00000000000E+00 0. -1.
         11    1    3    3    0    0 -0.19132052253E+02 -0.19605163622E+02 -0.12575040519E+01  0.27422238799E+02  0.51100000000E-03 0. -1.
        -11    1    3    3    0    0 -0.12401170042E+02 -0.76937117567E+01 -0.35733238750E+01  0.15025007913E+02  0.51100000000E-03 0.  1.
         12    1    3    3    0    0 -0.32251813582E+01 -0.11465164325E+01  0.13918532546E+01  0.36950710691E+01  0.00000000000E+00 0. -1.
</event>
<event>
 7    1  0.2313935E-008  0.4614232E+02  0.7816164E-02  0.1320468E+00
        -11   -1    0    0    0    0  0.00000000000E+00  0.00000000000E+00  0.45593999997E+02  0.45594000000E+02  0.51100000000E-03 0.  1.
         11   -1    0    0    0    0 -0.00000000000E+00 -0.00000000000E+00 -0.45593999997E+02  0.45594000000E+02  0.51100000000E-03 0. -1.
    9900012    2    1    2    0    0  0.29072569348E+02  0.32228135427E+02  0.12051819779E+02  0.46142319169E+02  0.10000012838E+02 0.  0.
         12    1    1    2    0    0 -0.29072569348E+02 -0.32228135427E+02 -0.12051819779E+02  0.45045680831E+02  0.00000000000E+00 0. -1.
         11    1    3    3    0    0  0.16186875046E+02  0.13982633553E+02  0.86029640374E+01  0.23055150299E+02  0.51100000000E-03 0. -1.
        -11    1    3    3    0    0  0.24417688093E+00 -0.29269087446E+00 -0.23470470391E-01  0.38189189737E+00  0.51100000000E-03 0.  1.
        -12    1    3    3    0    0  0.12641517420E+02  0.18538192748E+02  0.34723262119E+01  0.22705276972E+02  0.00000000000E+00 0.  1.
</event>
<event>
 7    1  0.2313935E-008  0.4614232E+02  0.7816164E-02  0.1320468E+00
        -11   -1    0    0    0    0  0.00000000000E+00  0.00000000000E+00  0.45593999997E+02  0.45594000000E+02  0.51100000000E-03 0.  1.
         11   -1    0    0    0    0 -0.00000000000E+00 -0.00000000000E+00 -0.45593999997E+02  0.45594000000E+02  0.51100000000E-03 0. -1.
    9900012    2    1    2    0    0  0.30932028672E+02  0.32251543295E+02 -0.56710759787E+01  0.46142317127E+02  0.99999942192E+01 0.  0.
         12    1    1    2    0    0 -0.30932028672E+02 -0.32251543295E+02  0.56710759787E+01  0.45045682873E+02  0.00000000000E+00 0. -1.
         11    1    3    3    0    0 -0.52180033167E+00  0.19410092939E+00  0.37026216183E-01  0.55796232734E+00  0.51100000000E-03 0. -1.
        -11    1    3    3    0    0  0.91519148843E+00 -0.30825395230E-01 -0.26783118961E+00  0.95407519239E+00  0.51100000000E-03 0.  1.
        -12    1    3    3    0    0  0.30538637516E+02  0.32088267761E+02 -0.54402710053E+01  0.44630279607E+02  0.00000000000E+00 0.  1.
</event>
<event>
 7    1  0.2313935E-008  0.4614232E+02  0.7816164E-02  0.1320468E+00
        -11   -1    0    0    0    0  0.00000000000E+00  0.00000000000E+00  0.45593999997E+02  0.45594000000E+02  0.51100000000E-03 0.  1.
         11   -1    0    0    0    0 -0.00000000000E+00 -0.00000000000E+00 -0.45593999997E+02  0.45594000000E+02  0.51100000000E-03 0. -1.
    9900012    2    1    2    0    0 -0.10867167712E+02 -0.28885008223E+02  0.32812717561E+02  0.46142317988E+02  0.10000002072E+02 0.  0.
         12    1    1    2    0    0  0.10867167712E+02  0.28885008223E+02 -0.32812717561E+02  0.45045682012E+02  0.00000000000E+00 0. -1.
         11    1    3    3    0    0 -0.41917679515E+01 -0.15075661785E+02  0.11723030163E+02  0.19551877998E+02  0.51100000000E-03 0. -1.
        -11    1    3    3    0    0 -0.25198562488E+01 -0.10516579159E+02  0.12885337331E+02  0.16822010318E+02  0.51100000000E-03 0.  1.
         12    1    3    3    0    0 -0.41555435122E+01 -0.32927672795E+01  0.82043500670E+01  0.97684296722E+01  0.00000000000E+00 0. -1.
</event>
<event>
 7    1  0.2313935E-008  0.4614232E+02  0.7816164E-02  0.1320468E+00
        -11   -1    0    0    0    0  0.00000000000E+00  0.00000000000E+00  0.45593999997E+02  0.45594000000E+02  0.51100000000E-03 0.  1.
         11   -1    0    0    0    0 -0.00000000000E+00 -0.00000000000E+00 -0.45593999997E+02  0.45594000000E+02  0.51100000000E-03 0. -1.
    9900012    2    1    2    0    0 -0.26576620887E+02  0.35962637216E+02 -0.54300543119E+01  0.46142317154E+02  0.99999944599E+01 0.  0.
         12    1    1    2    0    0  0.26576620887E+02 -0.35962637216E+02  0.54300543119E+01  0.45045682846E+02  0.00000000000E+00 0. -1.
         11    1    3    3    0    0 -0.33279648839E+01  0.10372006033E+01 -0.11498483568E+01  0.36705976168E+01  0.51100000000E-03 0. -1.
        -11    1    3    3    0    0 -0.16414713225E+02  0.26501577765E+02 -0.12036674642E+01  0.31196558302E+02  0.51100000000E-03 0.  1.
         12    1    3    3    0    0 -0.68339427780E+01  0.84238588478E+01 -0.30765384910E+01  0.11275161235E+02  0.00000000000E+00 0. -1.
</event>
<event>
 7    1  0.2313935E-008  0.4614232E+02  0.7816164E-02  0.1320468E+00
        -11   -1    0    0    0    0  0.00000000000E+00  0.00000000000E+00  0.45593999997E+02  0.45594000000E+02  0.51100000000E-03 0.  1.
         11   -1    0    0    0    0 -0.00000000000E+00 -0.00000000000E+00 -0.45593999997E+02  0.45594000000E+02  0.51100000000E-03 0. -1.
    9900012    2    1    2    0    0  0.11084353725E+02 -0.38541706848E+02  0.20513104659E+02  0.46142317332E+02  0.99999960861E+01 0.  0.
         12    1    1    2    0    0 -0.11084353725E+02  0.38541706848E+02 -0.20513104659E+02  0.45045682668E+02  0.00000000000E+00 0. -1.
         11    1    3    3    0    0  0.16493251406E+01 -0.23730555969E+01  0.38779385041E+01  0.48363285236E+01  0.51100000000E-03 0. -1.
        -11    1    3    3    0    0  0.44594911887E+01 -0.22289850564E+02  0.12732166927E+02  0.26054415648E+02  0.51100000000E-03 0.  1.
         12    1    3    3    0    0  0.49755373959E+01 -0.13878800687E+02  0.39029992277E+01  0.15251573161E+02  0.00000000000E+00 0. -1.
</event>
<event>
 7    1  0.2313935E-008  0.4614232E+02  0.7816164E-02  0.1320468E+00
        -11   -1    0    0    0    0  0.00000000000E+00  0.00000000000E+00  0.45593999997E+02  0.45594000000E+02  0.51100000000E-03 0.  1.
         11   -1    0    0    0    0 -0.00000000000E+00 -0.00000000000E+00 -0.45593999997E+02  0.45594000000E+02  0.51100000000E-03 0. -1.
    9900012    2    1    2    0    0  0.93038913595E+01 -0.20822672842E+02  0.38845429509E+02  0.46142317715E+02  0.99999995831E+01 0.  0.
         12    1    1    2    0    0 -0.93038913595E+01  0.20822672842E+02 -0.38845429509E+02  0.45045682285E+02  0.00000000000E+00 0. -1.
         11    1    3    3    0    0 -0.66053312118E-01 -0.96271662406E+00 -0.31836531941E+00  0.10161412677E+01  0.51100000000E-03 0. -1.
        -11    1    3    3    0    0 -0.62696419059E-01 -0.10588407972E+01  0.41180343140E+01  0.42524441851E+01  0.51100000000E-03 0.  1.
        -12    1    3    3    0    0  0.94326410906E+01 -0.18801115421E+02  0.35045760515E+02  0.40873732263E+02  0.00000000000E+00 0.  1.
</event>
<event>
 7    1  0.2313935E-008  0.4614232E+02  0.7816164E-02  0.1320468E+00
        -11   -1    0    0    0    0  0.00000000000E+00  0.00000000000E+00  0.45593999997E+02  0.45594000000E+02  0.51100000000E-03 0. -1.
         11   -1    0    0    0    0 -0.00000000000E+00 -0.00000000000E+00 -0.45593999997E+02  0.45594000000E+02  0.51100000000E-03 0.  1.
    9900012    2    1    2    0    0 -0.10526332590E+02  0.35878946762E+02 -0.25119936242E+02  0.46142315464E+02  0.99999790489E+01 0.  0.
         12    1    1    2    0    0  0.10526332590E+02 -0.35878946762E+02  0.25119936242E+02  0.45045684536E+02  0.00000000000E+00 0. -1.
         11    1    3    3    0    0 -0.46963506924E+01  0.13256897941E+02 -0.13063687835E+02  0.19195337793E+02  0.51100000000E-03 0. -1.
        -11    1    3    3    0    0 -0.27547375914E+01  0.43845069655E+01 -0.48591977770E+01  0.71010058319E+01  0.51100000000E-03 0.  1.
         12    1    3    3    0    0 -0.30752443062E+01  0.18237541855E+02 -0.71970506297E+01  0.19845971839E+02  0.00000000000E+00 0. -1.
</event>
<event>
 7    1  0.2313935E-008  0.4614232E+02  0.7816164E-02  0.1320468E+00
        -11   -1    0    0    0    0  0.00000000000E+00  0.00000000000E+00  0.45593999997E+02  0.45594000000E+02  0.51100000000E-03 0.  1.
         11   -1    0    0    0    0 -0.00000000000E+00 -0.00000000000E+00 -0.45593999997E+02  0.45594000000E+02  0.51100000000E-03 0. -1.
    9900012    2    1    2    0    0 -0.37115356876E+02  0.69160917094E+01  0.24570946825E+02  0.46142317983E+02  0.10000002022E+02 0.  0.
         12    1    1    2    0    0  0.37115356876E+02 -0.69160917094E+01 -0.24570946825E+02  0.45045682017E+02  0.00000000000E+00 0. -1.
         11    1    3    3    0    0 -0.57597424884E+00 -0.15753576595E+00 -0.70411673537E+00  0.92322504896E+00  0.51100000000E-03 0. -1.
        -11    1    3    3    0    0 -0.26525323214E+01  0.15954065665E+01  0.29159292116E+01  0.42525161090E+01  0.51100000000E-03 0.  1.
        -12    1    3    3    0    0 -0.33886850305E+02  0.54782209088E+01  0.22359134348E+02  0.40966576825E+02  0.00000000000E+00 0.  1.
</event>
<event>
 7    1  0.2313935E-008  0.4614232E+02  0.7816164E-02  0.1320468E+00
        -11   -1    0    0    0    0  0.00000000000E+00  0.00000000000E+00  0.45593999997E+02  0.45594000000E+02  0.51100000000E-03 0.  1.
         11   -1    0    0    0    0 -0.00000000000E+00 -0.00000000000E+00 -0.45593999997E+02  0.45594000000E+02  0.51100000000E-03 0. -1.
    9900012    2    1    2    0    0  0.42817046027E+02  0.86594245660E+01 -0.10992197524E+02  0.46142317957E+02  0.10000001790E+02 0.  0.
         12    1    1    2    0    0 -0.42817046027E+02 -0.86594245660E+01  0.10992197524E+02  0.45045682043E+02  0.00000000000E+00 0. -1.
         11    1    3    3    0    0  0.28726617791E+01  0.14351757000E+01 -0.29362207146E+01  0.43512420449E+01  0.51100000000E-03 0. -1.
        -11    1    3    3    0    0  0.29102154515E+02  0.56825795282E+01 -0.32421625318E+01  0.29828488491E+02  0.51100000000E-03 0.  1.
         12    1    3    3    0    0  0.10842229733E+02  0.15416693378E+01 -0.48138142773E+01  0.11962587422E+02  0.00000000000E+00 0. -1.
</event>
<event>
 7    1  0.2313935E-008  0.4614232E+02  0.7816164E-02  0.1320468E+00
        -11   -1    0    0    0    0  0.00000000000E+00  0.00000000000E+00  0.45593999997E+02  0.45594000000E+02  0.51100000000E-03 0. -1.
         11   -1    0    0    0    0 -0.00000000000E+00 -0.00000000000E+00 -0.45593999997E+02  0.45594000000E+02  0.51100000000E-03 0.  1.
    9900012    2    1    2    0    0  0.19679655094E+02 -0.12590692341E+02 -0.38513622686E+02  0.46142317736E+02  0.99999997676E+01 0.  0.
         12    1    1    2    0    0 -0.19679655094E+02  0.12590692341E+02  0.38513622686E+02  0.45045682264E+02  0.00000000000E+00 0. -1.
         11    1    3    3    0    0  0.54217430858E+00  0.25229062324E+00 -0.20529837088E+00  0.63225882490E+00  0.51100000000E-03 0. -1.
        -11    1    3    3    0    0  0.10941967303E+02 -0.52337999289E+01 -0.12675540927E+02  0.17543906298E+02  0.51100000000E-03 0.  1.
        -12    1    3    3    0    0  0.81955134831E+01 -0.76091830355E+01 -0.25632783388E+02  0.27966152613E+02  0.00000000000E+00 0.  1.
</event>
<event>
 7    1  0.2313935E-008  0.4614232E+02  0.7816164E-02  0.1320468E+00
        -11   -1    0    0    0    0  0.00000000000E+00  0.00000000000E+00  0.45593999997E+02  0.45594000000E+02  0.51100000000E-03 0.  1.
         11   -1    0    0    0    0 -0.00000000000E+00 -0.00000000000E+00 -0.45593999997E+02  0.45594000000E+02  0.51100000000E-03 0. -1.
    9900012    2    1    2    0    0  0.39059346101E+02 -0.12242688251E+02  0.18804188589E+02  0.46142318277E+02  0.10000004700E+02 0.  0.
         12    1    1    2    0    0 -0.39059346101E+02  0.12242688251E+02 -0.18804188589E+02  0.45045681723E+02  0.00000000000E+00 0. -1.
         11    1    3    3    0    0  0.41084698645E+01 -0.17829146370E+00  0.31149470091E+01  0.51588959675E+01  0.51100000000E-03 0. -1.
        -11    1    3    3    0    0  0.15797229020E+02 -0.90535682684E+01  0.51829315917E+01  0.18930988438E+02  0.51100000000E-03 0.  1.
        -12    1    3    3    0    0  0.19153647217E+02 -0.30108285193E+01  0.10506309988E+02  0.22052433871E+02  0.00000000000E+00 0.  1.
</event>
<event>
 7    1  0.2313935E-008  0.4614232E+02  0.7816164E-02  0.1320468E+00
        -11   -1    0    0    0    0  0.00000000000E+00  0.00000000000E+00  0.45593999997E+02  0.45594000000E+02  0.51100000000E-03 0. -1.
         11   -1    0    0    0    0 -0.00000000000E+00 -0.00000000000E+00 -0.45593999997E+02  0.45594000000E+02  0.51100000000E-03 0.  1.
    9900012    2    1    2    0    0 -0.16718819559E+02 -0.40572822479E+02  0.10170576961E+02  0.46142317776E+02  0.10000000132E+02 0.  0.
         12    1    1    2    0    0  0.16718819559E+02  0.40572822479E+02 -0.10170576961E+02  0.45045682224E+02  0.00000000000E+00 0. -1.
         11    1    3    3    0    0 -0.59961122993E+01 -0.67785393390E+01  0.25792043311E+01  0.94103269613E+01  0.51100000000E-03 0. -1.
        -11    1    3    3    0    0 -0.88076105954E+01 -0.29982568659E+02  0.84693319070E+01  0.32376812861E+02  0.51100000000E-03 0.  1.
        -12    1    3    3    0    0 -0.19150966644E+01 -0.38117144803E+01 -0.87795927730E+00  0.43551779534E+01  0.00000000000E+00 0.  1.
</event>
<event>
 7    1  0.2313935E-008  0.4614232E+02  0.7816164E-02  0.1320468E+00
        -11   -1    0    0    0    0  0.00000000000E+00  0.00000000000E+00  0.45593999997E+02  0.45594000000E+02  0.51100000000E-03 0.  1.
         11   -1    0    0    0    0 -0.00000000000E+00 -0.00000000000E+00 -0.45593999997E+02  0.45594000000E+02  0.51100000000E-03 0. -1.
    9900012    2    1    2    0    0  0.74812834423E+01 -0.20227648327E+02  0.39547263899E+02  0.46142318291E+02  0.10000004830E+02 0.  0.
         12    1    1    2    0    0 -0.74812834423E+01  0.20227648327E+02 -0.39547263899E+02  0.45045681709E+02  0.00000000000E+00 0. -1.
         11    1    3    3    0    0 -0.53736014691E-02  0.35858093882E+00  0.15838084521E+01  0.16239022875E+01  0.51100000000E-03 0. -1.
        -11    1    3    3    0    0 -0.12259387722E+01 -0.16741349685E+01  0.62020029470E+01  0.65399154873E+01  0.51100000000E-03 0.  1.
        -12    1    3    3    0    0  0.87125958159E+01 -0.18912094297E+02  0.31761452499E+02  0.37978500516E+02  0.00000000000E+00 0.  1.
</event>
<event>
 7    1  0.2313935E-008  0.4614232E+02  0.7816164E-02  0.1320468E+00
        -11   -1    0    0    0    0  0.00000000000E+00  0.00000000000E+00  0.45593999997E+02  0.45594000000E+02  0.51100000000E-03 0.  1.
         11   -1    0    0    0    0 -0.00000000000E+00 -0.00000000000E+00 -0.45593999997E+02  0.45594000000E+02  0.51100000000E-03 0. -1.
    9900012    2    1    2    0    0 -0.24920688038E+02  0.34658306176E+02  0.14383138669E+02  0.46142316996E+02  0.99999930272E+01 0.  0.
         12    1    1    2    0    0  0.24920688038E+02 -0.34658306176E+02 -0.14383138669E+02  0.45045683004E+02  0.00000000000E+00 0. -1.
         11    1    3    3    0    0 -0.32259286177E+01  0.62333248194E+01  0.50754114261E+01  0.86614522545E+01  0.51100000000E-03 0. -1.
        -11    1    3    3    0    0 -0.13784509925E+02  0.13478475471E+02  0.34559834837E+01  0.19586368652E+02  0.51100000000E-03 0.  1.
        -12    1    3    3    0    0 -0.79102494953E+01  0.14946505886E+02  0.58517437593E+01  0.17894496090E+02  0.00000000000E+00 0.  1.
</event>
<event>
 7    1  0.2313935E-008  0.4614232E+02  0.7816164E-02  0.1320468E+00
        -11   -1    0    0    0    0  0.00000000000E+00  0.00000000000E+00  0.45593999997E+02  0.45594000000E+02  0.51100000000E-03 0.  1.
         11   -1    0    0    0    0 -0.00000000000E+00 -0.00000000000E+00 -0.45593999997E+02  0.45594000000E+02  0.51100000000E-03 0. -1.
    9900012    2    1    2    0    0 -0.21867783075E+02 -0.39375473038E+02  0.69706629972E+00  0.46142315245E+02  0.99999770575E+01 0.  0.
         12    1    1    2    0    0  0.21867783075E+02  0.39375473038E+02 -0.69706629972E+00  0.45045684755E+02  0.00000000000E+00 0. -1.
         11    1    3    3    0    0 -0.17953077802E+02 -0.31204074320E+02  0.11846731536E+00  0.36000295714E+02  0.51100000000E-03 0.  1.
        -11    1    3    3    0    0 -0.45398625366E+01 -0.47021782977E+01 -0.16992898782E+00  0.65383261402E+01  0.51100000000E-03 0. -1.
         12    1    3    3    0    0  0.62515726342E+00 -0.34692204204E+01  0.74852797217E+00  0.36036933907E+01  0.00000000000E+00 0. -1.
</event>
<event>
 7    1  0.2313935E-008  0.4614232E+02  0.7816164E-02  0.1320468E+00
        -11   -1    0    0    0    0  0.00000000000E+00  0.00000000000E+00  0.45593999997E+02  0.45594000000E+02  0.51100000000E-03 0.  1.
         11   -1    0    0    0    0 -0.00000000000E+00 -0.00000000000E+00 -0.45593999997E+02  0.45594000000E+02  0.51100000000E-03 0. -1.
    9900012    2    1    2    0    0  0.54720168305E+00 -0.42615342580E+02  0.14585836075E+02  0.46142318000E+02  0.10000002175E+02 0.  0.
         12    1    1    2    0    0 -0.54720168305E+00  0.42615342580E+02 -0.14585836075E+02  0.45045682000E+02  0.00000000000E+00 0. -1.
         11    1    3    3    0    0  0.11598329572E+01 -0.48205010756E+01 -0.54665104572E+00  0.49881129433E+01  0.51100000000E-03 0. -1.
        -11    1    3    3    0    0 -0.30451424233E+01 -0.19555229551E+02  0.65191470642E+01  0.20836966523E+02  0.51100000000E-03 0.  1.
        -12    1    3    3    0    0  0.24325111492E+01 -0.18239611953E+02  0.86133400570E+01  0.20317238534E+02  0.00000000000E+00 0.  1.
</event>
<event>
 7    1  0.2313935E-008  0.4614232E+02  0.7816164E-02  0.1320468E+00
        -11   -1    0    0    0    0  0.00000000000E+00  0.00000000000E+00  0.45593999997E+02  0.45594000000E+02  0.51100000000E-03 0.  1.
         11   -1    0    0    0    0 -0.00000000000E+00 -0.00000000000E+00 -0.45593999997E+02  0.45594000000E+02  0.51100000000E-03 0. -1.
    9900012    2    1    2    0    0 -0.76005553304E+00 -0.39970058218E+01  0.44861562467E+02  0.46142317333E+02  0.99999960986E+01 0.  0.
         12    1    1    2    0    0  0.76005553304E+00  0.39970058218E+01 -0.44861562467E+02  0.45045682667E+02  0.00000000000E+00 0. -1.
         11    1    3    3    0    0  0.14944650426E+01  0.14477800052E+01  0.33468476932E+01  0.39409240603E+01  0.51100000000E-03 0. -1.
        -11    1    3    3    0    0  0.56477811549E+00 -0.85900029004E-01  0.55489221763E+00  0.79640364705E+00  0.51100000000E-03 0.  1.
        -12    1    3    3    0    0 -0.28192986911E+01 -0.53588857980E+01  0.40959822556E+02  0.41404989626E+02  0.00000000000E+00 0.  1.
</event>
<event>
 7    1  0.2313935E-008  0.4614232E+02  0.7816164E-02  0.1320468E+00
        -11   -1    0    0    0    0  0.00000000000E+00  0.00000000000E+00  0.45593999997E+02  0.45594000000E+02  0.51100000000E-03 0. -1.
         11   -1    0    0    0    0 -0.00000000000E+00 -0.00000000000E+00 -0.45593999997E+02  0.45594000000E+02  0.51100000000E-03 0.  1.
    9900012    2    1    2    0    0 -0.43134225751E+02  0.11062659705E+02  0.67948286781E+01  0.46142316881E+02  0.99999919778E+01 0.  0.
         12    1    1    2    0    0  0.43134225751E+02 -0.11062659705E+02 -0.67948286781E+01  0.45045683119E+02  0.00000000000E+00 0. -1.
         11    1    3    3    0    0 -0.13325528694E+02  0.56312101096E+00  0.18750724327E+01  0.13468582596E+02  0.51100000000E-03 0. -1.
        -11    1    3    3    0    0 -0.26667540786E+02  0.84884156120E+01  0.63184206344E+01  0.28690300988E+02  0.51100000000E-03 0.  1.
         12    1    3    3    0    0 -0.31411562702E+01  0.20111230820E+01 -0.13986643890E+01  0.39834332978E+01  0.00000000000E+00 0. -1.
</event>
<event>
 7    1  0.2313935E-008  0.4614232E+02  0.7816164E-02  0.1320468E+00
        -11   -1    0    0    0    0  0.00000000000E+00  0.00000000000E+00  0.45593999997E+02  0.45594000000E+02  0.51100000000E-03 0. -1.
         11   -1    0    0    0    0 -0.00000000000E+00 -0.00000000000E+00 -0.45593999997E+02  0.45594000000E+02  0.51100000000E-03 0.  1.
    9900012    2    1    2    0    0  0.11594575500E+02  0.37449784802E+02 -0.22185421874E+02  0.46142317561E+02  0.99999981724E+01 0.  0.
         12    1    1    2    0    0 -0.11594575500E+02 -0.37449784802E+02  0.22185421874E+02  0.45045682439E+02  0.00000000000E+00 0. -1.
         11    1    3    3    0    0  0.42474350946E+01  0.19147238674E+02 -0.83072408099E+01  0.21299476610E+02  0.51100000000E-03 0. -1.
        -11    1    3    3    0    0  0.64117450068E+01  0.18261510832E+02 -0.14015975734E+02  0.23896460573E+02  0.51100000000E-03 0.  1.
         12    1    3    3    0    0  0.93539539894E+00  0.41035296084E-01  0.13779467066E+00  0.94638037762E+00  0.00000000000E+00 0. -1.
</event>
<event>
 7    1  0.2313935E-008  0.4614231E+02  0.7816164E-02  0.1320468E+00
        -11   -1    0    0    0    0  0.00000000000E+00  0.00000000000E+00  0.45593999997E+02  0.45594000000E+02  0.51100000000E-03 0. -1.
         11   -1    0    0    0    0 -0.00000000000E+00 -0.00000000000E+00 -0.45593999997E+02  0.45594000000E+02  0.51100000000E-03 0.  1.
    9900012    2    1    2    0    0 -0.16335738216E+02  0.36118309446E+02 -0.21394532007E+02  0.46142305199E+02  0.99998854491E+01 0.  0.
         12    1    1    2    0    0  0.16335738216E+02 -0.36118309446E+02  0.21394532007E+02  0.45045694801E+02  0.00000000000E+00 0. -1.
         11    1    3    3    0    0 -0.64816935510E+01  0.20623324306E+02 -0.80643415616E+01  0.23073089559E+02  0.51100000000E-03 0. -1.
        -11    1    3    3    0    0 -0.27059086774E+01  0.34527095133E+01 -0.12148179376E+01  0.45518048768E+01  0.51100000000E-03 0.  1.
        -12    1    3    3    0    0 -0.71481359874E+01  0.12042275626E+02 -0.12115372508E+02  0.18517410763E+02  0.00000000000E+00 0.  1.
</event>
<event>
 7    1  0.2313935E-008  0.4614232E+02  0.7816164E-02  0.1320468E+00
        -11   -1    0    0    0    0  0.00000000000E+00  0.00000000000E+00  0.45593999997E+02  0.45594000000E+02  0.51100000000E-03 0.  1.
         11   -1    0    0    0    0 -0.00000000000E+00 -0.00000000000E+00 -0.45593999997E+02  0.45594000000E+02  0.51100000000E-03 0. -1.
    9900012    2    1    2    0    0  0.22062274905E+02  0.34084095654E+02  0.19510099652E+02  0.46142317200E+02  0.99999948822E+01 0.  0.
         12    1    1    2    0    0 -0.22062274905E+02 -0.34084095654E+02 -0.19510099652E+02  0.45045682800E+02  0.00000000000E+00 0. -1.
         11    1    3    3    0    0  0.44576329063E+01  0.12310067569E+02  0.42691235197E+01  0.13770754176E+02  0.51100000000E-03 0. -1.
        -11    1    3    3    0    0  0.16264867837E+02  0.20699500740E+02  0.12512400115E+02  0.29147476967E+02  0.51100000000E-03 0.  1.
         12    1    3    3    0    0  0.13397741611E+01  0.10745273440E+01  0.27285760180E+01  0.32240860568E+01  0.00000000000E+00 0. -1.
</event>
<event>
 7    1  0.2313935E-008  0.4614232E+02  0.7816164E-02  0.1320468E+00
        -11   -1    0    0    0    0  0.00000000000E+00  0.00000000000E+00  0.45593999997E+02  0.45594000000E+02  0.51100000000E-03 0.  1.
         11   -1    0    0    0    0 -0.00000000000E+00 -0.00000000000E+00 -0.45593999997E+02  0.45594000000E+02  0.51100000000E-03 0. -1.
    9900012    2    1    2    0    0  0.17122291617E+02  0.18856444493E+02  0.37153399672E+02  0.46142317895E+02  0.10000001224E+02 0.  0.
         12    1    1    2    0    0 -0.17122291617E+02 -0.18856444493E+02 -0.37153399672E+02  0.45045682105E+02  0.00000000000E+00 0. -1.
         11    1    3    3    0    0  0.79231731336E+01  0.10977827235E+02  0.27136705009E+02  0.30326393164E+02  0.51100000000E-03 0. -1.
        -11    1    3    3    0    0  0.52033185224E+01  0.52058862479E+01  0.68843693868E+01  0.10078210029E+02  0.51100000000E-03 0.  1.
         12    1    3    3    0    0  0.39957999606E+01  0.26727310096E+01  0.31323252753E+01  0.57377147024E+01  0.00000000000E+00 0. -1.
</event>
<event>
 7    1  0.2313935E-008  0.4614232E+02  0.7816164E-02  0.1320468E+00
        -11   -1    0    0    0    0  0.00000000000E+00  0.00000000000E+00  0.45593999997E+02  0.45594000000E+02  0.51100000000E-03 0. -1.
         11   -1    0    0    0    0 -0.00000000000E+00 -0.00000000000E+00 -0.45593999997E+02  0.45594000000E+02  0.51100000000E-03 0.  1.
    9900012    2    1    2    0    0 -0.36264188904E+02 -0.69407900910E+01 -0.25804021562E+02  0.46142317713E+02  0.99999995568E+01 0.  0.
         12    1    1    2    0    0  0.36264188904E+02  0.69407900910E+01  0.25804021562E+02  0.45045682287E+02  0.00000000000E+00 0. -1.
         11    1    3    3    0    0 -0.67731744081E+01  0.24206291567E+01 -0.39073160362E+01  0.81855027912E+01  0.51100000000E-03 0. -1.
        -11    1    3    3    0    0 -0.70059968481E+01 -0.23796966660E+01 -0.42427906071E+01  0.85292567352E+01  0.51100000000E-03 0.  1.
         12    1    3    3    0    0 -0.22485017648E+02 -0.69817225817E+01 -0.17653914918E+02  0.29427558186E+02  0.00000000000E+00 0. -1.
</event>
<event>
 7    1  0.2313935E-008  0.4614232E+02  0.7816164E-02  0.1320468E+00
        -11   -1    0    0    0    0  0.00000000000E+00  0.00000000000E+00  0.45593999997E+02  0.45594000000E+02  0.51100000000E-03 0.  1.
         11   -1    0    0    0    0 -0.00000000000E+00 -0.00000000000E+00 -0.45593999997E+02  0.45594000000E+02  0.51100000000E-03 0. -1.
    9900012    2    1    2    0    0 -0.26472229240E+02  0.10322909876E+02  0.34953857325E+02  0.46142317286E+02  0.99999956693E+01 0.  0.
         12    1    1    2    0    0  0.26472229240E+02 -0.10322909876E+02 -0.34953857325E+02  0.45045682714E+02  0.00000000000E+00 0. -1.
         11    1    3    3    0    0 -0.19886144405E+01 -0.41271072890E+00  0.18444066049E+01  0.27434929422E+01  0.51100000000E-03 0. -1.
        -11    1    3    3    0    0 -0.11576788477E+02  0.10005406946E+01  0.16866702877E+02  0.20481913469E+02  0.51100000000E-03 0.  1.
         12    1    3    3    0    0 -0.12906826323E+02  0.97350799102E+01  0.16242747843E+02  0.22916910875E+02  0.00000000000E+00 0. -1.
</event>
<event>
 7    1  0.2313935E-008  0.4614232E+02  0.7816164E-02  0.1320468E+00
        -11   -1    0    0    0    0  0.00000000000E+00  0.00000000000E+00  0.45593999997E+02  0.45594000000E+02  0.51100000000E-03 0. -1.
         11   -1    0    0    0    0 -0.00000000000E+00 -0.00000000000E+00 -0.45593999997E+02  0.45594000000E+02  0.51100000000E-03 0.  1.
    9900012    2    1    2    0    0 -0.32945728312E+02  0.12563170753E+01 -0.30693876258E+02  0.46142318893E+02  0.10000010325E+02 0.  0.
         12    1    1    2    0    0  0.32945728312E+02 -0.12563170753E+01  0.30693876258E+02  0.45045681107E+02  0.00000000000E+00 0. -1.
         11    1    3    3    0    0 -0.70274591642E+01 -0.43920729126E+00 -0.30237130884E+01  0.76629580745E+01  0.51100000000E-03 0. -1.
        -11    1    3    3    0    0 -0.10941227209E+02  0.19082500324E+01 -0.16068349730E+02  0.19533144507E+02  0.51100000000E-03 0.  1.
         12    1    3    3    0    0 -0.14977041939E+02 -0.21272566590E+00 -0.11601813440E+02  0.18946216312E+02  0.00000000000E+00 0. -1.
</event>
<event>
 7    1  0.2313935E-008  0.4614232E+02  0.7816164E-02  0.1320468E+00
        -11   -1    0    0    0    0  0.00000000000E+00  0.00000000000E+00  0.45593999997E+02  0.45594000000E+02  0.51100000000E-03 0.  1.
         11   -1    0    0    0    0 -0.00000000000E+00 -0.00000000000E+00 -0.45593999997E+02  0.45594000000E+02  0.51100000000E-03 0. -1.
    9900012    2    1    2    0    0 -0.32949700838E+02  0.78772102862E+00  0.30705214918E+02  0.46142317489E+02  0.99999975156E+01 0.  0.
         12    1    1    2    0    0  0.32949700838E+02 -0.78772102862E+00 -0.30705214918E+02  0.45045682511E+02  0.00000000000E+00 0. -1.
         11    1    3    3    0    0 -0.67541772414E+00  0.40315180487E+00 -0.39992156991E+00  0.88241600340E+00  0.51100000000E-03 0. -1.
        -11    1    3    3    0    0 -0.96196124793E+01  0.24087444776E+01  0.71397372621E+01  0.12219445267E+02  0.51100000000E-03 0.  1.
        -12    1    3    3    0    0 -0.22654670635E+02 -0.20241752539E+01  0.23965399226E+02  0.33040456218E+02  0.00000000000E+00 0.  1.
</event>
<event>
 7    1  0.2313935E-008  0.4614232E+02  0.7816164E-02  0.1320468E+00
        -11   -1    0    0    0    0  0.00000000000E+00  0.00000000000E+00  0.45593999997E+02  0.45594000000E+02  0.51100000000E-03 0. -1.
         11   -1    0    0    0    0 -0.00000000000E+00 -0.00000000000E+00 -0.45593999997E+02  0.45594000000E+02  0.51100000000E-03 0.  1.
    9900012    2    1    2    0    0  0.36999325897E+02  0.52508834994E+01 -0.25151375041E+02  0.46142316957E+02  0.99999926650E+01 0.  0.
         12    1    1    2    0    0 -0.36999325897E+02 -0.52508834994E+01  0.25151375041E+02  0.45045683043E+02  0.00000000000E+00 0. -1.
         11    1    3    3    0    0  0.37579424112E+01  0.27196423212E+01 -0.28454224209E+01  0.54419678919E+01  0.51100000000E-03 0. -1.
        -11    1    3    3    0    0  0.16455263066E+02  0.44916083922E+01 -0.12650508609E+02  0.21236421470E+02  0.51100000000E-03 0.  1.
         12    1    3    3    0    0  0.16786120420E+02 -0.19603672141E+01 -0.96554440114E+01  0.19463927595E+02  0.00000000000E+00 0. -1.
</event>
<event>
 7    1  0.2313935E-008  0.4614232E+02  0.7816164E-02  0.1320468E+00
        -11   -1    0    0    0    0  0.00000000000E+00  0.00000000000E+00  0.45593999997E+02  0.45594000000E+02  0.51100000000E-03 0.  1.
         11   -1    0    0    0    0 -0.00000000000E+00 -0.00000000000E+00 -0.45593999997E+02  0.45594000000E+02  0.51100000000E-03 0. -1.
    9900012    2    1    2    0    0  0.18237780871E+02  0.13749696225E+01  0.41165596209E+02  0.46142317590E+02  0.99999984407E+01 0.  0.
         12    1    1    2    0    0 -0.18237780871E+02 -0.13749696225E+01 -0.41165596209E+02  0.45045682410E+02  0.00000000000E+00 0. -1.
         11    1    3    3    0    0  0.29165989471E+01 -0.19518442184E+01  0.93211106976E+01  0.99598870561E+01  0.51100000000E-03 0. -1.
        -11    1    3    3    0    0  0.96218179268E+01  0.14599206448E+01  0.26190327292E+02  0.27940007023E+02  0.51100000000E-03 0.  1.
        -12    1    3    3    0    0  0.56993639967E+01  0.18668931961E+01  0.56541582190E+01  0.82424235111E+01  0.00000000000E+00 0.  1.
</event>
<event>
 7    1  0.2313935E-008  0.4614232E+02  0.7816164E-02  0.1320468E+00
        -11   -1    0    0    0    0  0.00000000000E+00  0.00000000000E+00  0.45593999997E+02  0.45594000000E+02  0.51100000000E-03 0.  1.
         11   -1    0    0    0    0 -0.00000000000E+00 -0.00000000000E+00 -0.45593999997E+02  0.45594000000E+02  0.51100000000E-03 0. -1.
    9900012    2    1    2    0    0  0.18001804391E+02  0.25833140300E+02  0.32213311012E+02  0.46142317571E+02  0.99999982689E+01 0.  0.
         12    1    1    2    0    0 -0.18001804391E+02 -0.25833140300E+02 -0.32213311012E+02  0.45045682429E+02  0.00000000000E+00 0. -1.
         11    1    3    3    0    0  0.72727434723E+01  0.82690799901E+01  0.59144814729E+01  0.12500062914E+02  0.51100000000E-03 0. -1.
        -11    1    3    3    0    0  0.82987654992E+01  0.15708619762E+02  0.20835728149E+02  0.27381705779E+02  0.51100000000E-03 0.  1.
         12    1    3    3    0    0  0.24302954199E+01  0.18554405488E+01  0.54631013904E+01  0.62605488785E+01  0.00000000000E+00 0. -1.
</event>
<event>
 7    1  0.2313935E-008  0.4614232E+02  0.7816164E-02  0.1320468E+00
        -11   -1    0    0    0    0  0.00000000000E+00  0.00000000000E+00  0.45593999997E+02  0.45594000000E+02  0.51100000000E-03 0. -1.
         11   -1    0    0    0    0 -0.00000000000E+00 -0.00000000000E+00 -0.45593999997E+02  0.45594000000E+02  0.51100000000E-03 0.  1.
    9900012    2    1    2    0    0 -0.39740113106E+02 -0.95156381251E+01 -0.18954932197E+02  0.46142318596E+02  0.10000007612E+02 0.  0.
         12    1    1    2    0    0  0.39740113106E+02  0.95156381251E+01  0.18954932197E+02  0.45045681404E+02  0.00000000000E+00 0. -1.
         11    1    3    3    0    0 -0.49674912874E+01  0.12625773412E+01 -0.24503245404E+01  0.56810352796E+01  0.51100000000E-03 0. -1.
        -11    1    3    3    0    0 -0.67231064688E+01  0.39460723891E+00 -0.34522218349E+01  0.75679397013E+01  0.51100000000E-03 0.  1.
        -12    1    3    3    0    0 -0.28049515349E+02 -0.11172822705E+02 -0.13052385822E+02  0.32893343615E+02  0.00000000000E+00 0.  1.
</event>
<event>
 7    1  0.2313935E-008  0.4614232E+02  0.7816164E-02  0.1320468E+00
        -11   -1    0    0    0    0  0.00000000000E+00  0.00000000000E+00  0.45593999997E+02  0.45594000000E+02  0.51100000000E-03 0.  1.
         11   -1    0    0    0    0 -0.00000000000E+00 -0.00000000000E+00 -0.45593999997E+02  0.45594000000E+02  0.51100000000E-03 0. -1.
    9900012    2    1    2    0    0  0.16898928228E+02 -0.41754335182E+02  0.33938221877E+00  0.46142318053E+02  0.10000002665E+02 0.  0.
         12    1    1    2    0    0 -0.16898928228E+02  0.41754335182E+02 -0.33938221877E+00  0.45045681947E+02  0.00000000000E+00 0. -1.
         11    1    3    3    0    0  0.13899648491E+00  0.13381368371E-01  0.82881393380E+00  0.84049502188E+00  0.51100000000E-03 0. -1.
        -11    1    3    3    0    0  0.94887035008E+01 -0.28359490221E+02 -0.20162912211E+01  0.29972681066E+02  0.51100000000E-03 0.  1.
         12    1    3    3    0    0  0.72712282420E+01 -0.13408226330E+02  0.15268595061E+01  0.15329141966E+02  0.00000000000E+00 0. -1.
</event>
<event>
 7    1  0.2313935E-008  0.4614232E+02  0.7816164E-02  0.1320468E+00
        -11   -1    0    0    0    0  0.00000000000E+00  0.00000000000E+00  0.45593999997E+02  0.45594000000E+02  0.51100000000E-03 0.  1.
         11   -1    0    0    0    0 -0.00000000000E+00 -0.00000000000E+00 -0.45593999997E+02  0.45594000000E+02  0.51100000000E-03 0. -1.
    9900012    2    1    2    0    0 -0.18156750296E+02 -0.11970187889E+01  0.41206953579E+02  0.46142318092E+02  0.10000003015E+02 0.  0.
         12    1    1    2    0    0  0.18156750296E+02  0.11970187889E+01 -0.41206953579E+02  0.45045681908E+02  0.00000000000E+00 0. -1.
         11    1    3    3    0    0 -0.54770918860E+01 -0.16188900518E+01  0.23444343529E+02  0.24129993458E+02  0.51100000000E-03 0. -1.
        -11    1    3    3    0    0 -0.66666380677E+01 -0.69364651883E+00  0.11114863230E+02  0.12979421925E+02  0.51100000000E-03 0.  1.
        -12    1    3    3    0    0 -0.60130203422E+01  0.11155177817E+01  0.66477468204E+01  0.90329027087E+01  0.00000000000E+00 0.  1.
</event>
<event>
 7    1  0.2313935E-008  0.4614232E+02  0.7816164E-02  0.1320468E+00
        -11   -1    0    0    0    0  0.00000000000E+00  0.00000000000E+00  0.45593999997E+02  0.45594000000E+02  0.51100000000E-03 0.  1.
         11   -1    0    0    0    0 -0.00000000000E+00 -0.00000000000E+00 -0.45593999997E+02  0.45594000000E+02  0.51100000000E-03 0. -1.
    9900012    2    1    2    0    0  0.37707111871E+02  0.31222135453E+00  0.24641222722E+02  0.46142316243E+02  0.99999861597E+01 0.  0.
         12    1    1    2    0    0 -0.37707111871E+02 -0.31222135453E+00 -0.24641222722E+02  0.45045683757E+02  0.00000000000E+00 0. -1.
         11    1    3    3    0    0  0.15511569088E+02  0.20210308357E+01  0.72990771517E+01  0.17261803751E+02  0.51100000000E-03 0. -1.
        -11    1    3    3    0    0  0.71269188219E+01  0.23219151999E+01  0.56190179142E+01  0.93679039635E+01  0.51100000000E-03 0.  1.
         12    1    3    3    0    0  0.15068623961E+02 -0.40307246811E+01  0.11723127657E+02  0.19512608529E+02  0.00000000000E+00 0. -1.
</event>
<event>
 7    1  0.2313935E-008  0.4614232E+02  0.7816164E-02  0.1320468E+00
        -11   -1    0    0    0    0  0.00000000000E+00  0.00000000000E+00  0.45593999997E+02  0.45594000000E+02  0.51100000000E-03 0. -1.
         11   -1    0    0    0    0 -0.00000000000E+00 -0.00000000000E+00 -0.45593999997E+02  0.45594000000E+02  0.51100000000E-03 0.  1.
    9900012    2    1    2    0    0 -0.19619110800E+02  0.38250164435E+02 -0.13458389619E+02  0.46142324969E+02  0.10000065723E+02 0.  0.
         12    1    1    2    0    0  0.19619110800E+02 -0.38250164435E+02  0.13458389619E+02  0.45045675031E+02  0.00000000000E+00 0. -1.
         11    1    3    3    0    0 -0.25448660158E+01  0.84893025709E+01 -0.61530463593E+01  0.10789095464E+02  0.51100000000E-03 0. -1.
        -11    1    3    3    0    0 -0.28036418520E+01  0.85184864505E+01 -0.25595101364E+01  0.93260984040E+01  0.51100000000E-03 0.  1.
        -12    1    3    3    0    0 -0.14270602932E+02  0.21242375414E+02 -0.47458331234E+01  0.26027131100E+02  0.00000000000E+00 0.  1.
</event>
<event>
 7    1  0.2313935E-008  0.4614232E+02  0.7816164E-02  0.1320468E+00
        -11   -1    0    0    0    0  0.00000000000E+00  0.00000000000E+00  0.45593999997E+02  0.45594000000E+02  0.51100000000E-03 0.  1.
         11   -1    0    0    0    0 -0.00000000000E+00 -0.00000000000E+00 -0.45593999997E+02  0.45594000000E+02  0.51100000000E-03 0. -1.
    9900012    2    1    2    0    0 -0.14381889063E+02  0.41027826251E+02  0.11789492602E+02  0.46142318789E+02  0.10000009377E+02 0.  0.
         12    1    1    2    0    0  0.14381889063E+02 -0.41027826251E+02 -0.11789492602E+02  0.45045681211E+02  0.00000000000E+00 0. -1.
         11    1    3    3    0    0 -0.15977551515E+01  0.51806275965E+01  0.40083566315E+01  0.67423027938E+01  0.51100000000E-03 0. -1.
        -11    1    3    3    0    0 -0.30660332150E+01  0.30001918102E+01  0.79605229811E-01  0.42904600951E+01  0.51100000000E-03 0.  1.
        -12    1    3    3    0    0 -0.97181006966E+01  0.32847006844E+02  0.77015307407E+01  0.35109555901E+02  0.00000000000E+00 0.  1.
</event>
<event>
 7    1  0.2313935E-008  0.4614232E+02  0.7816164E-02  0.1320468E+00
        -11   -1    0    0    0    0  0.00000000000E+00  0.00000000000E+00  0.45593999997E+02  0.45594000000E+02  0.51100000000E-03 0. -1.
         11   -1    0    0    0    0 -0.00000000000E+00 -0.00000000000E+00 -0.45593999997E+02  0.45594000000E+02  0.51100000000E-03 0.  1.
    9900012    2    1    2    0    0 -0.85709423388E+01 -0.38905330135E+02 -0.21024451299E+02  0.46142319653E+02  0.10000017251E+02 0.  0.
         12    1    1    2    0    0  0.85709423388E+01  0.38905330135E+02  0.21024451299E+02  0.45045680347E+02  0.00000000000E+00 0. -1.
         11    1    3    3    0    0 -0.25592758523E+01 -0.74027607768E+01 -0.56481169244E+01  0.96567067398E+01  0.51100000000E-03 0. -1.
        -11    1    3    3    0    0 -0.40265172628E+01 -0.30430718187E+02 -0.13427173800E+02  0.33504185517E+02  0.51100000000E-03 0.  1.
         12    1    3    3    0    0 -0.19851492237E+01 -0.10718511719E+01 -0.19491605746E+01  0.29814273965E+01  0.00000000000E+00 0. -1.
</event>
<event>
 7    1  0.2313935E-008  0.4614232E+02  0.7816164E-02  0.1320468E+00
        -11   -1    0    0    0    0  0.00000000000E+00  0.00000000000E+00  0.45593999997E+02  0.45594000000E+02  0.51100000000E-03 0.  1.
         11   -1    0    0    0    0 -0.00000000000E+00 -0.00000000000E+00 -0.45593999997E+02  0.45594000000E+02  0.51100000000E-03 0. -1.
    9900012    2    1    2    0    0  0.32258710086E+02 -0.44714135353E+01  0.31120661059E+02  0.46142318074E+02  0.10000002854E+02 0.  0.
         12    1    1    2    0    0 -0.32258710086E+02  0.44714135353E+01 -0.31120661059E+02  0.45045681926E+02  0.00000000000E+00 0. -1.
         11    1    3    3    0    0  0.13950888586E+02 -0.61178280635E+00  0.12936049225E+02  0.19035307729E+02  0.51100000000E-03 0.  1.
        -11    1    3    3    0    0  0.29134609780E+01 -0.12469684108E+01  0.40777526726E-01  0.31693608434E+01  0.51100000000E-03 0. -1.
         12    1    3    3    0    0  0.15394360522E+02 -0.26126623181E+01  0.18143834307E+02  0.23937649501E+02  0.00000000000E+00 0. -1.
</event>
<event>
 7    1  0.2313935E-008  0.4614232E+02  0.7816164E-02  0.1320468E+00
        -11   -1    0    0    0    0  0.00000000000E+00  0.00000000000E+00  0.45593999997E+02  0.45594000000E+02  0.51100000000E-03 0.  1.
         11   -1    0    0    0    0 -0.00000000000E+00 -0.00000000000E+00 -0.45593999997E+02  0.45594000000E+02  0.51100000000E-03 0. -1.
    9900012    2    1    2    0    0  0.17011066442E+02 -0.60612068119E+00  0.41705751861E+02  0.46142317609E+02  0.99999986147E+01 0.  0.
         12    1    1    2    0    0 -0.17011066442E+02  0.60612068119E+00 -0.41705751861E+02  0.45045682391E+02  0.00000000000E+00 0. -1.
         11    1    3    3    0    0  0.40649621206E+01 -0.27049335938E+01  0.11127463441E+02  0.12151585316E+02  0.51100000000E-03 0. -1.
        -11    1    3    3    0    0  0.11302706778E+02  0.24974178224E+01  0.30076092227E+02  0.32226690805E+02  0.51100000000E-03 0.  1.
         12    1    3    3    0    0  0.16433975432E+01 -0.39860490982E+00  0.50219619259E+00  0.17640414890E+01  0.00000000000E+00 0. -1.
</event>
<event>
 7    1  0.2313935E-008  0.4614232E+02  0.7816164E-02  0.1320468E+00
        -11   -1    0    0    0    0  0.00000000000E+00  0.00000000000E+00  0.45593999997E+02  0.45594000000E+02  0.51100000000E-03 0.  1.
         11   -1    0    0    0    0 -0.00000000000E+00 -0.00000000000E+00 -0.45593999997E+02  0.45594000000E+02  0.51100000000E-03 0. -1.
    9900012    2    1    2    0    0 -0.44575640991E+02 -0.57961444943E+01  0.29206681019E+01  0.46142319154E+02  0.10000012698E+02 0.  0.
         12    1    1    2    0    0  0.44575640991E+02  0.57961444943E+01 -0.29206681019E+01  0.45045680846E+02  0.00000000000E+00 0. -1.
         11    1    3    3    0    0 -0.34242150846E+02 -0.58672103933E+01  0.25728757414E+00  0.34742125000E+02  0.51100000000E-03 0. -1.
        -11    1    3    3    0    0 -0.44396434667E+01 -0.19390033731E+01  0.14388370747E+01  0.50537531183E+01  0.51100000000E-03 0.  1.
         12    1    3    3    0    0 -0.58938466783E+01  0.20100692721E+01  0.12245434531E+01  0.63464410353E+01  0.00000000000E+00 0. -1.
</event>
<event>
 7    1  0.2313935E-008  0.4614232E+02  0.7816164E-02  0.1320468E+00
        -11   -1    0    0    0    0  0.00000000000E+00  0.00000000000E+00  0.45593999997E+02  0.45594000000E+02  0.51100000000E-03 0.  1.
         11   -1    0    0    0    0 -0.00000000000E+00 -0.00000000000E+00 -0.45593999997E+02  0.45594000000E+02  0.51100000000E-03 0. -1.
    9900012    2    1    2    0    0  0.22034584610E+02 -0.37635761945E+02  0.11275635611E+02  0.46142318137E+02  0.10000003425E+02 0.  0.
         12    1    1    2    0    0 -0.22034584610E+02  0.37635761945E+02 -0.11275635611E+02  0.45045681863E+02  0.00000000000E+00 0. -1.
         11    1    3    3    0    0  0.23612469328E+01 -0.11281828718E+02  0.29898428671E+01  0.11907741471E+02  0.51100000000E-03 0. -1.
        -11    1    3    3    0    0  0.11750984836E+02 -0.16904083519E+02  0.29469559709E+01  0.20797072726E+02  0.51100000000E-03 0.  1.
        -12    1    3    3    0    0  0.79223528412E+01 -0.94498497076E+01  0.53388367732E+01  0.13437503940E+02  0.00000000000E+00 0.  1.
</event>
<event>
 7    1  0.2313935E-008  0.4614231E+02  0.7816164E-02  0.1320468E+00
        -11   -1    0    0    0    0  0.00000000000E+00  0.00000000000E+00  0.45593999997E+02  0.45594000000E+02  0.51100000000E-03 0.  1.
         11   -1    0    0    0    0 -0.00000000000E+00 -0.00000000000E+00 -0.45593999997E+02  0.45594000000E+02  0.51100000000E-03 0. -1.
    9900012    2    1    2    0    0 -0.22356531828E+01 -0.36961851176E+02  0.25650300606E+02  0.46142306436E+02  0.99998967251E+01 0.  0.
         12    1    1    2    0    0  0.22356531828E+01  0.36961851176E+02 -0.25650300606E+02  0.45045693564E+02  0.00000000000E+00 0. -1.
         11    1    3    3    0    0 -0.52002467250E+00 -0.84983352944E+00  0.26602456713E+01  0.28406953340E+01  0.51100000000E-03 0. -1.
        -11    1    3    3    0    0  0.98694954028E+00 -0.29019720276E+02  0.17130099092E+02  0.33712883731E+02  0.51100000000E-03 0.  1.
        -12    1    3    3    0    0 -0.27025780506E+01 -0.70922973701E+01  0.58599558425E+01  0.95887273703E+01  0.00000000000E+00 0.  1.
</event>
<event>
 7    1  0.2313935E-008  0.4614232E+02  0.7816164E-02  0.1320468E+00
        -11   -1    0    0    0    0  0.00000000000E+00  0.00000000000E+00  0.45593999997E+02  0.45594000000E+02  0.51100000000E-03 0.  1.
         11   -1    0    0    0    0 -0.00000000000E+00 -0.00000000000E+00 -0.45593999997E+02  0.45594000000E+02  0.51100000000E-03 0. -1.
    9900012    2    1    2    0    0  0.29828535144E+02 -0.20775202422E+01  0.33690590540E+02  0.46142317742E+02  0.99999998228E+01 0.  0.
         12    1    1    2    0    0 -0.29828535144E+02  0.20775202422E+01 -0.33690590540E+02  0.45045682258E+02  0.00000000000E+00 0. -1.
         11    1    3    3    0    0  0.15974903886E+01 -0.81064467414E+00  0.45456758896E+01  0.48859277404E+01  0.51100000000E-03 0. -1.
        -11    1    3    3    0    0  0.37997562364E+01 -0.89313331044E+00  0.10896445057E+01  0.40525498117E+01  0.51100000000E-03 0.  1.
        -12    1    3    3    0    0  0.24431288519E+02 -0.37374225759E+00  0.28055270145E+02  0.37203840190E+02  0.00000000000E+00 0.  1.
</event>
<event>
 7    1  0.2313935E-008  0.4614232E+02  0.7816164E-02  0.1320468E+00
        -11   -1    0    0    0    0  0.00000000000E+00  0.00000000000E+00  0.45593999997E+02  0.45594000000E+02  0.51100000000E-03 0. -1.
         11   -1    0    0    0    0 -0.00000000000E+00 -0.00000000000E+00 -0.45593999997E+02  0.45594000000E+02  0.51100000000E-03 0.  1.
    9900012    2    1    2    0    0  0.26221424158E+02  0.29690976403E+02  0.21447525268E+02  0.46142317579E+02  0.99999983401E+01 0.  0.
         12    1    1    2    0    0 -0.26221424158E+02 -0.29690976403E+02 -0.21447525268E+02  0.45045682421E+02  0.00000000000E+00 0. -1.
         11    1    3    3    0    0  0.12601105923E+02  0.14479156420E+02  0.89395539220E+01  0.21174264230E+02  0.51100000000E-03 0. -1.
        -11    1    3    3    0    0  0.13686172032E+02  0.11470485365E+02  0.10051103456E+02  0.20491657335E+02  0.51100000000E-03 0.  1.
         12    1    3    3    0    0 -0.65853795968E-01  0.37413346175E+01  0.24568678892E+01  0.44763960133E+01  0.00000000000E+00 0. -1.
</event>
<event>
 7    1  0.2313935E-008  0.4614232E+02  0.7816164E-02  0.1320468E+00
        -11   -1    0    0    0    0  0.00000000000E+00  0.00000000000E+00  0.45593999997E+02  0.45594000000E+02  0.51100000000E-03 0.  1.
         11   -1    0    0    0    0 -0.00000000000E+00 -0.00000000000E+00 -0.45593999997E+02  0.45594000000E+02  0.51100000000E-03 0. -1.
    9900012    2    1    2    0    0  0.38270696098E+02  0.22066376296E+02 -0.88058064443E+01  0.46142319078E+02  0.10000012005E+02 0.  0.
         12    1    1    2    0    0 -0.38270696098E+02 -0.22066376296E+02  0.88058064443E+01  0.45045680922E+02  0.00000000000E+00 0. -1.
         11    1    3    3    0    0  0.22954965192E+02  0.16516661361E+02 -0.46981626961E+01  0.28667111163E+02  0.51100000000E-03 0.  1.
        -11    1    3    3    0    0  0.62043302947E+01  0.37634277766E+01  0.15602109345E+00  0.72581985284E+01  0.51100000000E-03 0. -1.
         12    1    3    3    0    0  0.91114006115E+01  0.17862871584E+01 -0.42636648417E+01  0.10217009386E+02  0.00000000000E+00 0. -1.
</event>
<event>
 7    1  0.2313935E-008  0.4614232E+02  0.7816164E-02  0.1320468E+00
        -11   -1    0    0    0    0  0.00000000000E+00  0.00000000000E+00  0.45593999997E+02  0.45594000000E+02  0.51100000000E-03 0. -1.
         11   -1    0    0    0    0 -0.00000000000E+00 -0.00000000000E+00 -0.45593999997E+02  0.45594000000E+02  0.51100000000E-03 0.  1.
    9900012    2    1    2    0    0 -0.34723205553E+02 -0.51101084426E+01  0.28236486496E+02  0.46142318944E+02  0.10000010784E+02 0.  0.
         12    1    1    2    0    0  0.34723205553E+02  0.51101084426E+01 -0.28236486496E+02  0.45045681056E+02  0.00000000000E+00 0. -1.
         11    1    3    3    0    0 -0.13661124841E+01  0.80752660224E+00  0.30268888811E+01  0.34176628114E+01  0.51100000000E-03 0. -1.
        -11    1    3    3    0    0 -0.87711193850E+01 -0.22097323950E+01  0.34401287352E+01  0.96772898324E+01  0.51100000000E-03 0.  1.
        -12    1    3    3    0    0 -0.24585973684E+02 -0.37079026498E+01  0.21769468880E+02  0.33047366300E+02  0.00000000000E+00 0.  1.
</event>
<event>
 7    1  0.2313935E-008  0.4614232E+02  0.7816164E-02  0.1320468E+00
        -11   -1    0    0    0    0  0.00000000000E+00  0.00000000000E+00  0.45593999997E+02  0.45594000000E+02  0.51100000000E-03 0. -1.
         11   -1    0    0    0    0 -0.00000000000E+00 -0.00000000000E+00 -0.45593999997E+02  0.45594000000E+02  0.51100000000E-03 0.  1.
    9900012    2    1    2    0    0 -0.39326654024E+01  0.40246472477E+01 -0.44692838850E+02  0.46142317775E+02  0.10000000127E+02 0.  0.
         12    1    1    2    0    0  0.39326654024E+01 -0.40246472477E+01  0.44692838850E+02  0.45045682225E+02  0.00000000000E+00 0. -1.
         11    1    3    3    0    0 -0.21724565495E+01  0.73452356223E+00 -0.32468118216E+02  0.32549006023E+02  0.51100000000E-03 0.  1.
        -11    1    3    3    0    0  0.29007285997E+00 -0.96840122537E+00 -0.10370578212E+01  0.14482514917E+01  0.51100000000E-03 0. -1.
         12    1    3    3    0    0 -0.20502817129E+01  0.42585249108E+01 -0.11187662812E+02  0.12145060260E+02  0.00000000000E+00 0. -1.
</event>
<event>
 7    1  0.2313935E-008  0.4614232E+02  0.7816164E-02  0.1320468E+00
        -11   -1    0    0    0    0  0.00000000000E+00  0.00000000000E+00  0.45593999997E+02  0.45594000000E+02  0.51100000000E-03 0.  1.
         11   -1    0    0    0    0 -0.00000000000E+00 -0.00000000000E+00 -0.45593999997E+02  0.45594000000E+02  0.51100000000E-03 0. -1.
    9900012    2    1    2    0    0  0.64954970286E+01 -0.26082822437E+02  0.36147037924E+02  0.46142318091E+02  0.10000003012E+02 0.  0.
         12    1    1    2    0    0 -0.64954970286E+01  0.26082822437E+02 -0.36147037924E+02  0.45045681909E+02  0.00000000000E+00 0. -1.
         11    1    3    3    0    0  0.35421555900E+01 -0.62515944046E+01  0.13990301843E+02  0.15727614083E+02  0.51100000000E-03 0. -1.
        -11    1    3    3    0    0  0.43440044415E+01 -0.15960127830E+02  0.19237320047E+02  0.25370662935E+02  0.51100000000E-03 0.  1.
         12    1    3    3    0    0 -0.13906630029E+01 -0.38711002026E+01  0.29194160343E+01  0.50440410732E+01  0.00000000000E+00 0. -1.
</event>
<event>
 7    1  0.2313935E-008  0.4614232E+02  0.7816164E-02  0.1320468E+00
        -11   -1    0    0    0    0  0.00000000000E+00  0.00000000000E+00  0.45593999997E+02  0.45594000000E+02  0.51100000000E-03 0.  1.
         11   -1    0    0    0    0 -0.00000000000E+00 -0.00000000000E+00 -0.45593999997E+02  0.45594000000E+02  0.51100000000E-03 0. -1.
    9900012    2    1    2    0    0  0.84340370119E+01 -0.15569146324E+02  0.41419586442E+02  0.46142318314E+02  0.10000005040E+02 0.  0.
         12    1    1    2    0    0 -0.84340370119E+01  0.15569146324E+02 -0.41419586442E+02  0.45045681686E+02  0.00000000000E+00 0. -1.
         11    1    3    3    0    0 -0.54798971798E+00 -0.19575430603E+01  0.31179632889E+01  0.37220911993E+01  0.51100000000E-03 0. -1.
        -11    1    3    3    0    0  0.63167093401E+01 -0.31608213940E+01  0.19567494041E+02  0.20803327428E+02  0.51100000000E-03 0.  1.
        -12    1    3    3    0    0  0.26653173897E+01 -0.10450781870E+02  0.18734129112E+02  0.21616899687E+02  0.00000000000E+00 0.  1.
</event>
<event>
 7    1  0.2313935E-008  0.4614232E+02  0.7816164E-02  0.1320468E+00
        -11   -1    0    0    0    0  0.00000000000E+00  0.00000000000E+00  0.45593999997E+02  0.45594000000E+02  0.51100000000E-03 0.  1.
         11   -1    0    0    0    0 -0.00000000000E+00 -0.00000000000E+00 -0.45593999997E+02  0.45594000000E+02  0.51100000000E-03 0. -1.
    9900012    2    1    2    0    0 -0.18081165065E+02 -0.28026391006E+02  0.30277159892E+02  0.46142317254E+02  0.99999953750E+01 0.  0.
         12    1    1    2    0    0  0.18081165065E+02  0.28026391006E+02 -0.30277159892E+02  0.45045682746E+02  0.00000000000E+00 0. -1.
         11    1    3    3    0    0 -0.73772933570E+01 -0.15228248300E+02  0.11752693326E+02  0.20602179600E+02  0.51100000000E-03 0. -1.
        -11    1    3    3    0    0 -0.67958624897E+01 -0.10037530837E+02  0.97915882311E+01  0.15582393033E+02  0.51100000000E-03 0.  1.
         12    1    3    3    0    0 -0.39080092188E+01 -0.27606118689E+01  0.87328783343E+01  0.99577446215E+01  0.00000000000E+00 0. -1.
</event>
<event>
 7    1  0.2313935E-008  0.4614232E+02  0.7816164E-02  0.1320468E+00
        -11   -1    0    0    0    0  0.00000000000E+00  0.00000000000E+00  0.45593999997E+02  0.45594000000E+02  0.51100000000E-03 0.  1.
         11   -1    0    0    0    0 -0.00000000000E+00 -0.00000000000E+00 -0.45593999997E+02  0.45594000000E+02  0.51100000000E-03 0. -1.
    9900012    2    1    2    0    0 -0.21012241189E+02 -0.16540205100E+02  0.36249426604E+02  0.46142316593E+02  0.99999893465E+01 0.  0.
         12    1    1    2    0    0  0.21012241189E+02  0.16540205100E+02 -0.36249426604E+02  0.45045683407E+02  0.00000000000E+00 0. -1.
         11    1    3    3    0    0 -0.26868337069E+01 -0.31412894801E+01  0.32559728444E+01  0.52619515763E+01  0.51100000000E-03 0. -1.
        -11    1    3    3    0    0 -0.16321416307E+02 -0.10402119235E+02  0.31515556119E+02  0.36984091074E+02  0.51100000000E-03 0.  1.
        -12    1    3    3    0    0 -0.20039911752E+01 -0.29967963842E+01  0.14778976408E+01  0.38962739425E+01  0.00000000000E+00 0.  1.
</event>
<event>
 7    1  0.2313935E-008  0.4614232E+02  0.7816164E-02  0.1320468E+00
        -11   -1    0    0    0    0  0.00000000000E+00  0.00000000000E+00  0.45593999997E+02  0.45594000000E+02  0.51100000000E-03 0.  1.
         11   -1    0    0    0    0 -0.00000000000E+00 -0.00000000000E+00 -0.45593999997E+02  0.45594000000E+02  0.51100000000E-03 0. -1.
    9900012    2    1    2    0    0 -0.37328186642E+02 -0.13446726151E+02  0.21328514114E+02  0.46142317893E+02  0.10000001204E+02 0.  0.
         12    1    1    2    0    0  0.37328186642E+02  0.13446726151E+02 -0.21328514114E+02  0.45045682107E+02  0.00000000000E+00 0. -1.
         11    1    3    3    0    0 -0.11752155803E+02 -0.53609619528E+01  0.47083691869E+01  0.13748520638E+02  0.51100000000E-03 0. -1.
        -11    1    3    3    0    0 -0.15290885503E+02 -0.15872161230E+01  0.70392338684E+01  0.16908023190E+02  0.51100000000E-03 0.  1.
         12    1    3    3    0    0 -0.10285145336E+02 -0.64985480749E+01  0.95809110588E+01  0.15485774065E+02  0.00000000000E+00 0. -1.
</event>
<event>
 7    1  0.2313935E-008  0.4614232E+02  0.7816164E-02  0.1320468E+00
        -11   -1    0    0    0    0  0.00000000000E+00  0.00000000000E+00  0.45593999997E+02  0.45594000000E+02  0.51100000000E-03 0.  1.
         11   -1    0    0    0    0 -0.00000000000E+00 -0.00000000000E+00 -0.45593999997E+02  0.45594000000E+02  0.51100000000E-03 0. -1.
    9900012    2    1    2    0    0  0.23767826490E+02  0.61400783501E+01  0.37769077403E+02  0.46142319341E+02  0.10000014404E+02 0.  0.
         12    1    1    2    0    0 -0.23767826490E+02 -0.61400783501E+01 -0.37769077403E+02  0.45045680659E+02  0.00000000000E+00 0. -1.
         11    1    3    3    0    0  0.14710288629E+02  0.15824748658E+01  0.18484508784E+02  0.23676441529E+02  0.51100000000E-03 0. -1.
        -11    1    3    3    0    0  0.69489584522E+01  0.18365932224E+01  0.16636667565E+02  0.18122908325E+02  0.51100000000E-03 0.  1.
         12    1    3    3    0    0  0.21085794089E+01  0.27210102618E+01  0.26479010545E+01  0.43429694868E+01  0.00000000000E+00 0. -1.
</event>
<event>
 7    1  0.2313935E-008  0.4614232E+02  0.7816164E-02  0.1320468E+00
        -11   -1    0    0    0    0  0.00000000000E+00  0.00000000000E+00  0.45593999997E+02  0.45594000000E+02  0.51100000000E-03 0.  1.
         11   -1    0    0    0    0 -0.00000000000E+00 -0.00000000000E+00 -0.45593999997E+02  0.45594000000E+02  0.51100000000E-03 0. -1.
    9900012    2    1    2    0    0  0.25431595393E+02  0.37177990607E+02  0.37996287408E+00  0.46142318725E+02  0.10000008786E+02 0.  0.
         12    1    1    2    0    0 -0.25431595393E+02 -0.37177990607E+02 -0.37996287408E+00  0.45045681275E+02  0.00000000000E+00 0. -1.
         11    1    3    3    0    0  0.90547394190E+01  0.10047001008E+02 -0.21791479619E+01  0.13699606611E+02  0.51100000000E-03 0. -1.
        -11    1    3    3    0    0 -0.57407620617E+00  0.11729285156E+01 -0.18536913526E+00  0.13189718612E+01  0.51100000000E-03 0.  1.
        -12    1    3    3    0    0  0.16950932180E+02  0.25958061084E+02  0.27444799713E+01  0.31123740253E+02  0.00000000000E+00 0.  1.
</event>
<event>
 7    1  0.2313935E-008  0.4614231E+02  0.7816164E-02  0.1320468E+00
        -11   -1    0    0    0    0  0.00000000000E+00  0.00000000000E+00  0.45593999997E+02  0.45594000000E+02  0.51100000000E-03 0.  1.
         11   -1    0    0    0    0 -0.00000000000E+00 -0.00000000000E+00 -0.45593999997E+02  0.45594000000E+02  0.51100000000E-03 0. -1.
    9900012    2    1    2    0    0 -0.21750840893E+02 -0.10133031634E+01  0.39433334839E+02  0.46142314752E+02  0.99999725648E+01 0.  0.
         12    1    1    2    0    0  0.21750840893E+02  0.10133031634E+01 -0.39433334839E+02  0.45045685248E+02  0.00000000000E+00 0. -1.
         11    1    3    3    0    0 -0.22171568688E+01  0.26748969024E+01  0.34569068987E+01  0.49011288073E+01  0.51100000000E-03 0. -1.
        -11    1    3    3    0    0 -0.82193627654E+01 -0.18325866830E+01  0.11948288814E+02  0.14617725680E+02  0.51100000000E-03 0.  1.
        -12    1    3    3    0    0 -0.11314321259E+02 -0.18556133828E+01  0.24028139127E+02  0.26623460265E+02  0.00000000000E+00 0.  1.
</event>
<event>
 7    1  0.2313935E-008  0.4614232E+02  0.7816164E-02  0.1320468E+00
        -11   -1    0    0    0    0  0.00000000000E+00  0.00000000000E+00  0.45593999997E+02  0.45594000000E+02  0.51100000000E-03 0.  1.
         11   -1    0    0    0    0 -0.00000000000E+00 -0.00000000000E+00 -0.45593999997E+02  0.45594000000E+02  0.51100000000E-03 0. -1.
    9900012    2    1    2    0    0 -0.23164993659E+02 -0.53838443124E+01  0.38255858921E+02  0.46142318158E+02  0.10000003622E+02 0.  0.
         12    1    1    2    0    0  0.23164993659E+02  0.53838443124E+01 -0.38255858921E+02  0.45045681842E+02  0.00000000000E+00 0. -1.
         11    1    3    3    0    0 -0.13822988598E+02 -0.53573722947E+01  0.21651154211E+02  0.26240215903E+02  0.51100000000E-03 0. -1.
        -11    1    3    3    0    0 -0.10101389752E+02 -0.13703709523E+00  0.14589354277E+02  0.17745594173E+02  0.51100000000E-03 0.  1.
         12    1    3    3    0    0  0.75938469000E+00  0.11056507752E+00  0.20153504327E+01  0.21565080826E+01  0.00000000000E+00 0. -1.
</event>
<event>
 7    1  0.2313935E-008  0.4614232E+02  0.7816164E-02  0.1320468E+00
        -11   -1    0    0    0    0  0.00000000000E+00  0.00000000000E+00  0.45593999997E+02  0.45594000000E+02  0.51100000000E-03 0.  1.
         11   -1    0    0    0    0 -0.00000000000E+00 -0.00000000000E+00 -0.45593999997E+02  0.45594000000E+02  0.51100000000E-03 0. -1.
    9900012    2    1    2    0    0  0.42333936806E+02 -0.62336962348E+01  0.14074532106E+02  0.46142316208E+02  0.99999858400E+01 0.  0.
         12    1    1    2    0    0 -0.42333936806E+02  0.62336962348E+01 -0.14074532106E+02  0.45045683792E+02  0.00000000000E+00 0. -1.
         11    1    3    3    0    0  0.25094993286E+02 -0.35598801063E-01  0.72275229215E+01  0.26115073103E+02  0.51100000000E-03 0. -1.
        -11    1    3    3    0    0  0.11050818082E+02 -0.28146966533E+01  0.22925520137E+01  0.11631805214E+02  0.51100000000E-03 0.  1.
        -12    1    3    3    0    0  0.61881254380E+01 -0.33834007804E+01  0.45544571712E+01  0.83954378922E+01  0.00000000000E+00 0.  1.
</event>
<event>
 7    1  0.2313935E-008  0.4614232E+02  0.7816164E-02  0.1320468E+00
        -11   -1    0    0    0    0  0.00000000000E+00  0.00000000000E+00  0.45593999997E+02  0.45594000000E+02  0.51100000000E-03 0. -1.
         11   -1    0    0    0    0 -0.00000000000E+00 -0.00000000000E+00 -0.45593999997E+02  0.45594000000E+02  0.51100000000E-03 0.  1.
    9900012    2    1    2    0    0 -0.29425660780E+02 -0.16580344951E+02 -0.29804968102E+02  0.46142317914E+02  0.10000001396E+02 0.  0.
         12    1    1    2    0    0  0.29425660780E+02  0.16580344951E+02  0.29804968102E+02  0.45045682086E+02  0.00000000000E+00 0. -1.
         11    1    3    3    0    0 -0.50285806585E+01 -0.69314398067E+01 -0.55310105280E+01  0.10194290508E+02  0.51100000000E-03 0. -1.
        -11    1    3    3    0    0 -0.11087691233E+01  0.34986498948E+00 -0.12538614025E+01  0.17099541390E+01  0.51100000000E-03 0.  1.
        -12    1    3    3    0    0 -0.23288310998E+02 -0.99987701334E+01 -0.23020096172E+02  0.34238073268E+02  0.00000000000E+00 0.  1.
</event>
<event>
 7    1  0.2313935E-008  0.4614232E+02  0.7816164E-02  0.1320468E+00
        -11   -1    0    0    0    0  0.00000000000E+00  0.00000000000E+00  0.45593999997E+02  0.45594000000E+02  0.51100000000E-03 0.  1.
         11   -1    0    0    0    0 -0.00000000000E+00 -0.00000000000E+00 -0.45593999997E+02  0.45594000000E+02  0.51100000000E-03 0. -1.
    9900012    2    1    2    0    0  0.51377091907E+01  0.66168426415E+01  0.44259856307E+02  0.46142317159E+02  0.99999945138E+01 0.  0.
         12    1    1    2    0    0 -0.51377091907E+01 -0.66168426415E+01 -0.44259856307E+02  0.45045682841E+02  0.00000000000E+00 0. -1.
         11    1    3    3    0    0  0.38845575552E+01  0.14681217472E+01  0.53596733932E+01  0.67802115017E+01  0.51100000000E-03 0. -1.
        -11    1    3    3    0    0  0.38608243392E+00  0.10010985252E+01  0.25605733605E+01  0.27762914289E+01  0.51100000000E-03 0.  1.
         12    1    3    3    0    0  0.86706920162E+00  0.41476223691E+01  0.36339609553E+02  0.36585814229E+02  0.00000000000E+00 0. -1.
</event>
<event>
 7    1  0.2313935E-008  0.4614232E+02  0.7816164E-02  0.1320468E+00
        -11   -1    0    0    0    0  0.00000000000E+00  0.00000000000E+00  0.45593999997E+02  0.45594000000E+02  0.51100000000E-03 0.  1.
         11   -1    0    0    0    0 -0.00000000000E+00 -0.00000000000E+00 -0.45593999997E+02  0.45594000000E+02  0.51100000000E-03 0. -1.
    9900012    2    1    2    0    0  0.99515366547E+01 -0.16763518820E+02  0.40608679859E+02  0.46142317355E+02  0.99999962979E+01 0.  0.
         12    1    1    2    0    0 -0.99515366547E+01  0.16763518820E+02 -0.40608679859E+02  0.45045682645E+02  0.00000000000E+00 0. -1.
         11    1    3    3    0    0  0.44293522795E+01 -0.62079956989E+01  0.16155974215E+02  0.17865438011E+02  0.51100000000E-03 0.  1.
        -11    1    3    3    0    0  0.72237199082E+01 -0.67248029161E+01  0.18877243049E+02  0.21301535366E+02  0.51100000000E-03 0. -1.
         12    1    3    3    0    0 -0.17015355330E+01 -0.38307202054E+01  0.55754625950E+01  0.69753439779E+01  0.00000000000E+00 0. -1.
</event>
<event>
 7    1  0.2313935E-008  0.4614232E+02  0.7816164E-02  0.1320468E+00
        -11   -1    0    0    0    0  0.00000000000E+00  0.00000000000E+00  0.45593999997E+02  0.45594000000E+02  0.51100000000E-03 0.  1.
         11   -1    0    0    0    0 -0.00000000000E+00 -0.00000000000E+00 -0.45593999997E+02  0.45594000000E+02  0.51100000000E-03 0. -1.
    9900012    2    1    2    0    0  0.30372746991E+02 -0.92801514680E+01  0.31945086517E+02  0.46142317369E+02  0.99999964279E+01 0.  0.
         12    1    1    2    0    0 -0.30372746991E+02  0.92801514680E+01 -0.31945086517E+02  0.45045682631E+02  0.00000000000E+00 0. -1.
         11    1    3    3    0    0  0.88230170889E+01 -0.44034654747E+01  0.87547312057E+01  0.13186411850E+02  0.51100000000E-03 0. -1.
        -11    1    3    3    0    0  0.11156003009E+02  0.12843401166E+01  0.96277448878E+01  0.14791869542E+02  0.51100000000E-03 0.  1.
        -12    1    3    3    0    0  0.10393726893E+02 -0.61610261099E+01  0.13562610424E+02  0.18164035977E+02  0.00000000000E+00 0.  1.
</event>
<event>
 7    1  0.2313935E-008  0.4614232E+02  0.7816164E-02  0.1320468E+00
        -11   -1    0    0    0    0  0.00000000000E+00  0.00000000000E+00  0.45593999997E+02  0.45594000000E+02  0.51100000000E-03 0.  1.
         11   -1    0    0    0    0 -0.00000000000E+00 -0.00000000000E+00 -0.45593999997E+02  0.45594000000E+02  0.51100000000E-03 0. -1.
    9900012    2    1    2    0    0 -0.18112549274E+02  0.15082581617E+02  0.38387039386E+02  0.46142317607E+02  0.99999985957E+01 0.  0.
         12    1    1    2    0    0  0.18112549274E+02 -0.15082581617E+02 -0.38387039386E+02  0.45045682393E+02  0.00000000000E+00 0. -1.
         11    1    3    3    0    0 -0.43907133740E+01  0.14393447502E+00  0.95042083840E+01  0.10470389598E+02  0.51100000000E-03 0. -1.
        -11    1    3    3    0    0 -0.16973482690E+01  0.46956275169E+00  0.47924318766E+01  0.51057696655E+01  0.51100000000E-03 0.  1.
        -12    1    3    3    0    0 -0.12024487631E+02  0.14469084390E+02  0.24090399125E+02  0.30566158344E+02  0.00000000000E+00 0.  1.
</event>
<event>
 7    1  0.2313935E-008  0.4614232E+02  0.7816164E-02  0.1320468E+00
        -11   -1    0    0    0    0  0.00000000000E+00  0.00000000000E+00  0.45593999997E+02  0.45594000000E+02  0.51100000000E-03 0. -1.
         11   -1    0    0    0    0 -0.00000000000E+00 -0.00000000000E+00 -0.45593999997E+02  0.45594000000E+02  0.51100000000E-03 0.  1.
    9900012    2    1    2    0    0 -0.18271301588E+02  0.69828427192E+01 -0.40577249157E+02  0.46142315375E+02  0.99999782423E+01 0.  0.
         12    1    1    2    0    0  0.18271301588E+02 -0.69828427192E+01  0.40577249157E+02  0.45045684625E+02  0.00000000000E+00 0. -1.
         11    1    3    3    0    0 -0.15055748116E+01 -0.64675614307E+00 -0.12125586963E+02  0.12235804366E+02  0.51100000000E-03 0.  1.
        -11    1    3    3    0    0 -0.38617684816E+01  0.15397832843E+01 -0.70437947278E+01  0.81791951191E+01  0.51100000000E-03 0. -1.
        -12    1    3    3    0    0 -0.12903958295E+02  0.60898155779E+01 -0.21407867466E+02  0.25727315890E+02  0.00000000000E+00 0.  1.
</event>
<event>
 7    1  0.2313935E-008  0.4614232E+02  0.7816164E-02  0.1320468E+00
        -11   -1    0    0    0    0  0.00000000000E+00  0.00000000000E+00  0.45593999997E+02  0.45594000000E+02  0.51100000000E-03 0.  1.
         11   -1    0    0    0    0 -0.00000000000E+00 -0.00000000000E+00 -0.45593999997E+02  0.45594000000E+02  0.51100000000E-03 0. -1.
    9900012    2    1    2    0    0  0.10910576630E+01 -0.41213858832E+02  0.18147752652E+02  0.46142317711E+02  0.99999995392E+01 0.  0.
         12    1    1    2    0    0 -0.10910576630E+01  0.41213858832E+02 -0.18147752652E+02  0.45045682289E+02  0.00000000000E+00 0. -1.
         11    1    3    3    0    0 -0.17019366587E+01 -0.72083428655E+01  0.22151828704E+01  0.77307069966E+01  0.51100000000E-03 0. -1.
        -11    1    3    3    0    0  0.17725886712E+01 -0.30599199145E+02  0.11518373763E+02  0.32743335098E+02  0.51100000000E-03 0.  1.
         12    1    3    3    0    0  0.10204056506E+01 -0.34063168211E+01  0.44141960178E+01  0.56682756162E+01  0.00000000000E+00 0. -1.
</event>
<event>
 7    1  0.2313935E-008  0.4614232E+02  0.7816164E-02  0.1320468E+00
        -11   -1    0    0    0    0  0.00000000000E+00  0.00000000000E+00  0.45593999997E+02  0.45594000000E+02  0.51100000000E-03 0.  1.
         11   -1    0    0    0    0 -0.00000000000E+00 -0.00000000000E+00 -0.45593999997E+02  0.45594000000E+02  0.51100000000E-03 0. -1.
    9900012    2    1    2    0    0 -0.30526763501E+01 -0.39547537737E+02  0.21349170195E+02  0.46142316056E+02  0.99999844493E+01 0.  0.
         12    1    1    2    0    0  0.30526763501E+01  0.39547537737E+02 -0.21349170195E+02  0.45045683944E+02  0.00000000000E+00 0. -1.
         11    1    3    3    0    0 -0.79817006969E+00 -0.16998854821E+02  0.11468933563E+02  0.20521563733E+02  0.51100000000E-03 0.  1.
        -11    1    3    3    0    0 -0.34284773527E+01 -0.71623901824E+01  0.52146577274E+01  0.94998392385E+01  0.51100000000E-03 0. -1.
         12    1    3    3    0    0  0.11739710723E+01 -0.15386292734E+02  0.46655789041E+01  0.16120913084E+02  0.00000000000E+00 0. -1.
</event>
<event>
 7    1  0.2313935E-008  0.4614232E+02  0.7816164E-02  0.1320468E+00
        -11   -1    0    0    0    0  0.00000000000E+00  0.00000000000E+00  0.45593999997E+02  0.45594000000E+02  0.51100000000E-03 0.  1.
         11   -1    0    0    0    0 -0.00000000000E+00 -0.00000000000E+00 -0.45593999997E+02  0.45594000000E+02  0.51100000000E-03 0. -1.
    9900012    2    1    2    0    0 -0.18131442967E+01  0.15618228038E+02  0.42212521754E+02  0.46142317276E+02  0.99999955720E+01 0.  0.
         12    1    1    2    0    0  0.18131442967E+01 -0.15618228038E+02 -0.42212521754E+02  0.45045682724E+02  0.00000000000E+00 0. -1.
         11    1    3    3    0    0  0.21919506507E+01  0.29715846223E+00  0.61310926384E+01  0.65179174595E+01  0.51100000000E-03 0. -1.
        -11    1    3    3    0    0 -0.54234040591E+00  0.89932344794E+01  0.17301023599E+02  0.19506353256E+02  0.51100000000E-03 0.  1.
         12    1    3    3    0    0 -0.34627545415E+01  0.63278350965E+01  0.18780405517E+02  0.20118046560E+02  0.00000000000E+00 0. -1.
</event>
<event>
 7    1  0.2313935E-008  0.4614232E+02  0.7816164E-02  0.1320468E+00
        -11   -1    0    0    0    0  0.00000000000E+00  0.00000000000E+00  0.45593999997E+02  0.45594000000E+02  0.51100000000E-03 0.  1.
         11   -1    0    0    0    0 -0.00000000000E+00 -0.00000000000E+00 -0.45593999997E+02  0.45594000000E+02  0.51100000000E-03 0. -1.
    9900012    2    1    2    0    0 -0.32420976024E+02  0.22440461421E+02  0.21781173646E+02  0.46142317404E+02  0.99999967466E+01 0.  0.
         12    1    1    2    0    0  0.32420976024E+02 -0.22440461421E+02 -0.21781173646E+02  0.45045682596E+02  0.00000000000E+00 0. -1.
         11    1    3    3    0    0 -0.14769749838E+02  0.65407863195E+01  0.64768631723E+01  0.17403366134E+02  0.51100000000E-03 0. -1.
        -11    1    3    3    0    0 -0.55433104240E+01  0.56833062480E+01  0.23642051650E+01  0.82835817549E+01  0.51100000000E-03 0.  1.
        -12    1    3    3    0    0 -0.12107915761E+02  0.10216368854E+02  0.12940105309E+02  0.20455369516E+02  0.00000000000E+00 0.  1.
</event>
<event>
 7    1  0.2313935E-008  0.4614232E+02  0.7816164E-02  0.1320468E+00
        -11   -1    0    0    0    0  0.00000000000E+00  0.00000000000E+00  0.45593999997E+02  0.45594000000E+02  0.51100000000E-03 0. -1.
         11   -1    0    0    0    0 -0.00000000000E+00 -0.00000000000E+00 -0.45593999997E+02  0.45594000000E+02  0.51100000000E-03 0.  1.
    9900012    2    1    2    0    0  0.29680980340E+02  0.28820764943E+02 -0.17818992051E+02  0.46142316926E+02  0.99999923883E+01 0.  0.
         12    1    1    2    0    0 -0.29680980340E+02 -0.28820764943E+02  0.17818992051E+02  0.45045683074E+02  0.00000000000E+00 0. -1.
         11    1    3    3    0    0  0.18873207352E+01  0.21493221310E+01 -0.38989966851E+01  0.48356737475E+01  0.51100000000E-03 0. -1.
        -11    1    3    3    0    0  0.14764821769E+02  0.10703319033E+02 -0.75299801995E+01  0.19729713689E+02  0.51100000000E-03 0.  1.
         12    1    3    3    0    0  0.13028837836E+02  0.15968123779E+02 -0.63900151665E+01  0.21576929490E+02  0.00000000000E+00 0. -1.
</event>
<event>
 7    1  0.2313935E-008  0.4614232E+02  0.7816164E-02  0.1320468E+00
        -11   -1    0    0    0    0  0.00000000000E+00  0.00000000000E+00  0.45593999997E+02  0.45594000000E+02  0.51100000000E-03 0.  1.
         11   -1    0    0    0    0 -0.00000000000E+00 -0.00000000000E+00 -0.45593999997E+02  0.45594000000E+02  0.51100000000E-03 0. -1.
    9900012    2    1    2    0    0  0.32400874120E+02  0.19397236840E+02  0.24556951840E+02  0.46142319580E+02  0.10000016589E+02 0.  0.
         12    1    1    2    0    0 -0.32400874120E+02 -0.19397236840E+02 -0.24556951840E+02  0.45045680420E+02  0.00000000000E+00 0. -1.
         11    1    3    3    0    0  0.21764752985E+02  0.80064195481E+01  0.15108960647E+02  0.27678293275E+02  0.51100000000E-03 0. -1.
        -11    1    3    3    0    0 -0.22133329406E-01  0.50887619734E+00  0.79956780671E+00  0.94802626922E+00  0.51100000000E-03 0.  1.
        -12    1    3    3    0    0  0.10658254464E+02  0.10881941094E+02  0.86484233863E+01  0.17516000037E+02  0.00000000000E+00 0.  1.
</event>
<event>
 7    1  0.2313935E-008  0.4614232E+02  0.7816164E-02  0.1320468E+00
        -11   -1    0    0    0    0  0.00000000000E+00  0.00000000000E+00  0.45593999997E+02  0.45594000000E+02  0.51100000000E-03 0.  1.
         11   -1    0    0    0    0 -0.00000000000E+00 -0.00000000000E+00 -0.45593999997E+02  0.45594000000E+02  0.51100000000E-03 0. -1.
    9900012    2    1    2    0    0 -0.74709373766E+01 -0.44034447646E+02  0.58537119279E+01  0.46142318430E+02  0.10000006096E+02 0.  0.
         12    1    1    2    0    0  0.74709373766E+01  0.44034447646E+02 -0.58537119279E+01  0.45045681570E+02  0.00000000000E+00 0. -1.
         11    1    3    3    0    0 -0.19823969906E+01 -0.85395454627E+01 -0.15115168760E+01  0.88959776341E+01  0.51100000000E-03 0. -1.
        -11    1    3    3    0    0 -0.28936623333E+01 -0.45346229253E+01  0.18717959224E+01  0.56955866257E+01  0.51100000000E-03 0.  1.
        -12    1    3    3    0    0 -0.25948780526E+01 -0.30960279258E+02  0.54934328816E+01  0.31550754170E+02  0.00000000000E+00 0.  1.
</event>
<event>
 7    1  0.2313935E-008  0.4614231E+02  0.7816164E-02  0.1320468E+00
        -11   -1    0    0    0    0  0.00000000000E+00  0.00000000000E+00  0.45593999997E+02  0.45594000000E+02  0.51100000000E-03 0.  1.
         11   -1    0    0    0    0 -0.00000000000E+00 -0.00000000000E+00 -0.45593999997E+02  0.45594000000E+02  0.51100000000E-03 0. -1.
    9900012    2    1    2    0    0 -0.43193946226E+01 -0.42647221468E+02  0.13844533129E+02  0.46142314675E+02  0.99999718552E+01 0.  0.
         12    1    1    2    0    0  0.43193946226E+01  0.42647221468E+02 -0.13844533129E+02  0.45045685325E+02  0.00000000000E+00 0. -1.
         11    1    3    3    0    0  0.83050101553E+00 -0.62584592244E+00  0.74025616695E+00  0.12764773830E+01  0.51100000000E-03 0. -1.
        -11    1    3    3    0    0 -0.37425419824E+01 -0.10390174354E+02  0.15058048936E+01  0.11145841925E+02  0.51100000000E-03 0.  1.
        -12    1    3    3    0    0 -0.14073536558E+01 -0.31631201192E+02  0.11598472069E+02  0.33719995366E+02  0.00000000000E+00 0.  1.
</event>
<event>
 7    1  0.2313935E-008  0.4614232E+02  0.7816164E-02  0.1320468E+00
        -11   -1    0    0    0    0  0.00000000000E+00  0.00000000000E+00  0.45593999997E+02  0.45594000000E+02  0.51100000000E-03 0.  1.
         11   -1    0    0    0    0 -0.00000000000E+00 -0.00000000000E+00 -0.45593999997E+02  0.45594000000E+02  0.51100000000E-03 0. -1.
    9900012    2    1    2    0    0 -0.20612125032E+02 -0.17941420263E+02  0.35810042316E+02  0.46142318852E+02  0.10000009947E+02 0.  0.
         12    1    1    2    0    0  0.20612125032E+02  0.17941420263E+02 -0.35810042316E+02  0.45045681148E+02  0.00000000000E+00 0. -1.
         11    1    3    3    0    0 -0.16212312388E+01 -0.60087529346E+01  0.58968042521E+01  0.85735525430E+01  0.51100000000E-03 0. -1.
        -11    1    3    3    0    0 -0.14847393519E+02 -0.81408509533E+01  0.24388546601E+02  0.29690398349E+02  0.51100000000E-03 0.  1.
         12    1    3    3    0    0 -0.41435002742E+01 -0.37918163754E+01  0.55246914627E+01  0.78783679595E+01  0.00000000000E+00 0. -1.
</event>
<event>
 7    1  0.2313935E-008  0.4614232E+02  0.7816164E-02  0.1320468E+00
        -11   -1    0    0    0    0  0.00000000000E+00  0.00000000000E+00  0.45593999997E+02  0.45594000000E+02  0.51100000000E-03 0. -1.
         11   -1    0    0    0    0 -0.00000000000E+00 -0.00000000000E+00 -0.45593999997E+02  0.45594000000E+02  0.51100000000E-03 0.  1.
    9900012    2    1    2    0    0  0.11994030990E+02  0.36670480160E+02  0.23249356622E+02  0.46142317877E+02  0.10000001056E+02 0.  0.
         12    1    1    2    0    0 -0.11994030990E+02 -0.36670480160E+02 -0.23249356622E+02  0.45045682123E+02  0.00000000000E+00 0. -1.
         11    1    3    3    0    0  0.57131499402E+01  0.89278077335E+01  0.59376485481E+01  0.12149135924E+02  0.51100000000E-03 0. -1.
        -11    1    3    3    0    0  0.40706088604E+01  0.18196296914E+02  0.14986510357E+02  0.23922177385E+02  0.51100000000E-03 0.  1.
        -12    1    3    3    0    0  0.22102721892E+01  0.95463755128E+01  0.23251977172E+01  0.10071004568E+02  0.00000000000E+00 0.  1.
</event>
<event>
 7    1  0.2313935E-008  0.4614232E+02  0.7816164E-02  0.1320468E+00
        -11   -1    0    0    0    0  0.00000000000E+00  0.00000000000E+00  0.45593999997E+02  0.45594000000E+02  0.51100000000E-03 0. -1.
         11   -1    0    0    0    0 -0.00000000000E+00 -0.00000000000E+00 -0.45593999997E+02  0.45594000000E+02  0.51100000000E-03 0.  1.
    9900012    2    1    2    0    0 -0.73102704957E+01  0.22547626766E+02 -0.38305064971E+02  0.46142317300E+02  0.99999957944E+01 0.  0.
         12    1    1    2    0    0  0.73102704957E+01 -0.22547626766E+02  0.38305064971E+02  0.45045682700E+02  0.00000000000E+00 0. -1.
         11    1    3    3    0    0  0.48418608991E+00  0.50431169597E+01 -0.82430010133E+01  0.96754602374E+01  0.51100000000E-03 0.  1.
        -11    1    3    3    0    0 -0.82494401727E+01  0.17908049407E+02 -0.29936083668E+02  0.35845789186E+02  0.51100000000E-03 0. -1.
         12    1    3    3    0    0  0.45498358707E+00 -0.40353960072E+00 -0.12598028941E+00  0.62106787646E+00  0.00000000000E+00 0. -1.
</event>
<event>
 7    1  0.2313935E-008  0.4614232E+02  0.7816164E-02  0.1320468E+00
        -11   -1    0    0    0    0  0.00000000000E+00  0.00000000000E+00  0.45593999997E+02  0.45594000000E+02  0.51100000000E-03 0.  1.
         11   -1    0    0    0    0 -0.00000000000E+00 -0.00000000000E+00 -0.45593999997E+02  0.45594000000E+02  0.51100000000E-03 0. -1.
    9900012    2    1    2    0    0 -0.58258007055E+01  0.28411899409E+02  0.34466469527E+02  0.46142317592E+02  0.99999984607E+01 0.  0.
         12    1    1    2    0    0  0.58258007055E+01 -0.28411899409E+02 -0.34466469527E+02  0.45045682408E+02  0.00000000000E+00 0. -1.
         11    1    3    3    0    0  0.45010480804E+00  0.12415516642E+01  0.64127883319E+01  0.65473581943E+01  0.51100000000E-03 0. -1.
        -11    1    3    3    0    0 -0.35129085822E+01  0.13637658146E+02  0.15313143551E+02  0.20804293117E+02  0.51100000000E-03 0.  1.
         12    1    3    3    0    0 -0.27629969313E+01  0.13532689599E+02  0.12740537644E+02  0.18790666281E+02  0.00000000000E+00 0. -1.
</event>
<event>
 7    1  0.2313935E-008  0.4614232E+02  0.7816164E-02  0.1320468E+00
        -11   -1    0    0    0    0  0.00000000000E+00  0.00000000000E+00  0.45593999997E+02  0.45594000000E+02  0.51100000000E-03 0.  1.
         11   -1    0    0    0    0 -0.00000000000E+00 -0.00000000000E+00 -0.45593999997E+02  0.45594000000E+02  0.51100000000E-03 0. -1.
    9900012    2    1    2    0    0  0.40440504639E+02  0.50406171623E+00  0.19834941369E+02  0.46142318822E+02  0.10000009676E+02 0.  0.
         12    1    1    2    0    0 -0.40440504639E+02 -0.50406171623E+00 -0.19834941369E+02  0.45045681178E+02  0.00000000000E+00 0. -1.
         11    1    3    3    0    0  0.10711960394E+02 -0.21401793289E+00  0.67917130157E+01  0.12685395741E+02  0.51100000000E-03 0. -1.
        -11    1    3    3    0    0  0.21133635312E+02  0.40239762372E+01  0.79627475426E+01  0.22939665972E+02  0.51100000000E-03 0.  1.
        -12    1    3    3    0    0  0.85949089330E+01 -0.33058965880E+01  0.50804808110E+01  0.10517257109E+02  0.00000000000E+00 0.  1.
</event>
<event>
 7    1  0.2313935E-008  0.4614232E+02  0.7816164E-02  0.1320468E+00
        -11   -1    0    0    0    0  0.00000000000E+00  0.00000000000E+00  0.45593999997E+02  0.45594000000E+02  0.51100000000E-03 0.  1.
         11   -1    0    0    0    0 -0.00000000000E+00 -0.00000000000E+00 -0.45593999997E+02  0.45594000000E+02  0.51100000000E-03 0. -1.
    9900012    2    1    2    0    0 -0.28089868056E+02  0.11915861539E+02  0.33137366189E+02  0.46142317837E+02  0.10000000688E+02 0.  0.
         12    1    1    2    0    0  0.28089868056E+02 -0.11915861539E+02 -0.33137366189E+02  0.45045682163E+02  0.00000000000E+00 0. -1.
         11    1    3    3    0    0 -0.45865261057E+01  0.25439575057E+01  0.35187026028E+01  0.63157905108E+01  0.51100000000E-03 0. -1.
        -11    1    3    3    0    0 -0.20602932068E+02  0.69574729137E+01  0.28579848412E+02  0.35912323437E+02  0.51100000000E-03 0.  1.
        -12    1    3    3    0    0 -0.29004098821E+01  0.24144311195E+01  0.10388151749E+01  0.39142038888E+01  0.00000000000E+00 0.  1.
</event>
<event>
 7    1  0.2313935E-008  0.4614232E+02  0.7816164E-02  0.1320468E+00
        -11   -1    0    0    0    0  0.00000000000E+00  0.00000000000E+00  0.45593999997E+02  0.45594000000E+02  0.51100000000E-03 0.  1.
         11   -1    0    0    0    0 -0.00000000000E+00 -0.00000000000E+00 -0.45593999997E+02  0.45594000000E+02  0.51100000000E-03 0. -1.
    9900012    2    1    2    0    0 -0.13940014637E+02  0.16012136900E+02  0.39729094699E+02  0.46142317612E+02  0.99999986381E+01 0.  0.
         12    1    1    2    0    0  0.13940014637E+02 -0.16012136900E+02 -0.39729094699E+02  0.45045682388E+02  0.00000000000E+00 0. -1.
         11    1    3    3    0    0 -0.41133142705E+00  0.68568097008E+00  0.23410717769E+00  0.83316166941E+00  0.51100000000E-03 0. -1.
        -11    1    3    3    0    0 -0.56331351199E+01  0.85800275430E+01  0.11316577934E+02  0.15277893189E+02  0.51100000000E-03 0.  1.
         12    1    3    3    0    0 -0.78955480903E+01  0.67464283872E+01  0.28178409588E+02  0.30031262753E+02  0.00000000000E+00 0. -1.
</event>
<event>
 7    1  0.2313935E-008  0.4614232E+02  0.7816164E-02  0.1320468E+00
        -11   -1    0    0    0    0  0.00000000000E+00  0.00000000000E+00  0.45593999997E+02  0.45594000000E+02  0.51100000000E-03 0.  1.
         11   -1    0    0    0    0 -0.00000000000E+00 -0.00000000000E+00 -0.45593999997E+02  0.45594000000E+02  0.51100000000E-03 0. -1.
    9900012    2    1    2    0    0 -0.12907209804E+02  0.22554224708E+01  0.43097917424E+02  0.46142317835E+02  0.10000000672E+02 0.  0.
         12    1    1    2    0    0  0.12907209804E+02 -0.22554224708E+01 -0.43097917424E+02  0.45045682165E+02  0.00000000000E+00 0. -1.
         11    1    3    3    0    0 -0.61358969791E+01 -0.10083511367E+01  0.10429271077E+02  0.12142310291E+02  0.51100000000E-03 0. -1.
        -11    1    3    3    0    0 -0.41653630824E+01 -0.10584374912E+01  0.17200815660E+02  0.17729596700E+02  0.51100000000E-03 0.  1.
        -12    1    3    3    0    0 -0.26059497430E+01  0.43222110987E+01  0.15467830687E+02  0.16270410843E+02  0.00000000000E+00 0.  1.
</event>
<event>
 7    1  0.2313935E-008  0.4614232E+02  0.7816164E-02  0.1320468E+00
        -11   -1    0    0    0    0  0.00000000000E+00  0.00000000000E+00  0.45593999997E+02  0.45594000000E+02  0.51100000000E-03 0. -1.
         11   -1    0    0    0    0 -0.00000000000E+00 -0.00000000000E+00 -0.45593999997E+02  0.45594000000E+02  0.51100000000E-03 0.  1.
    9900012    2    1    2    0    0 -0.40567483443E+02 -0.18845566891E+02 -0.53138832931E+01  0.46142318076E+02  0.10000002873E+02 0.  0.
         12    1    1    2    0    0  0.40567483443E+02  0.18845566891E+02  0.53138832931E+01  0.45045681924E+02  0.00000000000E+00 0. -1.
         11    1    3    3    0    0 -0.13626566039E+02 -0.86221418666E+01 -0.54372582410E+01  0.17017297371E+02  0.51100000000E-03 0.  1.
        -11    1    3    3    0    0 -0.63602336613E+01 -0.10271236578E+01  0.12172206221E+01  0.65566135725E+01  0.51100000000E-03 0. -1.
        -12    1    3    3    0    0 -0.20580683743E+02 -0.91963013663E+01 -0.10938456742E+01  0.22568407132E+02  0.00000000000E+00 0.  1.
</event>
<event>
 7    1  0.2313935E-008  0.4614232E+02  0.7816164E-02  0.1320468E+00
        -11   -1    0    0    0    0  0.00000000000E+00  0.00000000000E+00  0.45593999997E+02  0.45594000000E+02  0.51100000000E-03 0. -1.
         11   -1    0    0    0    0 -0.00000000000E+00 -0.00000000000E+00 -0.45593999997E+02  0.45594000000E+02  0.51100000000E-03 0.  1.
    9900012    2    1    2    0    0 -0.37212037387E+02  0.10904873271E+02 -0.22922942703E+02  0.46142319966E+02  0.10000020106E+02 0.  0.
         12    1    1    2    0    0  0.37212037387E+02 -0.10904873271E+02  0.22922942703E+02  0.45045680034E+02  0.00000000000E+00 0. -1.
         11    1    3    3    0    0 -0.11787187064E+02  0.29322964816E+01 -0.95654176750E+01  0.15460703641E+02  0.51100000000E-03 0. -1.
        -11    1    3    3    0    0 -0.13000919721E+02  0.16733226868E+01 -0.96196213631E+01  0.16259183185E+02  0.51100000000E-03 0.  1.
        -12    1    3    3    0    0 -0.12423930602E+02  0.62992541031E+01 -0.37379036653E+01  0.14422433139E+02  0.00000000000E+00 0.  1.
</event>
<event>
 7    1  0.2313935E-008  0.4614232E+02  0.7816164E-02  0.1320468E+00
        -11   -1    0    0    0    0  0.00000000000E+00  0.00000000000E+00  0.45593999997E+02  0.45594000000E+02  0.51100000000E-03 0.  1.
         11   -1    0    0    0    0 -0.00000000000E+00 -0.00000000000E+00 -0.45593999997E+02  0.45594000000E+02  0.51100000000E-03 0. -1.
    9900012    2    1    2    0    0  0.50021314451E+01 -0.21465646219E+02  0.39285089163E+02  0.46142317442E+02  0.99999970868E+01 0.  0.
         12    1    1    2    0    0 -0.50021314451E+01  0.21465646219E+02 -0.39285089163E+02  0.45045682558E+02  0.00000000000E+00 0. -1.
         11    1    3    3    0    0  0.41583855529E+01 -0.95348839359E+01  0.16178122650E+02  0.19233768086E+02  0.51100000000E-03 0. -1.
        -11    1    3    3    0    0 -0.15905691335E+00 -0.94486872618E+00  0.87524878797E+01  0.88047782685E+01  0.51100000000E-03 0.  1.
        -12    1    3    3    0    0  0.10028028055E+01 -0.10985893557E+02  0.14354478634E+02  0.18103771087E+02  0.00000000000E+00 0.  1.
</event>
<event>
 7    1  0.2313935E-008  0.4614232E+02  0.7816164E-02  0.1320468E+00
        -11   -1    0    0    0    0  0.00000000000E+00  0.00000000000E+00  0.45593999997E+02  0.45594000000E+02  0.51100000000E-03 0. -1.
         11   -1    0    0    0    0 -0.00000000000E+00 -0.00000000000E+00 -0.45593999997E+02  0.45594000000E+02  0.51100000000E-03 0.  1.
    9900012    2    1    2    0    0  0.34836122588E+02 -0.25513136289E+02 -0.12831126274E+02  0.46142319167E+02  0.10000012818E+02 0.  0.
         12    1    1    2    0    0 -0.34836122588E+02  0.25513136289E+02  0.12831126274E+02  0.45045680833E+02  0.00000000000E+00 0. -1.
         11    1    3    3    0    0  0.21440763725E+02 -0.12075684865E+02 -0.40073137651E+01  0.24931648119E+02  0.51100000000E-03 0. -1.
        -11    1    3    3    0    0  0.31223930580E+01 -0.25784134337E+01 -0.44373729817E+00  0.40736294989E+01  0.51100000000E-03 0.  1.
        -12    1    3    3    0    0  0.10272965806E+02 -0.10859037989E+02 -0.83800752108E+01  0.17137041549E+02  0.00000000000E+00 0.  1.
</event>
<event>
 7    1  0.2313935E-008  0.4614232E+02  0.7816164E-02  0.1320468E+00
        -11   -1    0    0    0    0  0.00000000000E+00  0.00000000000E+00  0.45593999997E+02  0.45594000000E+02  0.51100000000E-03 0.  1.
         11   -1    0    0    0    0 -0.00000000000E+00 -0.00000000000E+00 -0.45593999997E+02  0.45594000000E+02  0.51100000000E-03 0. -1.
    9900012    2    1    2    0    0 -0.14325019217E+02 -0.36759131287E+02  0.21741058234E+02  0.46142317391E+02  0.99999966244E+01 0.  0.
         12    1    1    2    0    0  0.14325019217E+02  0.36759131287E+02 -0.21741058234E+02  0.45045682609E+02  0.00000000000E+00 0. -1.
         11    1    3    3    0    0 -0.57353943079E+01 -0.64655821084E+01  0.47741196031E+01  0.98737388113E+01  0.51100000000E-03 0. -1.
        -11    1    3    3    0    0 -0.21790911758E+01 -0.51236223953E+01  0.56639404832E+01  0.79423023652E+01  0.51100000000E-03 0.  1.
        -12    1    3    3    0    0 -0.64105337329E+01 -0.25169926784E+02  0.11302998148E+02  0.28326276214E+02  0.00000000000E+00 0.  1.
</event>
<event>
 7    1  0.2313935E-008  0.4614232E+02  0.7816164E-02  0.1320468E+00
        -11   -1    0    0    0    0  0.00000000000E+00  0.00000000000E+00  0.45593999997E+02  0.45594000000E+02  0.51100000000E-03 0.  1.
         11   -1    0    0    0    0 -0.00000000000E+00 -0.00000000000E+00 -0.45593999997E+02  0.45594000000E+02  0.51100000000E-03 0. -1.
    9900012    2    1    2    0    0 -0.18425435115E+02  0.31866610275E+02  0.25964127120E+02  0.46142318667E+02  0.10000008265E+02 0.  0.
         12    1    1    2    0    0  0.18425435115E+02 -0.31866610275E+02 -0.25964127120E+02  0.45045681333E+02  0.00000000000E+00 0. -1.
         11    1    3    3    0    0 -0.16680186492E+02  0.24508748499E+02  0.19456435956E+02  0.35460686327E+02  0.51100000000E-03 0. -1.
        -11    1    3    3    0    0 -0.12042029571E+01  0.52659704554E+01  0.21431231490E+01  0.58114995218E+01  0.51100000000E-03 0.  1.
         12    1    3    3    0    0 -0.54104566545E+00  0.20918913207E+01  0.43645680159E+01  0.48701328190E+01  0.00000000000E+00 0. -1.
</event>
<event>
 7    1  0.2313935E-008  0.4614232E+02  0.7816164E-02  0.1320468E+00
        -11   -1    0    0    0    0  0.00000000000E+00  0.00000000000E+00  0.45593999997E+02  0.45594000000E+02  0.51100000000E-03 0.  1.
         11   -1    0    0    0    0 -0.00000000000E+00 -0.00000000000E+00 -0.45593999997E+02  0.45594000000E+02  0.51100000000E-03 0. -1.
    9900012    2    1    2    0    0  0.38276258996E+01  0.44640911463E+02  0.46531581892E+01  0.46142316773E+02  0.99999909857E+01 0.  0.
         12    1    1    2    0    0 -0.38276258996E+01 -0.44640911463E+02 -0.46531581892E+01  0.45045683227E+02  0.00000000000E+00 0. -1.
         11    1    3    3    0    0  0.53223166298E+00  0.39096346443E+01  0.11546820985E+01  0.41111804393E+01  0.51100000000E-03 0. -1.
        -11    1    3    3    0    0 -0.22915199513E+01  0.26265877947E+02  0.27047266771E+01  0.26504017708E+02  0.51100000000E-03 0.  1.
         12    1    3    3    0    0  0.55869141879E+01  0.14465398872E+02  0.79374941355E+00  0.15527118625E+02  0.00000000000E+00 0. -1.
</event>
<event>
 7    1  0.2313935E-008  0.4614232E+02  0.7816164E-02  0.1320468E+00
        -11   -1    0    0    0    0  0.00000000000E+00  0.00000000000E+00  0.45593999997E+02  0.45594000000E+02  0.51100000000E-03 0. -1.
         11   -1    0    0    0    0 -0.00000000000E+00 -0.00000000000E+00 -0.45593999997E+02  0.45594000000E+02  0.51100000000E-03 0.  1.
    9900012    2    1    2    0    0  0.31160306630E+02  0.19158162659E+02 -0.26289039236E+02  0.46142317746E+02  0.99999998653E+01 0.  0.
         12    1    1    2    0    0 -0.31160306630E+02 -0.19158162659E+02  0.26289039236E+02  0.45045682254E+02  0.00000000000E+00 0. -1.
         11    1    3    3    0    0  0.10603356229E+02  0.24903793514E+01 -0.72767899947E+01  0.13099039107E+02  0.51100000000E-03 0. -1.
        -11    1    3    3    0    0  0.16856819422E+02  0.11454231024E+02 -0.12452199188E+02  0.23883237516E+02  0.51100000000E-03 0.  1.
         12    1    3    3    0    0  0.37001309785E+01  0.52135522837E+01 -0.65600500533E+01  0.91600411230E+01  0.00000000000E+00 0. -1.
</event>
<event>
 7    1  0.2313935E-008  0.4614232E+02  0.7816164E-02  0.1320468E+00
        -11   -1    0    0    0    0  0.00000000000E+00  0.00000000000E+00  0.45593999997E+02  0.45594000000E+02  0.51100000000E-03 0.  1.
         11   -1    0    0    0    0 -0.00000000000E+00 -0.00000000000E+00 -0.45593999997E+02  0.45594000000E+02  0.51100000000E-03 0. -1.
    9900012    2    1    2    0    0 -0.42750839643E+02 -0.11830233764E+02  0.78437763248E+01  0.46142317098E+02  0.99999939524E+01 0.  0.
         12    1    1    2    0    0  0.42750839643E+02  0.11830233764E+02 -0.78437763248E+01  0.45045682902E+02  0.00000000000E+00 0. -1.
         11    1    3    3    0    0 -0.10023075410E+02 -0.26671625890E+01  0.33121605776E+01  0.10887892583E+02  0.51100000000E-03 0.  1.
        -11    1    3    3    0    0 -0.26862035134E+02 -0.51873351004E+01  0.10982814011E+01  0.27380350606E+02  0.51100000000E-03 0. -1.
         12    1    3    3    0    0 -0.58657290991E+01 -0.39757360744E+01  0.34333343461E+01  0.78740739094E+01  0.00000000000E+00 0. -1.
</event>
<event>
 7    1  0.2313935E-008  0.4614232E+02  0.7816164E-02  0.1320468E+00
        -11   -1    0    0    0    0  0.00000000000E+00  0.00000000000E+00  0.45593999997E+02  0.45594000000E+02  0.51100000000E-03 0.  1.
         11   -1    0    0    0    0 -0.00000000000E+00 -0.00000000000E+00 -0.45593999997E+02  0.45594000000E+02  0.51100000000E-03 0. -1.
    9900012    2    1    2    0    0 -0.69545798397E+01 -0.94127253750E+01  0.43498825167E+02  0.46142319068E+02  0.10000011914E+02 0.  0.
         12    1    1    2    0    0  0.69545798397E+01  0.94127253750E+01 -0.43498825167E+02  0.45045680932E+02  0.00000000000E+00 0. -1.
         11    1    3    3    0    0 -0.84054360959E+00  0.16393718065E+00  0.14588980107E+01  0.16916774591E+01  0.51100000000E-03 0. -1.
        -11    1    3    3    0    0 -0.72343768336E+01 -0.64601988361E+01  0.38043386916E+02  0.39260281016E+02  0.51100000000E-03 0.  1.
        -12    1    3    3    0    0  0.11203406036E+01 -0.31164637196E+01  0.39965402405E+01  0.51903605923E+01  0.00000000000E+00 0.  1.
</event>
<event>
 7    1  0.2313935E-008  0.4614232E+02  0.7816164E-02  0.1320468E+00
        -11   -1    0    0    0    0  0.00000000000E+00  0.00000000000E+00  0.45593999997E+02  0.45594000000E+02  0.51100000000E-03 0.  1.
         11   -1    0    0    0    0 -0.00000000000E+00 -0.00000000000E+00 -0.45593999997E+02  0.45594000000E+02  0.51100000000E-03 0. -1.
    9900012    2    1    2    0    0  0.13951443676E+02  0.31843290415E+02  0.28643945431E+02  0.46142317244E+02  0.99999952861E+01 0.  0.
         12    1    1    2    0    0 -0.13951443676E+02 -0.31843290415E+02 -0.28643945431E+02  0.45045682756E+02  0.00000000000E+00 0. -1.
         11    1    3    3    0    0  0.96750252791E+01  0.22982007156E+02  0.23205591735E+02  0.34062857412E+02  0.51100000000E-03 0. -1.
        -11    1    3    3    0    0  0.10053747960E+01  0.46795036191E+01  0.47196750955E+01  0.67218945149E+01  0.51100000000E-03 0.  1.
         12    1    3    3    0    0  0.32710436006E+01  0.41817796400E+01  0.71867860060E+00  0.53575653169E+01  0.00000000000E+00 0. -1.
</event>
<event>
 7    1  0.2313935E-008  0.4614232E+02  0.7816164E-02  0.1320468E+00
        -11   -1    0    0    0    0  0.00000000000E+00  0.00000000000E+00  0.45593999997E+02  0.45594000000E+02  0.51100000000E-03 0.  1.
         11   -1    0    0    0    0 -0.00000000000E+00 -0.00000000000E+00 -0.45593999997E+02  0.45594000000E+02  0.51100000000E-03 0. -1.
    9900012    2    1    2    0    0  0.10050340295E+02 -0.21706662811E+02  0.38169685909E+02  0.46142317933E+02  0.10000001571E+02 0.  0.
         12    1    1    2    0    0 -0.10050340295E+02  0.21706662811E+02 -0.38169685909E+02  0.45045682067E+02  0.00000000000E+00 0. -1.
         11    1    3    3    0    0 -0.11582042302E+01 -0.34717740989E+00  0.95370086520E+00  0.15399723356E+01  0.51100000000E-03 0. -1.
        -11    1    3    3    0    0  0.48527985774E+01 -0.48339978996E+01  0.11357198088E+02  0.13262848050E+02  0.51100000000E-03 0.  1.
        -12    1    3    3    0    0  0.63557459480E+01 -0.16525487502E+02  0.25858786956E+02  0.31339497548E+02  0.00000000000E+00 0.  1.
</event>
<event>
 7    1  0.2313935E-008  0.4614232E+02  0.7816164E-02  0.1320468E+00
        -11   -1    0    0    0    0  0.00000000000E+00  0.00000000000E+00  0.45593999997E+02  0.45594000000E+02  0.51100000000E-03 0. -1.
         11   -1    0    0    0    0 -0.00000000000E+00 -0.00000000000E+00 -0.45593999997E+02  0.45594000000E+02  0.51100000000E-03 0.  1.
    9900012    2    1    2    0    0  0.16062730032E+02 -0.57660407148E+01 -0.41687586693E+02  0.46142318676E+02  0.10000008347E+02 0.  0.
         12    1    1    2    0    0 -0.16062730032E+02  0.57660407148E+01  0.41687586693E+02  0.45045681324E+02  0.00000000000E+00 0. -1.
         11    1    3    3    0    0  0.18373490776E+01 -0.72735865622E+00 -0.11578890247E+01  0.22903295620E+01  0.51100000000E-03 0. -1.
        -11    1    3    3    0    0 -0.30081950431E+00  0.97588913451E+00 -0.24502992705E+01  0.26545844785E+01  0.51100000000E-03 0.  1.
        -12    1    3    3    0    0  0.14526200459E+02 -0.60145711931E+01 -0.38079398398E+02  0.41197404636E+02  0.00000000000E+00 0.  1.
</event>
<event>
 7    1  0.2313935E-008  0.4614232E+02  0.7816164E-02  0.1320468E+00
        -11   -1    0    0    0    0  0.00000000000E+00  0.00000000000E+00  0.45593999997E+02  0.45594000000E+02  0.51100000000E-03 0.  1.
         11   -1    0    0    0    0 -0.00000000000E+00 -0.00000000000E+00 -0.45593999997E+02  0.45594000000E+02  0.51100000000E-03 0. -1.
    9900012    2    1    2    0    0  0.76877837794E+01 -0.19676751625E+02  0.39784882808E+02  0.46142317921E+02  0.10000001457E+02 0.  0.
         12    1    1    2    0    0 -0.76877837794E+01  0.19676751625E+02 -0.39784882808E+02  0.45045682079E+02  0.00000000000E+00 0. -1.
         11    1    3    3    0    0  0.18927705226E+01 -0.16874940608E+01  0.15145853919E+01  0.29536732431E+01  0.51100000000E-03 0. -1.
        -11    1    3    3    0    0  0.59368803799E+00 -0.12210724084E+02  0.24235187841E+02  0.27144033932E+02  0.51100000000E-03 0.  1.
        -12    1    3    3    0    0  0.52013252188E+01 -0.57785334801E+01  0.14035109574E+02  0.16044610746E+02  0.00000000000E+00 0.  1.
</event>
<event>
 7    1  0.2313935E-008  0.4614232E+02  0.7816164E-02  0.1320468E+00
        -11   -1    0    0    0    0  0.00000000000E+00  0.00000000000E+00  0.45593999997E+02  0.45594000000E+02  0.51100000000E-03 0.  1.
         11   -1    0    0    0    0 -0.00000000000E+00 -0.00000000000E+00 -0.45593999997E+02  0.45594000000E+02  0.51100000000E-03 0. -1.
    9900012    2    1    2    0    0  0.16181365948E+02  0.33964428449E+02  0.24772857416E+02  0.46142317983E+02  0.10000002027E+02 0.  0.
         12    1    1    2    0    0 -0.16181365948E+02 -0.33964428449E+02 -0.24772857416E+02  0.45045682017E+02  0.00000000000E+00 0. -1.
         11    1    3    3    0    0  0.14306052516E+01  0.71070104986E+01  0.57177734856E+01  0.92330473576E+01  0.51100000000E-03 0. -1.
        -11    1    3    3    0    0  0.11171122046E+02  0.23788890204E+02  0.13255229961E+02  0.29434781917E+02  0.51100000000E-03 0.  1.
         12    1    3    3    0    0  0.35796386508E+01  0.30685277461E+01  0.57998539691E+01  0.74744887091E+01  0.00000000000E+00 0. -1.
</event>
<event>
 7    1  0.2313935E-008  0.4614232E+02  0.7816164E-02  0.1320468E+00
        -11   -1    0    0    0    0  0.00000000000E+00  0.00000000000E+00  0.45593999997E+02  0.45594000000E+02  0.51100000000E-03 0. -1.
         11   -1    0    0    0    0 -0.00000000000E+00 -0.00000000000E+00 -0.45593999997E+02  0.45594000000E+02  0.51100000000E-03 0.  1.
    9900012    2    1    2    0    0  0.28010887057E+02  0.14532168059E+02 -0.32145291776E+02  0.46142317792E+02  0.10000000282E+02 0.  0.
         12    1    1    2    0    0 -0.28010887057E+02 -0.14532168059E+02  0.32145291776E+02  0.45045682208E+02  0.00000000000E+00 0. -1.
         11    1    3    3    0    0  0.33292573587E+01  0.45503529918E+01 -0.41141944821E+01  0.69797036763E+01  0.51100000000E-03 0. -1.
        -11    1    3    3    0    0 -0.24521697397E+00  0.50047773038E+00 -0.12445421533E+01  0.13636329255E+01  0.51100000000E-03 0.  1.
        -12    1    3    3    0    0  0.24926846672E+02  0.94813373367E+01 -0.26786555141E+02  0.37798981190E+02  0.00000000000E+00 0.  1.
</event>
<event>
 7    1  0.2313935E-008  0.4614232E+02  0.7816164E-02  0.1320468E+00
        -11   -1    0    0    0    0  0.00000000000E+00  0.00000000000E+00  0.45593999997E+02  0.45594000000E+02  0.51100000000E-03 0. -1.
         11   -1    0    0    0    0 -0.00000000000E+00 -0.00000000000E+00 -0.45593999997E+02  0.45594000000E+02  0.51100000000E-03 0.  1.
    9900012    2    1    2    0    0  0.30475619364E+02 -0.32265803175E+02  0.76985820470E+01  0.46142316569E+02  0.99999891333E+01 0.  0.
         12    1    1    2    0    0 -0.30475619364E+02  0.32265803175E+02 -0.76985820470E+01  0.45045683431E+02  0.00000000000E+00 0. -1.
         11    1    3    3    0    0  0.37263817313E+01 -0.57473955696E+01  0.43702187017E+01  0.81251023626E+01  0.51100000000E-03 0. -1.
        -11    1    3    3    0    0  0.12790123270E+02 -0.15189796869E+02  0.25767219379E+01  0.20023902676E+02  0.51100000000E-03 0.  1.
         12    1    3    3    0    0  0.13959114363E+02 -0.11328610736E+02  0.75164140739E+00  0.17993311531E+02  0.00000000000E+00 0. -1.
</event>
<event>
 7    1  0.2313935E-008  0.4614232E+02  0.7816164E-02  0.1320468E+00
        -11   -1    0    0    0    0  0.00000000000E+00  0.00000000000E+00  0.45593999997E+02  0.45594000000E+02  0.51100000000E-03 0. -1.
         11   -1    0    0    0    0 -0.00000000000E+00 -0.00000000000E+00 -0.45593999997E+02  0.45594000000E+02  0.51100000000E-03 0.  1.
    9900012    2    1    2    0    0 -0.27257590253E+02 -0.23034039685E+02 -0.27487639953E+02  0.46142316957E+02  0.99999926665E+01 0.  0.
         12    1    1    2    0    0  0.27257590253E+02  0.23034039685E+02  0.27487639953E+02  0.45045683043E+02  0.00000000000E+00 0. -1.
         11    1    3    3    0    0 -0.20569872936E+02 -0.12880087162E+02 -0.17961345380E+02  0.30193148991E+02  0.51100000000E-03 0. -1.
        -11    1    3    3    0    0 -0.69638043196E+01 -0.94414211962E+01 -0.78754075512E+01  0.14130005278E+02  0.51100000000E-03 0.  1.
        -12    1    3    3    0    0  0.27608700174E+00 -0.71253132646E+00 -0.16508870218E+01  0.18191626872E+01  0.00000000000E+00 0.  1.
</event>
<event>
 7    1  0.2313935E-008  0.4614232E+02  0.7816164E-02  0.1320468E+00
        -11   -1    0    0    0    0  0.00000000000E+00  0.00000000000E+00  0.45593999997E+02  0.45594000000E+02  0.51100000000E-03 0.  1.
         11   -1    0    0    0    0 -0.00000000000E+00 -0.00000000000E+00 -0.45593999997E+02  0.45594000000E+02  0.51100000000E-03 0. -1.
    9900012    2    1    2    0    0 -0.11335341300E+02  0.27731842456E+02  0.33638793518E+02  0.46142317879E+02  0.10000001077E+02 0.  0.
         12    1    1    2    0    0  0.11335341300E+02 -0.27731842456E+02 -0.33638793518E+02  0.45045682121E+02  0.00000000000E+00 0. -1.
         11    1    3    3    0    0 -0.59184538870E+01  0.68839981557E+01  0.93501225201E+01  0.13032356595E+02  0.51100000000E-03 0. -1.
        -11    1    3    3    0    0 -0.52320530857E+01  0.92608195937E+01  0.14222727995E+02  0.17760156275E+02  0.51100000000E-03 0.  1.
        -12    1    3    3    0    0 -0.18483432748E+00  0.11587024706E+02  0.10065943003E+02  0.15349805009E+02  0.00000000000E+00 0.  1.
</event>
<event>
 7    1  0.2313935E-008  0.4614232E+02  0.7816164E-02  0.1320468E+00
        -11   -1    0    0    0    0  0.00000000000E+00  0.00000000000E+00  0.45593999997E+02  0.45594000000E+02  0.51100000000E-03 0.  1.
         11   -1    0    0    0    0 -0.00000000000E+00 -0.00000000000E+00 -0.45593999997E+02  0.45594000000E+02  0.51100000000E-03 0. -1.
    9900012    2    1    2    0    0  0.26452411769E+02 -0.23451271453E+02  0.27918114124E+02  0.46142319659E+02  0.10000017306E+02 0.  0.
         12    1    1    2    0    0 -0.26452411769E+02  0.23451271453E+02 -0.27918114124E+02  0.45045680341E+02  0.00000000000E+00 0. -1.
         11    1    3    3    0    0  0.53028455989E+01 -0.30002634574E+01  0.91405460471E+01  0.10985050503E+02  0.51100000000E-03 0. -1.
        -11    1    3    3    0    0  0.68292247124E+01 -0.47535728975E+01  0.69347204351E+01  0.10831671766E+02  0.51100000000E-03 0.  1.
         12    1    3    3    0    0  0.14320341458E+02 -0.15697435098E+02  0.11842847642E+02  0.24325597390E+02  0.00000000000E+00 0. -1.
</event>
<event>
 7    1  0.2313935E-008  0.4614232E+02  0.7816164E-02  0.1320468E+00
        -11   -1    0    0    0    0  0.00000000000E+00  0.00000000000E+00  0.45593999997E+02  0.45594000000E+02  0.51100000000E-03 0. -1.
         11   -1    0    0    0    0 -0.00000000000E+00 -0.00000000000E+00 -0.45593999997E+02  0.45594000000E+02  0.51100000000E-03 0.  1.
    9900012    2    1    2    0    0 -0.40927103242E+02  0.44637986241E+01 -0.18280049936E+02  0.46142317593E+02  0.99999984633E+01 0.  0.
         12    1    1    2    0    0  0.40927103242E+02 -0.44637986241E+01  0.18280049936E+02  0.45045682407E+02  0.00000000000E+00 0. -1.
         11    1    3    3    0    0 -0.17046412834E+02  0.27210814978E+01 -0.10150196085E+02  0.20025257948E+02  0.51100000000E-03 0. -1.
        -11    1    3    3    0    0 -0.22162145070E+02  0.10765278273E+01 -0.91610056889E+01  0.24005074709E+02  0.51100000000E-03 0.  1.
         12    1    3    3    0    0 -0.17185453369E+01  0.66618929891E+00  0.10311518385E+01  0.21119849363E+01  0.00000000000E+00 0. -1.
</event>
<event>
 7    1  0.2313935E-008  0.4614232E+02  0.7816164E-02  0.1320468E+00
        -11   -1    0    0    0    0  0.00000000000E+00  0.00000000000E+00  0.45593999997E+02  0.45594000000E+02  0.51100000000E-03 0.  1.
         11   -1    0    0    0    0 -0.00000000000E+00 -0.00000000000E+00 -0.45593999997E+02  0.45594000000E+02  0.51100000000E-03 0. -1.
    9900012    2    1    2    0    0  0.79315292263E+01  0.29436272078E+02  0.33161879122E+02  0.46142317669E+02  0.99999991641E+01 0.  0.
         12    1    1    2    0    0 -0.79315292263E+01 -0.29436272078E+02 -0.33161879122E+02  0.45045682331E+02  0.00000000000E+00 0. -1.
         11    1    3    3    0    0  0.39084680336E+00  0.62924172305E+01  0.37476388151E+01  0.73343079276E+01  0.51100000000E-03 0. -1.
        -11    1    3    3    0    0 -0.13306113239E+01  0.23006999874E+01  0.28568757123E+01  0.39019848826E+01  0.51100000000E-03 0.  1.
        -12    1    3    3    0    0  0.88712937469E+01  0.20843154860E+02  0.26557364594E+02  0.34906024859E+02  0.00000000000E+00 0.  1.
</event>
<event>
 7    1  0.2313935E-008  0.4614232E+02  0.7816164E-02  0.1320468E+00
        -11   -1    0    0    0    0  0.00000000000E+00  0.00000000000E+00  0.45593999997E+02  0.45594000000E+02  0.51100000000E-03 0. -1.
         11   -1    0    0    0    0 -0.00000000000E+00 -0.00000000000E+00 -0.45593999997E+02  0.45594000000E+02  0.51100000000E-03 0.  1.
    9900012    2    1    2    0    0  0.28401135575E+02  0.34898503800E+02  0.21408889380E+01  0.46142317911E+02  0.10000001368E+02 0.  0.
         12    1    1    2    0    0 -0.28401135575E+02 -0.34898503800E+02 -0.21408889380E+01  0.45045682089E+02  0.00000000000E+00 0. -1.
         11    1    3    3    0    0 -0.54253236360E+00  0.26157502191E+01  0.10834380402E+00  0.26736172529E+01  0.51100000000E-03 0. -1.
        -11    1    3    3    0    0  0.10090049005E+01  0.92772268442E+00  0.45860998041E+00  0.14453662663E+01  0.51100000000E-03 0.  1.
        -12    1    3    3    0    0  0.27934663038E+02  0.31355030896E+02  0.15739351536E+01  0.42023334392E+02  0.00000000000E+00 0.  1.
</event>
<event>
 7    1  0.2313935E-008  0.4614232E+02  0.7816164E-02  0.1320468E+00
        -11   -1    0    0    0    0  0.00000000000E+00  0.00000000000E+00  0.45593999997E+02  0.45594000000E+02  0.51100000000E-03 0. -1.
         11   -1    0    0    0    0 -0.00000000000E+00 -0.00000000000E+00 -0.45593999997E+02  0.45594000000E+02  0.51100000000E-03 0.  1.
    9900012    2    1    2    0    0  0.18195902607E+02 -0.41133134440E+02  0.24673657209E+01  0.46142317475E+02  0.99999973911E+01 0.  0.
         12    1    1    2    0    0 -0.18195902607E+02  0.41133134440E+02 -0.24673657209E+01  0.45045682525E+02  0.00000000000E+00 0. -1.
         11    1    3    3    0    0 -0.36959014479E+00 -0.66763263044E+00 -0.26895208534E+00  0.80911413885E+00  0.51100000000E-03 0. -1.
        -11    1    3    3    0    0  0.10270194922E+02 -0.14940205407E+02  0.35833637148E+01  0.18480452838E+02  0.51100000000E-03 0.  1.
        -12    1    3    3    0    0  0.82952978297E+01 -0.25525296403E+02 -0.84704590859E+00  0.26852750498E+02  0.00000000000E+00 0.  1.
</event>
<event>
 7    1  0.2313935E-008  0.4614232E+02  0.7816164E-02  0.1320468E+00
        -11   -1    0    0    0    0  0.00000000000E+00  0.00000000000E+00  0.45593999997E+02  0.45594000000E+02  0.51100000000E-03 0.  1.
         11   -1    0    0    0    0 -0.00000000000E+00 -0.00000000000E+00 -0.45593999997E+02  0.45594000000E+02  0.51100000000E-03 0. -1.
    9900012    2    1    2    0    0 -0.13164320710E+02 -0.28685440373E+02  0.32139688337E+02  0.46142318791E+02  0.10000009396E+02 0.  0.
         12    1    1    2    0    0  0.13164320710E+02  0.28685440373E+02 -0.32139688337E+02  0.45045681209E+02  0.00000000000E+00 0. -1.
         11    1    3    3    0    0 -0.10561922788E+01 -0.65825155141E+01  0.79716487256E+01  0.10391931307E+02  0.51100000000E-03 0. -1.
        -11    1    3    3    0    0 -0.11859610907E+02 -0.22648934996E+02  0.22797110608E+02  0.34253946921E+02  0.51100000000E-03 0.  1.
         12    1    3    3    0    0 -0.24851752394E+00  0.54601013676E+00  0.13709290033E+01  0.14964405639E+01  0.00000000000E+00 0. -1.
</event>
<event>
 7    1  0.2313935E-008  0.4614232E+02  0.7816164E-02  0.1320468E+00
        -11   -1    0    0    0    0  0.00000000000E+00  0.00000000000E+00  0.45593999997E+02  0.45594000000E+02  0.51100000000E-03 0.  1.
         11   -1    0    0    0    0 -0.00000000000E+00 -0.00000000000E+00 -0.45593999997E+02  0.45594000000E+02  0.51100000000E-03 0. -1.
    9900012    2    1    2    0    0  0.59010441193E+01  0.44611660223E+02 -0.20225407448E+01  0.46142320733E+02  0.10000027098E+02 0.  0.
         12    1    1    2    0    0 -0.59010441193E+01 -0.44611660223E+02  0.20225407448E+01  0.45045679267E+02  0.00000000000E+00 0. -1.
         11    1    3    3    0    0  0.90916840703E+00  0.26405965228E+01 -0.11878948940E+01  0.30348693100E+01  0.51100000000E-03 0. -1.
        -11    1    3    3    0    0  0.50346451719E+00  0.32838450273E+02 -0.17603834342E+01  0.32889454890E+02  0.51100000000E-03 0.  1.
        -12    1    3    3    0    0  0.44884111951E+01  0.91326134278E+01  0.92573758339E+00  0.10217996533E+02  0.00000000000E+00 0.  1.
</event>
<event>
 7    1  0.2313935E-008  0.4614232E+02  0.7816164E-02  0.1320468E+00
        -11   -1    0    0    0    0  0.00000000000E+00  0.00000000000E+00  0.45593999997E+02  0.45594000000E+02  0.51100000000E-03 0.  1.
         11   -1    0    0    0    0 -0.00000000000E+00 -0.00000000000E+00 -0.45593999997E+02  0.45594000000E+02  0.51100000000E-03 0. -1.
    9900012    2    1    2    0    0 -0.19236913589E+02  0.17534086612E+01  0.40693735994E+02  0.46142318348E+02  0.10000005352E+02 0.  0.
         12    1    1    2    0    0  0.19236913589E+02 -0.17534086612E+01 -0.40693735994E+02  0.45045681652E+02  0.00000000000E+00 0. -1.
         11    1    3    3    0    0 -0.31155968336E+01  0.84489062102E-01  0.62543337894E+01  0.69879019342E+01  0.51100000000E-03 0. -1.
        -11    1    3    3    0    0 -0.12901779176E+02  0.22580118575E+01  0.17265726653E+02  0.21671636776E+02  0.51100000000E-03 0.  1.
         12    1    3    3    0    0 -0.32195375802E+01 -0.58909225844E+00  0.17173675552E+02  0.17482779638E+02  0.00000000000E+00 0. -1.
</event>
<event>
 7    1  0.2313935E-008  0.4614232E+02  0.7816164E-02  0.1320468E+00
        -11   -1    0    0    0    0  0.00000000000E+00  0.00000000000E+00  0.45593999997E+02  0.45594000000E+02  0.51100000000E-03 0.  1.
         11   -1    0    0    0    0 -0.00000000000E+00 -0.00000000000E+00 -0.45593999997E+02  0.45594000000E+02  0.51100000000E-03 0. -1.
    9900012    2    1    2    0    0 -0.19465062765E+01 -0.10266987634E+02  0.43816818362E+02  0.46142317709E+02  0.99999995220E+01 0.  0.
         12    1    1    2    0    0  0.19465062765E+01  0.10266987634E+02 -0.43816818362E+02  0.45045682291E+02  0.00000000000E+00 0. -1.
         11    1    3    3    0    0 -0.74197550998E+00  0.11297566529E+01  0.88655926622E+00  0.16164360012E+01  0.51100000000E-03 0. -1.
        -11    1    3    3    0    0  0.39669480908E+00 -0.15975775767E+01  0.98859284471E+01  0.10022035841E+02  0.51100000000E-03 0.  1.
         12    1    3    3    0    0 -0.16012255756E+01 -0.97991667101E+01  0.33044330648E+02  0.34503845866E+02  0.00000000000E+00 0. -1.
</event>
<event>
 7    1  0.2313935E-008  0.4614232E+02  0.7816164E-02  0.1320468E+00
        -11   -1    0    0    0    0  0.00000000000E+00  0.00000000000E+00  0.45593999997E+02  0.45594000000E+02  0.51100000000E-03 0.  1.
         11   -1    0    0    0    0 -0.00000000000E+00 -0.00000000000E+00 -0.45593999997E+02  0.45594000000E+02  0.51100000000E-03 0. -1.
    9900012    2    1    2    0    0 -0.89555115322E+01  0.18872983476E+02  0.39908931112E+02  0.46142317914E+02  0.10000001396E+02 0.  0.
         12    1    1    2    0    0  0.89555115322E+01 -0.18872983476E+02 -0.39908931112E+02  0.45045682086E+02  0.00000000000E+00 0. -1.
         11    1    3    3    0    0 -0.45141403918E+01  0.54455480747E+01  0.92098210691E+01  0.11612590654E+02  0.51100000000E-03 0. -1.
        -11    1    3    3    0    0 -0.22699414980E+01  0.12753513382E+02  0.21925368441E+02  0.25466183843E+02  0.51100000000E-03 0.  1.
         12    1    3    3    0    0 -0.21714296424E+01  0.67392201872E+00  0.87737416019E+01  0.90635434173E+01  0.00000000000E+00 0. -1.
</event>
<event>
 7    1  0.2313935E-008  0.4614232E+02  0.7816164E-02  0.1320468E+00
        -11   -1    0    0    0    0  0.00000000000E+00  0.00000000000E+00  0.45593999997E+02  0.45594000000E+02  0.51100000000E-03 0. -1.
         11   -1    0    0    0    0 -0.00000000000E+00 -0.00000000000E+00 -0.45593999997E+02  0.45594000000E+02  0.51100000000E-03 0.  1.
    9900012    2    1    2    0    0 -0.15525201099E+02 -0.29277414193E+02 -0.30510893820E+02  0.46142317713E+02  0.99999995629E+01 0.  0.
         12    1    1    2    0    0  0.15525201099E+02  0.29277414193E+02  0.30510893820E+02  0.45045682287E+02  0.00000000000E+00 0. -1.
         11    1    3    3    0    0 -0.90329375166E+01 -0.14013469474E+02 -0.20965534041E+02  0.26786655348E+02  0.51100000000E-03 0.  1.
        -11    1    3    3    0    0  0.89794657492E-01 -0.15390279017E+01 -0.38033465543E+00  0.15878679649E+01  0.51100000000E-03 0. -1.
        -12    1    3    3    0    0 -0.65820582396E+01 -0.13724916818E+02 -0.91650251239E+01  0.17767794400E+02  0.00000000000E+00 0.  1.
</event>
<event>
 7    1  0.2313935E-008  0.4614232E+02  0.7816164E-02  0.1320468E+00
        -11   -1    0    0    0    0  0.00000000000E+00  0.00000000000E+00  0.45593999997E+02  0.45594000000E+02  0.51100000000E-03 0. -1.
         11   -1    0    0    0    0 -0.00000000000E+00 -0.00000000000E+00 -0.45593999997E+02  0.45594000000E+02  0.51100000000E-03 0.  1.
    9900012    2    1    2    0    0 -0.36033503972E+02  0.60175674352E+01 -0.26353160367E+02  0.46142316659E+02  0.99999899482E+01 0.  0.
         12    1    1    2    0    0  0.36033503972E+02 -0.60175674352E+01  0.26353160367E+02  0.45045683341E+02  0.00000000000E+00 0. -1.
         11    1    3    3    0    0 -0.99452241867E+01  0.32461372477E+00 -0.35848503029E+01  0.10576578376E+02  0.51100000000E-03 0.  1.
        -11    1    3    3    0    0 -0.63220645985E+01  0.20792729872E+00 -0.27296317721E+01  0.68893123330E+01  0.51100000000E-03 0. -1.
        -12    1    3    3    0    0 -0.19766215187E+02  0.54850264117E+01 -0.20038678292E+02  0.28676425950E+02  0.00000000000E+00 0.  1.
</event>
<event>
 7    1  0.2313935E-008  0.4614232E+02  0.7816164E-02  0.1320468E+00
        -11   -1    0    0    0    0  0.00000000000E+00  0.00000000000E+00  0.45593999997E+02  0.45594000000E+02  0.51100000000E-03 0.  1.
         11   -1    0    0    0    0 -0.00000000000E+00 -0.00000000000E+00 -0.45593999997E+02  0.45594000000E+02  0.51100000000E-03 0. -1.
    9900012    2    1    2    0    0 -0.44828915552E+02 -0.42618468178E+01 -0.11482435870E+01  0.46142317952E+02  0.10000001739E+02 0.  0.
         12    1    1    2    0    0  0.44828915552E+02  0.42618468178E+01  0.11482435870E+01  0.45045682048E+02  0.00000000000E+00 0. -1.
         11    1    3    3    0    0 -0.78586391683E+00  0.37260102566E+00 -0.92694744509E+00  0.12710804251E+01  0.51100000000E-03 0. -1.
        -11    1    3    3    0    0 -0.53374929339E+01  0.17319131448E+01  0.54724129599E+00  0.56380694619E+01  0.51100000000E-03 0.  1.
        -12    1    3    3    0    0 -0.38705558701E+02 -0.63663609882E+01 -0.76853743792E+00  0.39233168065E+02  0.00000000000E+00 0.  1.
</event>
<event>
 7    1  0.2313935E-008  0.4614232E+02  0.7816164E-02  0.1320468E+00
        -11   -1    0    0    0    0  0.00000000000E+00  0.00000000000E+00  0.45593999997E+02  0.45594000000E+02  0.51100000000E-03 0. -1.
         11   -1    0    0    0    0 -0.00000000000E+00 -0.00000000000E+00 -0.45593999997E+02  0.45594000000E+02  0.51100000000E-03 0.  1.
    9900012    2    1    2    0    0 -0.18073771654E+02 -0.20751864011E+02 -0.35662479836E+02  0.46142317079E+02  0.99999937805E+01 0.  0.
         12    1    1    2    0    0  0.18073771654E+02  0.20751864011E+02  0.35662479836E+02  0.45045682921E+02  0.00000000000E+00 0. -1.
         11    1    3    3    0    0 -0.10652645219E+02 -0.13625085217E+02 -0.18876016644E+02  0.25601285162E+02  0.51100000000E-03 0. -1.
        -11    1    3    3    0    0 -0.30764002577E+01 -0.64743289529E+01 -0.12461323790E+02  0.14375874401E+02  0.51100000000E-03 0.  1.
        -12    1    3    3    0    0 -0.43447261771E+01 -0.65244984166E+00 -0.43251394021E+01  0.61651575160E+01  0.00000000000E+00 0.  1.
</event>
<event>
 7    1  0.2313935E-008  0.4614232E+02  0.7816164E-02  0.1320468E+00
        -11   -1    0    0    0    0  0.00000000000E+00  0.00000000000E+00  0.45593999997E+02  0.45594000000E+02  0.51100000000E-03 0.  1.
         11   -1    0    0    0    0 -0.00000000000E+00 -0.00000000000E+00 -0.45593999997E+02  0.45594000000E+02  0.51100000000E-03 0. -1.
    9900012    2    1    2    0    0  0.89187164227E+01 -0.15603725510E+02  0.41304887937E+02  0.46142317411E+02  0.99999968105E+01 0.  0.
         12    1    1    2    0    0 -0.89187164227E+01  0.15603725510E+02 -0.41304887937E+02  0.45045682589E+02  0.00000000000E+00 0. -1.
         11    1    3    3    0    0 -0.40762983247E+00 -0.65265183006E+01  0.95847211063E+01  0.11602951442E+02  0.51100000000E-03 0. -1.
        -11    1    3    3    0    0  0.45387697588E+01 -0.71091315910E+01  0.21150854529E+02  0.22770569393E+02  0.51100000000E-03 0.  1.
         12    1    3    3    0    0  0.47875764964E+01 -0.19680756185E+01  0.10569312301E+02  0.11768796577E+02  0.00000000000E+00 0. -1.
</event>
<event>
 7    1  0.2313935E-008  0.4614232E+02  0.7816164E-02  0.1320468E+00
        -11   -1    0    0    0    0  0.00000000000E+00  0.00000000000E+00  0.45593999997E+02  0.45594000000E+02  0.51100000000E-03 0.  1.
         11   -1    0    0    0    0 -0.00000000000E+00 -0.00000000000E+00 -0.45593999997E+02  0.45594000000E+02  0.51100000000E-03 0. -1.
    9900012    2    1    2    0    0  0.10526996382E+01  0.18590308734E+02  0.41017139830E+02  0.46142317463E+02  0.99999972848E+01 0.  0.
         12    1    1    2    0    0 -0.10526996382E+01 -0.18590308734E+02 -0.41017139830E+02  0.45045682537E+02  0.00000000000E+00 0. -1.
         11    1    3    3    0    0 -0.26281755555E+01  0.61539776085E+01  0.13688390000E+02  0.15236494617E+02  0.51100000000E-03 0. -1.
        -11    1    3    3    0    0  0.28673127258E+01  0.17899698648E+01  0.99562260980E+01  0.10514366969E+02  0.51100000000E-03 0.  1.
         12    1    3    3    0    0  0.81356246778E+00  0.10646361260E+02  0.17372523732E+02  0.20391455877E+02  0.00000000000E+00 0. -1.
</event>
<event>
 7    1  0.2313935E-008  0.4614232E+02  0.7816164E-02  0.1320468E+00
        -11   -1    0    0    0    0  0.00000000000E+00  0.00000000000E+00  0.45593999997E+02  0.45594000000E+02  0.51100000000E-03 0.  1.
         11   -1    0    0    0    0 -0.00000000000E+00 -0.00000000000E+00 -0.45593999997E+02  0.45594000000E+02  0.51100000000E-03 0. -1.
    9900012    2    1    2    0    0  0.14939656494E+02 -0.82868455968E+00  0.42488040469E+02  0.46142316110E+02  0.99999849403E+01 0.  0.
         12    1    1    2    0    0 -0.14939656494E+02  0.82868455968E+00 -0.42488040469E+02  0.45045683890E+02  0.00000000000E+00 0. -1.
         11    1    3    3    0    0  0.81459685051E+00  0.96326952421E-01  0.30098708794E+00  0.87375076472E+00  0.51100000000E-03 0. -1.
        -11    1    3    3    0    0 -0.57933093338E+00 -0.14891047108E+01  0.28206775644E+01  0.32418018683E+01  0.51100000000E-03 0.  1.
        -12    1    3    3    0    0  0.14704390577E+02  0.56409319874E+00  0.39366375817E+02  0.42026763477E+02  0.00000000000E+00 0.  1.
</event>
<event>
 7    1  0.2313935E-008  0.4614232E+02  0.7816164E-02  0.1320468E+00
        -11   -1    0    0    0    0  0.00000000000E+00  0.00000000000E+00  0.45593999997E+02  0.45594000000E+02  0.51100000000E-03 0.  1.
         11   -1    0    0    0    0 -0.00000000000E+00 -0.00000000000E+00 -0.45593999997E+02  0.45594000000E+02  0.51100000000E-03 0. -1.
    9900012    2    1    2    0    0  0.25366782839E+02  0.22266242042E+02  0.29830428862E+02  0.46142315497E+02  0.99999793546E+01 0.  0.
         12    1    1    2    0    0 -0.25366782839E+02 -0.22266242042E+02 -0.29830428862E+02  0.45045684503E+02  0.00000000000E+00 0. -1.
         11    1    3    3    0    0  0.15236035983E+02  0.17438715495E+02  0.18230952163E+02  0.29472244699E+02  0.51100000000E-03 0. -1.
        -11    1    3    3    0    0  0.89478208603E+00  0.73975848127E+00  0.36097250946E+01  0.37918324214E+01  0.51100000000E-03 0.  1.
        -12    1    3    3    0    0  0.92359647693E+01  0.40877680666E+01  0.79897516041E+01  0.12878238376E+02  0.00000000000E+00 0.  1.
</event>
<event>
 7    1  0.2313935E-008  0.4614232E+02  0.7816164E-02  0.1320468E+00
        -11   -1    0    0    0    0  0.00000000000E+00  0.00000000000E+00  0.45593999997E+02  0.45594000000E+02  0.51100000000E-03 0.  1.
         11   -1    0    0    0    0 -0.00000000000E+00 -0.00000000000E+00 -0.45593999997E+02  0.45594000000E+02  0.51100000000E-03 0. -1.
    9900012    2    1    2    0    0 -0.32373730315E+02 -0.20300193678E+02  0.23852825123E+02  0.46142317141E+02  0.99999943443E+01 0.  0.
         12    1    1    2    0    0  0.32373730315E+02  0.20300193678E+02 -0.23852825123E+02  0.45045682859E+02  0.00000000000E+00 0. -1.
         11    1    3    3    0    0 -0.10178532211E+02 -0.67070464376E+01  0.47660682235E+01  0.13088254141E+02  0.51100000000E-03 0. -1.
        -11    1    3    3    0    0 -0.25757817582E+01  0.68038309498E+00  0.25833147233E+01  0.37109416652E+01  0.51100000000E-03 0.  1.
        -12    1    3    3    0    0 -0.19619416346E+02 -0.14273530335E+02  0.16503442176E+02  0.29343121335E+02  0.00000000000E+00 0.  1.
</event>
<event>
 7    1  0.2313935E-008  0.4614232E+02  0.7816164E-02  0.1320468E+00
        -11   -1    0    0    0    0  0.00000000000E+00  0.00000000000E+00  0.45593999997E+02  0.45594000000E+02  0.51100000000E-03 0. -1.
         11   -1    0    0    0    0 -0.00000000000E+00 -0.00000000000E+00 -0.45593999997E+02  0.45594000000E+02  0.51100000000E-03 0.  1.
    9900012    2    1    2    0    0  0.19076073641E+02 -0.40750524929E+02  0.21474656690E+01  0.46142317895E+02  0.10000001219E+02 0.  0.
         12    1    1    2    0    0 -0.19076073641E+02  0.40750524929E+02 -0.21474656690E+01  0.45045682105E+02  0.00000000000E+00 0. -1.
         11    1    3    3    0    0 -0.51462217333E-01 -0.38743218328E+01  0.11604674903E+01  0.40447129788E+01  0.51100000000E-03 0. -1.
        -11    1    3    3    0    0  0.17769485263E+02 -0.28897115988E+02 -0.15387139386E+00  0.33923761519E+02  0.51100000000E-03 0.  1.
        -12    1    3    3    0    0  0.13580505956E+01 -0.79790871082E+01  0.11408695726E+01  0.81738433972E+01  0.00000000000E+00 0.  1.
</event>
<event>
 7    1  0.2313935E-008  0.4614232E+02  0.7816164E-02  0.1320468E+00
        -11   -1    0    0    0    0  0.00000000000E+00  0.00000000000E+00  0.45593999997E+02  0.45594000000E+02  0.51100000000E-03 0.  1.
         11   -1    0    0    0    0 -0.00000000000E+00 -0.00000000000E+00 -0.45593999997E+02  0.45594000000E+02  0.51100000000E-03 0. -1.
    9900012    2    1    2    0    0  0.15465103625E+02  0.26788537434E+02  0.32746267359E+02  0.46142321029E+02  0.10000029802E+02 0.  0.
         12    1    1    2    0    0 -0.15465103625E+02 -0.26788537434E+02 -0.32746267359E+02  0.45045678971E+02  0.00000000000E+00 0. -1.
         11    1    3    3    0    0  0.14144795536E+02  0.18342823532E+02  0.25045639516E+02  0.34114783817E+02  0.51100000000E-03 0. -1.
        -11    1    3    3    0    0  0.22209293980E+01  0.78080386366E+01  0.65243631959E+01  0.10414668027E+02  0.51100000000E-03 0.  1.
         12    1    3    3    0    0 -0.90062130947E+00  0.63767526594E+00  0.11762646470E+01  0.16128691849E+01  0.00000000000E+00 0. -1.
</event>
<event>
 7    1  0.2313935E-008  0.4614232E+02  0.7816164E-02  0.1320468E+00
        -11   -1    0    0    0    0  0.00000000000E+00  0.00000000000E+00  0.45593999997E+02  0.45594000000E+02  0.51100000000E-03 0. -1.
         11   -1    0    0    0    0 -0.00000000000E+00 -0.00000000000E+00 -0.45593999997E+02  0.45594000000E+02  0.51100000000E-03 0.  1.
    9900012    2    1    2    0    0  0.26340022926E+02  0.36413473427E+02 -0.30619632933E+01  0.46142317921E+02  0.10000001458E+02 0.  0.
         12    1    1    2    0    0 -0.26340022926E+02 -0.36413473427E+02  0.30619632933E+01  0.45045682079E+02  0.00000000000E+00 0. -1.
         11    1    3    3    0    0  0.24603031478E+01  0.78382427280E+00 -0.87262597315E+00  0.27256097336E+01  0.51100000000E-03 0. -1.
        -11    1    3    3    0    0  0.39764076685E+01  0.46755186296E+01 -0.24665617498E+01  0.66148484131E+01  0.51100000000E-03 0.  1.
        -12    1    3    3    0    0  0.19903312109E+02  0.30954130525E+02  0.27722442966E+00  0.36801859774E+02  0.00000000000E+00 0.  1.
</event>
<event>
 7    1  0.2313935E-008  0.4614231E+02  0.7816164E-02  0.1320468E+00
        -11   -1    0    0    0    0  0.00000000000E+00  0.00000000000E+00  0.45593999997E+02  0.45594000000E+02  0.51100000000E-03 0. -1.
         11   -1    0    0    0    0 -0.00000000000E+00 -0.00000000000E+00 -0.45593999997E+02  0.45594000000E+02  0.51100000000E-03 0.  1.
    9900012    2    1    2    0    0  0.39441360698E+02  0.38216581122E+01  0.21421665480E+02  0.46142314787E+02  0.99999728779E+01 0.  0.
         12    1    1    2    0    0 -0.39441360698E+02 -0.38216581122E+01 -0.21421665480E+02  0.45045685213E+02  0.00000000000E+00 0. -1.
         11    1    3    3    0    0  0.53689412604E+00 -0.17685207321E+00  0.19760792312E+01  0.20553397158E+01  0.51100000000E-03 0. -1.
        -11    1    3    3    0    0  0.14590361701E+02  0.68296811025E+00  0.10413584965E+02  0.17938446200E+02  0.51100000000E-03 0.  1.
        -12    1    3    3    0    0  0.24314104871E+02  0.33155420752E+01  0.90320012839E+01  0.26148528871E+02  0.00000000000E+00 0.  1.
</event>
<event>
 7    1  0.2313935E-008  0.4614232E+02  0.7816164E-02  0.1320468E+00
        -11   -1    0    0    0    0  0.00000000000E+00  0.00000000000E+00  0.45593999997E+02  0.45594000000E+02  0.51100000000E-03 0.  1.
         11   -1    0    0    0    0 -0.00000000000E+00 -0.00000000000E+00 -0.45593999997E+02  0.45594000000E+02  0.51100000000E-03 0. -1.
    9900012    2    1    2    0    0  0.44922948869E+02  0.31709760316E+01 -0.99358905187E+00  0.46142316041E+02  0.99999843186E+01 0.  0.
         12    1    1    2    0    0 -0.44922948869E+02 -0.31709760316E+01  0.99358905187E+00  0.45045683959E+02  0.00000000000E+00 0. -1.
         11    1    3    3    0    0  0.91465721613E+01 -0.19767331801E+01  0.15889881516E+01  0.94916879413E+01  0.51100000000E-03 0. -1.
        -11    1    3    3    0    0  0.16572021986E+02  0.92433787459E+00  0.11447322574E+01  0.16637209063E+02  0.51100000000E-03 0.  1.
        -12    1    3    3    0    0  0.19204354722E+02  0.42233713370E+01 -0.37273094608E+01  0.20013419037E+02  0.00000000000E+00 0.  1.
</event>
<event>
 7    1  0.2313935E-008  0.4614233E+02  0.7816164E-02  0.1320468E+00
        -11   -1    0    0    0    0  0.00000000000E+00  0.00000000000E+00  0.45593999997E+02  0.45594000000E+02  0.51100000000E-03 0.  1.
         11   -1    0    0    0    0 -0.00000000000E+00 -0.00000000000E+00 -0.45593999997E+02  0.45594000000E+02  0.51100000000E-03 0. -1.
    9900012    2    1    2    0    0 -0.19016913248E+02  0.16144778595E+02  0.37507539794E+02  0.46142329767E+02  0.10000109475E+02 0.  0.
         12    1    1    2    0    0  0.19016913248E+02 -0.16144778595E+02 -0.37507539794E+02  0.45045670233E+02  0.00000000000E+00 0. -1.
         11    1    3    3    0    0 -0.59810366215E+01  0.60951276675E+01  0.11729917388E+02  0.14509112396E+02  0.51100000000E-03 0. -1.
        -11    1    3    3    0    0 -0.10198077815E+02  0.10198738523E+02  0.24683226249E+02  0.28588051996E+02  0.51100000000E-03 0.  1.
         12    1    3    3    0    0 -0.28377988122E+01 -0.14908759521E+00  0.10943961569E+01  0.30451653745E+01  0.00000000000E+00 0. -1.
</event>
<event>
 7    1  0.2313935E-008  0.4614232E+02  0.7816164E-02  0.1320468E+00
        -11   -1    0    0    0    0  0.00000000000E+00  0.00000000000E+00  0.45593999997E+02  0.45594000000E+02  0.51100000000E-03 0.  1.
         11   -1    0    0    0    0 -0.00000000000E+00 -0.00000000000E+00 -0.45593999997E+02  0.45594000000E+02  0.51100000000E-03 0. -1.
    9900012    2    1    2    0    0 -0.93057056886E+01  0.33665007158E+02  0.28446170768E+02  0.46142317669E+02  0.99999991575E+01 0.  0.
         12    1    1    2    0    0  0.93057056886E+01 -0.33665007158E+02 -0.28446170768E+02  0.45045682331E+02  0.00000000000E+00 0. -1.
         11    1    3    3    0    0  0.55040018077E+00  0.64264985477E+01  0.25624591729E+01  0.69403905666E+01  0.51100000000E-03 0. -1.
        -11    1    3    3    0    0 -0.18294570625E+00  0.54117459741E+01  0.33158255936E+01  0.63494222768E+01  0.51100000000E-03 0.  1.
         12    1    3    3    0    0 -0.96731601631E+01  0.21826762636E+02  0.22567886001E+02  0.32852504825E+02  0.00000000000E+00 0. -1.
</event>
<event>
 7    1  0.2313935E-008  0.4614232E+02  0.7816164E-02  0.1320468E+00
        -11   -1    0    0    0    0  0.00000000000E+00  0.00000000000E+00  0.45593999997E+02  0.45594000000E+02  0.51100000000E-03 0.  1.
         11   -1    0    0    0    0 -0.00000000000E+00 -0.00000000000E+00 -0.45593999997E+02  0.45594000000E+02  0.51100000000E-03 0. -1.
    9900012    2    1    2    0    0  0.19764791518E+02 -0.31947431091E+02  0.24856148712E+02  0.46142318011E+02  0.10000002278E+02 0.  0.
         12    1    1    2    0    0 -0.19764791518E+02  0.31947431091E+02 -0.24856148712E+02  0.45045681989E+02  0.00000000000E+00 0. -1.
         11    1    3    3    0    0  0.67975984813E+01 -0.13887804880E+02  0.12172719344E+02  0.19678759260E+02  0.51100000000E-03 0. -1.
        -11    1    3    3    0    0  0.12033630555E+02 -0.12494634102E+02  0.11130656530E+02  0.20611056759E+02  0.51100000000E-03 0.  1.
         12    1    3    3    0    0  0.93356248100E+00 -0.55649921094E+01  0.15527728377E+01  0.58525019922E+01  0.00000000000E+00 0. -1.
</event>
<event>
 7    1  0.2313935E-008  0.4614232E+02  0.7816164E-02  0.1320468E+00
        -11   -1    0    0    0    0  0.00000000000E+00  0.00000000000E+00  0.45593999997E+02  0.45594000000E+02  0.51100000000E-03 0.  1.
         11   -1    0    0    0    0 -0.00000000000E+00 -0.00000000000E+00 -0.45593999997E+02  0.45594000000E+02  0.51100000000E-03 0. -1.
    9900012    2    1    2    0    0 -0.20431386953E+02  0.50735692943E+00  0.40142428177E+02  0.46142317368E+02  0.99999964138E+01 0.  0.
         12    1    1    2    0    0  0.20431386953E+02 -0.50735692943E+00 -0.40142428177E+02  0.45045682632E+02  0.00000000000E+00 0. -1.
         11    1    3    3    0    0 -0.13837341086E+02  0.21052923211E+01  0.17871886337E+02  0.22700409370E+02  0.51100000000E-03 0. -1.
        -11    1    3    3    0    0 -0.84584618519E+00  0.52920473026E+00  0.16353003375E+01  0.19156515525E+01  0.51100000000E-03 0.  1.
         12    1    3    3    0    0 -0.57481996823E+01 -0.21271401219E+01  0.20635241502E+02  0.21526256445E+02  0.00000000000E+00 0. -1.
</event>
<event>
 7    1  0.2313935E-008  0.4614232E+02  0.7816164E-02  0.1320468E+00
        -11   -1    0    0    0    0  0.00000000000E+00  0.00000000000E+00  0.45593999997E+02  0.45594000000E+02  0.51100000000E-03 0.  1.
         11   -1    0    0    0    0 -0.00000000000E+00 -0.00000000000E+00 -0.45593999997E+02  0.45594000000E+02  0.51100000000E-03 0. -1.
    9900012    2    1    2    0    0  0.64382511440E+01  0.36111283842E+02 -0.26146462200E+02  0.46142318919E+02  0.10000010555E+02 0.  0.
         12    1    1    2    0    0 -0.64382511440E+01 -0.36111283842E+02  0.26146462200E+02  0.45045681081E+02  0.00000000000E+00 0. -1.
         11    1    3    3    0    0  0.38859753765E+01  0.23342318856E+02 -0.11534758605E+02  0.26325183960E+02  0.51100000000E-03 0.  1.
        -11    1    3    3    0    0  0.20062839112E+00  0.70440257283E+01 -0.92505985718E+01  0.11628934793E+02  0.51100000000E-03 0. -1.
         12    1    3    3    0    0  0.23516473764E+01  0.57249392578E+01 -0.53611050231E+01  0.81882001659E+01  0.00000000000E+00 0. -1.
</event>
<event>
 7    1  0.2313935E-008  0.4614232E+02  0.7816164E-02  0.1320468E+00
        -11   -1    0    0    0    0  0.00000000000E+00  0.00000000000E+00  0.45593999997E+02  0.45594000000E+02  0.51100000000E-03 0.  1.
         11   -1    0    0    0    0 -0.00000000000E+00 -0.00000000000E+00 -0.45593999997E+02  0.45594000000E+02  0.51100000000E-03 0. -1.
    9900012    2    1    2    0    0 -0.13675424584E+02 -0.33457370027E+02  0.26883091129E+02  0.46142318350E+02  0.10000005370E+02 0.  0.
         12    1    1    2    0    0  0.13675424584E+02  0.33457370027E+02 -0.26883091129E+02  0.45045681650E+02  0.00000000000E+00 0. -1.
         11    1    3    3    0    0 -0.10227194878E+02 -0.19099934028E+02  0.18676392132E+02  0.28604381103E+02  0.51100000000E-03 0. -1.
        -11    1    3    3    0    0 -0.21246421652E+01 -0.85422614902E+01  0.74388801811E+01  0.11524811248E+02  0.51100000000E-03 0.  1.
         12    1    3    3    0    0 -0.13235875400E+01 -0.58151745088E+01  0.76781881594E+00  0.60131259988E+01  0.00000000000E+00 0. -1.
</event>
<event>
 7    1  0.2313935E-008  0.4614232E+02  0.7816164E-02  0.1320468E+00
        -11   -1    0    0    0    0  0.00000000000E+00  0.00000000000E+00  0.45593999997E+02  0.45594000000E+02  0.51100000000E-03 0. -1.
         11   -1    0    0    0    0 -0.00000000000E+00 -0.00000000000E+00 -0.45593999997E+02  0.45594000000E+02  0.51100000000E-03 0.  1.
    9900012    2    1    2    0    0 -0.14576721615E+02 -0.40331224321E+02 -0.13784958530E+02  0.46142317078E+02  0.99999937709E+01 0.  0.
         12    1    1    2    0    0  0.14576721615E+02  0.40331224321E+02  0.13784958530E+02  0.45045682922E+02  0.00000000000E+00 0. -1.
         11    1    3    3    0    0 -0.85660806931E+00 -0.22289271550E+00  0.37740921710E+00  0.96223517152E+00  0.51100000000E-03 0. -1.
        -11    1    3    3    0    0 -0.96647389665E+00 -0.46654060845E+01 -0.38518898974E+01  0.61267562191E+01  0.51100000000E-03 0.  1.
        -12    1    3    3    0    0 -0.12753639649E+02 -0.35442925520E+02 -0.10310477850E+02  0.39053325687E+02  0.00000000000E+00 0.  1.
</event>
<event>
 7    1  0.2313935E-008  0.4614232E+02  0.7816164E-02  0.1320468E+00
        -11   -1    0    0    0    0  0.00000000000E+00  0.00000000000E+00  0.45593999997E+02  0.45594000000E+02  0.51100000000E-03 0. -1.
         11   -1    0    0    0    0 -0.00000000000E+00 -0.00000000000E+00 -0.45593999997E+02  0.45594000000E+02  0.51100000000E-03 0.  1.
    9900012    2    1    2    0    0 -0.19413562149E+02  0.16151309463E+02 -0.37300967230E+02  0.46142319308E+02  0.10000014110E+02 0.  0.
         12    1    1    2    0    0  0.19413562149E+02 -0.16151309463E+02  0.37300967230E+02  0.45045680692E+02  0.00000000000E+00 0. -1.
         11    1    3    3    0    0 -0.88601798168E+01  0.81632268438E+01 -0.13798949530E+02  0.18318080338E+02  0.51100000000E-03 0. -1.
        -11    1    3    3    0    0 -0.79557560975E+01  0.23637634615E+01 -0.10197350786E+02  0.13147904628E+02  0.51100000000E-03 0.  1.
         12    1    3    3    0    0 -0.25976262346E+01  0.56243191572E+01 -0.13304666914E+02  0.14676334342E+02  0.00000000000E+00 0. -1.
</event>
<event>
 7    1  0.2313935E-008  0.4614232E+02  0.7816164E-02  0.1320468E+00
        -11   -1    0    0    0    0  0.00000000000E+00  0.00000000000E+00  0.45593999997E+02  0.45594000000E+02  0.51100000000E-03 0.  1.
         11   -1    0    0    0    0 -0.00000000000E+00 -0.00000000000E+00 -0.45593999997E+02  0.45594000000E+02  0.51100000000E-03 0. -1.
    9900012    2    1    2    0    0  0.20658973610E+02  0.14072853939E+02  0.37473657892E+02  0.46142318249E+02  0.10000004452E+02 0.  0.
         12    1    1    2    0    0 -0.20658973610E+02 -0.14072853939E+02 -0.37473657892E+02  0.45045681751E+02  0.00000000000E+00 0. -1.
         11    1    3    3    0    0  0.16568753113E+01  0.14345835678E+01  0.46726958156E+00  0.22408942262E+01  0.51100000000E-03 0. -1.
        -11    1    3    3    0    0  0.11682246651E+02  0.94042801577E+01  0.19068771202E+02  0.24259707490E+02  0.51100000000E-03 0.  1.
        -12    1    3    3    0    0  0.73198516484E+01  0.32339902131E+01  0.17937617108E+02  0.19641716533E+02  0.00000000000E+00 0.  1.
</event>
<event>
 7    1  0.2313935E-008  0.4614232E+02  0.7816164E-02  0.1320468E+00
        -11   -1    0    0    0    0  0.00000000000E+00  0.00000000000E+00  0.45593999997E+02  0.45594000000E+02  0.51100000000E-03 0.  1.
         11   -1    0    0    0    0 -0.00000000000E+00 -0.00000000000E+00 -0.45593999997E+02  0.45594000000E+02  0.51100000000E-03 0. -1.
    9900012    2    1    2    0    0  0.74631382643E+01 -0.36941757403E+02  0.24672286291E+02  0.46142316704E+02  0.99999903596E+01 0.  0.
         12    1    1    2    0    0 -0.74631382643E+01  0.36941757403E+02 -0.24672286291E+02  0.45045683296E+02  0.00000000000E+00 0. -1.
         11    1    3    3    0    0  0.63797670340E+01 -0.18371813654E+02  0.12865756177E+02  0.23318504382E+02  0.51100000000E-03 0. -1.
        -11    1    3    3    0    0 -0.17108686050E+00 -0.58317704006E+01  0.69810532602E+00  0.58758972103E+01  0.51100000000E-03 0.  1.
        -12    1    3    3    0    0  0.12544580908E+01 -0.12738173349E+02  0.11108424788E+02  0.16947915112E+02  0.00000000000E+00 0.  1.
</event>
<event>
 7    1  0.2313935E-008  0.4614232E+02  0.7816164E-02  0.1320468E+00
        -11   -1    0    0    0    0  0.00000000000E+00  0.00000000000E+00  0.45593999997E+02  0.45594000000E+02  0.51100000000E-03 0.  1.
         11   -1    0    0    0    0 -0.00000000000E+00 -0.00000000000E+00 -0.45593999997E+02  0.45594000000E+02  0.51100000000E-03 0. -1.
    9900012    2    1    2    0    0  0.41371522819E+01 -0.41334547221E+02  0.17419885591E+02  0.46142320552E+02  0.10000025447E+02 0.  0.
         12    1    1    2    0    0 -0.41371522819E+01  0.41334547221E+02 -0.17419885591E+02  0.45045679448E+02  0.00000000000E+00 0. -1.
         11    1    3    3    0    0  0.17978622906E+01 -0.60322935488E+01  0.68767893357E+00  0.63319646913E+01  0.51100000000E-03 0. -1.
        -11    1    3    3    0    0  0.83846858415E+00 -0.34285799485E+02  0.16134392742E+02  0.37901684729E+02  0.51100000000E-03 0.  1.
        -12    1    3    3    0    0  0.15008214071E+01 -0.10164541869E+01  0.59781391534E+00  0.19086711313E+01  0.00000000000E+00 0.  1.
</event>
<event>
 7    1  0.2313935E-008  0.4614232E+02  0.7816164E-02  0.1320468E+00
        -11   -1    0    0    0    0  0.00000000000E+00  0.00000000000E+00  0.45593999997E+02  0.45594000000E+02  0.51100000000E-03 0.  1.
         11   -1    0    0    0    0 -0.00000000000E+00 -0.00000000000E+00 -0.45593999997E+02  0.45594000000E+02  0.51100000000E-03 0. -1.
    9900012    2    1    2    0    0  0.13081576151E+02  0.53994553964E+01  0.42764842259E+02  0.46142317780E+02  0.10000000175E+02 0.  0.
         12    1    1    2    0    0 -0.13081576151E+02 -0.53994553964E+01 -0.42764842259E+02  0.45045682220E+02  0.00000000000E+00 0. -1.
         11    1    3    3    0    0  0.24684463685E+01 -0.12214557733E+01  0.53898729463E+01  0.60527607188E+01  0.51100000000E-03 0. -1.
        -11    1    3    3    0    0  0.94221841980E+01  0.62007806934E+01  0.22577337417E+02  0.25238133873E+02  0.51100000000E-03 0.  1.
        -12    1    3    3    0    0  0.11909455842E+01  0.42013047632E+00  0.14797631896E+02  0.14851423189E+02  0.00000000000E+00 0.  1.
</event>
<event>
 7    1  0.2313935E-008  0.4614232E+02  0.7816164E-02  0.1320468E+00
        -11   -1    0    0    0    0  0.00000000000E+00  0.00000000000E+00  0.45593999997E+02  0.45594000000E+02  0.51100000000E-03 0.  1.
         11   -1    0    0    0    0 -0.00000000000E+00 -0.00000000000E+00 -0.45593999997E+02  0.45594000000E+02  0.51100000000E-03 0. -1.
    9900012    2    1    2    0    0 -0.30076919377E+01 -0.68550410740E+01  0.44419314965E+02  0.46142319399E+02  0.10000014932E+02 0.  0.
         12    1    1    2    0    0  0.30076919377E+01  0.68550410740E+01 -0.44419314965E+02  0.45045680601E+02  0.00000000000E+00 0. -1.
         11    1    3    3    0    0 -0.50728714333E+01 -0.21655424570E+01  0.26844177726E+02  0.27404989997E+02  0.51100000000E-03 0. -1.
        -11    1    3    3    0    0  0.17561648564E+00 -0.28375673595E+01  0.14022121497E+02  0.14307428882E+02  0.51100000000E-03 0.  1.
        -12    1    3    3    0    0  0.18895630100E+01 -0.18519312574E+01  0.35530157418E+01  0.44299005195E+01  0.00000000000E+00 0.  1.
</event>
<event>
 7    1  0.2313935E-008  0.4614232E+02  0.7816164E-02  0.1320468E+00
        -11   -1    0    0    0    0  0.00000000000E+00  0.00000000000E+00  0.45593999997E+02  0.45594000000E+02  0.51100000000E-03 0. -1.
         11   -1    0    0    0    0 -0.00000000000E+00 -0.00000000000E+00 -0.45593999997E+02  0.45594000000E+02  0.51100000000E-03 0.  1.
    9900012    2    1    2    0    0  0.14301641493E+02  0.42588909378E+02 -0.32804460163E+01  0.46142317882E+02  0.10000001105E+02 0.  0.
         12    1    1    2    0    0 -0.14301641493E+02 -0.42588909378E+02  0.32804460163E+01  0.45045682118E+02  0.00000000000E+00 0. -1.
         11    1    3    3    0    0  0.63539698760E+01  0.22554576874E+02 -0.49555835654E+01  0.23950776185E+02  0.51100000000E-03 0. -1.
        -11    1    3    3    0    0  0.77427999978E+01  0.15776746992E+02 -0.98888136405E-01  0.17574597480E+02  0.51100000000E-03 0.  1.
        -12    1    3    3    0    0  0.20487161933E+00  0.42575855121E+01  0.17740256855E+01  0.46169442173E+01  0.00000000000E+00 0.  1.
</event>
<event>
 7    1  0.2313935E-008  0.4614231E+02  0.7816164E-02  0.1320468E+00
        -11   -1    0    0    0    0  0.00000000000E+00  0.00000000000E+00  0.45593999997E+02  0.45594000000E+02  0.51100000000E-03 0.  1.
         11   -1    0    0    0    0 -0.00000000000E+00 -0.00000000000E+00 -0.45593999997E+02  0.45594000000E+02  0.51100000000E-03 0. -1.
    9900012    2    1    2    0    0 -0.79075190303E+00  0.36838456362E+01  0.44887837363E+02  0.46142312633E+02  0.99999532362E+01 0.  0.
         12    1    1    2    0    0  0.79075190303E+00 -0.36838456362E+01 -0.44887837363E+02  0.45045687367E+02  0.00000000000E+00 0. -1.
         11    1    3    3    0    0  0.87348470803E+00 -0.18385746941E+00  0.18279670230E+00  0.91114982287E+00  0.51100000000E-03 0. -1.
        -11    1    3    3    0    0 -0.36738033667E+01  0.25766648023E+01  0.28543829410E+02  0.28894397905E+02  0.51100000000E-03 0.  1.
        -12    1    3    3    0    0  0.20095667556E+01  0.12910383033E+01  0.16161211251E+02  0.16336764905E+02  0.00000000000E+00 0.  1.
</event>
<event>
 7    1  0.2313935E-008  0.4614232E+02  0.7816164E-02  0.1320468E+00
        -11   -1    0    0    0    0  0.00000000000E+00  0.00000000000E+00  0.45593999997E+02  0.45594000000E+02  0.51100000000E-03 0. -1.
         11   -1    0    0    0    0 -0.00000000000E+00 -0.00000000000E+00 -0.45593999997E+02  0.45594000000E+02  0.51100000000E-03 0.  1.
    9900012    2    1    2    0    0  0.21750869123E+01 -0.41217348173E+02 -0.18041968496E+02  0.46142318512E+02  0.10000006849E+02 0.  0.
         12    1    1    2    0    0 -0.21750869123E+01  0.41217348173E+02  0.18041968496E+02  0.45045681488E+02  0.00000000000E+00 0. -1.
         11    1    3    3    0    0  0.42828642203E+01 -0.21425407831E+02 -0.12793267637E+02  0.25319137500E+02  0.51100000000E-03 0. -1.
        -11    1    3    3    0    0  0.67283282425E-01 -0.13363513590E+02 -0.35643244055E+01  0.13830850706E+02  0.51100000000E-03 0.  1.
         12    1    3    3    0    0 -0.21750605905E+01 -0.64284267517E+01 -0.16843764536E+01  0.69923303063E+01  0.00000000000E+00 0. -1.
</event>
<event>
 7    1  0.2313935E-008  0.4614232E+02  0.7816164E-02  0.1320468E+00
        -11   -1    0    0    0    0  0.00000000000E+00  0.00000000000E+00  0.45593999997E+02  0.45594000000E+02  0.51100000000E-03 0.  1.
         11   -1    0    0    0    0 -0.00000000000E+00 -0.00000000000E+00 -0.45593999997E+02  0.45594000000E+02  0.51100000000E-03 0. -1.
    9900012    2    1    2    0    0  0.67032581391E+01 -0.40231888332E+02  0.19120015073E+02  0.46142317800E+02  0.10000000354E+02 0.  0.
         12    1    1    2    0    0 -0.67032581391E+01  0.40231888332E+02 -0.19120015073E+02  0.45045682200E+02  0.00000000000E+00 0. -1.
         11    1    3    3    0    0  0.69758870269E+00 -0.14092258040E+02  0.89894704148E+01  0.16729881807E+02  0.51100000000E-03 0. -1.
        -11    1    3    3    0    0  0.46239757242E+00 -0.15457237760E+02  0.70139177084E+01  0.16980431460E+02  0.51100000000E-03 0.  1.
        -12    1    3    3    0    0  0.55432718640E+01 -0.10682392533E+02  0.31166269499E+01  0.12432004534E+02  0.00000000000E+00 0.  1.
</event>
<event>
 7    1  0.2313935E-008  0.4614232E+02  0.7816164E-02  0.1320468E+00
        -11   -1    0    0    0    0  0.00000000000E+00  0.00000000000E+00  0.45593999997E+02  0.45594000000E+02  0.51100000000E-03 0.  1.
         11   -1    0    0    0    0 -0.00000000000E+00 -0.00000000000E+00 -0.45593999997E+02  0.45594000000E+02  0.51100000000E-03 0. -1.
    9900012    2    1    2    0    0  0.54462198851E+01  0.32859327533E+02  0.30326831473E+02  0.46142318474E+02  0.10000006502E+02 0.  0.
         12    1    1    2    0    0 -0.54462198851E+01 -0.32859327533E+02 -0.30326831473E+02  0.45045681526E+02  0.00000000000E+00 0. -1.
         11    1    3    3    0    0  0.21292258268E+01  0.16974548099E+01  0.55483607526E+00  0.27789924045E+01  0.51100000000E-03 0. -1.
        -11    1    3    3    0    0 -0.65595723979E+00  0.50965477762E+01  0.42595126229E+01  0.66744683070E+01  0.51100000000E-03 0.  1.
        -12    1    3    3    0    0  0.39729512981E+01  0.26065324947E+02  0.25512482774E+02  0.36688857763E+02  0.00000000000E+00 0.  1.
</event>
<event>
 7    1  0.2313935E-008  0.4614232E+02  0.7816164E-02  0.1320468E+00
        -11   -1    0    0    0    0  0.00000000000E+00  0.00000000000E+00  0.45593999997E+02  0.45594000000E+02  0.51100000000E-03 0.  1.
         11   -1    0    0    0    0 -0.00000000000E+00 -0.00000000000E+00 -0.45593999997E+02  0.45594000000E+02  0.51100000000E-03 0. -1.
    9900012    2    1    2    0    0  0.41829823522E+00 -0.38239745713E+02  0.23804629969E+02  0.46142317259E+02  0.99999954213E+01 0.  0.
         12    1    1    2    0    0 -0.41829823522E+00  0.38239745713E+02 -0.23804629969E+02  0.45045682741E+02  0.00000000000E+00 0. -1.
         11    1    3    3    0    0  0.91791032931E+00 -0.81432561835E+01  0.14984858668E+01  0.83307046999E+01  0.51100000000E-03 0. -1.
        -11    1    3    3    0    0 -0.27164567629E+01 -0.12468972195E+02  0.96028250122E+01  0.15970868900E+02  0.51100000000E-03 0.  1.
        -12    1    3    3    0    0  0.22168446688E+01 -0.17627517335E+02  0.12703319090E+02  0.21840743659E+02  0.00000000000E+00 0.  1.
</event>
<event>
 7    1  0.2313935E-008  0.4614232E+02  0.7816164E-02  0.1320468E+00
        -11   -1    0    0    0    0  0.00000000000E+00  0.00000000000E+00  0.45593999997E+02  0.45594000000E+02  0.51100000000E-03 0.  1.
         11   -1    0    0    0    0 -0.00000000000E+00 -0.00000000000E+00 -0.45593999997E+02  0.45594000000E+02  0.51100000000E-03 0. -1.
    9900012    2    1    2    0    0 -0.20237788052E+02 -0.30338078289E+02  0.26441376123E+02  0.46142318400E+02  0.10000005828E+02 0.  0.
         12    1    1    2    0    0  0.20237788052E+02  0.30338078289E+02 -0.26441376123E+02  0.45045681600E+02  0.00000000000E+00 0. -1.
         11    1    3    3    0    0 -0.36847926543E+01 -0.30831065737E+01  0.22843420992E+01  0.53199118543E+01  0.51100000000E-03 0. -1.
        -11    1    3    3    0    0 -0.64633496320E+01 -0.88200955208E+01  0.13138869750E+02  0.17093825553E+02  0.51100000000E-03 0.  1.
        -12    1    3    3    0    0 -0.10089645765E+02 -0.18434876195E+02  0.11018164275E+02  0.23728580993E+02  0.00000000000E+00 0.  1.
</event>
<event>
 7    1  0.2313935E-008  0.4614231E+02  0.7816164E-02  0.1320468E+00
        -11   -1    0    0    0    0  0.00000000000E+00  0.00000000000E+00  0.45593999997E+02  0.45594000000E+02  0.51100000000E-03 0.  1.
         11   -1    0    0    0    0 -0.00000000000E+00 -0.00000000000E+00 -0.45593999997E+02  0.45594000000E+02  0.51100000000E-03 0. -1.
    9900012    2    1    2    0    0 -0.27966178765E+02  0.32030325576E+02  0.14868252874E+02  0.46142313694E+02  0.99999629159E+01 0.  0.
         12    1    1    2    0    0  0.27966178765E+02 -0.32030325576E+02 -0.14868252874E+02  0.45045686306E+02  0.00000000000E+00 0. -1.
         11    1    3    3    0    0 -0.97159395094E+01  0.12646976345E+02  0.36165207347E+01  0.16353125503E+02  0.51100000000E-03 0. -1.
        -11    1    3    3    0    0 -0.72748288049E+01  0.30661641592E+01  0.37766876436E+01  0.87514494006E+01  0.51100000000E-03 0.  1.
        -12    1    3    3    0    0 -0.10975410451E+02  0.16317185072E+02  0.74750444960E+01  0.21037738791E+02  0.00000000000E+00 0.  1.
</event>
<event>
 7    1  0.2313935E-008  0.4614232E+02  0.7816164E-02  0.1320468E+00
        -11   -1    0    0    0    0  0.00000000000E+00  0.00000000000E+00  0.45593999997E+02  0.45594000000E+02  0.51100000000E-03 0.  1.
         11   -1    0    0    0    0 -0.00000000000E+00 -0.00000000000E+00 -0.45593999997E+02  0.45594000000E+02  0.51100000000E-03 0. -1.
    9900012    2    1    2    0    0  0.14089691821E+02  0.27217272895E+01  0.42698785558E+02  0.46142317597E+02  0.99999985036E+01 0.  0.
         12    1    1    2    0    0 -0.14089691821E+02 -0.27217272895E+01 -0.42698785558E+02  0.45045682403E+02  0.00000000000E+00 0. -1.
         11    1    3    3    0    0  0.21807672002E+01 -0.55708018375E+00  0.24678166629E+01  0.33400903064E+01  0.51100000000E-03 0. -1.
        -11    1    3    3    0    0  0.67258894932E+01  0.11671749528E+01  0.32781041627E+02  0.33484273581E+02  0.51100000000E-03 0.  1.
        -12    1    3    3    0    0  0.51830351278E+01  0.21116325205E+01  0.74499272682E+01  0.93179537099E+01  0.00000000000E+00 0.  1.
</event>
<event>
 7    1  0.2313935E-008  0.4614232E+02  0.7816164E-02  0.1320468E+00
        -11   -1    0    0    0    0  0.00000000000E+00  0.00000000000E+00  0.45593999997E+02  0.45594000000E+02  0.51100000000E-03 0.  1.
         11   -1    0    0    0    0 -0.00000000000E+00 -0.00000000000E+00 -0.45593999997E+02  0.45594000000E+02  0.51100000000E-03 0. -1.
    9900012    2    1    2    0    0 -0.41716262183E+02 -0.13113577367E+02  0.10812055929E+02  0.46142323234E+02  0.10000049906E+02 0.  0.
         12    1    1    2    0    0  0.41716262183E+02  0.13113577367E+02 -0.10812055929E+02  0.45045676766E+02  0.00000000000E+00 0. -1.
         11    1    3    3    0    0 -0.35278904876E-01 -0.78629602014E+00 -0.66230944346E+00  0.10286690879E+01  0.51100000000E-03 0. -1.
        -11    1    3    3    0    0 -0.18465536468E+02 -0.50756964230E+01  0.69639158341E+01  0.20377312267E+02  0.51100000000E-03 0.  1.
         12    1    3    3    0    0 -0.23215446811E+02 -0.72515849244E+01  0.45104495382E+01  0.24736341879E+02  0.00000000000E+00 0. -1.
</event>
<event>
 7    1  0.2313935E-008  0.4614231E+02  0.7816164E-02  0.1320468E+00
        -11   -1    0    0    0    0  0.00000000000E+00  0.00000000000E+00  0.45593999997E+02  0.45594000000E+02  0.51100000000E-03 0. -1.
         11   -1    0    0    0    0 -0.00000000000E+00 -0.00000000000E+00 -0.45593999997E+02  0.45594000000E+02  0.51100000000E-03 0.  1.
    9900012    2    1    2    0    0  0.15607081079E+02  0.34411691299E+02  0.24522817021E+02  0.46142311721E+02  0.99999449224E+01 0.  0.
         12    1    1    2    0    0 -0.15607081079E+02 -0.34411691299E+02 -0.24522817021E+02  0.45045688279E+02  0.00000000000E+00 0. -1.
         11    1    3    3    0    0 -0.34752345733E+00  0.11876040193E+01  0.63069647726E+00  0.13888679446E+01  0.51100000000E-03 0. -1.
        -11    1    3    3    0    0  0.50465663989E+01  0.20125161366E+02  0.14234427177E+02  0.25161654749E+02  0.51100000000E-03 0.  1.
         12    1    3    3    0    0  0.10908038138E+02  0.13098925914E+02  0.96576933667E+01  0.19591789027E+02  0.00000000000E+00 0. -1.
</event>
<event>
 7    1  0.2313935E-008  0.4614231E+02  0.7816164E-02  0.1320468E+00
        -11   -1    0    0    0    0  0.00000000000E+00  0.00000000000E+00  0.45593999997E+02  0.45594000000E+02  0.51100000000E-03 0.  1.
         11   -1    0    0    0    0 -0.00000000000E+00 -0.00000000000E+00 -0.45593999997E+02  0.45594000000E+02  0.51100000000E-03 0. -1.
    9900012    2    1    2    0    0 -0.74626330139E+01 -0.10550043998E+02  0.43152282658E+02  0.46142314097E+02  0.99999665898E+01 0.  0.
         12    1    1    2    0    0  0.74626330139E+01  0.10550043998E+02 -0.43152282658E+02  0.45045685903E+02  0.00000000000E+00 0. -1.
         11    1    3    3    0    0 -0.55932129119E+01 -0.98328239740E+01  0.39851564490E+02  0.41426026246E+02  0.51100000000E-03 0.  1.
        -11    1    3    3    0    0  0.21528776534E+00 -0.49255477692E+00 -0.24988099564E+00  0.59278984748E+00  0.51100000000E-03 0. -1.
        -12    1    3    3    0    0 -0.20847078674E+01 -0.22466524669E+00  0.35505991640E+01  0.41234980039E+01  0.00000000000E+00 0.  1.
</event>
<event>
 7    1  0.2313935E-008  0.4614232E+02  0.7816164E-02  0.1320468E+00
        -11   -1    0    0    0    0  0.00000000000E+00  0.00000000000E+00  0.45593999997E+02  0.45594000000E+02  0.51100000000E-03 0.  1.
         11   -1    0    0    0    0 -0.00000000000E+00 -0.00000000000E+00 -0.45593999997E+02  0.45594000000E+02  0.51100000000E-03 0. -1.
    9900012    2    1    2    0    0  0.12604175974E+02  0.30880172241E+02  0.30276445459E+02  0.46142318307E+02  0.10000004976E+02 0.  0.
         12    1    1    2    0    0 -0.12604175974E+02 -0.30880172241E+02 -0.30276445459E+02  0.45045681693E+02  0.00000000000E+00 0. -1.
         11    1    3    3    0    0  0.12969795914E+01  0.85656668343E+01  0.83219048602E+01  0.12012780908E+02  0.51100000000E-03 0. -1.
        -11    1    3    3    0    0  0.60396927741E+01  0.13698064656E+02  0.17670444634E+02  0.23159436045E+02  0.51100000000E-03 0.  1.
         12    1    3    3    0    0  0.52675036084E+01  0.86164407508E+01  0.42840959648E+01  0.10970101354E+02  0.00000000000E+00 0. -1.
</event>
<event>
 7    1  0.2313935E-008  0.4614232E+02  0.7816164E-02  0.1320468E+00
        -11   -1    0    0    0    0  0.00000000000E+00  0.00000000000E+00  0.45593999997E+02  0.45594000000E+02  0.51100000000E-03 0.  1.
         11   -1    0    0    0    0 -0.00000000000E+00 -0.00000000000E+00 -0.45593999997E+02  0.45594000000E+02  0.51100000000E-03 0. -1.
    9900012    2    1    2    0    0 -0.73681754566E+01 -0.99301017078E+01  0.43315314077E+02  0.46142319152E+02  0.10000012680E+02 0.  0.
         12    1    1    2    0    0  0.73681754566E+01  0.99301017078E+01 -0.43315314077E+02  0.45045680848E+02  0.00000000000E+00 0. -1.
         11    1    3    3    0    0 -0.11247208906E+01 -0.71220661466E+00  0.10749656286E+02  0.10831774825E+02  0.51100000000E-03 0. -1.
        -11    1    3    3    0    0 -0.15469304443E+01 -0.59345829061E+01  0.25428385224E+02  0.26157504533E+02  0.51100000000E-03 0.  1.
         12    1    3    3    0    0 -0.46965241217E+01 -0.32833121871E+01  0.71372725676E+01  0.91530397928E+01  0.00000000000E+00 0. -1.
</event>
<event>
 7    1  0.2313935E-008  0.4614232E+02  0.7816164E-02  0.1320468E+00
        -11   -1    0    0    0    0  0.00000000000E+00  0.00000000000E+00  0.45593999997E+02  0.45594000000E+02  0.51100000000E-03 0.  1.
         11   -1    0    0    0    0 -0.00000000000E+00 -0.00000000000E+00 -0.45593999997E+02  0.45594000000E+02  0.51100000000E-03 0. -1.
    9900012    2    1    2    0    0 -0.26027172489E+02  0.36515301204E+02  0.42816541813E+01  0.46142317717E+02  0.99999995984E+01 0.  0.
         12    1    1    2    0    0  0.26027172489E+02 -0.36515301204E+02 -0.42816541813E+01  0.45045682283E+02  0.00000000000E+00 0. -1.
         11    1    3    3    0    0 -0.57665022459E+01  0.99427063683E+01  0.11132647693E+01  0.11547697467E+02  0.51100000000E-03 0.  1.
        -11    1    3    3    0    0 -0.68974265260E+00  0.24973202466E+01  0.24410635973E+01  0.35596551923E+01  0.51100000000E-03 0. -1.
        -12    1    3    3    0    0 -0.19570927591E+02  0.24075274589E+02  0.72732581472E+00  0.31034965058E+02  0.00000000000E+00 0.  1.
</event>
<event>
 7    1  0.2313935E-008  0.4614231E+02  0.7816164E-02  0.1320468E+00
        -11   -1    0    0    0    0  0.00000000000E+00  0.00000000000E+00  0.45593999997E+02  0.45594000000E+02  0.51100000000E-03 0. -1.
         11   -1    0    0    0    0 -0.00000000000E+00 -0.00000000000E+00 -0.45593999997E+02  0.45594000000E+02  0.51100000000E-03 0.  1.
    9900012    2    1    2    0    0 -0.26151456021E+02  0.18939375803E+02 -0.31408839309E+02  0.46142314362E+02  0.99999690049E+01 0.  0.
         12    1    1    2    0    0  0.26151456021E+02 -0.18939375803E+02  0.31408839309E+02  0.45045685638E+02  0.00000000000E+00 0. -1.
         11    1    3    3    0    0 -0.71902430038E+00  0.24951988663E+01 -0.21024983372E+01  0.33411843478E+01  0.51100000000E-03 0. -1.
        -11    1    3    3    0    0 -0.21066659076E+02  0.16079960515E+02 -0.27066060848E+02  0.37880613840E+02  0.51100000000E-03 0.  1.
         12    1    3    3    0    0 -0.43657726448E+01  0.36421642161E+00 -0.22402801235E+01  0.49205161741E+01  0.00000000000E+00 0. -1.
</event>
<event>
 7    1  0.2313935E-008  0.4614232E+02  0.7816164E-02  0.1320468E+00
        -11   -1    0    0    0    0  0.00000000000E+00  0.00000000000E+00  0.45593999997E+02  0.45594000000E+02  0.51100000000E-03 0. -1.
         11   -1    0    0    0    0 -0.00000000000E+00 -0.00000000000E+00 -0.45593999997E+02  0.45594000000E+02  0.51100000000E-03 0.  1.
    9900012    2    1    2    0    0 -0.44201636133E+01 -0.16679393436E+02 -0.41609777572E+02  0.46142316507E+02  0.99999885624E+01 0.  0.
         12    1    1    2    0    0  0.44201636133E+01  0.16679393436E+02  0.41609777572E+02  0.45045683493E+02  0.00000000000E+00 0. -1.
         11    1    3    3    0    0 -0.27158311933E+01 -0.12438401866E+02 -0.36293841224E+02  0.38462091611E+02  0.51100000000E-03 0.  1.
        -11    1    3    3    0    0 -0.17198802330E+01 -0.26260686090E+01 -0.51833242559E+01  0.60597916596E+01  0.51100000000E-03 0. -1.
        -12    1    3    3    0    0  0.15547813035E-01 -0.16149229611E+01 -0.13261209201E+00  0.16204332358E+01  0.00000000000E+00 0.  1.
</event>
<event>
 7    1  0.2313935E-008  0.4614232E+02  0.7816164E-02  0.1320468E+00
        -11   -1    0    0    0    0  0.00000000000E+00  0.00000000000E+00  0.45593999997E+02  0.45594000000E+02  0.51100000000E-03 0. -1.
         11   -1    0    0    0    0 -0.00000000000E+00 -0.00000000000E+00 -0.45593999997E+02  0.45594000000E+02  0.51100000000E-03 0.  1.
    9900012    2    1    2    0    0  0.80415081456E+01 -0.42310827874E+02  0.13200053522E+02  0.46142318502E+02  0.10000006753E+02 0.  0.
         12    1    1    2    0    0 -0.80415081456E+01  0.42310827874E+02 -0.13200053522E+02  0.45045681498E+02  0.00000000000E+00 0. -1.
         11    1    3    3    0    0  0.33889271931E+00 -0.77228500072E+01  0.27358996633E+01  0.82001468120E+01  0.51100000000E-03 0. -1.
        -11    1    3    3    0    0  0.12450416786E+01 -0.23887638808E+02  0.78366060779E+01  0.25171051064E+02  0.51100000000E-03 0.  1.
         12    1    3    3    0    0  0.64575737476E+01 -0.10700339059E+02  0.26275477813E+01  0.12771120625E+02  0.00000000000E+00 0. -1.
</event>
<event>
 7    1  0.2313935E-008  0.4614232E+02  0.7816164E-02  0.1320468E+00
        -11   -1    0    0    0    0  0.00000000000E+00  0.00000000000E+00  0.45593999997E+02  0.45594000000E+02  0.51100000000E-03 0. -1.
         11   -1    0    0    0    0 -0.00000000000E+00 -0.00000000000E+00 -0.45593999997E+02  0.45594000000E+02  0.51100000000E-03 0.  1.
    9900012    2    1    2    0    0  0.35386268375E+01 -0.44905899962E+02  0.22703683670E+00  0.46142320107E+02  0.10000021395E+02 0.  0.
         12    1    1    2    0    0 -0.35386268375E+01  0.44905899962E+02 -0.22703683670E+00  0.45045679893E+02  0.00000000000E+00 0. -1.
         11    1    3    3    0    0  0.45332910988E+01 -0.21583294077E+02 -0.58455666283E+00  0.22061981283E+02  0.51100000000E-03 0. -1.
        -11    1    3    3    0    0  0.16988555981E+00 -0.17119308149E+02 -0.18713293128E+01  0.17222120841E+02  0.51100000000E-03 0.  1.
         12    1    3    3    0    0 -0.11645498211E+01 -0.62032977365E+01  0.26829228123E+01  0.68582179836E+01  0.00000000000E+00 0. -1.
</event>
<event>
 7    1  0.2313935E-008  0.4614232E+02  0.7816164E-02  0.1320468E+00
        -11   -1    0    0    0    0  0.00000000000E+00  0.00000000000E+00  0.45593999997E+02  0.45594000000E+02  0.51100000000E-03 0.  1.
         11   -1    0    0    0    0 -0.00000000000E+00 -0.00000000000E+00 -0.45593999997E+02  0.45594000000E+02  0.51100000000E-03 0. -1.
    9900012    2    1    2    0    0  0.17473148395E+02 -0.11890932162E+02  0.39779498282E+02  0.46142315788E+02  0.99999820097E+01 0.  0.
         12    1    1    2    0    0 -0.17473148395E+02  0.11890932162E+02 -0.39779498282E+02  0.45045684212E+02  0.00000000000E+00 0. -1.
         11    1    3    3    0    0  0.64044370775E+01 -0.54109336516E+01  0.18234254691E+02  0.20069455938E+02  0.51100000000E-03 0.  1.
        -11    1    3    3    0    0  0.75108564811E+01 -0.39556496053E+01  0.19473916847E+02  0.21243671211E+02  0.51100000000E-03 0. -1.
         12    1    3    3    0    0  0.35578548360E+01 -0.25243489054E+01  0.20713267440E+01  0.48291886390E+01  0.00000000000E+00 0. -1.
</event>
<event>
 7    1  0.2313935E-008  0.4614232E+02  0.7816164E-02  0.1320468E+00
        -11   -1    0    0    0    0  0.00000000000E+00  0.00000000000E+00  0.45593999997E+02  0.45594000000E+02  0.51100000000E-03 0.  1.
         11   -1    0    0    0    0 -0.00000000000E+00 -0.00000000000E+00 -0.45593999997E+02  0.45594000000E+02  0.51100000000E-03 0. -1.
    9900012    2    1    2    0    0  0.23899855495E+02 -0.18175994358E+02  0.33578916141E+02  0.46142317933E+02  0.10000001571E+02 0.  0.
         12    1    1    2    0    0 -0.23899855495E+02  0.18175994358E+02 -0.33578916141E+02  0.45045682067E+02  0.00000000000E+00 0. -1.
         11    1    3    3    0    0  0.11295723447E+02 -0.65158398986E+01  0.15425422300E+02  0.20198841333E+02  0.51100000000E-03 0.  1.
        -11    1    3    3    0    0  0.96083638412E+01 -0.43643220799E+01  0.90838684298E+01  0.13924246078E+02  0.51100000000E-03 0. -1.
         12    1    3    3    0    0  0.29957682069E+01 -0.72958323797E+01  0.90696254112E+01  0.12019230523E+02  0.00000000000E+00 0. -1.
</event>
<event>
 7    1  0.2313935E-008  0.4614232E+02  0.7816164E-02  0.1320468E+00
        -11   -1    0    0    0    0  0.00000000000E+00  0.00000000000E+00  0.45593999997E+02  0.45594000000E+02  0.51100000000E-03 0.  1.
         11   -1    0    0    0    0 -0.00000000000E+00 -0.00000000000E+00 -0.45593999997E+02  0.45594000000E+02  0.51100000000E-03 0. -1.
    9900012    2    1    2    0    0 -0.16543909230E+02  0.27724701772E+02  0.31412633784E+02  0.46142316719E+02  0.99999905010E+01 0.  0.
         12    1    1    2    0    0  0.16543909230E+02 -0.27724701772E+02 -0.31412633784E+02  0.45045683281E+02  0.00000000000E+00 0. -1.
         11    1    3    3    0    0 -0.18156204704E+01  0.59549732698E+01  0.21967380608E+01  0.66018060185E+01  0.51100000000E-03 0. -1.
        -11    1    3    3    0    0 -0.19254188847E+01  0.10581273008E+01  0.15684274952E+01  0.26994140725E+01  0.51100000000E-03 0.  1.
        -12    1    3    3    0    0 -0.12802869875E+02  0.20711601201E+02  0.27647468228E+02  0.36841096628E+02  0.00000000000E+00 0.  1.
</event>
<event>
 7    1  0.2313935E-008  0.4614232E+02  0.7816164E-02  0.1320468E+00
        -11   -1    0    0    0    0  0.00000000000E+00  0.00000000000E+00  0.45593999997E+02  0.45594000000E+02  0.51100000000E-03 0.  1.
         11   -1    0    0    0    0 -0.00000000000E+00 -0.00000000000E+00 -0.45593999997E+02  0.45594000000E+02  0.51100000000E-03 0. -1.
    9900012    2    1    2    0    0 -0.98056180181E+00 -0.78393813256E+01  0.44347447672E+02  0.46142317454E+02  0.99999971960E+01 0.  0.
         12    1    1    2    0    0  0.98056180181E+00  0.78393813256E+01 -0.44347447672E+02  0.45045682546E+02  0.00000000000E+00 0. -1.
         11    1    3    3    0    0 -0.18800251842E+00 -0.40874231530E+01  0.95732208280E+01  0.10411000445E+02  0.51100000000E-03 0. -1.
        -11    1    3    3    0    0 -0.18994041302E+01 -0.54916052764E+01  0.29530340789E+02  0.30096619278E+02  0.51100000000E-03 0.  1.
         12    1    3    3    0    0  0.11068448468E+01  0.17396471038E+01  0.52438860550E+01  0.56346977309E+01  0.00000000000E+00 0. -1.
</event>
<event>
 7    1  0.2313935E-008  0.4614232E+02  0.7816164E-02  0.1320468E+00
        -11   -1    0    0    0    0  0.00000000000E+00  0.00000000000E+00  0.45593999997E+02  0.45594000000E+02  0.51100000000E-03 0.  1.
         11   -1    0    0    0    0 -0.00000000000E+00 -0.00000000000E+00 -0.45593999997E+02  0.45594000000E+02  0.51100000000E-03 0. -1.
    9900012    2    1    2    0    0  0.34489548932E+02 -0.78728811944E+01  0.27885519797E+02  0.46142318096E+02  0.10000003055E+02 0.  0.
         12    1    1    2    0    0 -0.34489548932E+02  0.78728811944E+01 -0.27885519797E+02  0.45045681904E+02  0.00000000000E+00 0. -1.
         11    1    3    3    0    0  0.21955053000E+02 -0.42640822964E+01  0.16589266969E+02  0.27846194154E+02  0.51100000000E-03 0. -1.
        -11    1    3    3    0    0  0.37995504578E+01  0.15905698864E+01  0.43089812704E+01  0.59610247521E+01  0.51100000000E-03 0.  1.
         12    1    3    3    0    0  0.87349454747E+01 -0.51993687844E+01  0.69872715575E+01  0.12335099190E+02  0.00000000000E+00 0. -1.
</event>
<event>
 7    1  0.2313935E-008  0.4614232E+02  0.7816164E-02  0.1320468E+00
        -11   -1    0    0    0    0  0.00000000000E+00  0.00000000000E+00  0.45593999997E+02  0.45594000000E+02  0.51100000000E-03 0. -1.
         11   -1    0    0    0    0 -0.00000000000E+00 -0.00000000000E+00 -0.45593999997E+02  0.45594000000E+02  0.51100000000E-03 0.  1.
    9900012    2    1    2    0    0 -0.42839962288E+02  0.79516630895E+01  0.11429008271E+02  0.46142317135E+02  0.99999942940E+01 0.  0.
         12    1    1    2    0    0  0.42839962288E+02 -0.79516630895E+01 -0.11429008271E+02  0.45045682865E+02  0.00000000000E+00 0. -1.
         11    1    3    3    0    0  0.31892131518E+00  0.43638701365E+00 -0.38804093535E+00  0.66537242172E+00  0.51100000000E-03 0. -1.
        -11    1    3    3    0    0 -0.55621817602E+01  0.20250015210E+01  0.16022248782E+01  0.61323422862E+01  0.51100000000E-03 0.  1.
         12    1    3    3    0    0 -0.37596701843E+02  0.54902745548E+01  0.10214824328E+02  0.39344602427E+02  0.00000000000E+00 0. -1.
</event>
<event>
 7    1  0.2313935E-008  0.4614232E+02  0.7816164E-02  0.1320468E+00
        -11   -1    0    0    0    0  0.00000000000E+00  0.00000000000E+00  0.45593999997E+02  0.45594000000E+02  0.51100000000E-03 0.  1.
         11   -1    0    0    0    0 -0.00000000000E+00 -0.00000000000E+00 -0.45593999997E+02  0.45594000000E+02  0.51100000000E-03 0. -1.
    9900012    2    1    2    0    0  0.32713701899E+02  0.42939546121E+01  0.30667395898E+02  0.46142317529E+02  0.99999978794E+01 0.  0.
         12    1    1    2    0    0 -0.32713701899E+02 -0.42939546121E+01 -0.30667395898E+02  0.45045682471E+02  0.00000000000E+00 0. -1.
         11    1    3    3    0    0  0.13174218369E+01  0.70220933711E+00 -0.50058158571E+00  0.15745730959E+01  0.51100000000E-03 0. -1.
        -11    1    3    3    0    0  0.10273658961E+02  0.25455554814E+01  0.85850556997E+01  0.13628319881E+02  0.51100000000E-03 0.  1.
         12    1    3    3    0    0  0.21122621101E+02  0.10461897935E+01  0.22582921784E+02  0.30939424551E+02  0.00000000000E+00 0. -1.
</event>
<event>
 7    1  0.2313935E-008  0.4614232E+02  0.7816164E-02  0.1320468E+00
        -11   -1    0    0    0    0  0.00000000000E+00  0.00000000000E+00  0.45593999997E+02  0.45594000000E+02  0.51100000000E-03 0.  1.
         11   -1    0    0    0    0 -0.00000000000E+00 -0.00000000000E+00 -0.45593999997E+02  0.45594000000E+02  0.51100000000E-03 0. -1.
    9900012    2    1    2    0    0 -0.24127545257E+00  0.27289234283E+02  0.35837868868E+02  0.46142319112E+02  0.10000012322E+02 0.  0.
         12    1    1    2    0    0  0.24127545257E+00 -0.27289234283E+02 -0.35837868868E+02  0.45045680888E+02  0.00000000000E+00 0. -1.
         11    1    3    3    0    0  0.58888285197E+00  0.11842916582E+02  0.92862454804E+01  0.15061069403E+02  0.51100000000E-03 0. -1.
        -11    1    3    3    0    0  0.18628032561E+01  0.85707605966E+01  0.14671871192E+02  0.17093618041E+02  0.51100000000E-03 0.  1.
        -12    1    3    3    0    0 -0.26929615607E+01  0.68755571043E+01  0.11879752196E+02  0.13987631669E+02  0.00000000000E+00 0.  1.
</event>
<event>
 7    1  0.2313935E-008  0.4614232E+02  0.7816164E-02  0.1320468E+00
        -11   -1    0    0    0    0  0.00000000000E+00  0.00000000000E+00  0.45593999997E+02  0.45594000000E+02  0.51100000000E-03 0. -1.
         11   -1    0    0    0    0 -0.00000000000E+00 -0.00000000000E+00 -0.45593999997E+02  0.45594000000E+02  0.51100000000E-03 0.  1.
    9900012    2    1    2    0    0  0.32831369227E+02 -0.16462791796E+02 -0.26080474021E+02  0.46142318251E+02  0.10000004469E+02 0.  0.
         12    1    1    2    0    0 -0.32831369227E+02  0.16462791796E+02  0.26080474021E+02  0.45045681749E+02  0.00000000000E+00 0. -1.
         11    1    3    3    0    0  0.12593862268E+02 -0.87358116651E+01 -0.64262254031E+01  0.16619751667E+02  0.51100000000E-03 0. -1.
        -11    1    3    3    0    0  0.25184469773E+01 -0.21242194763E+01 -0.18116604735E+01  0.37599198786E+01  0.51100000000E-03 0.  1.
         12    1    3    3    0    0  0.17719059981E+02 -0.56027606542E+01 -0.17842588145E+02  0.25762646706E+02  0.00000000000E+00 0. -1.
</event>
<event>
 7    1  0.2313935E-008  0.4614232E+02  0.7816164E-02  0.1320468E+00
        -11   -1    0    0    0    0  0.00000000000E+00  0.00000000000E+00  0.45593999997E+02  0.45594000000E+02  0.51100000000E-03 0. -1.
         11   -1    0    0    0    0 -0.00000000000E+00 -0.00000000000E+00 -0.45593999997E+02  0.45594000000E+02  0.51100000000E-03 0.  1.
    9900012    2    1    2    0    0  0.43266512262E+02 -0.83387114854E+01 -0.93588590459E+01  0.46142318351E+02  0.10000005378E+02 0.  0.
         12    1    1    2    0    0 -0.43266512262E+02  0.83387114854E+01  0.93588590459E+01  0.45045681649E+02  0.00000000000E+00 0. -1.
         11    1    3    3    0    0  0.50193168281E+01  0.10885805471E+01 -0.21614458074E+01  0.55722883331E+01  0.51100000000E-03 0. -1.
        -11    1    3    3    0    0  0.18786852946E+02 -0.12948519166E+01 -0.36744730445E+01  0.19186563984E+02  0.51100000000E-03 0.  1.
        -12    1    3    3    0    0  0.19460342489E+02 -0.81324401159E+01 -0.35229401940E+01  0.21383466034E+02  0.00000000000E+00 0.  1.
</event>
<event>
 7    1  0.2313935E-008  0.4614232E+02  0.7816164E-02  0.1320468E+00
        -11   -1    0    0    0    0  0.00000000000E+00  0.00000000000E+00  0.45593999997E+02  0.45594000000E+02  0.51100000000E-03 0. -1.
         11   -1    0    0    0    0 -0.00000000000E+00 -0.00000000000E+00 -0.45593999997E+02  0.45594000000E+02  0.51100000000E-03 0.  1.
    9900012    2    1    2    0    0 -0.14946505620E+02  0.41352324222E+02 -0.97826798364E+01  0.46142316815E+02  0.99999913763E+01 0.  0.
         12    1    1    2    0    0  0.14946505620E+02 -0.41352324222E+02  0.97826798364E+01  0.45045683185E+02  0.00000000000E+00 0. -1.
         11    1    3    3    0    0  0.14238827927E+00  0.41386234628E+01 -0.48520474484E+00  0.41694007356E+01  0.51100000000E-03 0. -1.
        -11    1    3    3    0    0 -0.15941826997E+02  0.33232571337E+02 -0.83252513431E+01  0.37786974685E+02  0.51100000000E-03 0.  1.
        -12    1    3    3    0    0  0.85293309745E+00  0.39811294218E+01 -0.97222374838E+00  0.41859413945E+01  0.00000000000E+00 0.  1.
</event>
<event>
 7    1  0.2313935E-008  0.4614232E+02  0.7816164E-02  0.1320468E+00
        -11   -1    0    0    0    0  0.00000000000E+00  0.00000000000E+00  0.45593999997E+02  0.45594000000E+02  0.51100000000E-03 0. -1.
         11   -1    0    0    0    0 -0.00000000000E+00 -0.00000000000E+00 -0.45593999997E+02  0.45594000000E+02  0.51100000000E-03 0.  1.
    9900012    2    1    2    0    0 -0.12947655332E+02  0.40194870462E+02 -0.15679415332E+02  0.46142318129E+02  0.10000003357E+02 0.  0.
         12    1    1    2    0    0  0.12947655332E+02 -0.40194870462E+02  0.15679415332E+02  0.45045681871E+02  0.00000000000E+00 0. -1.
         11    1    3    3    0    0 -0.71082739298E+01  0.17803584143E+02 -0.99056866851E+01  0.21578178690E+02  0.51100000000E-03 0. -1.
        -11    1    3    3    0    0 -0.66370038399E+01  0.14632398568E+02 -0.35713661250E+01  0.16459391364E+02  0.51100000000E-03 0.  1.
        -12    1    3    3    0    0  0.79762243807E+00  0.77588877508E+01 -0.22023625220E+01  0.81047480752E+01  0.00000000000E+00 0.  1.
</event>
<event>
 7    1  0.2313935E-008  0.4614232E+02  0.7816164E-02  0.1320468E+00
        -11   -1    0    0    0    0  0.00000000000E+00  0.00000000000E+00  0.45593999997E+02  0.45594000000E+02  0.51100000000E-03 0.  1.
         11   -1    0    0    0    0 -0.00000000000E+00 -0.00000000000E+00 -0.45593999997E+02  0.45594000000E+02  0.51100000000E-03 0. -1.
    9900012    2    1    2    0    0  0.23808380674E+02  0.13150981083E+02  0.35907189455E+02  0.46142317096E+02  0.99999939375E+01 0.  0.
         12    1    1    2    0    0 -0.23808380674E+02 -0.13150981083E+02 -0.35907189455E+02  0.45045682904E+02  0.00000000000E+00 0. -1.
         11    1    3    3    0    0  0.12657385510E+01  0.22559191719E+01  0.55424836195E+01  0.61164033813E+01  0.51100000000E-03 0. -1.
        -11    1    3    3    0    0  0.16061462106E+02  0.11200662093E+02  0.22365911360E+02  0.29726408925E+02  0.51100000000E-03 0.  1.
        -12    1    3    3    0    0  0.64811800166E+01 -0.30560018238E+00  0.79987944748E+01  0.10299504790E+02  0.00000000000E+00 0.  1.
</event>
<event>
 7    1  0.2313935E-008  0.4614232E+02  0.7816164E-02  0.1320468E+00
        -11   -1    0    0    0    0  0.00000000000E+00  0.00000000000E+00  0.45593999997E+02  0.45594000000E+02  0.51100000000E-03 0.  1.
         11   -1    0    0    0    0 -0.00000000000E+00 -0.00000000000E+00 -0.45593999997E+02  0.45594000000E+02  0.51100000000E-03 0. -1.
    9900012    2    1    2    0    0 -0.19653127642E+02  0.38315875466E+02  0.13219756483E+02  0.46142315409E+02  0.99999785513E+01 0.  0.
         12    1    1    2    0    0  0.19653127642E+02 -0.38315875466E+02 -0.13219756483E+02  0.45045684591E+02  0.00000000000E+00 0. -1.
         11    1    3    3    0    0 -0.53942295714E+01  0.66860100135E+01  0.16687934400E+01  0.87513035816E+01  0.51100000000E-03 0. -1.
        -11    1    3    3    0    0 -0.55536287377E+01  0.79919474718E+01  0.64902495254E+01  0.11697750028E+02  0.51100000000E-03 0.  1.
         12    1    3    3    0    0 -0.87052693330E+01  0.23637917980E+02  0.50607135172E+01  0.25693261800E+02  0.00000000000E+00 0. -1.
</event>
<event>
 7    1  0.2313935E-008  0.4614232E+02  0.7816164E-02  0.1320468E+00
        -11   -1    0    0    0    0  0.00000000000E+00  0.00000000000E+00  0.45593999997E+02  0.45594000000E+02  0.51100000000E-03 0. -1.
         11   -1    0    0    0    0 -0.00000000000E+00 -0.00000000000E+00 -0.45593999997E+02  0.45594000000E+02  0.51100000000E-03 0.  1.
    9900012    2    1    2    0    0  0.34860041995E+01  0.36113287675E+02 -0.26698152873E+02  0.46142321641E+02  0.10000035381E+02 0.  0.
         12    1    1    2    0    0 -0.34860041995E+01 -0.36113287675E+02  0.26698152873E+02  0.45045678359E+02  0.00000000000E+00 0. -1.
         11    1    3    3    0    0  0.22449993222E+01  0.36793941466E+01 -0.24679620666E+01  0.49667696006E+01  0.51100000000E-03 0. -1.
        -11    1    3    3    0    0 -0.26863679396E+01  0.21436996145E+02 -0.16200631608E+02  0.27004107857E+02  0.51100000000E-03 0.  1.
        -12    1    3    3    0    0  0.39273728170E+01  0.10996897384E+02 -0.80295591981E+01  0.14171444183E+02  0.00000000000E+00 0.  1.
</event>
<event>
 7    1  0.2313935E-008  0.4614232E+02  0.7816164E-02  0.1320468E+00
        -11   -1    0    0    0    0  0.00000000000E+00  0.00000000000E+00  0.45593999997E+02  0.45594000000E+02  0.51100000000E-03 0.  1.
         11   -1    0    0    0    0 -0.00000000000E+00 -0.00000000000E+00 -0.45593999997E+02  0.45594000000E+02  0.51100000000E-03 0. -1.
    9900012    2    1    2    0    0 -0.16915044920E+02 -0.29301299543E+02  0.29739345127E+02  0.46142317097E+02  0.99999939473E+01 0.  0.
         12    1    1    2    0    0  0.16915044920E+02  0.29301299543E+02 -0.29739345127E+02  0.45045682903E+02  0.00000000000E+00 0. -1.
         11    1    3    3    0    0 -0.60042843450E+00 -0.44483386483E+00 -0.45699651561E-01  0.74865225006E+00  0.51100000000E-03 0. -1.
        -11    1    3    3    0    0 -0.12663633209E+02 -0.13767279876E+02  0.15409789929E+02  0.24235660238E+02  0.51100000000E-03 0.  1.
        -12    1    3    3    0    0 -0.36509832764E+01 -0.15089185802E+02  0.14375254850E+02  0.21158004609E+02  0.00000000000E+00 0.  1.
</event>
<event>
 7    1  0.2313935E-008  0.4614232E+02  0.7816164E-02  0.1320468E+00
        -11   -1    0    0    0    0  0.00000000000E+00  0.00000000000E+00  0.45593999997E+02  0.45594000000E+02  0.51100000000E-03 0. -1.
         11   -1    0    0    0    0 -0.00000000000E+00 -0.00000000000E+00 -0.45593999997E+02  0.45594000000E+02  0.51100000000E-03 0.  1.
    9900012    2    1    2    0    0 -0.74141574103E+01  0.20398570330E+02 -0.39472041907E+02  0.46142317699E+02  0.99999994336E+01 0.  0.
         12    1    1    2    0    0  0.74141574103E+01 -0.20398570330E+02  0.39472041907E+02  0.45045682301E+02  0.00000000000E+00 0. -1.
         11    1    3    3    0    0  0.80119846898E+00  0.72947830651E+01 -0.18154882811E+02  0.19582021068E+02  0.51100000000E-03 0. -1.
        -11    1    3    3    0    0 -0.33860496233E+01  0.80909198890E+01 -0.10299629039E+02  0.13528143823E+02  0.51100000000E-03 0.  1.
         12    1    3    3    0    0 -0.48293062559E+01  0.50128673761E+01 -0.11017530057E+02  0.13032152808E+02  0.00000000000E+00 0. -1.
</event>
<event>
 7    1  0.2313935E-008  0.4614232E+02  0.7816164E-02  0.1320468E+00
        -11   -1    0    0    0    0  0.00000000000E+00  0.00000000000E+00  0.45593999997E+02  0.45594000000E+02  0.51100000000E-03 0. -1.
         11   -1    0    0    0    0 -0.00000000000E+00 -0.00000000000E+00 -0.45593999997E+02  0.45594000000E+02  0.51100000000E-03 0.  1.
    9900012    2    1    2    0    0  0.39734446595E+02 -0.72880378080E+00  0.21207455163E+02  0.46142317014E+02  0.99999931866E+01 0.  0.
         12    1    1    2    0    0 -0.39734446595E+02  0.72880378080E+00 -0.21207455163E+02  0.45045682986E+02  0.00000000000E+00 0. -1.
         11    1    3    3    0    0  0.39002885602E+01 -0.49740104327E+00  0.19315081523E+01  0.43806828982E+01  0.51100000000E-03 0.  1.
        -11    1    3    3    0    0  0.25914378618E+02 -0.37113405819E-01  0.18438579235E+02  0.31804678918E+02  0.51100000000E-03 0. -1.
        -12    1    3    3    0    0  0.99197794171E+01 -0.19428933170E+00  0.83736777515E+00  0.99569551982E+01  0.00000000000E+00 0.  1.
</event>
<event>
 7    1  0.2313935E-008  0.4614232E+02  0.7816164E-02  0.1320468E+00
        -11   -1    0    0    0    0  0.00000000000E+00  0.00000000000E+00  0.45593999997E+02  0.45594000000E+02  0.51100000000E-03 0.  1.
         11   -1    0    0    0    0 -0.00000000000E+00 -0.00000000000E+00 -0.45593999997E+02  0.45594000000E+02  0.51100000000E-03 0. -1.
    9900012    2    1    2    0    0 -0.19349223323E+02 -0.52464224817E+01  0.40338519782E+02  0.46142316852E+02  0.99999917112E+01 0.  0.
         12    1    1    2    0    0  0.19349223323E+02  0.52464224817E+01 -0.40338519782E+02  0.45045683148E+02  0.00000000000E+00 0. -1.
         11    1    3    3    0    0 -0.48410197266E+00  0.23583934236E+00 -0.29964816523E+00  0.61625011106E+00  0.51100000000E-03 0.  1.
        -11    1    3    3    0    0 -0.78861562202E+01 -0.24429734326E+01  0.10849649491E+02  0.13633578894E+02  0.51100000000E-03 0. -1.
        -12    1    3    3    0    0 -0.10978965130E+02 -0.30392883915E+01  0.29788518456E+02  0.31892487847E+02  0.00000000000E+00 0.  1.
</event>
<event>
 7    1  0.2313935E-008  0.4614232E+02  0.7816164E-02  0.1320468E+00
        -11   -1    0    0    0    0  0.00000000000E+00  0.00000000000E+00  0.45593999997E+02  0.45594000000E+02  0.51100000000E-03 0.  1.
         11   -1    0    0    0    0 -0.00000000000E+00 -0.00000000000E+00 -0.45593999997E+02  0.45594000000E+02  0.51100000000E-03 0. -1.
    9900012    2    1    2    0    0  0.64357055341E+00 -0.10468966004E+02  0.43807534202E+02  0.46142317798E+02  0.10000000332E+02 0.  0.
         12    1    1    2    0    0 -0.64357055341E+00  0.10468966004E+02 -0.43807534202E+02  0.45045682202E+02  0.00000000000E+00 0. -1.
         11    1    3    3    0    0  0.57260254584E+00 -0.12111059349E+01  0.30490449316E+01  0.33303643220E+01  0.51100000000E-03 0. -1.
        -11    1    3    3    0    0  0.42697453877E+01 -0.24882953338E+01  0.19297416288E+02  0.19920155998E+02  0.51100000000E-03 0.  1.
         12    1    3    3    0    0 -0.41987773802E+01 -0.67695647357E+01  0.21461072982E+02  0.22891797477E+02  0.00000000000E+00 0. -1.
</event>
<event>
 7    1  0.2313935E-008  0.4614232E+02  0.7816164E-02  0.1320468E+00
        -11   -1    0    0    0    0  0.00000000000E+00  0.00000000000E+00  0.45593999997E+02  0.45594000000E+02  0.51100000000E-03 0. -1.
         11   -1    0    0    0    0 -0.00000000000E+00 -0.00000000000E+00 -0.45593999997E+02  0.45594000000E+02  0.51100000000E-03 0.  1.
    9900012    2    1    2    0    0 -0.41722106334E+02 -0.30679089739E+01  0.16702314422E+02  0.46142317305E+02  0.99999958406E+01 0.  0.
         12    1    1    2    0    0  0.41722106334E+02  0.30679089739E+01 -0.16702314422E+02  0.45045682695E+02  0.00000000000E+00 0. -1.
         11    1    3    3    0    0 -0.11969059578E+02  0.73289915835E+00  0.13188820183E+01  0.12063787896E+02  0.51100000000E-03 0. -1.
        -11    1    3    3    0    0 -0.13303972005E+02  0.59456930038E+00  0.78638905982E+01  0.15465767338E+02  0.51100000000E-03 0.  1.
        -12    1    3    3    0    0 -0.16449074751E+02 -0.43953774326E+01  0.75195418054E+01  0.18612762071E+02  0.00000000000E+00 0.  1.
</event>
<event>
 7    1  0.2313935E-008  0.4614231E+02  0.7816164E-02  0.1320468E+00
        -11   -1    0    0    0    0  0.00000000000E+00  0.00000000000E+00  0.45593999997E+02  0.45594000000E+02  0.51100000000E-03 0.  1.
         11   -1    0    0    0    0 -0.00000000000E+00 -0.00000000000E+00 -0.45593999997E+02  0.45594000000E+02  0.51100000000E-03 0. -1.
    9900012    2    1    2    0    0  0.17039156397E+02  0.34897274576E+02  0.22824574271E+02  0.46142314144E+02  0.99999670190E+01 0.  0.
         12    1    1    2    0    0 -0.17039156397E+02 -0.34897274576E+02 -0.22824574271E+02  0.45045685856E+02  0.00000000000E+00 0. -1.
         11    1    3    3    0    0  0.11065123854E+02  0.16477542099E+02  0.98764647585E+01  0.22169594402E+02  0.51100000000E-03 0. -1.
        -11    1    3    3    0    0  0.67939771113E+01  0.17897777269E+02  0.12687104792E+02  0.22966305415E+02  0.51100000000E-03 0.  1.
         12    1    3    3    0    0 -0.81994456869E+00  0.52195520741E+00  0.26100472120E+00  0.10064143276E+01  0.00000000000E+00 0. -1.
</event>
<event>
 7    1  0.2313935E-008  0.4614232E+02  0.7816164E-02  0.1320468E+00
        -11   -1    0    0    0    0  0.00000000000E+00  0.00000000000E+00  0.45593999997E+02  0.45594000000E+02  0.51100000000E-03 0. -1.
         11   -1    0    0    0    0 -0.00000000000E+00 -0.00000000000E+00 -0.45593999997E+02  0.45594000000E+02  0.51100000000E-03 0.  1.
    9900012    2    1    2    0    0 -0.17050243885E+02  0.41690700691E+02 -0.53670684253E+00  0.46142318799E+02  0.10000009465E+02 0.  0.
         12    1    1    2    0    0  0.17050243885E+02 -0.41690700691E+02  0.53670684253E+00  0.45045681201E+02  0.00000000000E+00 0. -1.
         11    1    3    3    0    0 -0.16500193327E+02  0.35547788409E+02  0.23342888738E+01  0.39260037511E+02  0.51100000000E-03 0. -1.
        -11    1    3    3    0    0 -0.71135124034E+00  0.52006206704E+01 -0.20977077665E+01  0.56526855634E+01  0.51100000000E-03 0.  1.
         12    1    3    3    0    0  0.16130068273E+00  0.94229161185E+00 -0.77328794983E+00  0.12295957244E+01  0.00000000000E+00 0. -1.
</event>
<event>
 7    1  0.2313935E-008  0.4614232E+02  0.7816164E-02  0.1320468E+00
        -11   -1    0    0    0    0  0.00000000000E+00  0.00000000000E+00  0.45593999997E+02  0.45594000000E+02  0.51100000000E-03 0.  1.
         11   -1    0    0    0    0 -0.00000000000E+00 -0.00000000000E+00 -0.45593999997E+02  0.45594000000E+02  0.51100000000E-03 0. -1.
    9900012    2    1    2    0    0  0.29089477221E+02  0.28981045552E+02  0.18520659204E+02  0.46142317592E+02  0.99999984543E+01 0.  0.
         12    1    1    2    0    0 -0.29089477221E+02 -0.28981045552E+02 -0.18520659204E+02  0.45045682408E+02  0.00000000000E+00 0. -1.
         11    1    3    3    0    0  0.12799706631E+02  0.74905633512E+01  0.84695270842E+01  0.17078463586E+02  0.51100000000E-03 0. -1.
        -11    1    3    3    0    0  0.87692827641E+01  0.90952411289E+01  0.32268754724E+01  0.13039802796E+02  0.51100000000E-03 0.  1.
         12    1    3    3    0    0  0.75204878254E+01  0.12395241072E+02  0.68242566472E+01  0.16024051209E+02  0.00000000000E+00 0. -1.
</event>
<event>
 7    1  0.2313935E-008  0.4614232E+02  0.7816164E-02  0.1320468E+00
        -11   -1    0    0    0    0  0.00000000000E+00  0.00000000000E+00  0.45593999997E+02  0.45594000000E+02  0.51100000000E-03 0.  1.
         11   -1    0    0    0    0 -0.00000000000E+00 -0.00000000000E+00 -0.45593999997E+02  0.45594000000E+02  0.51100000000E-03 0. -1.
    9900012    2    1    2    0    0 -0.44595345807E+02 -0.33270847309E+01  0.54128732396E+01  0.46142316997E+02  0.99999930339E+01 0.  0.
         12    1    1    2    0    0  0.44595345807E+02  0.33270847309E+01 -0.54128732396E+01  0.45045683003E+02  0.00000000000E+00 0. -1.
         11    1    3    3    0    0 -0.20731942184E+02 -0.65342292803E+00  0.64895604052E+01  0.21733724548E+02  0.51100000000E-03 0. -1.
        -11    1    3    3    0    0 -0.99390999871E+01 -0.23983612623E+01  0.12077271387E+01  0.10295457756E+02  0.51100000000E-03 0.  1.
        -12    1    3    3    0    0 -0.13924303637E+02 -0.27530054056E+00 -0.22844143042E+01  0.14113134693E+02  0.00000000000E+00 0.  1.
</event>
<event>
 7    1  0.2313935E-008  0.4614232E+02  0.7816164E-02  0.1320468E+00
        -11   -1    0    0    0    0  0.00000000000E+00  0.00000000000E+00  0.45593999997E+02  0.45594000000E+02  0.51100000000E-03 0. -1.
         11   -1    0    0    0    0 -0.00000000000E+00 -0.00000000000E+00 -0.45593999997E+02  0.45594000000E+02  0.51100000000E-03 0.  1.
    9900012    2    1    2    0    0 -0.30110936876E+02 -0.42089383571E+00 -0.33500266611E+02  0.46142317253E+02  0.99999953645E+01 0.  0.
         12    1    1    2    0    0  0.30110936876E+02  0.42089383571E+00  0.33500266611E+02  0.45045682747E+02  0.00000000000E+00 0. -1.
         11    1    3    3    0    0 -0.12021383447E+02 -0.21103720768E+01 -0.79488839061E+01  0.14565441493E+02  0.51100000000E-03 0. -1.
        -11    1    3    3    0    0 -0.85970458829E+01 -0.99783817683E+00 -0.12882688005E+02  0.15519939737E+02  0.51100000000E-03 0.  1.
         12    1    3    3    0    0 -0.94925075464E+01  0.26873164179E+01 -0.12668694700E+02  0.16056936023E+02  0.00000000000E+00 0. -1.
</event>
<event>
 7    1  0.2313935E-008  0.4614232E+02  0.7816164E-02  0.1320468E+00
        -11   -1    0    0    0    0  0.00000000000E+00  0.00000000000E+00  0.45593999997E+02  0.45594000000E+02  0.51100000000E-03 0.  1.
         11   -1    0    0    0    0 -0.00000000000E+00 -0.00000000000E+00 -0.45593999997E+02  0.45594000000E+02  0.51100000000E-03 0. -1.
    9900012    2    1    2    0    0  0.38653071320E+02  0.16708309044E+02 -0.15996436482E+02  0.46142317702E+02  0.99999994568E+01 0.  0.
         12    1    1    2    0    0 -0.38653071320E+02 -0.16708309044E+02  0.15996436482E+02  0.45045682298E+02  0.00000000000E+00 0. -1.
         11    1    3    3    0    0  0.30191308736E+01  0.34108631392E+01 -0.12535945847E+01  0.47244722700E+01  0.51100000000E-03 0. -1.
        -11    1    3    3    0    0  0.34977139899E+02  0.11669103737E+02 -0.14595068309E+02  0.39655823239E+02  0.51100000000E-03 0.  1.
        -12    1    3    3    0    0  0.65680054817E+00  0.16283421677E+01 -0.14777358833E+00  0.17620221930E+01  0.00000000000E+00 0.  1.
</event>
<event>
 7    1  0.2313935E-008  0.4614232E+02  0.7816164E-02  0.1320468E+00
        -11   -1    0    0    0    0  0.00000000000E+00  0.00000000000E+00  0.45593999997E+02  0.45594000000E+02  0.51100000000E-03 0.  1.
         11   -1    0    0    0    0 -0.00000000000E+00 -0.00000000000E+00 -0.45593999997E+02  0.45594000000E+02  0.51100000000E-03 0. -1.
    9900012    2    1    2    0    0 -0.14840022356E+01  0.16712515315E+02  0.41804343834E+02  0.46142316586E+02  0.99999892869E+01 0.  0.
         12    1    1    2    0    0  0.14840022356E+01 -0.16712515315E+02 -0.41804343834E+02  0.45045683414E+02  0.00000000000E+00 0. -1.
         11    1    3    3    0    0 -0.16796875077E+01  0.58111191527E+01  0.13211773198E+02  0.14530705669E+02  0.51100000000E-03 0. -1.
        -11    1    3    3    0    0 -0.30881266600E+01  0.57147250730E+01  0.20163871979E+02  0.21184341915E+02  0.51100000000E-03 0.  1.
         12    1    3    3    0    0  0.32838119321E+01  0.51866710898E+01  0.84286986569E+01  0.10427269002E+02  0.00000000000E+00 0. -1.
</event>
<event>
 7    1  0.2313935E-008  0.4614232E+02  0.7816164E-02  0.1320468E+00
        -11   -1    0    0    0    0  0.00000000000E+00  0.00000000000E+00  0.45593999997E+02  0.45594000000E+02  0.51100000000E-03 0.  1.
         11   -1    0    0    0    0 -0.00000000000E+00 -0.00000000000E+00 -0.45593999997E+02  0.45594000000E+02  0.51100000000E-03 0. -1.
    9900012    2    1    2    0    0  0.19943230665E+02  0.18971996706E+02  0.35657318675E+02  0.46142317816E+02  0.10000000500E+02 0.  0.
         12    1    1    2    0    0 -0.19943230665E+02 -0.18971996706E+02 -0.35657318675E+02  0.45045682184E+02  0.00000000000E+00 0. -1.
         11    1    3    3    0    0  0.51424927936E+01  0.43628988938E+01  0.54744216353E+01  0.86861620634E+01  0.51100000000E-03 0. -1.
        -11    1    3    3    0    0  0.12433137562E+02  0.79078744777E+01  0.17143868627E+02  0.22605964261E+02  0.51100000000E-03 0.  1.
         12    1    3    3    0    0  0.23676003086E+01  0.67012233349E+01  0.13039028412E+02  0.14850191492E+02  0.00000000000E+00 0. -1.
</event>
<event>
 7    1  0.2313935E-008  0.4614232E+02  0.7816164E-02  0.1320468E+00
        -11   -1    0    0    0    0  0.00000000000E+00  0.00000000000E+00  0.45593999997E+02  0.45594000000E+02  0.51100000000E-03 0.  1.
         11   -1    0    0    0    0 -0.00000000000E+00 -0.00000000000E+00 -0.45593999997E+02  0.45594000000E+02  0.51100000000E-03 0. -1.
    9900012    2    1    2    0    0  0.76583558415E+01 -0.28652909035E+02  0.33903892625E+02  0.46142317127E+02  0.99999942176E+01 0.  0.
         12    1    1    2    0    0 -0.76583558415E+01  0.28652909035E+02 -0.33903892625E+02  0.45045682873E+02  0.00000000000E+00 0. -1.
         11    1    3    3    0    0  0.22560843476E+01 -0.14208887259E+02  0.20097791103E+02  0.24716464173E+02  0.51100000000E-03 0. -1.
        -11    1    3    3    0    0  0.45642583083E+01 -0.12883183276E+02  0.14091906848E+02  0.19631370409E+02  0.51100000000E-03 0.  1.
         12    1    3    3    0    0  0.83801318555E+00 -0.15608384993E+01 -0.28580532658E+00  0.17944825451E+01  0.00000000000E+00 0. -1.
</event>
<event>
 7    1  0.2313935E-008  0.4614232E+02  0.7816164E-02  0.1320468E+00
        -11   -1    0    0    0    0  0.00000000000E+00  0.00000000000E+00  0.45593999997E+02  0.45594000000E+02  0.51100000000E-03 0.  1.
         11   -1    0    0    0    0 -0.00000000000E+00 -0.00000000000E+00 -0.45593999997E+02  0.45594000000E+02  0.51100000000E-03 0. -1.
    9900012    2    1    2    0    0  0.63802133814E+01 -0.16342682772E+02  0.41488830320E+02  0.46142318250E+02  0.10000004457E+02 0.  0.
         12    1    1    2    0    0 -0.63802133814E+01  0.16342682772E+02 -0.41488830320E+02  0.45045681750E+02  0.00000000000E+00 0. -1.
         11    1    3    3    0    0 -0.74936485524E-01 -0.49393383514E+00  0.49273514524E+01  0.49526133210E+01  0.51100000000E-03 0. -1.
        -11    1    3    3    0    0  0.48386793703E+01 -0.15000569322E+02  0.35968410564E+02  0.39270299933E+02  0.51100000000E-03 0.  1.
        -12    1    3    3    0    0  0.16164704967E+01 -0.84817961455E+00  0.59306830356E+00  0.19194049958E+01  0.00000000000E+00 0.  1.
</event>
<event>
 7    1  0.2313935E-008  0.4614232E+02  0.7816164E-02  0.1320468E+00
        -11   -1    0    0    0    0  0.00000000000E+00  0.00000000000E+00  0.45593999997E+02  0.45594000000E+02  0.51100000000E-03 0.  1.
         11   -1    0    0    0    0 -0.00000000000E+00 -0.00000000000E+00 -0.45593999997E+02  0.45594000000E+02  0.51100000000E-03 0. -1.
    9900012    2    1    2    0    0  0.20644212286E+02  0.16536789150E+02  0.36461823989E+02  0.46142317577E+02  0.99999983238E+01 0.  0.
         12    1    1    2    0    0 -0.20644212286E+02 -0.16536789150E+02 -0.36461823989E+02  0.45045682423E+02  0.00000000000E+00 0. -1.
         11    1    3    3    0    0  0.56211536666E-01  0.10466819826E+01  0.78428998073E+00  0.13091271690E+01  0.51100000000E-03 0. -1.
        -11    1    3    3    0    0  0.67972043270E+01  0.59808420169E+00  0.99088900204E+01  0.12031034580E+02  0.51100000000E-03 0.  1.
        -12    1    3    3    0    0  0.13790796422E+02  0.14892022966E+02  0.25768643988E+02  0.32802155828E+02  0.00000000000E+00 0.  1.
</event>
<event>
 7    1  0.2313935E-008  0.4614232E+02  0.7816164E-02  0.1320468E+00
        -11   -1    0    0    0    0  0.00000000000E+00  0.00000000000E+00  0.45593999997E+02  0.45594000000E+02  0.51100000000E-03 0.  1.
         11   -1    0    0    0    0 -0.00000000000E+00 -0.00000000000E+00 -0.45593999997E+02  0.45594000000E+02  0.51100000000E-03 0. -1.
    9900012    2    1    2    0    0 -0.26052344776E+02  0.44921348991E+01  0.36472038916E+02  0.46142316888E+02  0.99999920390E+01 0.  0.
         12    1    1    2    0    0  0.26052344776E+02 -0.44921348991E+01 -0.36472038916E+02  0.45045683112E+02  0.00000000000E+00 0. -1.
         11    1    3    3    0    0 -0.10699140767E+01 -0.88004387674E+00  0.12304518861E+01  0.18528911090E+01  0.51100000000E-03 0. -1.
        -11    1    3    3    0    0 -0.25108616241E+02  0.43478976360E+01  0.34878145155E+02  0.43195275588E+02  0.51100000000E-03 0.  1.
        -12    1    3    3    0    0  0.12618554159E+00  0.10242811399E+01  0.36344187561E+00  0.10941501914E+01  0.00000000000E+00 0.  1.
</event>
<event>
 7    1  0.3222037E-008  0.4614232E+02  0.7816164E-02  0.1320468E+00
        -11   -1    0    0    0    0  0.00000000000E+00  0.00000000000E+00  0.45593999997E+02  0.45594000000E+02  0.51100000000E-03 0.  1.
         11   -1    0    0    0    0 -0.00000000000E+00 -0.00000000000E+00 -0.45593999997E+02  0.45594000000E+02  0.51100000000E-03 0. -1.
    9900012    2    1    2    0    0 -0.44639810993E+02  0.27301070088E+01 -0.53802591923E+01  0.46142318756E+02  0.10000009068E+02 0.  0.
         12    1    1    2    0    0  0.44639810993E+02 -0.27301070088E+01  0.53802591923E+01  0.45045681244E+02  0.00000000000E+00 0. -1.
         11    1    3    3    0    0 -0.14548854295E+02  0.55644357885E+00 -0.20682582536E+01  0.14705661604E+02  0.51100000000E-03 0. -1.
        -11    1    3    3    0    0 -0.28003704577E+02  0.40340033026E+01 -0.39545471391E+01  0.28567798235E+02  0.51100000000E-03 0.  1.
         12    1    3    3    0    0 -0.20872521213E+01 -0.18603398726E+01  0.64254620050E+00  0.28688589159E+01  0.00000000000E+00 0. -1.
</event>
<event>
 7    1  0.2313935E-008  0.4614232E+02  0.7816164E-02  0.1320468E+00
        -11   -1    0    0    0    0  0.00000000000E+00  0.00000000000E+00  0.45593999997E+02  0.45594000000E+02  0.51100000000E-03 0.  1.
         11   -1    0    0    0    0 -0.00000000000E+00 -0.00000000000E+00 -0.45593999997E+02  0.45594000000E+02  0.51100000000E-03 0. -1.
    9900012    2    1    2    0    0 -0.17405519233E+02 -0.41405956933E+02 -0.34217084925E+01  0.46142318095E+02  0.10000003043E+02 0.  0.
         12    1    1    2    0    0  0.17405519233E+02  0.41405956933E+02  0.34217084925E+01  0.45045681905E+02  0.00000000000E+00 0. -1.
         11    1    3    3    0    0 -0.13333867391E+02 -0.26470245268E+02 -0.36588618307E+01  0.29863910901E+02  0.51100000000E-03 0.  1.
        -11    1    3    3    0    0 -0.20769991858E+01 -0.16396758265E+01 -0.87635444105E+00  0.27875544481E+01  0.51100000000E-03 0. -1.
        -12    1    3    3    0    0 -0.19946526565E+01 -0.13296035838E+02  0.11135077793E+01  0.13490852746E+02  0.00000000000E+00 0.  1.
</event>
<event>
 7    1  0.2313935E-008  0.4614232E+02  0.7816164E-02  0.1320468E+00
        -11   -1    0    0    0    0  0.00000000000E+00  0.00000000000E+00  0.45593999997E+02  0.45594000000E+02  0.51100000000E-03 0.  1.
         11   -1    0    0    0    0 -0.00000000000E+00 -0.00000000000E+00 -0.45593999997E+02  0.45594000000E+02  0.51100000000E-03 0. -1.
    9900012    2    1    2    0    0 -0.10361439801E+02 -0.32898120417E+02  0.28973570230E+02  0.46142317259E+02  0.99999954227E+01 0.  0.
         12    1    1    2    0    0  0.10361439801E+02  0.32898120417E+02 -0.28973570230E+02  0.45045682741E+02  0.00000000000E+00 0. -1.
         11    1    3    3    0    0  0.14024143924E+00 -0.49820457276E+01  0.63084004139E+01  0.80396743302E+01  0.51100000000E-03 0. -1.
        -11    1    3    3    0    0 -0.49473878800E+01 -0.18888643252E+02  0.17871514030E+02  0.26469765861E+02  0.51100000000E-03 0.  1.
        -12    1    3    3    0    0 -0.55542933605E+01 -0.90274314370E+01  0.47936557863E+01  0.11632877068E+02  0.00000000000E+00 0.  1.
</event>
<event>
 7    1  0.2313935E-008  0.4614232E+02  0.7816164E-02  0.1320468E+00
        -11   -1    0    0    0    0  0.00000000000E+00  0.00000000000E+00  0.45593999997E+02  0.45594000000E+02  0.51100000000E-03 0.  1.
         11   -1    0    0    0    0 -0.00000000000E+00 -0.00000000000E+00 -0.45593999997E+02  0.45594000000E+02  0.51100000000E-03 0. -1.
    9900012    2    1    2    0    0 -0.17664513227E+02  0.17673029521E+02  0.37479894665E+02  0.46142317587E+02  0.99999984089E+01 0.  0.
         12    1    1    2    0    0  0.17664513227E+02 -0.17673029521E+02 -0.37479894665E+02  0.45045682413E+02  0.00000000000E+00 0. -1.
         11    1    3    3    0    0 -0.38181586052E+01  0.72205604661E+00  0.24598293060E+01  0.45989629858E+01  0.51100000000E-03 0. -1.
        -11    1    3    3    0    0 -0.92629710060E-01 -0.28177380484E+00  0.38850843935E+00  0.48879014806E+00  0.51100000000E-03 0.  1.
        -12    1    3    3    0    0 -0.13753724912E+02  0.17232747279E+02  0.34631556919E+02  0.41054564453E+02  0.00000000000E+00 0.  1.
</event>
<event>
 7    1  0.2313935E-008  0.4614232E+02  0.7816164E-02  0.1320468E+00
        -11   -1    0    0    0    0  0.00000000000E+00  0.00000000000E+00  0.45593999997E+02  0.45594000000E+02  0.51100000000E-03 0.  1.
         11   -1    0    0    0    0 -0.00000000000E+00 -0.00000000000E+00 -0.45593999997E+02  0.45594000000E+02  0.51100000000E-03 0. -1.
    9900012    2    1    2    0    0  0.69020950334E+01  0.10302162863E+02  0.43305195869E+02  0.46142318023E+02  0.10000002388E+02 0.  0.
         12    1    1    2    0    0 -0.69020950334E+01 -0.10302162863E+02 -0.43305195869E+02  0.45045681977E+02  0.00000000000E+00 0. -1.
         11    1    3    3    0    0  0.62614270572E+01  0.97436825357E+01  0.26548433913E+02  0.28964878071E+02  0.51100000000E-03 0. -1.
        -11    1    3    3    0    0  0.94060603314E+00  0.54308940470E+00  0.12029660126E+01  0.16207446745E+01  0.51100000000E-03 0.  1.
        -12    1    3    3    0    0 -0.29993805692E+00  0.15390922459E-01  0.15553795943E+02  0.15556695278E+02  0.00000000000E+00 0.  1.
</event>
<event>
 7    1  0.2313935E-008  0.4614232E+02  0.7816164E-02  0.1320468E+00
        -11   -1    0    0    0    0  0.00000000000E+00  0.00000000000E+00  0.45593999997E+02  0.45594000000E+02  0.51100000000E-03 0.  1.
         11   -1    0    0    0    0 -0.00000000000E+00 -0.00000000000E+00 -0.45593999997E+02  0.45594000000E+02  0.51100000000E-03 0. -1.
    9900012    2    1    2    0    0 -0.26551731368E+02 -0.36178677357E+02  0.39015666321E+01  0.46142319229E+02  0.10000013385E+02 0.  0.
         12    1    1    2    0    0  0.26551731368E+02  0.36178677357E+02 -0.39015666321E+01  0.45045680771E+02  0.00000000000E+00 0. -1.
         11    1    3    3    0    0 -0.11197841254E+01 -0.30158564982E+01  0.20842103374E+01  0.38331762152E+01  0.51100000000E-03 0. -1.
        -11    1    3    3    0    0 -0.16057639989E+02 -0.15786179087E+02  0.54998814841E+00  0.22524514187E+02  0.51100000000E-03 0.  1.
        -12    1    3    3    0    0 -0.93743072538E+01 -0.17376641772E+02  0.12673681463E+01  0.19784628826E+02  0.00000000000E+00 0.  1.
</event>
<event>
 7    1  0.2313935E-008  0.4614232E+02  0.7816164E-02  0.1320468E+00
        -11   -1    0    0    0    0  0.00000000000E+00  0.00000000000E+00  0.45593999997E+02  0.45594000000E+02  0.51100000000E-03 0.  1.
         11   -1    0    0    0    0 -0.00000000000E+00 -0.00000000000E+00 -0.45593999997E+02  0.45594000000E+02  0.51100000000E-03 0. -1.
    9900012    2    1    2    0    0  0.32837080221E+02  0.30527419204E+02  0.43492664339E+01  0.46142320083E+02  0.10000021174E+02 0.  0.
         12    1    1    2    0    0 -0.32837080221E+02 -0.30527419204E+02 -0.43492664339E+01  0.45045679917E+02  0.00000000000E+00 0. -1.
         11    1    3    3    0    0  0.43675824211E+01  0.17381139478E+01 -0.57751636208E+00  0.47360681699E+01  0.51100000000E-03 0. -1.
        -11    1    3    3    0    0  0.22968958427E+02  0.20737458840E+02  0.12049495571E+01  0.30968809374E+02  0.51100000000E-03 0.  1.
        -12    1    3    3    0    0  0.55005393722E+01  0.80518464162E+01  0.37218332389E+01  0.10437442539E+02  0.00000000000E+00 0.  1.
</event>
<event>
 7    1  0.2313935E-008  0.4614232E+02  0.7816164E-02  0.1320468E+00
        -11   -1    0    0    0    0  0.00000000000E+00  0.00000000000E+00  0.45593999997E+02  0.45594000000E+02  0.51100000000E-03 0.  1.
         11   -1    0    0    0    0 -0.00000000000E+00 -0.00000000000E+00 -0.45593999997E+02  0.45594000000E+02  0.51100000000E-03 0. -1.
    9900012    2    1    2    0    0  0.14174505656E+02 -0.39420594391E+02  0.16559398749E+02  0.46142316970E+02  0.99999927834E+01 0.  0.
         12    1    1    2    0    0 -0.14174505656E+02  0.39420594391E+02 -0.16559398749E+02  0.45045683030E+02  0.00000000000E+00 0. -1.
         11    1    3    3    0    0 -0.48078708500E+00  0.26744353297E-01 -0.14843005556E+00  0.50388810667E+00  0.51100000000E-03 0. -1.
        -11    1    3    3    0    0  0.23072139331E+01 -0.13084198226E+02  0.64823586863E+01  0.14783113805E+02  0.51100000000E-03 0.  1.
        -12    1    3    3    0    0  0.12348078808E+02 -0.26363140518E+02  0.10225470119E+02  0.30855315058E+02  0.00000000000E+00 0.  1.
</event>
<event>
 7    1  0.2313935E-008  0.4614232E+02  0.7816164E-02  0.1320468E+00
        -11   -1    0    0    0    0  0.00000000000E+00  0.00000000000E+00  0.45593999997E+02  0.45594000000E+02  0.51100000000E-03 0. -1.
         11   -1    0    0    0    0 -0.00000000000E+00 -0.00000000000E+00 -0.45593999997E+02  0.45594000000E+02  0.51100000000E-03 0.  1.
    9900012    2    1    2    0    0 -0.41525096862E+01 -0.38505198306E+02 -0.23004779285E+02  0.46142317596E+02  0.99999984945E+01 0.  0.
         12    1    1    2    0    0  0.41525096862E+01  0.38505198306E+02  0.23004779285E+02  0.45045682404E+02  0.00000000000E+00 0. -1.
         11    1    3    3    0    0 -0.43829107954E+01 -0.13594561435E+02 -0.11902371303E+02  0.18592698850E+02  0.51100000000E-03 0. -1.
        -11    1    3    3    0    0 -0.16603383551E+01 -0.16957997969E+02 -0.75294572239E+01  0.18628557242E+02  0.51100000000E-03 0.  1.
         12    1    3    3    0    0  0.18907394643E+01 -0.79526389020E+01 -0.35729507581E+01  0.89210615034E+01  0.00000000000E+00 0. -1.
</event>
<event>
 7    1  0.2313935E-008  0.4614232E+02  0.7816164E-02  0.1320468E+00
        -11   -1    0    0    0    0  0.00000000000E+00  0.00000000000E+00  0.45593999997E+02  0.45594000000E+02  0.51100000000E-03 0.  1.
         11   -1    0    0    0    0 -0.00000000000E+00 -0.00000000000E+00 -0.45593999997E+02  0.45594000000E+02  0.51100000000E-03 0. -1.
    9900012    2    1    2    0    0  0.56827183400E+01 -0.72326097554E+01  0.44096593411E+02  0.46142317831E+02  0.10000000642E+02 0.  0.
         12    1    1    2    0    0 -0.56827183400E+01  0.72326097554E+01 -0.44096593411E+02  0.45045682169E+02  0.00000000000E+00 0. -1.
         11    1    3    3    0    0  0.57979199531E+00 -0.29104759555E+01  0.24856450880E+01  0.38711058898E+01  0.51100000000E-03 0. -1.
        -11    1    3    3    0    0  0.19806745525E+01 -0.16063778269E+00  0.17042674391E+02  0.17158135879E+02  0.51100000000E-03 0.  1.
         12    1    3    3    0    0  0.31222517921E+01 -0.41614960172E+01  0.24568273931E+02  0.25113076062E+02  0.00000000000E+00 0. -1.
</event>
<event>
 7    1  0.2313935E-008  0.4614231E+02  0.7816164E-02  0.1320468E+00
        -11   -1    0    0    0    0  0.00000000000E+00  0.00000000000E+00  0.45593999997E+02  0.45594000000E+02  0.51100000000E-03 0.  1.
         11   -1    0    0    0    0 -0.00000000000E+00 -0.00000000000E+00 -0.45593999997E+02  0.45594000000E+02  0.51100000000E-03 0. -1.
    9900012    2    1    2    0    0 -0.86679515425E+01 -0.53336240430E+01  0.43880893952E+02  0.46142314487E+02  0.99999701396E+01 0.  0.
         12    1    1    2    0    0  0.86679515425E+01  0.53336240430E+01 -0.43880893952E+02  0.45045685513E+02  0.00000000000E+00 0. -1.
         11    1    3    3    0    0  0.14117720397E+00 -0.49759235473E+01  0.14352335514E+02  0.15191092164E+02  0.51100000000E-03 0. -1.
        -11    1    3    3    0    0 -0.44532440647E+01  0.88318071802E+00  0.11531955947E+02  0.12393441778E+02  0.51100000000E-03 0.  1.
        -12    1    3    3    0    0 -0.43558846818E+01 -0.12408812138E+01  0.17996602491E+02  0.18557780545E+02  0.00000000000E+00 0.  1.
</event>
<event>
 7    1  0.2313935E-008  0.4614232E+02  0.7816164E-02  0.1320468E+00
        -11   -1    0    0    0    0  0.00000000000E+00  0.00000000000E+00  0.45593999997E+02  0.45594000000E+02  0.51100000000E-03 0.  1.
         11   -1    0    0    0    0 -0.00000000000E+00 -0.00000000000E+00 -0.45593999997E+02  0.45594000000E+02  0.51100000000E-03 0. -1.
    9900012    2    1    2    0    0  0.24214695647E+02  0.18900812379E+02  0.32947249220E+02  0.46142318464E+02  0.10000006406E+02 0.  0.
         12    1    1    2    0    0 -0.24214695647E+02 -0.18900812379E+02 -0.32947249220E+02  0.45045681536E+02  0.00000000000E+00 0. -1.
         11    1    3    3    0    0  0.31883848101E+01  0.46599574973E+01  0.68650959463E+01  0.88887875544E+01  0.51100000000E-03 0. -1.
        -11    1    3    3    0    0  0.67564288877E+01  0.52964136235E+01  0.14372868771E+02  0.16741585515E+02  0.51100000000E-03 0.  1.
         12    1    3    3    0    0  0.14269881950E+02  0.89444412587E+01  0.11709284503E+02  0.20511945394E+02  0.00000000000E+00 0. -1.
</event>
<event>
 7    1  0.2313935E-008  0.4614232E+02  0.7816164E-02  0.1320468E+00
        -11   -1    0    0    0    0  0.00000000000E+00  0.00000000000E+00  0.45593999997E+02  0.45594000000E+02  0.51100000000E-03 0. -1.
         11   -1    0    0    0    0 -0.00000000000E+00 -0.00000000000E+00 -0.45593999997E+02  0.45594000000E+02  0.51100000000E-03 0.  1.
    9900012    2    1    2    0    0 -0.28827404845E+02 -0.61995074146E+01 -0.34053786106E+02  0.46142317516E+02  0.99999977679E+01 0.  0.
         12    1    1    2    0    0  0.28827404845E+02  0.61995074146E+01  0.34053786106E+02  0.45045682484E+02  0.00000000000E+00 0. -1.
         11    1    3    3    0    0 -0.83104410751E+01 -0.41631251070E+01 -0.15511735765E+02  0.18083389843E+02  0.51100000000E-03 0. -1.
        -11    1    3    3    0    0 -0.85103534494E+01 -0.24558167930E+01 -0.97422228152E+01  0.13166930455E+02  0.51100000000E-03 0.  1.
         12    1    3    3    0    0 -0.12006610320E+02  0.41943448542E+00 -0.87998275258E+01  0.14891997218E+02  0.00000000000E+00 0. -1.
</event>
<event>
 7    1  0.2313935E-008  0.4614232E+02  0.7816164E-02  0.1320468E+00
        -11   -1    0    0    0    0  0.00000000000E+00  0.00000000000E+00  0.45593999997E+02  0.45594000000E+02  0.51100000000E-03 0.  1.
         11   -1    0    0    0    0 -0.00000000000E+00 -0.00000000000E+00 -0.45593999997E+02  0.45594000000E+02  0.51100000000E-03 0. -1.
    9900012    2    1    2    0    0  0.33792254966E+02 -0.14147662452E+02  0.26211460559E+02  0.46142317486E+02  0.99999974910E+01 0.  0.
         12    1    1    2    0    0 -0.33792254966E+02  0.14147662452E+02 -0.26211460559E+02  0.45045682514E+02  0.00000000000E+00 0. -1.
         11    1    3    3    0    0  0.75514575124E+01 -0.27601447754E+00  0.32561584762E+01  0.82281992463E+01  0.51100000000E-03 0. -1.
        -11    1    3    3    0    0  0.30281549796E+01 -0.33934969505E+01  0.21619497811E+01  0.50358287551E+01  0.51100000000E-03 0.  1.
        -12    1    3    3    0    0  0.23212642474E+02 -0.10478151023E+02  0.20793352302E+02  0.32878289485E+02  0.00000000000E+00 0.  1.
</event>
<event>
 7    1  0.2313935E-008  0.4614232E+02  0.7816164E-02  0.1320468E+00
        -11   -1    0    0    0    0  0.00000000000E+00  0.00000000000E+00  0.45593999997E+02  0.45594000000E+02  0.51100000000E-03 0. -1.
         11   -1    0    0    0    0 -0.00000000000E+00 -0.00000000000E+00 -0.45593999997E+02  0.45594000000E+02  0.51100000000E-03 0.  1.
    9900012    2    1    2    0    0 -0.15390741255E+02  0.18445279827E+02 -0.38105251919E+02  0.46142317764E+02  0.10000000028E+02 0.  0.
         12    1    1    2    0    0  0.15390741255E+02 -0.18445279827E+02  0.38105251919E+02  0.45045682236E+02  0.00000000000E+00 0. -1.
         11    1    3    3    0    0 -0.54242533370E+01  0.10891589134E+02 -0.14329855451E+02  0.18798776440E+02  0.51100000000E-03 0. -1.
        -11    1    3    3    0    0 -0.95334770991E+01  0.75520562580E+01 -0.19069974903E+02  0.22618237827E+02  0.51100000000E-03 0.  1.
         12    1    3    3    0    0 -0.43301081905E+00  0.16344351591E-02 -0.47054215652E+01  0.47253034979E+01  0.00000000000E+00 0. -1.
</event>
<event>
 7    1  0.2313935E-008  0.4614232E+02  0.7816164E-02  0.1320468E+00
        -11   -1    0    0    0    0  0.00000000000E+00  0.00000000000E+00  0.45593999997E+02  0.45594000000E+02  0.51100000000E-03 0.  1.
         11   -1    0    0    0    0 -0.00000000000E+00 -0.00000000000E+00 -0.45593999997E+02  0.45594000000E+02  0.51100000000E-03 0. -1.
    9900012    2    1    2    0    0 -0.43277584080E+02  0.11410373364E+02  0.50958438444E+01  0.46142317315E+02  0.99999959283E+01 0.  0.
         12    1    1    2    0    0  0.43277584080E+02 -0.11410373364E+02 -0.50958438444E+01  0.45045682685E+02  0.00000000000E+00 0. -1.
         11    1    3    3    0    0 -0.96941321369E+01  0.18986799709E+01 -0.11146033333E+00  0.98789476761E+01  0.51100000000E-03 0. -1.
        -11    1    3    3    0    0 -0.17135252358E+02  0.76031459815E+01 -0.48816982289E+00  0.18752680135E+02  0.51100000000E-03 0.  1.
         12    1    3    3    0    0 -0.16448199585E+02  0.19085474111E+01  0.56954740006E+01  0.17510689504E+02  0.00000000000E+00 0. -1.
</event>
<event>
 7    1  0.2313935E-008  0.4614232E+02  0.7816164E-02  0.1320468E+00
        -11   -1    0    0    0    0  0.00000000000E+00  0.00000000000E+00  0.45593999997E+02  0.45594000000E+02  0.51100000000E-03 0.  1.
         11   -1    0    0    0    0 -0.00000000000E+00 -0.00000000000E+00 -0.45593999997E+02  0.45594000000E+02  0.51100000000E-03 0. -1.
    9900012    2    1    2    0    0  0.15757044063E+02 -0.24346320167E+02  0.34468618797E+02  0.46142318464E+02  0.10000006412E+02 0.  0.
         12    1    1    2    0    0 -0.15757044063E+02  0.24346320167E+02 -0.34468618797E+02  0.45045681536E+02  0.00000000000E+00 0. -1.
         11    1    3    3    0    0  0.82137734042E+01 -0.57110466378E+01  0.10120553408E+02  0.14230521030E+02  0.51100000000E-03 0. -1.
        -11    1    3    3    0    0  0.83760988088E+00 -0.17978330847E+01  0.66945270749E+00  0.20933134743E+01  0.51100000000E-03 0.  1.
        -12    1    3    3    0    0  0.67056607778E+01 -0.16837440445E+02  0.23678612681E+02  0.29818483960E+02  0.00000000000E+00 0.  1.
</event>
<event>
 7    1  0.2313935E-008  0.4614232E+02  0.7816164E-02  0.1320468E+00
        -11   -1    0    0    0    0  0.00000000000E+00  0.00000000000E+00  0.45593999997E+02  0.45594000000E+02  0.51100000000E-03 0.  1.
         11   -1    0    0    0    0 -0.00000000000E+00 -0.00000000000E+00 -0.45593999997E+02  0.45594000000E+02  0.51100000000E-03 0. -1.
    9900012    2    1    2    0    0  0.16840450608E+02 -0.24614377887E+02  0.33758630946E+02  0.46142317201E+02  0.99999948947E+01 0.  0.
         12    1    1    2    0    0 -0.16840450608E+02  0.24614377887E+02 -0.33758630946E+02  0.45045682799E+02  0.00000000000E+00 0. -1.
         11    1    3    3    0    0  0.87617795103E+01 -0.14219290881E+02  0.14264944594E+02  0.21964645636E+02  0.51100000000E-03 0. -1.
        -11    1    3    3    0    0  0.82273973155E+01 -0.93203516099E+01  0.14650661016E+02  0.19214600938E+02  0.51100000000E-03 0.  1.
         12    1    3    3    0    0 -0.14872621748E+00 -0.10747353957E+01  0.48430253356E+01  0.49630706281E+01  0.00000000000E+00 0. -1.
</event>
<event>
 7    1  0.2313935E-008  0.4614232E+02  0.7816164E-02  0.1320468E+00
        -11   -1    0    0    0    0  0.00000000000E+00  0.00000000000E+00  0.45593999997E+02  0.45594000000E+02  0.51100000000E-03 0.  1.
         11   -1    0    0    0    0 -0.00000000000E+00 -0.00000000000E+00 -0.45593999997E+02  0.45594000000E+02  0.51100000000E-03 0. -1.
    9900012    2    1    2    0    0 -0.30251474616E+02  0.11395810240E+02  0.31370324690E+02  0.46142317869E+02  0.10000000983E+02 0.  0.
         12    1    1    2    0    0  0.30251474616E+02 -0.11395810240E+02 -0.31370324690E+02  0.45045682131E+02  0.00000000000E+00 0. -1.
         11    1    3    3    0    0 -0.79085363675E+00  0.18428273128E+01  0.13885885432E+01  0.24391884681E+01  0.51100000000E-03 0. -1.
        -11    1    3    3    0    0 -0.17551106937E+02  0.92692991923E+01  0.17724012906E+02  0.26610184065E+02  0.51100000000E-03 0.  1.
        -12    1    3    3    0    0 -0.11909514042E+02  0.28368373448E+00  0.12257723242E+02  0.17092945336E+02  0.00000000000E+00 0.  1.
</event>
<event>
 7    1  0.2313935E-008  0.4614232E+02  0.7816164E-02  0.1320468E+00
        -11   -1    0    0    0    0  0.00000000000E+00  0.00000000000E+00  0.45593999997E+02  0.45594000000E+02  0.51100000000E-03 0. -1.
         11   -1    0    0    0    0 -0.00000000000E+00 -0.00000000000E+00 -0.45593999997E+02  0.45594000000E+02  0.51100000000E-03 0.  1.
    9900012    2    1    2    0    0 -0.13962498429E+02  0.29007665736E+02 -0.31507418606E+02  0.46142318065E+02  0.10000002768E+02 0.  0.
         12    1    1    2    0    0  0.13962498429E+02 -0.29007665736E+02  0.31507418606E+02  0.45045681935E+02  0.00000000000E+00 0. -1.
         11    1    3    3    0    0  0.29979758329E+00  0.76557912775E+01 -0.63378687387E+01  0.99433193193E+01  0.51100000000E-03 0. -1.
        -11    1    3    3    0    0 -0.26158949402E+01  0.71362112344E+01 -0.82783056979E+01  0.11238272225E+02  0.51100000000E-03 0.  1.
        -12    1    3    3    0    0 -0.11646401072E+02  0.14215663224E+02 -0.16891244170E+02  0.24960726520E+02  0.00000000000E+00 0.  1.
</event>
<event>
 7    1  0.2313935E-008  0.4614232E+02  0.7816164E-02  0.1320468E+00
        -11   -1    0    0    0    0  0.00000000000E+00  0.00000000000E+00  0.45593999997E+02  0.45594000000E+02  0.51100000000E-03 0.  1.
         11   -1    0    0    0    0 -0.00000000000E+00 -0.00000000000E+00 -0.45593999997E+02  0.45594000000E+02  0.51100000000E-03 0. -1.
    9900012    2    1    2    0    0  0.88034718284E+01  0.31242866081E+01  0.44066440262E+02  0.46142318294E+02  0.10000004856E+02 0.  0.
         12    1    1    2    0    0 -0.88034718284E+01 -0.31242866081E+01 -0.44066440262E+02  0.45045681706E+02  0.00000000000E+00 0. -1.
         11    1    3    3    0    0  0.68846736568E+00 -0.41561807395E-01  0.51849105711E+01  0.52305843449E+01  0.51100000000E-03 0. -1.
        -11    1    3    3    0    0  0.74713825813E+01 -0.59541946489E+00  0.33413772207E+02  0.34244068908E+02  0.51100000000E-03 0.  1.
         12    1    3    3    0    0  0.64362188143E+00  0.37612678804E+01  0.54677574836E+01  0.66676650406E+01  0.00000000000E+00 0. -1.
</event>
<event>
 7    1  0.2313935E-008  0.4614232E+02  0.7816164E-02  0.1320468E+00
        -11   -1    0    0    0    0  0.00000000000E+00  0.00000000000E+00  0.45593999997E+02  0.45594000000E+02  0.51100000000E-03 0. -1.
         11   -1    0    0    0    0 -0.00000000000E+00 -0.00000000000E+00 -0.45593999997E+02  0.45594000000E+02  0.51100000000E-03 0.  1.
    9900012    2    1    2    0    0  0.42661584754E+02 -0.34754402479E+01 -0.14036523823E+02  0.46142317635E+02  0.99999988539E+01 0.  0.
         12    1    1    2    0    0 -0.42661584754E+02  0.34754402479E+01  0.14036523823E+02  0.45045682365E+02  0.00000000000E+00 0. -1.
         11    1    3    3    0    0  0.47018218063E+01 -0.34509697818E+01 -0.12254599868E+01  0.59597041179E+01  0.51100000000E-03 0. -1.
        -11    1    3    3    0    0  0.53397775813E+01  0.34339999010E+00 -0.75377421651E+00  0.54036398845E+01  0.51100000000E-03 0.  1.
        -12    1    3    3    0    0  0.32619985367E+02 -0.36787045615E+00 -0.12057289619E+02  0.34778973633E+02  0.00000000000E+00 0.  1.
</event>
<event>
 7    1  0.2313935E-008  0.4614232E+02  0.7816164E-02  0.1320468E+00
        -11   -1    0    0    0    0  0.00000000000E+00  0.00000000000E+00  0.45593999997E+02  0.45594000000E+02  0.51100000000E-03 0. -1.
         11   -1    0    0    0    0 -0.00000000000E+00 -0.00000000000E+00 -0.45593999997E+02  0.45594000000E+02  0.51100000000E-03 0.  1.
    9900012    2    1    2    0    0  0.47925273888E+01 -0.44259054307E+02 -0.68761414711E+01  0.46142317316E+02  0.99999959427E+01 0.  0.
         12    1    1    2    0    0 -0.47925273888E+01  0.44259054307E+02  0.68761414711E+01  0.45045682684E+02  0.00000000000E+00 0. -1.
         11    1    3    3    0    0  0.43451659037E+01 -0.27179843343E+02 -0.43710778483E+01  0.27869888280E+02  0.51100000000E-03 0.  1.
        -11    1    3    3    0    0  0.91935647365E+00 -0.17325273704E+02 -0.29249376287E+01  0.17594475998E+02  0.51100000000E-03 0. -1.
        -12    1    3    3    0    0 -0.47199498853E+00  0.24606274067E+00  0.41987400591E+00  0.67795303848E+00  0.00000000000E+00 0.  1.
</event>
<event>
 7    1  0.2313935E-008  0.4614232E+02  0.7816164E-02  0.1320468E+00
        -11   -1    0    0    0    0  0.00000000000E+00  0.00000000000E+00  0.45593999997E+02  0.45594000000E+02  0.51100000000E-03 0.  1.
         11   -1    0    0    0    0 -0.00000000000E+00 -0.00000000000E+00 -0.45593999997E+02  0.45594000000E+02  0.51100000000E-03 0. -1.
    9900012    2    1    2    0    0  0.19922394945E+02  0.11293112304E+02  0.38790166527E+02  0.46142320684E+02  0.10000026653E+02 0.  0.
         12    1    1    2    0    0 -0.19922394945E+02 -0.11293112304E+02 -0.38790166527E+02  0.45045679316E+02  0.00000000000E+00 0. -1.
         11    1    3    3    0    0  0.45513581996E+01  0.38854406238E+01  0.14200654914E+02  0.15410065235E+02  0.51100000000E-03 0. -1.
        -11    1    3    3    0    0  0.82021735482E+01  0.73004368992E+01  0.12167406171E+02  0.16389563845E+02  0.51100000000E-03 0.  1.
         12    1    3    3    0    0  0.71688631974E+01  0.10723478092E+00  0.12422105442E+02  0.14342691604E+02  0.00000000000E+00 0. -1.
</event>
<event>
 7    1  0.2313935E-008  0.4614232E+02  0.7816164E-02  0.1320468E+00
        -11   -1    0    0    0    0  0.00000000000E+00  0.00000000000E+00  0.45593999997E+02  0.45594000000E+02  0.51100000000E-03 0. -1.
         11   -1    0    0    0    0 -0.00000000000E+00 -0.00000000000E+00 -0.45593999997E+02  0.45594000000E+02  0.51100000000E-03 0.  1.
    9900012    2    1    2    0    0  0.43910213464E+02 -0.69459834231E+01  0.72636017847E+01  0.46142318264E+02  0.10000004586E+02 0.  0.
         12    1    1    2    0    0 -0.43910213464E+02  0.69459834231E+01 -0.72636017847E+01  0.45045681736E+02  0.00000000000E+00 0. -1.
         11    1    3    3    0    0  0.27383831660E+02 -0.86623007203E+01  0.38666332471E+01  0.28980347532E+02  0.51100000000E-03 0. -1.
        -11    1    3    3    0    0  0.65392440666E+01 -0.56582045922E+00  0.98343803417E+00  0.66369433012E+01  0.51100000000E-03 0.  1.
         12    1    3    3    0    0  0.99871377375E+01  0.22821377564E+01  0.24135305033E+01  0.10525027431E+02  0.00000000000E+00 0. -1.
</event>
<event>
 7    1  0.2313935E-008  0.4614232E+02  0.7816164E-02  0.1320468E+00
        -11   -1    0    0    0    0  0.00000000000E+00  0.00000000000E+00  0.45593999997E+02  0.45594000000E+02  0.51100000000E-03 0.  1.
         11   -1    0    0    0    0 -0.00000000000E+00 -0.00000000000E+00 -0.45593999997E+02  0.45594000000E+02  0.51100000000E-03 0. -1.
    9900012    2    1    2    0    0  0.25478302195E+02  0.28648155234E+02  0.23648526486E+02  0.46142317787E+02  0.10000000236E+02 0.  0.
         12    1    1    2    0    0 -0.25478302195E+02 -0.28648155234E+02 -0.23648526486E+02  0.45045682213E+02  0.00000000000E+00 0. -1.
         11    1    3    3    0    0  0.20564262460E+01  0.31621339273E+01  0.39862963824E+01  0.54880359865E+01  0.51100000000E-03 0.  1.
        -11    1    3    3    0    0  0.10565843582E+02  0.63022437972E+01  0.88509519756E+01  0.15155681397E+02  0.51100000000E-03 0. -1.
        -12    1    3    3    0    0  0.12856032368E+02  0.19183777510E+02  0.10811278128E+02  0.25498600404E+02  0.00000000000E+00 0.  1.
</event>
<event>
 7    1  0.2313935E-008  0.4614232E+02  0.7816164E-02  0.1320468E+00
        -11   -1    0    0    0    0  0.00000000000E+00  0.00000000000E+00  0.45593999997E+02  0.45594000000E+02  0.51100000000E-03 0. -1.
         11   -1    0    0    0    0 -0.00000000000E+00 -0.00000000000E+00 -0.45593999997E+02  0.45594000000E+02  0.51100000000E-03 0.  1.
    9900012    2    1    2    0    0  0.10405548317E+02  0.43800690402E+02  0.15289383526E+01  0.46142316878E+02  0.99999919446E+01 0.  0.
         12    1    1    2    0    0 -0.10405548317E+02 -0.43800690402E+02 -0.15289383526E+01  0.45045683122E+02  0.00000000000E+00 0. -1.
         11    1    3    3    0    0  0.87501104662E+00  0.30851297407E+01  0.21648789291E+01  0.38691563535E+01  0.51100000000E-03 0. -1.
        -11    1    3    3    0    0  0.43222656205E+01  0.20740929729E+02  0.27174553105E+01  0.21360072793E+02  0.51100000000E-03 0.  1.
         12    1    3    3    0    0  0.52082716496E+01  0.19974630933E+02 -0.33533958871E+01  0.20913087731E+02  0.00000000000E+00 0. -1.
</event>
<event>
 7    1  0.2313935E-008  0.4614232E+02  0.7816164E-02  0.1320468E+00
        -11   -1    0    0    0    0  0.00000000000E+00  0.00000000000E+00  0.45593999997E+02  0.45594000000E+02  0.51100000000E-03 0.  1.
         11   -1    0    0    0    0 -0.00000000000E+00 -0.00000000000E+00 -0.45593999997E+02  0.45594000000E+02  0.51100000000E-03 0. -1.
    9900012    2    1    2    0    0  0.42391867288E+02  0.87151883391E+01  0.12493547996E+02  0.46142315840E+02  0.99999824796E+01 0.  0.
         12    1    1    2    0    0 -0.42391867288E+02 -0.87151883391E+01 -0.12493547996E+02  0.45045684160E+02  0.00000000000E+00 0. -1.
         11    1    3    3    0    0  0.18650700370E+02  0.54960199056E+01  0.18861294736E+01  0.19534900659E+02  0.51100000000E-03 0. -1.
        -11    1    3    3    0    0  0.18908053650E+02  0.33491866316E+01  0.65286243988E+01  0.20281875671E+02  0.51100000000E-03 0.  1.
        -12    1    3    3    0    0  0.48331132673E+01 -0.13001819812E+00  0.40787941235E+01  0.63255395096E+01  0.00000000000E+00 0.  1.
</event>
<event>
 7    1  0.2313935E-008  0.4614232E+02  0.7816164E-02  0.1320468E+00
        -11   -1    0    0    0    0  0.00000000000E+00  0.00000000000E+00  0.45593999997E+02  0.45594000000E+02  0.51100000000E-03 0. -1.
         11   -1    0    0    0    0 -0.00000000000E+00 -0.00000000000E+00 -0.45593999997E+02  0.45594000000E+02  0.51100000000E-03 0.  1.
    9900012    2    1    2    0    0 -0.31693167256E+02  0.32010051943E+02  0.11468928937E+00  0.46142318412E+02  0.10000005935E+02 0.  0.
         12    1    1    2    0    0  0.31693167256E+02 -0.32010051943E+02 -0.11468928937E+00  0.45045681588E+02  0.00000000000E+00 0. -1.
         11    1    3    3    0    0 -0.23434458678E+01  0.18230408706E+01 -0.17138397483E+01  0.34281866191E+01  0.51100000000E-03 0. -1.
        -11    1    3    3    0    0 -0.20924428867E+02  0.17451197286E+02 -0.59215682999E+00  0.27253011946E+02  0.51100000000E-03 0.  1.
        -12    1    3    3    0    0 -0.84252925206E+01  0.12735813786E+02  0.24206858677E+01  0.15461119847E+02  0.00000000000E+00 0.  1.
</event>
<event>
 7    1  0.2313935E-008  0.4614232E+02  0.7816164E-02  0.1320468E+00
        -11   -1    0    0    0    0  0.00000000000E+00  0.00000000000E+00  0.45593999997E+02  0.45594000000E+02  0.51100000000E-03 0.  1.
         11   -1    0    0    0    0 -0.00000000000E+00 -0.00000000000E+00 -0.45593999997E+02  0.45594000000E+02  0.51100000000E-03 0. -1.
    9900012    2    1    2    0    0 -0.38120565654E+02 -0.10388617896E+02  0.21633597047E+02  0.46142318423E+02  0.10000006034E+02 0.  0.
         12    1    1    2    0    0  0.38120565654E+02  0.10388617896E+02 -0.21633597047E+02  0.45045681577E+02  0.00000000000E+00 0. -1.
         11    1    3    3    0    0 -0.52452029318E+01 -0.13907806375E+01 -0.42857193850E-01  0.54266252476E+01  0.51100000000E-03 0. -1.
        -11    1    3    3    0    0 -0.19127859032E+02 -0.78242027500E+01  0.12774232971E+02  0.24295558608E+02  0.51100000000E-03 0.  1.
         12    1    3    3    0    0 -0.13747503690E+02 -0.11736345085E+01  0.89022212705E+01  0.16420134567E+02  0.00000000000E+00 0. -1.
</event>
<event>
 7    1  0.2313935E-008  0.4614232E+02  0.7816164E-02  0.1320468E+00
        -11   -1    0    0    0    0  0.00000000000E+00  0.00000000000E+00  0.45593999997E+02  0.45594000000E+02  0.51100000000E-03 0.  1.
         11   -1    0    0    0    0 -0.00000000000E+00 -0.00000000000E+00 -0.45593999997E+02  0.45594000000E+02  0.51100000000E-03 0. -1.
    9900012    2    1    2    0    0  0.89600566267E+01 -0.43677724131E+02  0.64099378541E+01  0.46142317595E+02  0.99999984891E+01 0.  0.
         12    1    1    2    0    0 -0.89600566267E+01  0.43677724131E+02 -0.64099378541E+01  0.45045682405E+02  0.00000000000E+00 0. -1.
         11    1    3    3    0    0  0.25938184257E+01 -0.11570692043E+02 -0.16000622013E+01  0.11965325223E+02  0.51100000000E-03 0. -1.
        -11    1    3    3    0    0  0.41920805704E+01 -0.29248211872E+02  0.63569325763E+01  0.30223203491E+02  0.51100000000E-03 0.  1.
         12    1    3    3    0    0  0.21741576306E+01 -0.28588202157E+01  0.16530674792E+01  0.39537888814E+01  0.00000000000E+00 0. -1.
</event>
<event>
 7    1  0.2313935E-008  0.4614232E+02  0.7816164E-02  0.1320468E+00
        -11   -1    0    0    0    0  0.00000000000E+00  0.00000000000E+00  0.45593999997E+02  0.45594000000E+02  0.51100000000E-03 0.  1.
         11   -1    0    0    0    0 -0.00000000000E+00 -0.00000000000E+00 -0.45593999997E+02  0.45594000000E+02  0.51100000000E-03 0. -1.
    9900012    2    1    2    0    0 -0.38801254102E+01  0.22590369503E+02  0.38778000298E+02  0.46142317914E+02  0.10000001392E+02 0.  0.
         12    1    1    2    0    0  0.38801254102E+01 -0.22590369503E+02 -0.38778000298E+02  0.45045682086E+02  0.00000000000E+00 0. -1.
         11    1    3    3    0    0 -0.34468660360E+01  0.17167060135E+02  0.29912884116E+02  0.34660777192E+02  0.51100000000E-03 0. -1.
        -11    1    3    3    0    0 -0.21072037307E+01  0.48463057067E+01  0.52142494259E+01  0.74239735925E+01  0.51100000000E-03 0.  1.
         12    1    3    3    0    0  0.16739443564E+01  0.57700366054E+00  0.36508667567E+01  0.40575671292E+01  0.00000000000E+00 0. -1.
</event>
<event>
 7    1  0.2313935E-008  0.4614232E+02  0.7816164E-02  0.1320468E+00
        -11   -1    0    0    0    0  0.00000000000E+00  0.00000000000E+00  0.45593999997E+02  0.45594000000E+02  0.51100000000E-03 0.  1.
         11   -1    0    0    0    0 -0.00000000000E+00 -0.00000000000E+00 -0.45593999997E+02  0.45594000000E+02  0.51100000000E-03 0. -1.
    9900012    2    1    2    0    0 -0.29422300077E+02  0.30378771733E+02  0.15510381643E+02  0.46142318158E+02  0.10000003623E+02 0.  0.
         12    1    1    2    0    0  0.29422300077E+02 -0.30378771733E+02 -0.15510381643E+02  0.45045681842E+02  0.00000000000E+00 0. -1.
         11    1    3    3    0    0 -0.15571204796E+02  0.16818785806E+02  0.10847472699E+02  0.25357476985E+02  0.51100000000E-03 0.  1.
        -11    1    3    3    0    0 -0.56282726229E+01  0.19115027068E+01  0.69419461067E+00  0.59844132323E+01  0.51100000000E-03 0. -1.
         12    1    3    3    0    0 -0.82228226584E+01  0.11648483220E+02  0.39687143330E+01  0.14800427942E+02  0.00000000000E+00 0. -1.
</event>
<event>
 7    1  0.2313935E-008  0.4614232E+02  0.7816164E-02  0.1320468E+00
        -11   -1    0    0    0    0  0.00000000000E+00  0.00000000000E+00  0.45593999997E+02  0.45594000000E+02  0.51100000000E-03 0.  1.
         11   -1    0    0    0    0 -0.00000000000E+00 -0.00000000000E+00 -0.45593999997E+02  0.45594000000E+02  0.51100000000E-03 0. -1.
    9900012    2    1    2    0    0  0.29874701380E+01 -0.11564906562E+02  0.43433183262E+02  0.46142318188E+02  0.10000003892E+02 0.  0.
         12    1    1    2    0    0 -0.29874701380E+01  0.11564906562E+02 -0.43433183262E+02  0.45045681812E+02  0.00000000000E+00 0. -1.
         11    1    3    3    0    0 -0.52735721158E+00  0.88834506533E+00  0.55935864418E+01  0.56881870685E+01  0.51100000000E-03 0. -1.
        -11    1    3    3    0    0  0.47304694758E+01 -0.55508529965E+01  0.18726646581E+02  0.20096681390E+02  0.51100000000E-03 0.  1.
        -12    1    3    3    0    0 -0.12156421263E+01 -0.69023986306E+01  0.19112950239E+02  0.20357449730E+02  0.00000000000E+00 0.  1.
</event>
<event>
 7    1  0.2313935E-008  0.4614232E+02  0.7816164E-02  0.1320468E+00
        -11   -1    0    0    0    0  0.00000000000E+00  0.00000000000E+00  0.45593999997E+02  0.45594000000E+02  0.51100000000E-03 0.  1.
         11   -1    0    0    0    0 -0.00000000000E+00 -0.00000000000E+00 -0.45593999997E+02  0.45594000000E+02  0.51100000000E-03 0. -1.
    9900012    2    1    2    0    0 -0.25280384778E+02  0.36847642546E+02  0.56804053071E+01  0.46142316298E+02  0.99999866592E+01 0.  0.
         12    1    1    2    0    0  0.25280384778E+02 -0.36847642546E+02 -0.56804053071E+01  0.45045683702E+02  0.00000000000E+00 0. -1.
         11    1    3    3    0    0 -0.12375700588E+02  0.17349389651E+02 -0.22803121439E+01  0.21432664557E+02  0.51100000000E-03 0. -1.
        -11    1    3    3    0    0 -0.78421235788E+01  0.11408566850E+02  0.49644714969E+01  0.14707150550E+02  0.51100000000E-03 0.  1.
         12    1    3    3    0    0 -0.50625606116E+01  0.80896860456E+01  0.29962459540E+01  0.10002501191E+02  0.00000000000E+00 0. -1.
</event>
<event>
 7    1  0.2313935E-008  0.4614232E+02  0.7816164E-02  0.1320468E+00
        -11   -1    0    0    0    0  0.00000000000E+00  0.00000000000E+00  0.45593999997E+02  0.45594000000E+02  0.51100000000E-03 0.  1.
         11   -1    0    0    0    0 -0.00000000000E+00 -0.00000000000E+00 -0.45593999997E+02  0.45594000000E+02  0.51100000000E-03 0. -1.
    9900012    2    1    2    0    0  0.16417201276E+02  0.17203034362E+02  0.38257609549E+02  0.46142316773E+02  0.99999909893E+01 0.  0.
         12    1    1    2    0    0 -0.16417201276E+02 -0.17203034362E+02 -0.38257609549E+02  0.45045683227E+02  0.00000000000E+00 0. -1.
         11    1    3    3    0    0  0.48106339432E+01  0.95389911904E+01  0.15803838680E+02  0.19076054863E+02  0.51100000000E-03 0. -1.
        -11    1    3    3    0    0  0.71635243823E+01  0.68467051244E+01  0.18817010443E+02  0.21266718951E+02  0.51100000000E-03 0.  1.
         12    1    3    3    0    0  0.44430429501E+01  0.81733804695E+00  0.36367604262E+01  0.57995429593E+01  0.00000000000E+00 0. -1.
</event>
<event>
 7    1  0.2313935E-008  0.4614232E+02  0.7816164E-02  0.1320468E+00
        -11   -1    0    0    0    0  0.00000000000E+00  0.00000000000E+00  0.45593999997E+02  0.45594000000E+02  0.51100000000E-03 0.  1.
         11   -1    0    0    0    0 -0.00000000000E+00 -0.00000000000E+00 -0.45593999997E+02  0.45594000000E+02  0.51100000000E-03 0. -1.
    9900012    2    1    2    0    0  0.43509910621E+02 -0.95692387126E+01 -0.66656441002E+01  0.46142318042E+02  0.10000002560E+02 0.  0.
         12    1    1    2    0    0 -0.43509910621E+02  0.95692387126E+01  0.66656441002E+01  0.45045681958E+02  0.00000000000E+00 0. -1.
         11    1    3    3    0    0  0.40396453529E+00  0.52110919309E+00 -0.94815200339E-01  0.66613235939E+00  0.51100000000E-03 0. -1.
        -11    1    3    3    0    0  0.21324853607E+02 -0.35044393474E+01  0.59642748951E+00  0.21619116599E+02  0.51100000000E-03 0.  1.
         12    1    3    3    0    0  0.21781092479E+02 -0.65859085582E+01 -0.71672563893E+01  0.23857069083E+02  0.00000000000E+00 0. -1.
</event>
<event>
 7    1  0.2313935E-008  0.4614232E+02  0.7816164E-02  0.1320468E+00
        -11   -1    0    0    0    0  0.00000000000E+00  0.00000000000E+00  0.45593999997E+02  0.45594000000E+02  0.51100000000E-03 0.  1.
         11   -1    0    0    0    0 -0.00000000000E+00 -0.00000000000E+00 -0.45593999997E+02  0.45594000000E+02  0.51100000000E-03 0. -1.
    9900012    2    1    2    0    0 -0.29031180460E+02  0.11207122309E+02  0.32568456878E+02  0.46142318600E+02  0.10000007651E+02 0.  0.
         12    1    1    2    0    0  0.29031180460E+02 -0.11207122309E+02 -0.32568456878E+02  0.45045681400E+02  0.00000000000E+00 0. -1.
         11    1    3    3    0    0 -0.94098825032E+01  0.52691389218E+00  0.13030657593E+02  0.16081715224E+02  0.51100000000E-03 0.  1.
        -11    1    3    3    0    0 -0.89961667757E+01  0.31484608344E+01  0.59336216038E+01  0.11227274285E+02  0.51100000000E-03 0. -1.
         12    1    3    3    0    0 -0.10625131181E+02  0.75317475822E+01  0.13604177681E+02  0.18833329091E+02  0.00000000000E+00 0. -1.
</event>
<event>
 7    1  0.2313935E-008  0.4614232E+02  0.7816164E-02  0.1320468E+00
        -11   -1    0    0    0    0  0.00000000000E+00  0.00000000000E+00  0.45593999997E+02  0.45594000000E+02  0.51100000000E-03 0.  1.
         11   -1    0    0    0    0 -0.00000000000E+00 -0.00000000000E+00 -0.45593999997E+02  0.45594000000E+02  0.51100000000E-03 0. -1.
    9900012    2    1    2    0    0  0.85054966687E+01 -0.60200186789E+01  0.43823845132E+02  0.46142317625E+02  0.99999987552E+01 0.  0.
         12    1    1    2    0    0 -0.85054966687E+01  0.60200186789E+01 -0.43823845132E+02  0.45045682375E+02  0.00000000000E+00 0. -1.
         11    1    3    3    0    0 -0.39032176835E+00 -0.12232620222E+01  0.29081099023E+00  0.13165456130E+01  0.51100000000E-03 0. -1.
        -11    1    3    3    0    0  0.14709880606E+01 -0.11351913931E+01  0.36859446705E+01  0.41277904197E+01  0.51100000000E-03 0.  1.
        -12    1    3    3    0    0  0.74248303764E+01 -0.36615652636E+01  0.39847089472E+02  0.40697981592E+02  0.00000000000E+00 0.  1.
</event>
<event>
 7    1  0.2313935E-008  0.4614232E+02  0.7816164E-02  0.1320468E+00
        -11   -1    0    0    0    0  0.00000000000E+00  0.00000000000E+00  0.45593999997E+02  0.45594000000E+02  0.51100000000E-03 0.  1.
         11   -1    0    0    0    0 -0.00000000000E+00 -0.00000000000E+00 -0.45593999997E+02  0.45594000000E+02  0.51100000000E-03 0. -1.
    9900012    2    1    2    0    0 -0.37701515091E+02  0.33697691680E+01  0.24420357947E+02  0.46142318002E+02  0.10000002195E+02 0.  0.
         12    1    1    2    0    0  0.37701515091E+02 -0.33697691680E+01 -0.24420357947E+02  0.45045681998E+02  0.00000000000E+00 0. -1.
         11    1    3    3    0    0 -0.10522521275E+02 -0.10630940698E+01  0.24122011280E+01  0.10847688119E+02  0.51100000000E-03 0. -1.
        -11    1    3    3    0    0 -0.74546029434E+01  0.17512717072E+01  0.68520728147E+01  0.10275648873E+02  0.51100000000E-03 0.  1.
         12    1    3    3    0    0 -0.19724390873E+02  0.26815915307E+01  0.15156084004E+02  0.25018981010E+02  0.00000000000E+00 0. -1.
</event>
<event>
 7    1  0.2313935E-008  0.4614232E+02  0.7816164E-02  0.1320468E+00
        -11   -1    0    0    0    0  0.00000000000E+00  0.00000000000E+00  0.45593999997E+02  0.45594000000E+02  0.51100000000E-03 0.  1.
         11   -1    0    0    0    0 -0.00000000000E+00 -0.00000000000E+00 -0.45593999997E+02  0.45594000000E+02  0.51100000000E-03 0. -1.
    9900012    2    1    2    0    0 -0.41373679654E+02  0.15774330771E+02  0.82766176326E+01  0.46142320087E+02  0.10000021213E+02 0.  0.
         12    1    1    2    0    0  0.41373679654E+02 -0.15774330771E+02 -0.82766176326E+01  0.45045679913E+02  0.00000000000E+00 0. -1.
         11    1    3    3    0    0 -0.60873413187E+01  0.59042914678E+01 -0.25474332328E+00  0.84841780090E+01  0.51100000000E-03 0. -1.
        -11    1    3    3    0    0 -0.12062360042E+02  0.41587074118E+01  0.32318367830E+01  0.13162072268E+02  0.51100000000E-03 0.  1.
         12    1    3    3    0    0 -0.23223978293E+02  0.57113318913E+01  0.52995241729E+01  0.24496069811E+02  0.00000000000E+00 0. -1.
</event>
<event>
 7    1  0.2313935E-008  0.4614232E+02  0.7816164E-02  0.1320468E+00
        -11   -1    0    0    0    0  0.00000000000E+00  0.00000000000E+00  0.45593999997E+02  0.45594000000E+02  0.51100000000E-03 0.  1.
         11   -1    0    0    0    0 -0.00000000000E+00 -0.00000000000E+00 -0.45593999997E+02  0.45594000000E+02  0.51100000000E-03 0. -1.
    9900012    2    1    2    0    0 -0.59844340711E+01  0.17852367675E+02  0.40921791519E+02  0.46142317588E+02  0.99999984257E+01 0.  0.
         12    1    1    2    0    0  0.59844340711E+01 -0.17852367675E+02 -0.40921791519E+02  0.45045682412E+02  0.00000000000E+00 0. -1.
         11    1    3    3    0    0 -0.25617898113E+01  0.27346463949E+01  0.72495761262E+01  0.81607237555E+01  0.51100000000E-03 0. -1.
        -11    1    3    3    0    0 -0.51083563714E+01  0.14565083766E+02  0.27237729520E+02  0.31307042013E+02  0.51100000000E-03 0.  1.
         12    1    3    3    0    0  0.16857121116E+01  0.55263751392E+00  0.64344858731E+01  0.66745518199E+01  0.00000000000E+00 0. -1.
</event>
<event>
 7    1  0.2313935E-008  0.4614232E+02  0.7816164E-02  0.1320468E+00
        -11   -1    0    0    0    0  0.00000000000E+00  0.00000000000E+00  0.45593999997E+02  0.45594000000E+02  0.51100000000E-03 0.  1.
         11   -1    0    0    0    0 -0.00000000000E+00 -0.00000000000E+00 -0.45593999997E+02  0.45594000000E+02  0.51100000000E-03 0. -1.
    9900012    2    1    2    0    0  0.90951918952E+01  0.39148710623E+02  0.20341325064E+02  0.46142316917E+02  0.99999923040E+01 0.  0.
         12    1    1    2    0    0 -0.90951918952E+01 -0.39148710623E+02 -0.20341325064E+02  0.45045683083E+02  0.00000000000E+00 0. -1.
         11    1    3    3    0    0 -0.10023258076E+01  0.79100701522E+01  0.65407669947E+01  0.10312880295E+02  0.51100000000E-03 0. -1.
        -11    1    3    3    0    0  0.74523180543E+01  0.19127079711E+02  0.69916932834E+01  0.21685617305E+02  0.51100000000E-03 0.  1.
        -12    1    3    3    0    0  0.26451996484E+01  0.12111560759E+02  0.68088647862E+01  0.14143819317E+02  0.00000000000E+00 0.  1.
</event>
<event>
 7    1  0.2313935E-008  0.4614232E+02  0.7816164E-02  0.1320468E+00
        -11   -1    0    0    0    0  0.00000000000E+00  0.00000000000E+00  0.45593999997E+02  0.45594000000E+02  0.51100000000E-03 0. -1.
         11   -1    0    0    0    0 -0.00000000000E+00 -0.00000000000E+00 -0.45593999997E+02  0.45594000000E+02  0.51100000000E-03 0.  1.
    9900012    2    1    2    0    0 -0.97915022938E+01 -0.39366766279E+02 -0.19583096956E+02  0.46142317733E+02  0.99999997463E+01 0.  0.
         12    1    1    2    0    0  0.97915022938E+01  0.39366766279E+02  0.19583096956E+02  0.45045682267E+02  0.00000000000E+00 0. -1.
         11    1    3    3    0    0 -0.93282098811E+01 -0.28547201218E+02 -0.15782719370E+02  0.33927163571E+02  0.51100000000E-03 0. -1.
        -11    1    3    3    0    0  0.76983956873E+00 -0.50773622069E+01 -0.37205220795E+01  0.63414938892E+01  0.51100000000E-03 0.  1.
         12    1    3    3    0    0 -0.12331319815E+01 -0.57422028542E+01 -0.79855506604E-01  0.58736602732E+01  0.00000000000E+00 0. -1.
</event>
<event>
 7    1  0.2313935E-008  0.4614231E+02  0.7816164E-02  0.1320468E+00
        -11   -1    0    0    0    0  0.00000000000E+00  0.00000000000E+00  0.45593999997E+02  0.45594000000E+02  0.51100000000E-03 0.  1.
         11   -1    0    0    0    0 -0.00000000000E+00 -0.00000000000E+00 -0.45593999997E+02  0.45594000000E+02  0.51100000000E-03 0. -1.
    9900012    2    1    2    0    0 -0.42283062558E+02 -0.13971680045E+02  0.67859326993E+01  0.46142310915E+02  0.99999375694E+01 0.  0.
         12    1    1    2    0    0  0.42283062558E+02  0.13971680045E+02 -0.67859326993E+01  0.45045689085E+02  0.00000000000E+00 0. -1.
         11    1    3    3    0    0 -0.21896285830E+02 -0.62807820305E+01  0.54385202913E+01  0.23419501688E+02  0.51100000000E-03 0. -1.
        -11    1    3    3    0    0 -0.54364993579E+01  0.10270676369E+00 -0.14620116373E+01  0.56305907537E+01  0.51100000000E-03 0.  1.
        -12    1    3    3    0    0 -0.14950277370E+02 -0.77936047786E+01  0.28094240453E+01  0.17092218473E+02  0.00000000000E+00 0.  1.
</event>
<event>
 7    1  0.2313935E-008  0.4614232E+02  0.7816164E-02  0.1320468E+00
        -11   -1    0    0    0    0  0.00000000000E+00  0.00000000000E+00  0.45593999997E+02  0.45594000000E+02  0.51100000000E-03 0.  1.
         11   -1    0    0    0    0 -0.00000000000E+00 -0.00000000000E+00 -0.45593999997E+02  0.45594000000E+02  0.51100000000E-03 0. -1.
    9900012    2    1    2    0    0 -0.33162831708E+02  0.25532192606E+02  0.16656747662E+02  0.46142317534E+02  0.99999979300E+01 0.  0.
         12    1    1    2    0    0  0.33162831708E+02 -0.25532192606E+02 -0.16656747662E+02  0.45045682466E+02  0.00000000000E+00 0. -1.
         11    1    3    3    0    0 -0.10772828597E+02  0.10875397350E+02  0.86787050718E+01  0.17596818618E+02  0.51100000000E-03 0. -1.
        -11    1    3    3    0    0 -0.14949562392E+02  0.78355194664E+01  0.74157788964E+01  0.18435795560E+02  0.51100000000E-03 0.  1.
         12    1    3    3    0    0 -0.74404407188E+01  0.68212757893E+01  0.56226369399E+00  0.10109703356E+02  0.00000000000E+00 0. -1.
</event>
<event>
 7    1  0.2313935E-008  0.4614232E+02  0.7816164E-02  0.1320468E+00
        -11   -1    0    0    0    0  0.00000000000E+00  0.00000000000E+00  0.45593999997E+02  0.45594000000E+02  0.51100000000E-03 0. -1.
         11   -1    0    0    0    0 -0.00000000000E+00 -0.00000000000E+00 -0.45593999997E+02  0.45594000000E+02  0.51100000000E-03 0.  1.
    9900012    2    1    2    0    0  0.22944480346E+02 -0.83290749317E+01  0.37858827513E+02  0.46142317763E+02  0.10000000017E+02 0.  0.
         12    1    1    2    0    0 -0.22944480346E+02  0.83290749317E+01 -0.37858827513E+02  0.45045682237E+02  0.00000000000E+00 0. -1.
         11    1    3    3    0    0  0.16271687416E+02 -0.46062727002E+01  0.28015620611E+02  0.32724005837E+02  0.51100000000E-03 0. -1.
        -11    1    3    3    0    0  0.38061900906E+01  0.57866158581E+00  0.32357028615E+01  0.50290859513E+01  0.51100000000E-03 0.  1.
        -12    1    3    3    0    0  0.28666028390E+01 -0.43014638173E+01  0.66075040400E+01  0.83892259743E+01  0.00000000000E+00 0.  1.
</event>
<event>
 7    1  0.2313935E-008  0.4614232E+02  0.7816164E-02  0.1320468E+00
        -11   -1    0    0    0    0  0.00000000000E+00  0.00000000000E+00  0.45593999997E+02  0.45594000000E+02  0.51100000000E-03 0.  1.
         11   -1    0    0    0    0 -0.00000000000E+00 -0.00000000000E+00 -0.45593999997E+02  0.45594000000E+02  0.51100000000E-03 0. -1.
    9900012    2    1    2    0    0  0.34191560973E+02 -0.26497459469E+02  0.12567230691E+02  0.46142317773E+02  0.10000000106E+02 0.  0.
         12    1    1    2    0    0 -0.34191560973E+02  0.26497459469E+02 -0.12567230691E+02  0.45045682227E+02  0.00000000000E+00 0. -1.
         11    1    3    3    0    0  0.18886028458E+01 -0.79612896444E+00 -0.11711177673E+01  0.23605421249E+01  0.51100000000E-03 0. -1.
        -11    1    3    3    0    0  0.99630002534E+01 -0.57796868624E+01  0.23449186256E+01  0.11754352296E+02  0.51100000000E-03 0.  1.
        -12    1    3    3    0    0  0.22339957874E+02 -0.19921643642E+02  0.11393429833E+02  0.32027423352E+02  0.00000000000E+00 0.  1.
</event>
<event>
 7    1  0.2313935E-008  0.4614232E+02  0.7816164E-02  0.1320468E+00
        -11   -1    0    0    0    0  0.00000000000E+00  0.00000000000E+00  0.45593999997E+02  0.45594000000E+02  0.51100000000E-03 0. -1.
         11   -1    0    0    0    0 -0.00000000000E+00 -0.00000000000E+00 -0.45593999997E+02  0.45594000000E+02  0.51100000000E-03 0.  1.
    9900012    2    1    2    0    0 -0.25849919792E+02  0.19410428877E+02 -0.31370854359E+02  0.46142316459E+02  0.99999881255E+01 0.  0.
         12    1    1    2    0    0  0.25849919792E+02 -0.19410428877E+02  0.31370854359E+02  0.45045683541E+02  0.00000000000E+00 0. -1.
         11    1    3    3    0    0  0.13152960066E+00  0.20187335891E+00  0.40902279329E+00  0.47471338241E+00  0.51100000000E-03 0. -1.
        -11    1    3    3    0    0 -0.15670365606E+02  0.81834376662E+01 -0.16307654431E+02  0.24051374255E+02  0.51100000000E-03 0.  1.
        -12    1    3    3    0    0 -0.10311083787E+02  0.11025117852E+02 -0.15472222722E+02  0.21616228822E+02  0.00000000000E+00 0.  1.
</event>
<event>
 7    1  0.2313935E-008  0.4614232E+02  0.7816164E-02  0.1320468E+00
        -11   -1    0    0    0    0  0.00000000000E+00  0.00000000000E+00  0.45593999997E+02  0.45594000000E+02  0.51100000000E-03 0.  1.
         11   -1    0    0    0    0 -0.00000000000E+00 -0.00000000000E+00 -0.45593999997E+02  0.45594000000E+02  0.51100000000E-03 0. -1.
    9900012    2    1    2    0    0 -0.30516895884E+02  0.26361013401E+02  0.20073104390E+02  0.46142317835E+02  0.10000000671E+02 0.  0.
         12    1    1    2    0    0  0.30516895884E+02 -0.26361013401E+02 -0.20073104390E+02  0.45045682165E+02  0.00000000000E+00 0. -1.
         11    1    3    3    0    0  0.24594769724E+00  0.17647311532E+01  0.98721657624E+00  0.20369985622E+01  0.51100000000E-03 0. -1.
        -11    1    3    3    0    0 -0.96743030399E+01  0.10951487354E+02  0.78695561610E+01  0.16596901187E+02  0.51100000000E-03 0.  1.
        -12    1    3    3    0    0 -0.21088540541E+02  0.13644794894E+02  0.11216331653E+02  0.27508418086E+02  0.00000000000E+00 0.  1.
</event>
<event>
 7    1  0.2313935E-008  0.4614232E+02  0.7816164E-02  0.1320468E+00
        -11   -1    0    0    0    0  0.00000000000E+00  0.00000000000E+00  0.45593999997E+02  0.45594000000E+02  0.51100000000E-03 0.  1.
         11   -1    0    0    0    0 -0.00000000000E+00 -0.00000000000E+00 -0.45593999997E+02  0.45594000000E+02  0.51100000000E-03 0. -1.
    9900012    2    1    2    0    0  0.34811307653E+01  0.18184730890E+02  0.41064714764E+02  0.46142317548E+02  0.99999980573E+01 0.  0.
         12    1    1    2    0    0 -0.34811307653E+01 -0.18184730890E+02 -0.41064714764E+02  0.45045682452E+02  0.00000000000E+00 0. -1.
         11    1    3    3    0    0  0.31930816375E+01  0.95596316960E+01  0.22643301827E+02  0.24785105334E+02  0.51100000000E-03 0. -1.
        -11    1    3    3    0    0  0.11327608357E+01  0.77013921189E+01  0.18532139448E+02  0.20100616420E+02  0.51100000000E-03 0.  1.
         12    1    3    3    0    0 -0.84471170784E+00  0.92370707487E+00 -0.11072651174E+00  0.12565957942E+01  0.00000000000E+00 0. -1.
</event>
<event>
 7    1  0.2313935E-008  0.4614232E+02  0.7816164E-02  0.1320468E+00
        -11   -1    0    0    0    0  0.00000000000E+00  0.00000000000E+00  0.45593999997E+02  0.45594000000E+02  0.51100000000E-03 0. -1.
         11   -1    0    0    0    0 -0.00000000000E+00 -0.00000000000E+00 -0.45593999997E+02  0.45594000000E+02  0.51100000000E-03 0.  1.
    9900012    2    1    2    0    0 -0.13151611803E+02 -0.41352987406E+02  0.12086319759E+02  0.46142316681E+02  0.99999901467E+01 0.  0.
         12    1    1    2    0    0  0.13151611803E+02  0.41352987406E+02 -0.12086319759E+02  0.45045683319E+02  0.00000000000E+00 0. -1.
         11    1    3    3    0    0  0.63317313796E+00 -0.49870379245E-02  0.57433082058E+00  0.85486212091E+00  0.51100000000E-03 0. -1.
        -11    1    3    3    0    0 -0.43653043305E+01 -0.19711234602E+02  0.47621604489E+01  0.20742874050E+02  0.51100000000E-03 0.  1.
        -12    1    3    3    0    0 -0.94194806108E+01 -0.21636765766E+02  0.67498284899E+01  0.24544580510E+02  0.00000000000E+00 0.  1.
</event>
<event>
 7    1  0.2313935E-008  0.4614232E+02  0.7816164E-02  0.1320468E+00
        -11   -1    0    0    0    0  0.00000000000E+00  0.00000000000E+00  0.45593999997E+02  0.45594000000E+02  0.51100000000E-03 0.  1.
         11   -1    0    0    0    0 -0.00000000000E+00 -0.00000000000E+00 -0.45593999997E+02  0.45594000000E+02  0.51100000000E-03 0. -1.
    9900012    2    1    2    0    0 -0.16155041102E+02  0.45623567199E+01  0.41800873501E+02  0.46142317884E+02  0.10000001122E+02 0.  0.
         12    1    1    2    0    0  0.16155041102E+02 -0.45623567199E+01 -0.41800873501E+02  0.45045682116E+02  0.00000000000E+00 0. -1.
         11    1    3    3    0    0 -0.39850605767E+01  0.28713831858E+01  0.58488274232E+01  0.76376915156E+01  0.51100000000E-03 0. -1.
        -11    1    3    3    0    0 -0.12179068564E+02  0.29376072772E+01  0.33118519687E+02  0.35408976180E+02  0.51100000000E-03 0.  1.
        -12    1    3    3    0    0  0.90880390242E-02 -0.12466337431E+01  0.28335263906E+01  0.30956501882E+01  0.00000000000E+00 0.  1.
</event>
<event>
 7    1  0.2313935E-008  0.4614232E+02  0.7816164E-02  0.1320468E+00
        -11   -1    0    0    0    0  0.00000000000E+00  0.00000000000E+00  0.45593999997E+02  0.45594000000E+02  0.51100000000E-03 0.  1.
         11   -1    0    0    0    0 -0.00000000000E+00 -0.00000000000E+00 -0.45593999997E+02  0.45594000000E+02  0.51100000000E-03 0. -1.
    9900012    2    1    2    0    0 -0.23065315703E+02  0.36510479464E+02  0.12809751374E+02  0.46142316195E+02  0.99999857234E+01 0.  0.
         12    1    1    2    0    0  0.23065315703E+02 -0.36510479464E+02 -0.12809751374E+02  0.45045683805E+02  0.00000000000E+00 0. -1.
         11    1    3    3    0    0 -0.10763686649E+02  0.11573874407E+02  0.21184883222E+01  0.15946771212E+02  0.51100000000E-03 0. -1.
        -11    1    3    3    0    0 -0.83959901454E+01  0.11461607293E+02  0.55631919772E+01  0.15258119068E+02  0.51100000000E-03 0.  1.
         12    1    3    3    0    0 -0.39056389083E+01  0.13474997764E+02  0.51280710742E+01  0.14937425915E+02  0.00000000000E+00 0. -1.
</event>
<event>
 7    1  0.2313935E-008  0.4614232E+02  0.7816164E-02  0.1320468E+00
        -11   -1    0    0    0    0  0.00000000000E+00  0.00000000000E+00  0.45593999997E+02  0.45594000000E+02  0.51100000000E-03 0.  1.
         11   -1    0    0    0    0 -0.00000000000E+00 -0.00000000000E+00 -0.45593999997E+02  0.45594000000E+02  0.51100000000E-03 0. -1.
    9900012    2    1    2    0    0 -0.25752665456E+01 -0.41153129395E-01  0.44971989223E+02  0.46142317565E+02  0.99999982091E+01 0.  0.
         12    1    1    2    0    0  0.25752665456E+01  0.41153129395E-01 -0.44971989223E+02  0.45045682435E+02  0.00000000000E+00 0. -1.
         11    1    3    3    0    0 -0.10835340365E-02 -0.17223945635E+01  0.34080562229E+01  0.38185719433E+01  0.51100000000E-03 0. -1.
        -11    1    3    3    0    0 -0.28719705856E+01  0.17152973474E+00  0.40089417693E+02  0.40192524787E+02  0.51100000000E-03 0.  1.
        -12    1    3    3    0    0  0.29778757408E+00  0.15097116994E+01  0.14745153069E+01  0.21312208344E+01  0.00000000000E+00 0.  1.
</event>
<event>
 7    1  0.2313935E-008  0.4614232E+02  0.7816164E-02  0.1320468E+00
        -11   -1    0    0    0    0  0.00000000000E+00  0.00000000000E+00  0.45593999997E+02  0.45594000000E+02  0.51100000000E-03 0.  1.
         11   -1    0    0    0    0 -0.00000000000E+00 -0.00000000000E+00 -0.45593999997E+02  0.45594000000E+02  0.51100000000E-03 0. -1.
    9900012    2    1    2    0    0  0.13609992091E+02  0.31029112133E+02  0.29682920801E+02  0.46142317946E+02  0.10000001686E+02 0.  0.
         12    1    1    2    0    0 -0.13609992091E+02 -0.31029112133E+02 -0.29682920801E+02  0.45045682054E+02  0.00000000000E+00 0. -1.
         11    1    3    3    0    0  0.79581965206E+01  0.95723291645E+01  0.12824445667E+02  0.17872570728E+02  0.51100000000E-03 0. -1.
        -11    1    3    3    0    0  0.50706071204E+01  0.99144993441E+01  0.83241246570E+01  0.13903215649E+02  0.51100000000E-03 0.  1.
         12    1    3    3    0    0  0.58118845016E+00  0.11542283624E+02  0.85343504765E+01  0.14366531569E+02  0.00000000000E+00 0. -1.
</event>
<event>
 7    1  0.2313935E-008  0.4614232E+02  0.7816164E-02  0.1320468E+00
        -11   -1    0    0    0    0  0.00000000000E+00  0.00000000000E+00  0.45593999997E+02  0.45594000000E+02  0.51100000000E-03 0.  1.
         11   -1    0    0    0    0 -0.00000000000E+00 -0.00000000000E+00 -0.45593999997E+02  0.45594000000E+02  0.51100000000E-03 0. -1.
    9900012    2    1    2    0    0 -0.22553971243E+02 -0.25013694474E+02  0.29912320362E+02  0.46142318303E+02  0.10000004946E+02 0.  0.
         12    1    1    2    0    0  0.22553971243E+02  0.25013694474E+02 -0.29912320362E+02  0.45045681697E+02  0.00000000000E+00 0. -1.
         11    1    3    3    0    0  0.81585616473E+00 -0.18215806899E+01  0.12859468334E+01  0.23743287496E+01  0.51100000000E-03 0. -1.
        -11    1    3    3    0    0 -0.63709571398E+01 -0.85875377994E+01  0.95898814570E+01  0.14363172594E+02  0.51100000000E-03 0.  1.
         12    1    3    3    0    0 -0.16998870268E+02 -0.14604575984E+02  0.19036492072E+02  0.29404816960E+02  0.00000000000E+00 0. -1.
</event>
<event>
 7    1  0.2313935E-008  0.4614232E+02  0.7816164E-02  0.1320468E+00
        -11   -1    0    0    0    0  0.00000000000E+00  0.00000000000E+00  0.45593999997E+02  0.45594000000E+02  0.51100000000E-03 0.  1.
         11   -1    0    0    0    0 -0.00000000000E+00 -0.00000000000E+00 -0.45593999997E+02  0.45594000000E+02  0.51100000000E-03 0. -1.
    9900012    2    1    2    0    0 -0.32079995261E+02  0.31409244524E+02  0.36669784100E+01  0.46142317986E+02  0.10000002048E+02 0.  0.
         12    1    1    2    0    0  0.32079995261E+02 -0.31409244524E+02 -0.36669784100E+01  0.45045682014E+02  0.00000000000E+00 0. -1.
         11    1    3    3    0    0 -0.15487376067E+02  0.17412528335E+02 -0.15790753759E+01  0.23356978395E+02  0.51100000000E-03 0. -1.
        -11    1    3    3    0    0 -0.11242252486E+02  0.12031140983E+02  0.36463950382E+01  0.16865135379E+02  0.51100000000E-03 0.  1.
        -12    1    3    3    0    0 -0.53503667076E+01  0.19655752057E+01  0.15996587476E+01  0.59202042114E+01  0.00000000000E+00 0.  1.
</event>
<event>
 7    1  0.2313935E-008  0.4614232E+02  0.7816164E-02  0.1320468E+00
        -11   -1    0    0    0    0  0.00000000000E+00  0.00000000000E+00  0.45593999997E+02  0.45594000000E+02  0.51100000000E-03 0.  1.
         11   -1    0    0    0    0 -0.00000000000E+00 -0.00000000000E+00 -0.45593999997E+02  0.45594000000E+02  0.51100000000E-03 0. -1.
    9900012    2    1    2    0    0 -0.44056483611E+02  0.93486192534E+01  0.86186970957E+00  0.46142320413E+02  0.10000024178E+02 0.  0.
         12    1    1    2    0    0  0.44056483611E+02 -0.93486192534E+01 -0.86186970957E+00  0.45045679587E+02  0.00000000000E+00 0. -1.
         11    1    3    3    0    0 -0.43284357195E+02  0.97749376014E+01  0.13543104546E+01  0.44395035082E+02  0.51100000000E-03 0.  1.
        -11    1    3    3    0    0 -0.11491119020E+01 -0.48532088547E+00 -0.54657787969E+00  0.13618891896E+01  0.51100000000E-03 0. -1.
         12    1    3    3    0    0  0.37698548586E+00  0.59002537492E-01  0.54137134648E-01  0.38539614078E+00  0.00000000000E+00 0. -1.
</event>
<event>
 7    1  0.2313935E-008  0.4614231E+02  0.7816164E-02  0.1320468E+00
        -11   -1    0    0    0    0  0.00000000000E+00  0.00000000000E+00  0.45593999997E+02  0.45594000000E+02  0.51100000000E-03 0.  1.
         11   -1    0    0    0    0 -0.00000000000E+00 -0.00000000000E+00 -0.45593999997E+02  0.45594000000E+02  0.51100000000E-03 0. -1.
    9900012    2    1    2    0    0  0.25141072543E+00  0.38221044929E+02 -0.23836993492E+02  0.46142314951E+02  0.99999743735E+01 0.  0.
         12    1    1    2    0    0 -0.25141072543E+00 -0.38221044929E+02  0.23836993492E+02  0.45045685049E+02  0.00000000000E+00 0. -1.
         11    1    3    3    0    0  0.21811955714E+01  0.65362246002E+01 -0.47773515724E+01  0.83846845172E+01  0.51100000000E-03 0. -1.
        -11    1    3    3    0    0 -0.40623761511E+01  0.20205354909E+02 -0.14608966632E+02  0.25262247986E+02  0.51100000000E-03 0.  1.
         12    1    3    3    0    0  0.21325913051E+01  0.11479465420E+02 -0.44506752875E+01  0.12495382447E+02  0.00000000000E+00 0. -1.
</event>
<event>
 7    1  0.2313935E-008  0.4614232E+02  0.7816164E-02  0.1320468E+00
        -11   -1    0    0    0    0  0.00000000000E+00  0.00000000000E+00  0.45593999997E+02  0.45594000000E+02  0.51100000000E-03 0.  1.
         11   -1    0    0    0    0 -0.00000000000E+00 -0.00000000000E+00 -0.45593999997E+02  0.45594000000E+02  0.51100000000E-03 0. -1.
    9900012    2    1    2    0    0 -0.27378219183E+01  0.22962551826E+02  0.38656682247E+02  0.46142317215E+02  0.99999950234E+01 0.  0.
         12    1    1    2    0    0  0.27378219183E+01 -0.22962551826E+02 -0.38656682247E+02  0.45045682785E+02  0.00000000000E+00 0. -1.
         11    1    3    3    0    0 -0.12781202140E+01  0.51561839147E+01  0.96710496838E+01  0.11033994113E+02  0.51100000000E-03 0.  1.
        -11    1    3    3    0    0  0.12585895884E+01  0.16393827200E+02  0.21869788955E+02  0.27361090754E+02  0.51100000000E-03 0. -1.
         12    1    3    3    0    0 -0.27182912927E+01  0.14125407110E+01  0.71158436077E+01  0.77472323485E+01  0.00000000000E+00 0. -1.
</event>
<event>
 7    1  0.2313935E-008  0.4614232E+02  0.7816164E-02  0.1320468E+00
        -11   -1    0    0    0    0  0.00000000000E+00  0.00000000000E+00  0.45593999997E+02  0.45594000000E+02  0.51100000000E-03 0. -1.
         11   -1    0    0    0    0 -0.00000000000E+00 -0.00000000000E+00 -0.45593999997E+02  0.45594000000E+02  0.51100000000E-03 0.  1.
    9900012    2    1    2    0    0  0.25448750503E+02  0.36938950041E+02  0.41217158651E+01  0.46142317921E+02  0.10000001456E+02 0.  0.
         12    1    1    2    0    0 -0.25448750503E+02 -0.36938950041E+02 -0.41217158651E+01  0.45045682079E+02  0.00000000000E+00 0. -1.
         11    1    3    3    0    0  0.12325474476E+02  0.20592524204E+02  0.52359265645E+01  0.24563882050E+02  0.51100000000E-03 0. -1.
        -11    1    3    3    0    0  0.83310198085E+01  0.75625899949E+01  0.11781930846E+01  0.11313125019E+02  0.51100000000E-03 0.  1.
         12    1    3    3    0    0  0.47922562191E+01  0.87838358424E+01 -0.22924037840E+01  0.10265310852E+02  0.00000000000E+00 0. -1.
</event>
<event>
 7    1  0.2313935E-008  0.4614232E+02  0.7816164E-02  0.1320468E+00
        -11   -1    0    0    0    0  0.00000000000E+00  0.00000000000E+00  0.45593999997E+02  0.45594000000E+02  0.51100000000E-03 0.  1.
         11   -1    0    0    0    0 -0.00000000000E+00 -0.00000000000E+00 -0.45593999997E+02  0.45594000000E+02  0.51100000000E-03 0. -1.
    9900012    2    1    2    0    0 -0.33393338404E+02  0.29840565566E+02 -0.48517344606E+01  0.46142315075E+02  0.99999755039E+01 0.  0.
         12    1    1    2    0    0  0.33393338404E+02 -0.29840565566E+02  0.48517344606E+01  0.45045684925E+02  0.00000000000E+00 0. -1.
         11    1    3    3    0    0 -0.11004995777E+02  0.78349332020E+01 -0.10288369873E+01  0.13548232953E+02  0.51100000000E-03 0. -1.
        -11    1    3    3    0    0 -0.12004115853E+02  0.66580986904E+01 -0.29664073592E+01  0.14043811749E+02  0.51100000000E-03 0.  1.
        -12    1    3    3    0    0 -0.10384226775E+02  0.15347533674E+02 -0.85649011410E+00  0.18550270373E+02  0.00000000000E+00 0.  1.
</event>
<event>
 7    1  0.2313935E-008  0.4614232E+02  0.7816164E-02  0.1320468E+00
        -11   -1    0    0    0    0  0.00000000000E+00  0.00000000000E+00  0.45593999997E+02  0.45594000000E+02  0.51100000000E-03 0.  1.
         11   -1    0    0    0    0 -0.00000000000E+00 -0.00000000000E+00 -0.45593999997E+02  0.45594000000E+02  0.51100000000E-03 0. -1.
    9900012    2    1    2    0    0  0.11596135217E+02 -0.35389325937E+02  0.25342419716E+02  0.46142323412E+02  0.10000051528E+02 0.  0.
         12    1    1    2    0    0 -0.11596135217E+02  0.35389325937E+02 -0.25342419716E+02  0.45045676588E+02  0.00000000000E+00 0. -1.
         11    1    3    3    0    0  0.66003901097E+01 -0.95907507564E+01  0.71687325821E+01  0.13672540977E+02  0.51100000000E-03 0. -1.
        -11    1    3    3    0    0  0.57495685265E+01 -0.25358143730E+02  0.17277706926E+02  0.31218778781E+02  0.51100000000E-03 0.  1.
        -12    1    3    3    0    0 -0.75382341962E+00 -0.44043145049E+00  0.89598020771E+00  0.12510036543E+01  0.00000000000E+00 0.  1.
</event>
<event>
 7    1  0.2313935E-008  0.4614232E+02  0.7816164E-02  0.1320468E+00
        -11   -1    0    0    0    0  0.00000000000E+00  0.00000000000E+00  0.45593999997E+02  0.45594000000E+02  0.51100000000E-03 0.  1.
         11   -1    0    0    0    0 -0.00000000000E+00 -0.00000000000E+00 -0.45593999997E+02  0.45594000000E+02  0.51100000000E-03 0. -1.
    9900012    2    1    2    0    0 -0.19028824746E+02 -0.69867190251E+00  0.40823144261E+02  0.46142318509E+02  0.10000006815E+02 0.  0.
         12    1    1    2    0    0  0.19028824746E+02  0.69867190251E+00 -0.40823144261E+02  0.45045681491E+02  0.00000000000E+00 0. -1.
         11    1    3    3    0    0 -0.52415974829E+01 -0.12859207471E+01  0.15194294048E+02  0.16124345203E+02  0.51100000000E-03 0. -1.
        -11    1    3    3    0    0  0.18304757031E+00 -0.16731445171E+00  0.54940888156E+01  0.54996829648E+01  0.51100000000E-03 0.  1.
        -12    1    3    3    0    0 -0.13970274833E+02  0.75456329634E+00  0.20134761397E+02  0.24518290340E+02  0.00000000000E+00 0.  1.
</event>
<event>
 7    1  0.2313935E-008  0.4614232E+02  0.7816164E-02  0.1320468E+00
        -11   -1    0    0    0    0  0.00000000000E+00  0.00000000000E+00  0.45593999997E+02  0.45594000000E+02  0.51100000000E-03 0.  1.
         11   -1    0    0    0    0 -0.00000000000E+00 -0.00000000000E+00 -0.45593999997E+02  0.45594000000E+02  0.51100000000E-03 0. -1.
    9900012    2    1    2    0    0  0.18801401261E+01 -0.25417385687E+02  0.37142092532E+02  0.46142318079E+02  0.10000002901E+02 0.  0.
         12    1    1    2    0    0 -0.18801401261E+01  0.25417385687E+02 -0.37142092532E+02  0.45045681921E+02  0.00000000000E+00 0. -1.
         11    1    3    3    0    0  0.38542290942E+01 -0.18209329920E+02  0.24646724053E+02  0.30885203332E+02  0.51100000000E-03 0. -1.
        -11    1    3    3    0    0 -0.83356435498E+00 -0.72180257234E+01  0.89233962814E+01  0.11507463940E+02  0.51100000000E-03 0.  1.
         12    1    3    3    0    0 -0.11405246132E+01  0.99699571181E-02  0.35719721976E+01  0.37496508069E+01  0.00000000000E+00 0. -1.
</event>
<event>
 7    1  0.2313935E-008  0.4614232E+02  0.7816164E-02  0.1320468E+00
        -11   -1    0    0    0    0  0.00000000000E+00  0.00000000000E+00  0.45593999997E+02  0.45594000000E+02  0.51100000000E-03 0.  1.
         11   -1    0    0    0    0 -0.00000000000E+00 -0.00000000000E+00 -0.45593999997E+02  0.45594000000E+02  0.51100000000E-03 0. -1.
    9900012    2    1    2    0    0 -0.38690235267E+02 -0.80926813806E+01  0.21602956356E+02  0.46142317407E+02  0.99999967702E+01 0.  0.
         12    1    1    2    0    0  0.38690235267E+02  0.80926813806E+01 -0.21602956356E+02  0.45045682593E+02  0.00000000000E+00 0. -1.
         11    1    3    3    0    0 -0.19695543249E+02 -0.30323326327E+01  0.12079540064E+02  0.23302891527E+02  0.51100000000E-03 0. -1.
        -11    1    3    3    0    0 -0.16500848784E+02 -0.17212957742E+01  0.75107764663E+01  0.18211332547E+02  0.51100000000E-03 0.  1.
         12    1    3    3    0    0 -0.24938432333E+01 -0.33390529737E+01  0.20126398261E+01  0.46280933335E+01  0.00000000000E+00 0. -1.
</event>
<event>
 7    1  0.2313935E-008  0.4614232E+02  0.7816164E-02  0.1320468E+00
        -11   -1    0    0    0    0  0.00000000000E+00  0.00000000000E+00  0.45593999997E+02  0.45594000000E+02  0.51100000000E-03 0.  1.
         11   -1    0    0    0    0 -0.00000000000E+00 -0.00000000000E+00 -0.45593999997E+02  0.45594000000E+02  0.51100000000E-03 0. -1.
    9900012    2    1    2    0    0 -0.15093446878E+02  0.12456891756E+02  0.40572488232E+02  0.46142322159E+02  0.10000040103E+02 0.  0.
         12    1    1    2    0    0  0.15093446878E+02 -0.12456891756E+02 -0.40572488232E+02  0.45045677841E+02  0.00000000000E+00 0. -1.
         11    1    3    3    0    0 -0.10936070173E+02  0.91422810622E+01  0.21370617539E+02  0.25688172923E+02  0.51100000000E-03 0.  1.
        -11    1    3    3    0    0  0.87476207641E+00 -0.21453945024E+00  0.24538069183E+01  0.26138868605E+01  0.51100000000E-03 0. -1.
        -12    1    3    3    0    0 -0.50321387805E+01  0.35291501437E+01  0.16748063774E+02  0.17840262376E+02  0.00000000000E+00 0.  1.
</event>
<event>
 7    1  0.2313935E-008  0.4614232E+02  0.7816164E-02  0.1320468E+00
        -11   -1    0    0    0    0  0.00000000000E+00  0.00000000000E+00  0.45593999997E+02  0.45594000000E+02  0.51100000000E-03 0.  1.
         11   -1    0    0    0    0 -0.00000000000E+00 -0.00000000000E+00 -0.45593999997E+02  0.45594000000E+02  0.51100000000E-03 0. -1.
    9900012    2    1    2    0    0 -0.13987078016E+02  0.31480341882E+02  0.29025217975E+02  0.46142317022E+02  0.99999932609E+01 0.  0.
         12    1    1    2    0    0  0.13987078016E+02 -0.31480341882E+02 -0.29025217975E+02  0.45045682978E+02  0.00000000000E+00 0. -1.
         11    1    3    3    0    0 -0.13807312723E+01  0.50514197769E+01  0.16904308223E+01  0.55028008536E+01  0.51100000000E-03 0.  1.
        -11    1    3    3    0    0 -0.76656522894E+01  0.83712946910E+01  0.10458309094E+02  0.15434280974E+02  0.51100000000E-03 0. -1.
        -12    1    3    3    0    0 -0.49406944543E+01  0.18057627414E+02  0.16876478059E+02  0.25205235194E+02  0.00000000000E+00 0.  1.
</event>
<event>
 7    1  0.2313935E-008  0.4614232E+02  0.7816164E-02  0.1320468E+00
        -11   -1    0    0    0    0  0.00000000000E+00  0.00000000000E+00  0.45593999997E+02  0.45594000000E+02  0.51100000000E-03 0. -1.
         11   -1    0    0    0    0 -0.00000000000E+00 -0.00000000000E+00 -0.45593999997E+02  0.45594000000E+02  0.51100000000E-03 0.  1.
    9900012    2    1    2    0    0 -0.13843872687E+02  0.41421783249E+02 -0.11031614137E+02  0.46142318198E+02  0.10000003986E+02 0.  0.
         12    1    1    2    0    0  0.13843872687E+02 -0.41421783249E+02  0.11031614137E+02  0.45045681802E+02  0.00000000000E+00 0. -1.
         11    1    3    3    0    0 -0.12434779552E+01  0.84598633396E-01 -0.73519763742E+00  0.14470349619E+01  0.51100000000E-03 0. -1.
        -11    1    3    3    0    0 -0.87094383280E+01  0.20155298489E+02 -0.52781186996E+01  0.22582048411E+02  0.51100000000E-03 0.  1.
         12    1    3    3    0    0 -0.38909564038E+01  0.21181886127E+02 -0.50182977999E+01  0.22113234825E+02  0.00000000000E+00 0. -1.
</event>
<event>
 7    1  0.2313935E-008  0.4614231E+02  0.7816164E-02  0.1320468E+00
        -11   -1    0    0    0    0  0.00000000000E+00  0.00000000000E+00  0.45593999997E+02  0.45594000000E+02  0.51100000000E-03 0.  1.
         11   -1    0    0    0    0 -0.00000000000E+00 -0.00000000000E+00 -0.45593999997E+02  0.45594000000E+02  0.51100000000E-03 0. -1.
    9900012    2    1    2    0    0 -0.23396626729E+02 -0.84362190967E+01  0.37557184507E+02  0.46142311605E+02  0.99999438595E+01 0.  0.
         12    1    1    2    0    0  0.23396626729E+02  0.84362190967E+01 -0.37557184507E+02  0.45045688395E+02  0.00000000000E+00 0. -1.
         11    1    3    3    0    0 -0.11649659061E+02 -0.19567878484E+01  0.22405281583E+02  0.25328644219E+02  0.51100000000E-03 0. -1.
        -11    1    3    3    0    0 -0.10755496135E+02 -0.41952709672E+01  0.13757833839E+02  0.17959927278E+02  0.51100000000E-03 0.  1.
         12    1    3    3    0    0 -0.99147153208E+00 -0.22841602811E+01  0.13940690851E+01  0.28537401078E+01  0.00000000000E+00 0. -1.
</event>
<event>
 7    1  0.2313935E-008  0.4614232E+02  0.7816164E-02  0.1320468E+00
        -11   -1    0    0    0    0  0.00000000000E+00  0.00000000000E+00  0.45593999997E+02  0.45594000000E+02  0.51100000000E-03 0.  1.
         11   -1    0    0    0    0 -0.00000000000E+00 -0.00000000000E+00 -0.45593999997E+02  0.45594000000E+02  0.51100000000E-03 0. -1.
    9900012    2    1    2    0    0 -0.36203872578E+01 -0.42437580856E+02 -0.14664856976E+02  0.46142317599E+02  0.99999985231E+01 0.  0.
         12    1    1    2    0    0  0.36203872578E+01  0.42437580856E+02  0.14664856976E+02  0.45045682401E+02  0.00000000000E+00 0. -1.
         11    1    3    3    0    0 -0.61352824308E+01 -0.22576065328E+02 -0.10607323540E+02  0.25687267841E+02  0.51100000000E-03 0. -1.
        -11    1    3    3    0    0  0.46030454006E+00 -0.76324785170E+01 -0.16809063594E+01  0.78289242577E+01  0.51100000000E-03 0.  1.
         12    1    3    3    0    0  0.20545906329E+01 -0.12229037011E+02 -0.23766270771E+01  0.12626125500E+02  0.00000000000E+00 0. -1.
</event>
<event>
 7    1  0.2313935E-008  0.4614232E+02  0.7816164E-02  0.1320468E+00
        -11   -1    0    0    0    0  0.00000000000E+00  0.00000000000E+00  0.45593999997E+02  0.45594000000E+02  0.51100000000E-03 0.  1.
         11   -1    0    0    0    0 -0.00000000000E+00 -0.00000000000E+00 -0.45593999997E+02  0.45594000000E+02  0.51100000000E-03 0. -1.
    9900012    2    1    2    0    0  0.11263975837E+02 -0.12370091957E+01  0.43597088606E+02  0.46142317873E+02  0.10000001019E+02 0.  0.
         12    1    1    2    0    0 -0.11263975837E+02  0.12370091957E+01 -0.43597088606E+02  0.45045682127E+02  0.00000000000E+00 0. -1.
         11    1    3    3    0    0  0.38614894536E+00  0.78572624677E+00  0.14644596771E+02  0.14670742707E+02  0.51100000000E-03 0.  1.
        -11    1    3    3    0    0  0.54175567615E+01 -0.27991999007E+01  0.20426204996E+02  0.21317018838E+02  0.51100000000E-03 0. -1.
         12    1    3    3    0    0  0.54602701302E+01  0.77646445830E+00  0.85262868394E+01  0.10154556328E+02  0.00000000000E+00 0. -1.
</event>
<event>
 7    1  0.2313935E-008  0.4614232E+02  0.7816164E-02  0.1320468E+00
        -11   -1    0    0    0    0  0.00000000000E+00  0.00000000000E+00  0.45593999997E+02  0.45594000000E+02  0.51100000000E-03 0. -1.
         11   -1    0    0    0    0 -0.00000000000E+00 -0.00000000000E+00 -0.45593999997E+02  0.45594000000E+02  0.51100000000E-03 0.  1.
    9900012    2    1    2    0    0  0.35371688431E+02 -0.25357397614E+02  0.11617206735E+02  0.46142318203E+02  0.10000004032E+02 0.  0.
         12    1    1    2    0    0 -0.35371688431E+02  0.25357397614E+02 -0.11617206735E+02  0.45045681797E+02  0.00000000000E+00 0. -1.
         11    1    3    3    0    0  0.32028040130E+01 -0.32149246150E+01  0.34574628004E+01  0.57050629360E+01  0.51100000000E-03 0. -1.
        -11    1    3    3    0    0  0.92304580443E+01 -0.10076134246E+02  0.34595219534E+01  0.14096032401E+02  0.51100000000E-03 0.  1.
        -12    1    3    3    0    0  0.22938426374E+02 -0.12066338752E+02  0.47002219808E+01  0.26341222866E+02  0.00000000000E+00 0.  1.
</event>
<event>
 7    1  0.2313935E-008  0.4614232E+02  0.7816164E-02  0.1320468E+00
        -11   -1    0    0    0    0  0.00000000000E+00  0.00000000000E+00  0.45593999997E+02  0.45594000000E+02  0.51100000000E-03 0.  1.
         11   -1    0    0    0    0 -0.00000000000E+00 -0.00000000000E+00 -0.45593999997E+02  0.45594000000E+02  0.51100000000E-03 0. -1.
    9900012    2    1    2    0    0  0.88172543753E+01  0.17287122339E+02  0.40651259030E+02  0.46142318362E+02  0.10000005477E+02 0.  0.
         12    1    1    2    0    0 -0.88172543753E+01 -0.17287122339E+02 -0.40651259030E+02  0.45045681638E+02  0.00000000000E+00 0. -1.
         11    1    3    3    0    0  0.22215977637E+01  0.10759023976E+02  0.13779427474E+02  0.17622846402E+02  0.51100000000E-03 0. -1.
        -11    1    3    3    0    0  0.21190329169E+01  0.36785551341E+01  0.11698790151E+02  0.12445230397E+02  0.51100000000E-03 0.  1.
         12    1    3    3    0    0  0.44766236947E+01  0.28495432293E+01  0.15173041406E+02  0.16074241563E+02  0.00000000000E+00 0. -1.
</event>
<event>
 7    1  0.2313935E-008  0.4614232E+02  0.7816164E-02  0.1320468E+00
        -11   -1    0    0    0    0  0.00000000000E+00  0.00000000000E+00  0.45593999997E+02  0.45594000000E+02  0.51100000000E-03 0.  1.
         11   -1    0    0    0    0 -0.00000000000E+00 -0.00000000000E+00 -0.45593999997E+02  0.45594000000E+02  0.51100000000E-03 0. -1.
    9900012    2    1    2    0    0 -0.10784883944E+01 -0.68520198067E+01  0.44508429447E+02  0.46142316472E+02  0.99999882494E+01 0.  0.
         12    1    1    2    0    0  0.10784883944E+01  0.68520198067E+01 -0.44508429447E+02  0.45045683528E+02  0.00000000000E+00 0. -1.
         11    1    3    3    0    0  0.48098496425E+00 -0.25410151770E+01  0.11688745986E+02  0.11971419617E+02  0.51100000000E-03 0. -1.
        -11    1    3    3    0    0 -0.55167177878E-01 -0.66703004447E+01  0.21532214710E+02  0.22541788350E+02  0.51100000000E-03 0.  1.
         12    1    3    3    0    0 -0.15043061808E+01  0.23592958149E+01  0.11287468751E+02  0.11629108506E+02  0.00000000000E+00 0. -1.
</event>
<event>
 7    1  0.2313935E-008  0.4614232E+02  0.7816164E-02  0.1320468E+00
        -11   -1    0    0    0    0  0.00000000000E+00  0.00000000000E+00  0.45593999997E+02  0.45594000000E+02  0.51100000000E-03 0.  1.
         11   -1    0    0    0    0 -0.00000000000E+00 -0.00000000000E+00 -0.45593999997E+02  0.45594000000E+02  0.51100000000E-03 0. -1.
    9900012    2    1    2    0    0  0.27453593933E+02 -0.30436998229E+01  0.35582995365E+02  0.46142317770E+02  0.10000000081E+02 0.  0.
         12    1    1    2    0    0 -0.27453593933E+02  0.30436998229E+01 -0.35582995365E+02  0.45045682230E+02  0.00000000000E+00 0. -1.
         11    1    3    3    0    0  0.32101837600E+00  0.72559726102E+00  0.59079120098E+00  0.98923136182E+00  0.51100000000E-03 0. -1.
        -11    1    3    3    0    0  0.25193783718E+02 -0.29619584940E+01  0.27682133586E+02  0.37547309575E+02  0.51100000000E-03 0.  1.
         12    1    3    3    0    0  0.19387918386E+01 -0.80733858992E+00  0.73100705774E+01  0.76057768333E+01  0.00000000000E+00 0. -1.
</event>
<event>
 7    1  0.2313935E-008  0.4614232E+02  0.7816164E-02  0.1320468E+00
        -11   -1    0    0    0    0  0.00000000000E+00  0.00000000000E+00  0.45593999997E+02  0.45594000000E+02  0.51100000000E-03 0.  1.
         11   -1    0    0    0    0 -0.00000000000E+00 -0.00000000000E+00 -0.45593999997E+02  0.45594000000E+02  0.51100000000E-03 0. -1.
    9900012    2    1    2    0    0  0.30341745840E+01  0.43430250428E+02  0.11563764937E+02  0.46142317331E+02  0.99999960759E+01 0.  0.
         12    1    1    2    0    0 -0.30341745840E+01 -0.43430250428E+02 -0.11563764937E+02  0.45045682669E+02  0.00000000000E+00 0. -1.
         11    1    3    3    0    0 -0.13661005762E+01  0.70581344077E+01  0.41393521267E+01  0.82956451461E+01  0.51100000000E-03 0. -1.
        -11    1    3    3    0    0  0.50906316014E+01  0.35403276794E+02  0.77825421476E+01  0.36604296201E+02  0.51100000000E-03 0.  1.
        -12    1    3    3    0    0 -0.69035644118E+00  0.96883922615E+00 -0.35812933727E+00  0.12423759834E+01  0.00000000000E+00 0.  1.
</event>
<event>
 7    1  0.2313935E-008  0.4614232E+02  0.7816164E-02  0.1320468E+00
        -11   -1    0    0    0    0  0.00000000000E+00  0.00000000000E+00  0.45593999997E+02  0.45594000000E+02  0.51100000000E-03 0.  1.
         11   -1    0    0    0    0 -0.00000000000E+00 -0.00000000000E+00 -0.45593999997E+02  0.45594000000E+02  0.51100000000E-03 0. -1.
    9900012    2    1    2    0    0  0.24408374286E+02  0.19150005329E+01  0.37811078489E+02  0.46142316313E+02  0.99999867943E+01 0.  0.
         12    1    1    2    0    0 -0.24408374286E+02 -0.19150005329E+01 -0.37811078489E+02  0.45045683687E+02  0.00000000000E+00 0. -1.
         11    1    3    3    0    0  0.11007889510E+02 -0.87265558184E+00  0.22386852411E+02  0.24962097675E+02  0.51100000000E-03 0. -1.
        -11    1    3    3    0    0  0.31513025868E+01  0.39487227187E+00  0.70431202470E+01  0.77260711348E+01  0.51100000000E-03 0.  1.
        -12    1    3    3    0    0  0.10249182190E+02  0.23927838428E+01  0.83811058310E+01  0.13454147503E+02  0.00000000000E+00 0.  1.
</event>
<event>
 7    1  0.2313935E-008  0.4614232E+02  0.7816164E-02  0.1320468E+00
        -11   -1    0    0    0    0  0.00000000000E+00  0.00000000000E+00  0.45593999997E+02  0.45594000000E+02  0.51100000000E-03 0. -1.
         11   -1    0    0    0    0 -0.00000000000E+00 -0.00000000000E+00 -0.45593999997E+02  0.45594000000E+02  0.51100000000E-03 0.  1.
    9900012    2    1    2    0    0  0.71451902462E+01  0.37490499289E+02 -0.23927434006E+02  0.46142318979E+02  0.10000011102E+02 0.  0.
         12    1    1    2    0    0 -0.71451902462E+01 -0.37490499289E+02  0.23927434006E+02  0.45045681021E+02  0.00000000000E+00 0. -1.
         11    1    3    3    0    0  0.18269219056E+01  0.13117509602E+01 -0.30902045171E+00  0.22702044250E+01  0.51100000000E-03 0. -1.
        -11    1    3    3    0    0  0.48970279811E+00  0.43849246551E+00  0.15653502400E+00  0.67571291807E+00  0.51100000000E-03 0.  1.
        -12    1    3    3    0    0  0.48285655426E+01  0.35740255863E+02 -0.23774948579E+02  0.43196401635E+02  0.00000000000E+00 0.  1.
</event>
<event>
 7    1  0.2313935E-008  0.4614230E+02  0.7816164E-02  0.1320468E+00
        -11   -1    0    0    0    0  0.00000000000E+00  0.00000000000E+00  0.45593999997E+02  0.45594000000E+02  0.51100000000E-03 0. -1.
         11   -1    0    0    0    0 -0.00000000000E+00 -0.00000000000E+00 -0.45593999997E+02  0.45594000000E+02  0.51100000000E-03 0.  1.
    9900012    2    1    2    0    0 -0.38327814000E+02  0.14074784173E+02 -0.19026134893E+02  0.46142304484E+02  0.99998789292E+01 0.  0.
         12    1    1    2    0    0  0.38327814000E+02 -0.14074784173E+02  0.19026134893E+02  0.45045695516E+02  0.00000000000E+00 0. -1.
         11    1    3    3    0    0 -0.27405846668E+02  0.64736018013E+01 -0.13670173614E+02  0.31302741075E+02  0.51100000000E-03 0.  1.
        -11    1    3    3    0    0 -0.38755841514E+01  0.39447369994E+01 -0.39041822149E+01  0.67693235657E+01  0.51100000000E-03 0. -1.
        -12    1    3    3    0    0 -0.70463831801E+01  0.36564453724E+01 -0.14517790642E+01  0.80702398436E+01  0.00000000000E+00 0.  1.
</event>
<event>
 7    1  0.2313935E-008  0.4614232E+02  0.7816164E-02  0.1320468E+00
        -11   -1    0    0    0    0  0.00000000000E+00  0.00000000000E+00  0.45593999997E+02  0.45594000000E+02  0.51100000000E-03 0. -1.
         11   -1    0    0    0    0 -0.00000000000E+00 -0.00000000000E+00 -0.45593999997E+02  0.45594000000E+02  0.51100000000E-03 0.  1.
    9900012    2    1    2    0    0  0.20992192913E+02 -0.39067145210E+02  0.78866737186E+01  0.46142316295E+02  0.99999866290E+01 0.  0.
         12    1    1    2    0    0 -0.20992192913E+02  0.39067145210E+02 -0.78866737186E+01  0.45045683705E+02  0.00000000000E+00 0. -1.
         11    1    3    3    0    0  0.72998171984E+00 -0.17371452141E+00  0.60306770305E+00  0.96267386057E+00  0.51100000000E-03 0. -1.
        -11    1    3    3    0    0  0.14315103785E+02 -0.18792019326E+02  0.41038142554E+01  0.23977144918E+02  0.51100000000E-03 0.  1.
         12    1    3    3    0    0  0.59471074079E+01 -0.20101411362E+02  0.31797917602E+01  0.21202497516E+02  0.00000000000E+00 0. -1.
</event>
<event>
 7    1  0.2313935E-008  0.4614232E+02  0.7816164E-02  0.1320468E+00
        -11   -1    0    0    0    0  0.00000000000E+00  0.00000000000E+00  0.45593999997E+02  0.45594000000E+02  0.51100000000E-03 0.  1.
         11   -1    0    0    0    0 -0.00000000000E+00 -0.00000000000E+00 -0.45593999997E+02  0.45594000000E+02  0.51100000000E-03 0. -1.
    9900012    2    1    2    0    0 -0.20079118654E+02  0.32599473208E+02  0.23732190079E+02  0.46142317573E+02  0.99999982842E+01 0.  0.
         12    1    1    2    0    0  0.20079118654E+02 -0.32599473208E+02 -0.23732190079E+02  0.45045682427E+02  0.00000000000E+00 0. -1.
         11    1    3    3    0    0 -0.74281504814E+01  0.18655176906E+02  0.12225535540E+02  0.23508652970E+02  0.51100000000E-03 0. -1.
        -11    1    3    3    0    0 -0.78550223286E+01  0.11474682526E+02  0.68219911863E+01  0.15489005096E+02  0.51100000000E-03 0.  1.
         12    1    3    3    0    0 -0.47959458440E+01  0.24696137764E+01  0.46846633529E+01  0.71446595072E+01  0.00000000000E+00 0. -1.
</event>
<event>
 7    1  0.2313935E-008  0.4614232E+02  0.7816164E-02  0.1320468E+00
        -11   -1    0    0    0    0  0.00000000000E+00  0.00000000000E+00  0.45593999997E+02  0.45594000000E+02  0.51100000000E-03 0. -1.
         11   -1    0    0    0    0 -0.00000000000E+00 -0.00000000000E+00 -0.45593999997E+02  0.45594000000E+02  0.51100000000E-03 0.  1.
    9900012    2    1    2    0    0 -0.15292661204E+02 -0.27281327157E+02 -0.32418778113E+02  0.46142317937E+02  0.10000001605E+02 0.  0.
         12    1    1    2    0    0  0.15292661204E+02  0.27281327157E+02  0.32418778113E+02  0.45045682063E+02  0.00000000000E+00 0. -1.
         11    1    3    3    0    0 -0.23225261208E+01 -0.54692874695E+01 -0.11973509419E+02  0.13366830630E+02  0.51100000000E-03 0. -1.
        -11    1    3    3    0    0 -0.47997566373E+01 -0.52793106706E+01 -0.48923400191E+01  0.86512297425E+01  0.51100000000E-03 0.  1.
        -12    1    3    3    0    0 -0.81703784462E+01 -0.16532729017E+02 -0.15552928675E+02  0.24124257565E+02  0.00000000000E+00 0.  1.
</event>
<event>
 7    1  0.2313935E-008  0.4614232E+02  0.7816164E-02  0.1320468E+00
        -11   -1    0    0    0    0  0.00000000000E+00  0.00000000000E+00  0.45593999997E+02  0.45594000000E+02  0.51100000000E-03 0.  1.
         11   -1    0    0    0    0 -0.00000000000E+00 -0.00000000000E+00 -0.45593999997E+02  0.45594000000E+02  0.51100000000E-03 0. -1.
    9900012    2    1    2    0    0 -0.45029476039E+02 -0.57863226817E+00 -0.10607438513E+01  0.46142315355E+02  0.99999780556E+01 0.  0.
         12    1    1    2    0    0  0.45029476039E+02  0.57863226817E+00  0.10607438513E+01  0.45045684645E+02  0.00000000000E+00 0. -1.
         11    1    3    3    0    0 -0.47619080258E+00  0.46436054249E+00 -0.53030896762E+00  0.85065636784E+00  0.51100000000E-03 0. -1.
        -11    1    3    3    0    0 -0.24589745199E+02 -0.63637869824E+00  0.37169924441E+01  0.24877230149E+02  0.51100000000E-03 0.  1.
         12    1    3    3    0    0 -0.19963540037E+02 -0.40661411242E+00 -0.42474273278E+01  0.20414428837E+02  0.00000000000E+00 0. -1.
</event>
<event>
 7    1  0.2313935E-008  0.4614232E+02  0.7816164E-02  0.1320468E+00
        -11   -1    0    0    0    0  0.00000000000E+00  0.00000000000E+00  0.45593999997E+02  0.45594000000E+02  0.51100000000E-03 0.  1.
         11   -1    0    0    0    0 -0.00000000000E+00 -0.00000000000E+00 -0.45593999997E+02  0.45594000000E+02  0.51100000000E-03 0. -1.
    9900012    2    1    2    0    0 -0.36979002649E+02 -0.25672713140E+02  0.16058528679E+01  0.46142316519E+02  0.99999886729E+01 0.  0.
         12    1    1    2    0    0  0.36979002649E+02  0.25672713140E+02 -0.16058528679E+01  0.45045683481E+02  0.00000000000E+00 0. -1.
         11    1    3    3    0    0 -0.28013402673E+02 -0.20781851400E+02 -0.17189777654E+01  0.34922642537E+02  0.51100000000E-03 0. -1.
        -11    1    3    3    0    0 -0.68971047646E+01 -0.46456623318E+01  0.37024109114E+01  0.91027512023E+01  0.51100000000E-03 0.  1.
        -12    1    3    3    0    0 -0.20684952114E+01 -0.24519940733E+00 -0.37758027803E+00  0.21169227798E+01  0.00000000000E+00 0.  1.
</event>
<event>
 7    1  0.2313935E-008  0.4614232E+02  0.7816164E-02  0.1320468E+00
        -11   -1    0    0    0    0  0.00000000000E+00  0.00000000000E+00  0.45593999997E+02  0.45594000000E+02  0.51100000000E-03 0.  1.
         11   -1    0    0    0    0 -0.00000000000E+00 -0.00000000000E+00 -0.45593999997E+02  0.45594000000E+02  0.51100000000E-03 0. -1.
    9900012    2    1    2    0    0 -0.34266341097E+02 -0.38148314373E+01  0.28989280552E+02  0.46142318098E+02  0.10000003073E+02 0.  0.
         12    1    1    2    0    0  0.34266341097E+02  0.38148314373E+01 -0.28989280552E+02  0.45045681902E+02  0.00000000000E+00 0. -1.
         11    1    3    3    0    0 -0.23433458260E+02 -0.28359896018E+01  0.22457570948E+02  0.32580857818E+02  0.51100000000E-03 0. -1.
        -11    1    3    3    0    0 -0.36901859249E+01 -0.16890007078E+00  0.49916353306E+01  0.62098649686E+01  0.51100000000E-03 0.  1.
         12    1    3    3    0    0 -0.71426969129E+01 -0.80994176479E+00  0.15400742728E+01  0.73515953110E+01  0.00000000000E+00 0. -1.
</event>
<event>
 7    1  0.2313935E-008  0.4614232E+02  0.7816164E-02  0.1320468E+00
        -11   -1    0    0    0    0  0.00000000000E+00  0.00000000000E+00  0.45593999997E+02  0.45594000000E+02  0.51100000000E-03 0. -1.
         11   -1    0    0    0    0 -0.00000000000E+00 -0.00000000000E+00 -0.45593999997E+02  0.45594000000E+02  0.51100000000E-03 0.  1.
    9900012    2    1    2    0    0 -0.19846235968E+02  0.39393672847E+02  0.91312088364E+01  0.46142317440E+02  0.99999970684E+01 0.  0.
         12    1    1    2    0    0  0.19846235968E+02 -0.39393672847E+02 -0.91312088364E+01  0.45045682560E+02  0.00000000000E+00 0. -1.
         11    1    3    3    0    0 -0.35913950403E+01  0.41893530349E+01  0.85015824953E+00  0.55831502306E+01  0.51100000000E-03 0.  1.
        -11    1    3    3    0    0 -0.10066234340E+02  0.16378654332E+02  0.38884807051E+00  0.19228639957E+02  0.51100000000E-03 0. -1.
         12    1    3    3    0    0 -0.61886065874E+01  0.18825665481E+02  0.78922025163E+01  0.21330527252E+02  0.00000000000E+00 0. -1.
</event>
<event>
 7    1  0.2313935E-008  0.4614232E+02  0.7816164E-02  0.1320468E+00
        -11   -1    0    0    0    0  0.00000000000E+00  0.00000000000E+00  0.45593999997E+02  0.45594000000E+02  0.51100000000E-03 0.  1.
         11   -1    0    0    0    0 -0.00000000000E+00 -0.00000000000E+00 -0.45593999997E+02  0.45594000000E+02  0.51100000000E-03 0. -1.
    9900012    2    1    2    0    0  0.15382429748E+02  0.11397890572E+02  0.40774777096E+02  0.46142317613E+02  0.99999986539E+01 0.  0.
         12    1    1    2    0    0 -0.15382429748E+02 -0.11397890572E+02 -0.40774777096E+02  0.45045682387E+02  0.00000000000E+00 0. -1.
         11    1    3    3    0    0  0.12075072967E+01  0.36384402816E+01  0.80336588812E+01  0.89014603765E+01  0.51100000000E-03 0. -1.
        -11    1    3    3    0    0  0.39863993758E+01 -0.38736776485E+00  0.12798240389E+02  0.13410309135E+02  0.51100000000E-03 0.  1.
         12    1    3    3    0    0  0.10188523076E+02  0.81468180551E+01  0.19942877825E+02  0.23830548102E+02  0.00000000000E+00 0. -1.
</event>
<event>
 7    1  0.2313935E-008  0.4614232E+02  0.7816164E-02  0.1320468E+00
        -11   -1    0    0    0    0  0.00000000000E+00  0.00000000000E+00  0.45593999997E+02  0.45594000000E+02  0.51100000000E-03 0.  1.
         11   -1    0    0    0    0 -0.00000000000E+00 -0.00000000000E+00 -0.45593999997E+02  0.45594000000E+02  0.51100000000E-03 0. -1.
    9900012    2    1    2    0    0 -0.39456030823E+02 -0.12761594383E+01  0.21695772335E+02  0.46142317761E+02  0.99999999968E+01 0.  0.
         12    1    1    2    0    0  0.39456030823E+02  0.12761594383E+01 -0.21695772335E+02  0.45045682239E+02  0.00000000000E+00 0. -1.
         11    1    3    3    0    0 -0.18553923370E+02  0.26958998048E+01  0.65053955358E+01  0.19845304722E+02  0.51100000000E-03 0. -1.
        -11    1    3    3    0    0 -0.16284434937E+02 -0.19303006379E+01  0.11143703049E+02  0.19826522632E+02  0.51100000000E-03 0.  1.
         12    1    3    3    0    0 -0.46176725158E+01 -0.20417586052E+01  0.40466737493E+01  0.64704904064E+01  0.00000000000E+00 0. -1.
</event>
<event>
 7    1  0.2313935E-008  0.4614232E+02  0.7816164E-02  0.1320468E+00
        -11   -1    0    0    0    0  0.00000000000E+00  0.00000000000E+00  0.45593999997E+02  0.45594000000E+02  0.51100000000E-03 0.  1.
         11   -1    0    0    0    0 -0.00000000000E+00 -0.00000000000E+00 -0.45593999997E+02  0.45594000000E+02  0.51100000000E-03 0. -1.
    9900012    2    1    2    0    0  0.12589499547E+02  0.33598878614E+02  0.27234782043E+02  0.46142317678E+02  0.99999992427E+01 0.  0.
         12    1    1    2    0    0 -0.12589499547E+02 -0.33598878614E+02 -0.27234782043E+02  0.45045682322E+02  0.00000000000E+00 0. -1.
         11    1    3    3    0    0  0.37739806125E+00  0.94977262692E+00  0.33141062568E+01  0.34681115729E+01  0.51100000000E-03 0. -1.
        -11    1    3    3    0    0  0.53264558440E+01  0.20971039044E+02  0.16568743465E+02  0.27252135159E+02  0.51100000000E-03 0.  1.
        -12    1    3    3    0    0  0.68856456421E+01  0.11678066943E+02  0.73519323208E+01  0.15422070946E+02  0.00000000000E+00 0.  1.
</event>
<event>
 7    1  0.2313935E-008  0.4614232E+02  0.7816164E-02  0.1320468E+00
        -11   -1    0    0    0    0  0.00000000000E+00  0.00000000000E+00  0.45593999997E+02  0.45594000000E+02  0.51100000000E-03 0.  1.
         11   -1    0    0    0    0 -0.00000000000E+00 -0.00000000000E+00 -0.45593999997E+02  0.45594000000E+02  0.51100000000E-03 0. -1.
    9900012    2    1    2    0    0  0.13404211176E+00 -0.62190489074E+01  0.44614111439E+02  0.46142317898E+02  0.10000001244E+02 0.  0.
         12    1    1    2    0    0 -0.13404211176E+00  0.62190489074E+01 -0.44614111439E+02  0.45045682102E+02  0.00000000000E+00 0. -1.
         11    1    3    3    0    0  0.16178785547E+01 -0.92670432266E+00  0.31508898498E+01  0.36612045867E+01  0.51100000000E-03 0. -1.
        -11    1    3    3    0    0 -0.33593644442E+01 -0.17881130428E+01  0.31880374491E+02  0.32106712003E+02  0.51100000000E-03 0.  1.
        -12    1    3    3    0    0  0.18755280013E+01 -0.35042315420E+01  0.95828470982E+01  0.10374401308E+02  0.00000000000E+00 0.  1.
</event>
<event>
 7    1  0.2313935E-008  0.4614232E+02  0.7816164E-02  0.1320468E+00
        -11   -1    0    0    0    0  0.00000000000E+00  0.00000000000E+00  0.45593999997E+02  0.45594000000E+02  0.51100000000E-03 0.  1.
         11   -1    0    0    0    0 -0.00000000000E+00 -0.00000000000E+00 -0.45593999997E+02  0.45594000000E+02  0.51100000000E-03 0. -1.
    9900012    2    1    2    0    0 -0.19496935739E+02  0.21476524820E+02  0.34463630978E+02  0.46142317834E+02  0.10000000669E+02 0.  0.
         12    1    1    2    0    0  0.19496935739E+02 -0.21476524820E+02 -0.34463630978E+02  0.45045682166E+02  0.00000000000E+00 0. -1.
         11    1    3    3    0    0 -0.64670841026E+01  0.70187416981E+01  0.65943966188E+01  0.11600516318E+02  0.51100000000E-03 0. -1.
        -11    1    3    3    0    0  0.61706381203E+00  0.12934216454E+01  0.16654514155E+01  0.21971426853E+01  0.51100000000E-03 0.  1.
        -12    1    3    3    0    0 -0.13646915449E+02  0.13164361477E+02  0.26203782944E+02  0.32344658831E+02  0.00000000000E+00 0.  1.
</event>
<event>
 7    1  0.2313935E-008  0.4614232E+02  0.7816164E-02  0.1320468E+00
        -11   -1    0    0    0    0  0.00000000000E+00  0.00000000000E+00  0.45593999997E+02  0.45594000000E+02  0.51100000000E-03 0.  1.
         11   -1    0    0    0    0 -0.00000000000E+00 -0.00000000000E+00 -0.45593999997E+02  0.45594000000E+02  0.51100000000E-03 0. -1.
    9900012    2    1    2    0    0 -0.19745959700E+02  0.42888467675E+01  0.40259365065E+02  0.46142316450E+02  0.99999880444E+01 0.  0.
         12    1    1    2    0    0  0.19745959700E+02 -0.42888467675E+01 -0.40259365065E+02  0.45045683550E+02  0.00000000000E+00 0. -1.
         11    1    3    3    0    0 -0.14809516334E+02  0.41288829761E+01  0.22191707578E+02  0.26997061584E+02  0.51100000000E-03 0. -1.
        -11    1    3    3    0    0 -0.29562949159E+01  0.19782380443E+01  0.86893769925E+01  0.93892693096E+01  0.51100000000E-03 0.  1.
        -12    1    3    3    0    0 -0.19801484493E+01 -0.18182742529E+01  0.93782804949E+01  0.97559855566E+01  0.00000000000E+00 0.  1.
</event>
<event>
 7    1  0.2313935E-008  0.4614232E+02  0.7816164E-02  0.1320468E+00
        -11   -1    0    0    0    0  0.00000000000E+00  0.00000000000E+00  0.45593999997E+02  0.45594000000E+02  0.51100000000E-03 0.  1.
         11   -1    0    0    0    0 -0.00000000000E+00 -0.00000000000E+00 -0.45593999997E+02  0.45594000000E+02  0.51100000000E-03 0. -1.
    9900012    2    1    2    0    0  0.14061598100E+02  0.75494759601E+01  0.42123513080E+02  0.46142317825E+02  0.10000000583E+02 0.  0.
         12    1    1    2    0    0 -0.14061598100E+02 -0.75494759601E+01 -0.42123513080E+02  0.45045682175E+02  0.00000000000E+00 0. -1.
         11    1    3    3    0    0  0.31378357795E+01  0.50856261851E+01  0.97177402648E+01  0.11408070967E+02  0.51100000000E-03 0. -1.
        -11    1    3    3    0    0  0.79877773071E+01  0.37629061891E+01  0.19031777797E+02  0.20980291124E+02  0.51100000000E-03 0.  1.
         12    1    3    3    0    0  0.29359850130E+01 -0.12990564141E+01  0.13373995019E+02  0.13753955734E+02  0.00000000000E+00 0. -1.
</event>
<event>
 7    1  0.2313935E-008  0.4614232E+02  0.7816164E-02  0.1320468E+00
        -11   -1    0    0    0    0  0.00000000000E+00  0.00000000000E+00  0.45593999997E+02  0.45594000000E+02  0.51100000000E-03 0. -1.
         11   -1    0    0    0    0 -0.00000000000E+00 -0.00000000000E+00 -0.45593999997E+02  0.45594000000E+02  0.51100000000E-03 0.  1.
    9900012    2    1    2    0    0 -0.37158906790E+02 -0.11373090314E+02  0.22781176573E+02  0.46142317153E+02  0.99999944545E+01 0.  0.
         12    1    1    2    0    0  0.37158906790E+02  0.11373090314E+02 -0.22781176573E+02  0.45045682847E+02  0.00000000000E+00 0. -1.
         11    1    3    3    0    0 -0.10241006797E+02  0.19470111187E-01  0.68886729464E+01  0.12342301832E+02  0.51100000000E-03 0. -1.
        -11    1    3    3    0    0 -0.28705545897E+01 -0.30780562696E+01  0.36167179333E+01  0.55493389625E+01  0.51100000000E-03 0.  1.
        -12    1    3    3    0    0 -0.24047345403E+02 -0.83145041552E+01  0.12275785693E+02  0.28250676358E+02  0.00000000000E+00 0.  1.
</event>
<event>
 7    1  0.2313935E-008  0.4614232E+02  0.7816164E-02  0.1320468E+00
        -11   -1    0    0    0    0  0.00000000000E+00  0.00000000000E+00  0.45593999997E+02  0.45594000000E+02  0.51100000000E-03 0. -1.
         11   -1    0    0    0    0 -0.00000000000E+00 -0.00000000000E+00 -0.45593999997E+02  0.45594000000E+02  0.51100000000E-03 0.  1.
    9900012    2    1    2    0    0 -0.42054157254E-01  0.12997265168E+02 -0.43129836959E+02  0.46142317560E+02  0.99999981635E+01 0.  0.
         12    1    1    2    0    0  0.42054157254E-01 -0.12997265168E+02  0.43129836959E+02  0.45045682440E+02  0.00000000000E+00 0. -1.
         11    1    3    3    0    0 -0.30035965479E+01  0.51958911592E+01 -0.10002245978E+02  0.11664638959E+02  0.51100000000E-03 0. -1.
        -11    1    3    3    0    0  0.39444112317E+01  0.71796680068E+01 -0.26126532388E+02  0.27380681283E+02  0.51100000000E-03 0.  1.
         12    1    3    3    0    0 -0.98286884098E+00  0.62170600183E+00 -0.70010585932E+01  0.70969973184E+01  0.00000000000E+00 0. -1.
</event>
<event>
 7    1  0.2313935E-008  0.4614232E+02  0.7816164E-02  0.1320468E+00
        -11   -1    0    0    0    0  0.00000000000E+00  0.00000000000E+00  0.45593999997E+02  0.45594000000E+02  0.51100000000E-03 0.  1.
         11   -1    0    0    0    0 -0.00000000000E+00 -0.00000000000E+00 -0.45593999997E+02  0.45594000000E+02  0.51100000000E-03 0. -1.
    9900012    2    1    2    0    0  0.22460873512E+02 -0.19765194631E+02  0.33674310776E+02  0.46142323582E+02  0.10000053079E+02 0.  0.
         12    1    1    2    0    0 -0.22460873512E+02  0.19765194631E+02 -0.33674310776E+02  0.45045676418E+02  0.00000000000E+00 0. -1.
         11    1    3    3    0    0  0.14048224104E+01 -0.22159200407E+01  0.22015080648E+01  0.34249767374E+01  0.51100000000E-03 0. -1.
        -11    1    3    3    0    0  0.10139855224E+02 -0.93107236146E+01  0.22444726618E+02  0.26330058705E+02  0.51100000000E-03 0.  1.
         12    1    3    3    0    0  0.10916195878E+02 -0.82385509759E+01  0.90280760929E+01  0.16387288139E+02  0.00000000000E+00 0. -1.
</event>
<event>
 7    1  0.2313935E-008  0.4614232E+02  0.7816164E-02  0.1320468E+00
        -11   -1    0    0    0    0  0.00000000000E+00  0.00000000000E+00  0.45593999997E+02  0.45594000000E+02  0.51100000000E-03 0.  1.
         11   -1    0    0    0    0 -0.00000000000E+00 -0.00000000000E+00 -0.45593999997E+02  0.45594000000E+02  0.51100000000E-03 0. -1.
    9900012    2    1    2    0    0  0.17468825563E+02 -0.20357566221E+02  0.36187333068E+02  0.46142318258E+02  0.10000004532E+02 0.  0.
         12    1    1    2    0    0 -0.17468825563E+02  0.20357566221E+02 -0.36187333068E+02  0.45045681742E+02  0.00000000000E+00 0. -1.
         11    1    3    3    0    0  0.44533304836E+01 -0.26043537595E+01  0.59228754898E+01  0.78546333606E+01  0.51100000000E-03 0. -1.
        -11    1    3    3    0    0  0.27810291225E+01 -0.97282074500E+01  0.10125070266E+02  0.14313950933E+02  0.51100000000E-03 0.  1.
         12    1    3    3    0    0  0.10234465957E+02 -0.80250050118E+01  0.20139387313E+02  0.23973733964E+02  0.00000000000E+00 0. -1.
</event>
<event>
 7    1  0.2313935E-008  0.4614232E+02  0.7816164E-02  0.1320468E+00
        -11   -1    0    0    0    0  0.00000000000E+00  0.00000000000E+00  0.45593999997E+02  0.45594000000E+02  0.51100000000E-03 0.  1.
         11   -1    0    0    0    0 -0.00000000000E+00 -0.00000000000E+00 -0.45593999997E+02  0.45594000000E+02  0.51100000000E-03 0. -1.
    9900012    2    1    2    0    0 -0.11559331159E+02 -0.38111695219E+01  0.43370155105E+02  0.46142317590E+02  0.99999984384E+01 0.  0.
         12    1    1    2    0    0  0.11559331159E+02  0.38111695219E+01 -0.43370155105E+02  0.45045682410E+02  0.00000000000E+00 0. -1.
         11    1    3    3    0    0 -0.41240710178E+01 -0.17980251583E+01  0.20102194965E+02  0.20599492686E+02  0.51100000000E-03 0. -1.
        -11    1    3    3    0    0 -0.45216242959E+01 -0.19099688018E+01  0.21668392263E+02  0.22217387124E+02  0.51100000000E-03 0.  1.
         12    1    3    3    0    0 -0.29136358457E+01 -0.10317556174E+00  0.15995678770E+01  0.33254377804E+01  0.00000000000E+00 0. -1.
</event>
<event>
 7    1  0.2313935E-008  0.4614232E+02  0.7816164E-02  0.1320468E+00
        -11   -1    0    0    0    0  0.00000000000E+00  0.00000000000E+00  0.45593999997E+02  0.45594000000E+02  0.51100000000E-03 0.  1.
         11   -1    0    0    0    0 -0.00000000000E+00 -0.00000000000E+00 -0.45593999997E+02  0.45594000000E+02  0.51100000000E-03 0. -1.
    9900012    2    1    2    0    0 -0.37519323727E+02 -0.41358414173E+01  0.24582690069E+02  0.46142317763E+02  0.10000000017E+02 0.  0.
         12    1    1    2    0    0  0.37519323727E+02  0.41358414173E+01 -0.24582690069E+02  0.45045682237E+02  0.00000000000E+00 0. -1.
         11    1    3    3    0    0 -0.85509680369E+01 -0.22699512122E+01  0.32722937441E+01  0.94329019651E+01  0.51100000000E-03 0. -1.
        -11    1    3    3    0    0 -0.18529741395E+01  0.63344945431E+00  0.39697325226E+01  0.44264599778E+01  0.51100000000E-03 0.  1.
        -12    1    3    3    0    0 -0.27115381550E+02 -0.24993396594E+01  0.17340663803E+02  0.32282955820E+02  0.00000000000E+00 0.  1.
</event>
<event>
 7    1  0.2313935E-008  0.4614232E+02  0.7816164E-02  0.1320468E+00
        -11   -1    0    0    0    0  0.00000000000E+00  0.00000000000E+00  0.45593999997E+02  0.45594000000E+02  0.51100000000E-03 0.  1.
         11   -1    0    0    0    0 -0.00000000000E+00 -0.00000000000E+00 -0.45593999997E+02  0.45594000000E+02  0.51100000000E-03 0. -1.
    9900012    2    1    2    0    0 -0.53922547687E+01  0.37929217021E+02  0.23694124520E+02  0.46142318164E+02  0.10000003670E+02 0.  0.
         12    1    1    2    0    0  0.53922547687E+01 -0.37929217021E+02 -0.23694124520E+02  0.45045681836E+02  0.00000000000E+00 0. -1.
         11    1    3    3    0    0 -0.30142171281E+01  0.12758533910E+02  0.95636618407E+01  0.16227424949E+02  0.51100000000E-03 0. -1.
        -11    1    3    3    0    0 -0.26333135013E+00  0.20228926396E+02  0.79826758161E+01  0.21748607312E+02  0.51100000000E-03 0.  1.
         12    1    3    3    0    0 -0.21147062905E+01  0.49417567152E+01  0.61477868632E+01  0.81662859025E+01  0.00000000000E+00 0. -1.
</event>
<event>
 7    1  0.2613939E-008  0.4614232E+02  0.7816164E-02  0.1320468E+00
        -11   -1    0    0    0    0  0.00000000000E+00  0.00000000000E+00  0.45593999997E+02  0.45594000000E+02  0.51100000000E-03 0. -1.
         11   -1    0    0    0    0 -0.00000000000E+00 -0.00000000000E+00 -0.45593999997E+02  0.45594000000E+02  0.51100000000E-03 0.  1.
    9900012    2    1    2    0    0 -0.36560490777E+02 -0.26261992827E+02 -0.16588222817E+01  0.46142318248E+02  0.10000004444E+02 0.  0.
         12    1    1    2    0    0  0.36560490777E+02  0.26261992827E+02  0.16588222817E+01  0.45045681752E+02  0.00000000000E+00 0. -1.
         11    1    3    3    0    0 -0.15210131511E+01 -0.25932457539E+01 -0.10227678057E+01  0.31756036893E+01  0.51100000000E-03 0. -1.
        -11    1    3    3    0    0 -0.20122464093E+02 -0.15922492677E+02 -0.35601876785E+01  0.25905873287E+02  0.51100000000E-03 0.  1.
         12    1    3    3    0    0 -0.14917013533E+02 -0.77462543965E+01  0.29241332025E+01  0.17060841272E+02  0.00000000000E+00 0. -1.
</event>
<event>
 7    1  0.2313935E-008  0.4614232E+02  0.7816164E-02  0.1320468E+00
        -11   -1    0    0    0    0  0.00000000000E+00  0.00000000000E+00  0.45593999997E+02  0.45594000000E+02  0.51100000000E-03 0.  1.
         11   -1    0    0    0    0 -0.00000000000E+00 -0.00000000000E+00 -0.45593999997E+02  0.45594000000E+02  0.51100000000E-03 0. -1.
    9900012    2    1    2    0    0  0.20912402846E+01  0.75346896718E+01  0.44361791008E+02  0.46142319454E+02  0.10000015440E+02 0.  0.
         12    1    1    2    0    0 -0.20912402846E+01 -0.75346896718E+01 -0.44361791008E+02  0.45045680546E+02  0.00000000000E+00 0. -1.
         11    1    3    3    0    0  0.36322064373E+00  0.16208672442E+01  0.81001004981E+01  0.82686618143E+01  0.51100000000E-03 0. -1.
        -11    1    3    3    0    0  0.26896063079E+01  0.61017693161E+01  0.36285952108E+02  0.36893575207E+02  0.51100000000E-03 0.  1.
         12    1    3    3    0    0 -0.96158666695E+00 -0.18794688852E+00 -0.24261598126E-01  0.98008243332E+00  0.00000000000E+00 0. -1.
</event>
<event>
 7    1  0.2313935E-008  0.4614232E+02  0.7816164E-02  0.1320468E+00
        -11   -1    0    0    0    0  0.00000000000E+00  0.00000000000E+00  0.45593999997E+02  0.45594000000E+02  0.51100000000E-03 0.  1.
         11   -1    0    0    0    0 -0.00000000000E+00 -0.00000000000E+00 -0.45593999997E+02  0.45594000000E+02  0.51100000000E-03 0. -1.
    9900012    2    1    2    0    0 -0.36364517450E+02  0.81975699345E+01  0.25289031770E+02  0.46142318630E+02  0.10000007926E+02 0.  0.
         12    1    1    2    0    0  0.36364517450E+02 -0.81975699345E+01 -0.25289031770E+02  0.45045681370E+02  0.00000000000E+00 0. -1.
         11    1    3    3    0    0 -0.95136051173E+01  0.43663932992E+01  0.43752318585E+01  0.11345339433E+02  0.51100000000E-03 0. -1.
        -11    1    3    3    0    0 -0.26859133195E+02  0.30590466959E+01  0.20446711874E+02  0.33894525066E+02  0.51100000000E-03 0.  1.
        -12    1    3    3    0    0  0.82208623455E-02  0.77212993942E+00  0.46708803680E+00  0.90245413183E+00  0.00000000000E+00 0.  1.
</event>
<event>
 7    1  0.2313935E-008  0.4614232E+02  0.7816164E-02  0.1320468E+00
        -11   -1    0    0    0    0  0.00000000000E+00  0.00000000000E+00  0.45593999997E+02  0.45594000000E+02  0.51100000000E-03 0.  1.
         11   -1    0    0    0    0 -0.00000000000E+00 -0.00000000000E+00 -0.45593999997E+02  0.45594000000E+02  0.51100000000E-03 0. -1.
    9900012    2    1    2    0    0 -0.32796954177E+02  0.11907302460E+02  0.28490162065E+02  0.46142318857E+02  0.10000009993E+02 0.  0.
         12    1    1    2    0    0  0.32796954177E+02 -0.11907302460E+02 -0.28490162065E+02  0.45045681143E+02  0.00000000000E+00 0. -1.
         11    1    3    3    0    0 -0.97622142221E+01  0.31652734916E+01  0.98716412883E+01  0.14239701007E+02  0.51100000000E-03 0. -1.
        -11    1    3    3    0    0 -0.18434297960E+02  0.36603598959E+01  0.15546908417E+02  0.24391144653E+02  0.51100000000E-03 0.  1.
         12    1    3    3    0    0 -0.46004419946E+01  0.50816690721E+01  0.30716123589E+01  0.75114731969E+01  0.00000000000E+00 0. -1.
</event>
<event>
 7    1  0.2313935E-008  0.4614232E+02  0.7816164E-02  0.1320468E+00
        -11   -1    0    0    0    0  0.00000000000E+00  0.00000000000E+00  0.45593999997E+02  0.45594000000E+02  0.51100000000E-03 0. -1.
         11   -1    0    0    0    0 -0.00000000000E+00 -0.00000000000E+00 -0.45593999997E+02  0.45594000000E+02  0.51100000000E-03 0.  1.
    9900012    2    1    2    0    0 -0.42307890291E+01 -0.24837260870E+02 -0.37340653918E+02  0.46142317206E+02  0.99999949363E+01 0.  0.
         12    1    1    2    0    0  0.42307890291E+01  0.24837260870E+02  0.37340653918E+02  0.45045682794E+02  0.00000000000E+00 0. -1.
         11    1    3    3    0    0 -0.55373080241E+00 -0.30459822842E+00 -0.21149642452E+00  0.66642995206E+00  0.51100000000E-03 0. -1.
        -11    1    3    3    0    0 -0.41833388894E+01 -0.19988503265E+02 -0.23673449350E+02  0.31264561271E+02  0.51100000000E-03 0.  1.
        -12    1    3    3    0    0  0.50628066269E+00 -0.45441593763E+01 -0.13455708144E+02  0.14211325983E+02  0.00000000000E+00 0.  1.
</event>
<event>
 7    1  0.2313935E-008  0.4614232E+02  0.7816164E-02  0.1320468E+00
        -11   -1    0    0    0    0  0.00000000000E+00  0.00000000000E+00  0.45593999997E+02  0.45594000000E+02  0.51100000000E-03 0. -1.
         11   -1    0    0    0    0 -0.00000000000E+00 -0.00000000000E+00 -0.45593999997E+02  0.45594000000E+02  0.51100000000E-03 0.  1.
    9900012    2    1    2    0    0  0.43031149212E+02 -0.12663370364E+02 -0.41319168505E+01  0.46142317761E+02  0.10000000001E+02 0.  0.
         12    1    1    2    0    0 -0.43031149212E+02  0.12663370364E+02  0.41319168505E+01  0.45045682239E+02  0.00000000000E+00 0. -1.
         11    1    3    3    0    0  0.14246233193E+02 -0.15733254471E+01  0.22817973022E+01  0.14513342563E+02  0.51100000000E-03 0. -1.
        -11    1    3    3    0    0  0.89100548295E+01 -0.43892663004E+01 -0.30250454432E+01  0.10382949288E+02  0.51100000000E-03 0.  1.
        -12    1    3    3    0    0  0.19874861190E+02 -0.67007786165E+01 -0.33886687096E+01  0.21246025911E+02  0.00000000000E+00 0.  1.
</event>
<event>
 7    1  0.2313935E-008  0.4614232E+02  0.7816164E-02  0.1320468E+00
        -11   -1    0    0    0    0  0.00000000000E+00  0.00000000000E+00  0.45593999997E+02  0.45594000000E+02  0.51100000000E-03 0.  1.
         11   -1    0    0    0    0 -0.00000000000E+00 -0.00000000000E+00 -0.45593999997E+02  0.45594000000E+02  0.51100000000E-03 0. -1.
    9900012    2    1    2    0    0 -0.23146992876E+02 -0.32273401311E+02  0.21254593860E+02  0.46142317947E+02  0.10000001699E+02 0.  0.
         12    1    1    2    0    0  0.23146992876E+02  0.32273401311E+02 -0.21254593860E+02  0.45045682053E+02  0.00000000000E+00 0. -1.
         11    1    3    3    0    0 -0.76534047237E+01 -0.11004066130E+02  0.95684268573E+01  0.16468723935E+02  0.51100000000E-03 0. -1.
        -11    1    3    3    0    0 -0.99729011104E+01 -0.17974712385E+02  0.10684638028E+02  0.23167013876E+02  0.51100000000E-03 0.  1.
         12    1    3    3    0    0 -0.55206870419E+01 -0.32946227966E+01  0.10015289747E+01  0.65065801366E+01  0.00000000000E+00 0. -1.
</event>
<event>
 7    1  0.2313935E-008  0.4614233E+02  0.7816164E-02  0.1320468E+00
        -11   -1    0    0    0    0  0.00000000000E+00  0.00000000000E+00  0.45593999997E+02  0.45594000000E+02  0.51100000000E-03 0.  1.
         11   -1    0    0    0    0 -0.00000000000E+00 -0.00000000000E+00 -0.45593999997E+02  0.45594000000E+02  0.51100000000E-03 0. -1.
    9900012    2    1    2    0    0 -0.91504165692E+01  0.33297370697E+02  0.28925206875E+02  0.46142327494E+02  0.10000088752E+02 0.  0.
         12    1    1    2    0    0  0.91504165692E+01 -0.33297370697E+02 -0.28925206875E+02  0.45045672506E+02  0.00000000000E+00 0. -1.
         11    1    3    3    0    0 -0.81444569207E+00  0.16877859350E+02  0.13895782050E+02  0.21877344835E+02  0.51100000000E-03 0. -1.
        -11    1    3    3    0    0 -0.31081715279E+01  0.19624979772E+01  0.29991247646E+01  0.47441414579E+01  0.51100000000E-03 0.  1.
        -12    1    3    3    0    0 -0.52277993491E+01  0.14457013370E+02  0.12030300061E+02  0.19520841201E+02  0.00000000000E+00 0.  1.
</event>
<event>
 7    1  0.2313935E-008  0.4614232E+02  0.7816164E-02  0.1320468E+00
        -11   -1    0    0    0    0  0.00000000000E+00  0.00000000000E+00  0.45593999997E+02  0.45594000000E+02  0.51100000000E-03 0.  1.
         11   -1    0    0    0    0 -0.00000000000E+00 -0.00000000000E+00 -0.45593999997E+02  0.45594000000E+02  0.51100000000E-03 0. -1.
    9900012    2    1    2    0    0  0.26896376664E+01  0.44549082181E+02  0.61039828621E+01  0.46142317846E+02  0.10000000777E+02 0.  0.
         12    1    1    2    0    0 -0.26896376664E+01 -0.44549082181E+02 -0.61039828621E+01  0.45045682154E+02  0.00000000000E+00 0. -1.
         11    1    3    3    0    0  0.29130811522E+00  0.89787287428E+01 -0.90179341181E+00  0.90286024319E+01  0.51100000000E-03 0. -1.
        -11    1    3    3    0    0 -0.17905893021E+01  0.24213363371E+02  0.36501561897E+01  0.24552328123E+02  0.51100000000E-03 0.  1.
         12    1    3    3    0    0  0.41889188533E+01  0.11356990066E+02  0.33556200842E+01  0.12561387291E+02  0.00000000000E+00 0. -1.
</event>
<event>
 7    1  0.2313935E-008  0.4614232E+02  0.7816164E-02  0.1320468E+00
        -11   -1    0    0    0    0  0.00000000000E+00  0.00000000000E+00  0.45593999997E+02  0.45594000000E+02  0.51100000000E-03 0. -1.
         11   -1    0    0    0    0 -0.00000000000E+00 -0.00000000000E+00 -0.45593999997E+02  0.45594000000E+02  0.51100000000E-03 0.  1.
    9900012    2    1    2    0    0  0.96793812596E+01 -0.41437700558E+02  0.14776333452E+02  0.46142317861E+02  0.10000000912E+02 0.  0.
         12    1    1    2    0    0 -0.96793812596E+01  0.41437700558E+02 -0.14776333452E+02  0.45045682139E+02  0.00000000000E+00 0. -1.
         11    1    3    3    0    0  0.18889752634E+01 -0.47438505246E+01  0.54759166390E+01  0.74871896359E+01  0.51100000000E-03 0. -1.
        -11    1    3    3    0    0  0.41476580242E+01 -0.18702503925E+02  0.51033106471E+01  0.19824996847E+02  0.51100000000E-03 0.  1.
         12    1    3    3    0    0  0.36427479721E+01 -0.17991346108E+02  0.41971061656E+01  0.18830131378E+02  0.00000000000E+00 0. -1.
</event>
<event>
 7    1  0.2313935E-008  0.4614232E+02  0.7816164E-02  0.1320468E+00
        -11   -1    0    0    0    0  0.00000000000E+00  0.00000000000E+00  0.45593999997E+02  0.45594000000E+02  0.51100000000E-03 0. -1.
         11   -1    0    0    0    0 -0.00000000000E+00 -0.00000000000E+00 -0.45593999997E+02  0.45594000000E+02  0.51100000000E-03 0.  1.
    9900012    2    1    2    0    0  0.15233713683E+02 -0.22233788647E+02 -0.36093022488E+02  0.46142315828E+02  0.99999823711E+01 0.  0.
         12    1    1    2    0    0 -0.15233713683E+02  0.22233788647E+02  0.36093022488E+02  0.45045684172E+02  0.00000000000E+00 0. -1.
         11    1    3    3    0    0  0.37773808710E+01 -0.75972761937E+01 -0.72525114670E+01  0.11161815921E+02  0.51100000000E-03 0. -1.
        -11    1    3    3    0    0  0.29414571479E+01 -0.75902705108E+01 -0.16600690598E+02  0.18489113152E+02  0.51100000000E-03 0.  1.
        -12    1    3    3    0    0  0.85148756641E+01 -0.70462419430E+01 -0.12239820424E+02  0.16491386755E+02  0.00000000000E+00 0.  1.
</event>
<event>
 7    1  0.2313935E-008  0.4614231E+02  0.7816164E-02  0.1320468E+00
        -11   -1    0    0    0    0  0.00000000000E+00  0.00000000000E+00  0.45593999997E+02  0.45594000000E+02  0.51100000000E-03 0. -1.
         11   -1    0    0    0    0 -0.00000000000E+00 -0.00000000000E+00 -0.45593999997E+02  0.45594000000E+02  0.51100000000E-03 0.  1.
    9900012    2    1    2    0    0 -0.16116786093E+00  0.44923195045E+02 -0.33157885639E+01  0.46142313393E+02  0.99999601675E+01 0.  0.
         12    1    1    2    0    0  0.16116786093E+00 -0.44923195045E+02  0.33157885639E+01  0.45045686607E+02  0.00000000000E+00 0. -1.
         11    1    3    3    0    0 -0.92174830845E+00  0.14843211926E+01  0.13486302780E+01  0.22071776627E+01  0.51100000000E-03 0. -1.
        -11    1    3    3    0    0 -0.10258107387E+01  0.12173022735E+02  0.34033706991E+00  0.12220908304E+02  0.51100000000E-03 0.  1.
        -12    1    3    3    0    0  0.17863911862E+01  0.31265851117E+02 -0.50047559117E+01  0.31714227426E+02  0.00000000000E+00 0.  1.
</event>
<event>
 7    1  0.2313935E-008  0.4614232E+02  0.7816164E-02  0.1320468E+00
        -11   -1    0    0    0    0  0.00000000000E+00  0.00000000000E+00  0.45593999997E+02  0.45594000000E+02  0.51100000000E-03 0. -1.
         11   -1    0    0    0    0 -0.00000000000E+00 -0.00000000000E+00 -0.45593999997E+02  0.45594000000E+02  0.51100000000E-03 0.  1.
    9900012    2    1    2    0    0  0.39105240150E+02 -0.12392571042E+02 -0.18609620035E+02  0.46142316721E+02  0.99999905146E+01 0.  0.
         12    1    1    2    0    0 -0.39105240150E+02  0.12392571042E+02  0.18609620035E+02  0.45045683279E+02  0.00000000000E+00 0. -1.
         11    1    3    3    0    0  0.73204628498E+01  0.77568742743E+00 -0.38120237061E+01  0.82898970028E+01  0.51100000000E-03 0. -1.
        -11    1    3    3    0    0  0.11275342420E+01 -0.18115407158E+01 -0.66100335334E+00  0.22338171201E+01  0.51100000000E-03 0.  1.
         12    1    3    3    0    0  0.30657243058E+02 -0.11356717754E+02 -0.14136592976E+02  0.35618602598E+02  0.00000000000E+00 0. -1.
</event>
<event>
 7    1  0.2313935E-008  0.4614232E+02  0.7816164E-02  0.1320468E+00
        -11   -1    0    0    0    0  0.00000000000E+00  0.00000000000E+00  0.45593999997E+02  0.45594000000E+02  0.51100000000E-03 0. -1.
         11   -1    0    0    0    0 -0.00000000000E+00 -0.00000000000E+00 -0.45593999997E+02  0.45594000000E+02  0.51100000000E-03 0.  1.
    9900012    2    1    2    0    0  0.82848609947E+01 -0.43130184557E+02  0.10013078432E+02  0.46142317840E+02  0.10000000718E+02 0.  0.
         12    1    1    2    0    0 -0.82848609947E+01  0.43130184557E+02 -0.10013078432E+02  0.45045682160E+02  0.00000000000E+00 0. -1.
         11    1    3    3    0    0 -0.84991156691E+00 -0.14660281112E+02  0.85262300373E+00  0.14709628078E+02  0.51100000000E-03 0. -1.
        -11    1    3    3    0    0  0.18760443052E+01 -0.55590352289E+01  0.50665190786E+00  0.58888972930E+01  0.51100000000E-03 0.  1.
         12    1    3    3    0    0  0.72587282564E+01 -0.22910868216E+02  0.86538035205E+01  0.25543792468E+02  0.00000000000E+00 0. -1.
</event>
<event>
 7    1  0.2313935E-008  0.4614232E+02  0.7816164E-02  0.1320468E+00
        -11   -1    0    0    0    0  0.00000000000E+00  0.00000000000E+00  0.45593999997E+02  0.45594000000E+02  0.51100000000E-03 0.  1.
         11   -1    0    0    0    0 -0.00000000000E+00 -0.00000000000E+00 -0.45593999997E+02  0.45594000000E+02  0.51100000000E-03 0. -1.
    9900012    2    1    2    0    0 -0.22873111084E+01 -0.42209768960E+02  0.15563328577E+02  0.46142316698E+02  0.99999903024E+01 0.  0.
         12    1    1    2    0    0  0.22873111084E+01  0.42209768960E+02 -0.15563328577E+02  0.45045683302E+02  0.00000000000E+00 0. -1.
         11    1    3    3    0    0 -0.37447127805E-01 -0.63494868168E+01  0.35222709687E+01  0.72611141130E+01  0.51100000000E-03 0.  1.
        -11    1    3    3    0    0 -0.10968719772E+01 -0.41286896908E+01  0.45816508356E+01  0.62642422796E+01  0.51100000000E-03 0. -1.
         12    1    3    3    0    0 -0.11529920033E+01 -0.31731592453E+02  0.74594067727E+01  0.32616960305E+02  0.00000000000E+00 0. -1.
</event>
<event>
 7    1  0.2313935E-008  0.4614232E+02  0.7816164E-02  0.1320468E+00
        -11   -1    0    0    0    0  0.00000000000E+00  0.00000000000E+00  0.45593999997E+02  0.45594000000E+02  0.51100000000E-03 0.  1.
         11   -1    0    0    0    0 -0.00000000000E+00 -0.00000000000E+00 -0.45593999997E+02  0.45594000000E+02  0.51100000000E-03 0. -1.
    9900012    2    1    2    0    0  0.24482867945E+01  0.29043599558E+02  0.34345138900E+02  0.46142319302E+02  0.10000014053E+02 0.  0.
         12    1    1    2    0    0 -0.24482867945E+01 -0.29043599558E+02 -0.34345138900E+02  0.45045680698E+02  0.00000000000E+00 0. -1.
         11    1    3    3    0    0 -0.13893699486E+01  0.17539996595E+02  0.21969531273E+02  0.28146796159E+02  0.51100000000E-03 0. -1.
        -11    1    3    3    0    0  0.20418569607E+01  0.10838544927E+02  0.95916790736E+01  0.14616550335E+02  0.51100000000E-03 0.  1.
        -12    1    3    3    0    0  0.17957997823E+01  0.66505803562E+00  0.27839285533E+01  0.33789728083E+01  0.00000000000E+00 0.  1.
</event>
<event>
 7    1  0.2313935E-008  0.4614232E+02  0.7816164E-02  0.1320468E+00
        -11   -1    0    0    0    0  0.00000000000E+00  0.00000000000E+00  0.45593999997E+02  0.45594000000E+02  0.51100000000E-03 0. -1.
         11   -1    0    0    0    0 -0.00000000000E+00 -0.00000000000E+00 -0.45593999997E+02  0.45594000000E+02  0.51100000000E-03 0.  1.
    9900012    2    1    2    0    0  0.26793603690E+02 -0.24118736275E+02 -0.27009310927E+02  0.46142317466E+02  0.99999973071E+01 0.  0.
         12    1    1    2    0    0 -0.26793603690E+02  0.24118736275E+02  0.27009310927E+02  0.45045682534E+02  0.00000000000E+00 0. -1.
         11    1    3    3    0    0  0.75202224639E+01 -0.84914225415E+01 -0.10951846103E+02  0.15767083941E+02  0.51100000000E-03 0. -1.
        -11    1    3    3    0    0  0.34008405083E+01 -0.56059022042E+01 -0.17889087854E+01  0.67964733936E+01  0.51100000000E-03 0.  1.
         12    1    3    3    0    0  0.15872540718E+02 -0.10021411530E+02 -0.14268556038E+02  0.23578760131E+02  0.00000000000E+00 0. -1.
</event>
<event>
 7    1  0.2313935E-008  0.4614232E+02  0.7816164E-02  0.1320468E+00
        -11   -1    0    0    0    0  0.00000000000E+00  0.00000000000E+00  0.45593999997E+02  0.45594000000E+02  0.51100000000E-03 0. -1.
         11   -1    0    0    0    0 -0.00000000000E+00 -0.00000000000E+00 -0.45593999997E+02  0.45594000000E+02  0.51100000000E-03 0.  1.
    9900012    2    1    2    0    0  0.26534550223E+02  0.33817438575E+02 -0.13468927648E+02  0.46142317418E+02  0.99999968686E+01 0.  0.
         12    1    1    2    0    0 -0.26534550223E+02 -0.33817438575E+02  0.13468927648E+02  0.45045682582E+02  0.00000000000E+00 0. -1.
         11    1    3    3    0    0  0.13308202586E+02  0.18878473380E+02 -0.42228293307E+01  0.23480572843E+02  0.51100000000E-03 0. -1.
        -11    1    3    3    0    0  0.12104141038E+02  0.14238674381E+02 -0.68112524049E+01  0.19890782739E+02  0.51100000000E-03 0.  1.
        -12    1    3    3    0    0  0.11222065985E+01  0.70029081434E+00 -0.24348459124E+01  0.27709618351E+01  0.00000000000E+00 0.  1.
</event>
<event>
 7    1  0.2313935E-008  0.4614232E+02  0.7816164E-02  0.1320468E+00
        -11   -1    0    0    0    0  0.00000000000E+00  0.00000000000E+00  0.45593999997E+02  0.45594000000E+02  0.51100000000E-03 0. -1.
         11   -1    0    0    0    0 -0.00000000000E+00 -0.00000000000E+00 -0.45593999997E+02  0.45594000000E+02  0.51100000000E-03 0.  1.
    9900012    2    1    2    0    0 -0.17538544537E+02 -0.24559219896E+02 -0.33441847167E+02  0.46142323534E+02  0.10000052641E+02 0.  0.
         12    1    1    2    0    0  0.17538544537E+02  0.24559219896E+02  0.33441847167E+02  0.45045676466E+02  0.00000000000E+00 0. -1.
         11    1    3    3    0    0 -0.51118108850E+00 -0.33124069942E+01 -0.21285778991E+01  0.39704143781E+01  0.51100000000E-03 0. -1.
        -11    1    3    3    0    0 -0.59431682962E+01 -0.12611113929E+02 -0.12766805679E+02  0.18903776645E+02  0.51100000000E-03 0.  1.
        -12    1    3    3    0    0 -0.11084195152E+02 -0.86356989731E+01 -0.18546463588E+02  0.23268132511E+02  0.00000000000E+00 0.  1.
</event>
<event>
 7    1  0.2313935E-008  0.4614232E+02  0.7816164E-02  0.1320468E+00
        -11   -1    0    0    0    0  0.00000000000E+00  0.00000000000E+00  0.45593999997E+02  0.45594000000E+02  0.51100000000E-03 0.  1.
         11   -1    0    0    0    0 -0.00000000000E+00 -0.00000000000E+00 -0.45593999997E+02  0.45594000000E+02  0.51100000000E-03 0. -1.
    9900012    2    1    2    0    0 -0.34187932873E+02 -0.26523592058E+02  0.12521890136E+02  0.46142318493E+02  0.10000006677E+02 0.  0.
         12    1    1    2    0    0  0.34187932873E+02  0.26523592058E+02 -0.12521890136E+02  0.45045681507E+02  0.00000000000E+00 0. -1.
         11    1    3    3    0    0 -0.42643706851E+01 -0.74469643485E+01  0.42821511186E+01  0.95905658755E+01  0.51100000000E-03 0. -1.
        -11    1    3    3    0    0 -0.22102227383E+02 -0.14631171222E+02  0.73795626643E+01  0.27514315765E+02  0.51100000000E-03 0.  1.
         12    1    3    3    0    0 -0.78213348046E+01 -0.44454564875E+01  0.86017635348E+00  0.90374368527E+01  0.00000000000E+00 0. -1.
</event>
<event>
 7    1  0.2313935E-008  0.4614232E+02  0.7816164E-02  0.1320468E+00
        -11   -1    0    0    0    0  0.00000000000E+00  0.00000000000E+00  0.45593999997E+02  0.45594000000E+02  0.51100000000E-03 0.  1.
         11   -1    0    0    0    0 -0.00000000000E+00 -0.00000000000E+00 -0.45593999997E+02  0.45594000000E+02  0.51100000000E-03 0. -1.
    9900012    2    1    2    0    0 -0.28804040626E+01  0.39563241603E+02  0.21344006225E+02  0.46142318571E+02  0.10000007383E+02 0.  0.
         12    1    1    2    0    0  0.28804040626E+01 -0.39563241603E+02 -0.21344006225E+02  0.45045681429E+02  0.00000000000E+00 0. -1.
         11    1    3    3    0    0  0.93920833178E+00  0.98800041284E+00  0.91264362335E+00  0.16404803414E+01  0.51100000000E-03 0. -1.
        -11    1    3    3    0    0 -0.18894683702E+01  0.23392191657E+02  0.16535125660E+02  0.28708450012E+02  0.51100000000E-03 0.  1.
         12    1    3    3    0    0 -0.19301440241E+01  0.15183049533E+02  0.38962369415E+01  0.15793388217E+02  0.00000000000E+00 0. -1.
</event>
<event>
 7    1  0.2313935E-008  0.4614232E+02  0.7816164E-02  0.1320468E+00
        -11   -1    0    0    0    0  0.00000000000E+00  0.00000000000E+00  0.45593999997E+02  0.45594000000E+02  0.51100000000E-03 0. -1.
         11   -1    0    0    0    0 -0.00000000000E+00 -0.00000000000E+00 -0.45593999997E+02  0.45594000000E+02  0.51100000000E-03 0.  1.
    9900012    2    1    2    0    0 -0.28723269752E+01 -0.13642317229E+02 -0.42833986114E+02  0.46142318209E+02  0.10000004084E+02 0.  0.
         12    1    1    2    0    0  0.28723269752E+01  0.13642317229E+02  0.42833986114E+02  0.45045681791E+02  0.00000000000E+00 0. -1.
         11    1    3    3    0    0 -0.66928227694E+00 -0.28204619222E+01 -0.46273022976E+01  0.54602995372E+01  0.51100000000E-03 0. -1.
        -11    1    3    3    0    0  0.17605566400E+01 -0.70593379097E+00 -0.15513841008E+01  0.24504479364E+01  0.51100000000E-03 0.  1.
        -12    1    3    3    0    0 -0.39636013382E+01 -0.10115921516E+02 -0.36655299715E+02  0.38231570735E+02  0.00000000000E+00 0.  1.
</event>
<event>
 7    1  0.2313935E-008  0.4614232E+02  0.7816164E-02  0.1320468E+00
        -11   -1    0    0    0    0  0.00000000000E+00  0.00000000000E+00  0.45593999997E+02  0.45594000000E+02  0.51100000000E-03 0.  1.
         11   -1    0    0    0    0 -0.00000000000E+00 -0.00000000000E+00 -0.45593999997E+02  0.45594000000E+02  0.51100000000E-03 0. -1.
    9900012    2    1    2    0    0  0.21889877366E+02 -0.19160576818E+02  0.34392133852E+02  0.46142319786E+02  0.10000018463E+02 0.  0.
         12    1    1    2    0    0 -0.21889877366E+02  0.19160576818E+02 -0.34392133852E+02  0.45045680214E+02  0.00000000000E+00 0. -1.
         11    1    3    3    0    0  0.12153613912E+02 -0.11824721223E+02  0.13362482724E+02  0.21589124761E+02  0.51100000000E-03 0. -1.
        -11    1    3    3    0    0  0.23616706659E+01 -0.13475680828E+00  0.40119375332E+01  0.46573909824E+01  0.51100000000E-03 0.  1.
        -12    1    3    3    0    0  0.73745927882E+01 -0.72010987865E+01  0.17017713594E+02  0.19895804043E+02  0.00000000000E+00 0.  1.
</event>
<event>
 7    1  0.2313935E-008  0.4614231E+02  0.7816164E-02  0.1320468E+00
        -11   -1    0    0    0    0  0.00000000000E+00  0.00000000000E+00  0.45593999997E+02  0.45594000000E+02  0.51100000000E-03 0.  1.
         11   -1    0    0    0    0 -0.00000000000E+00 -0.00000000000E+00 -0.45593999997E+02  0.45594000000E+02  0.51100000000E-03 0. -1.
    9900012    2    1    2    0    0 -0.28945918550E+02 -0.81024371546E+00  0.34504948446E+02  0.46142310275E+02  0.99999317362E+01 0.  0.
         12    1    1    2    0    0  0.28945918550E+02  0.81024371546E+00 -0.34504948446E+02  0.45045689725E+02  0.00000000000E+00 0. -1.
         11    1    3    3    0    0 -0.46886231065E+01  0.17431572060E+01  0.10731915300E+02  0.11840430311E+02  0.51100000000E-03 0. -1.
        -11    1    3    3    0    0 -0.10626502538E+02 -0.91929434244E+00  0.76500468538E+01  0.13125961885E+02  0.51100000000E-03 0.  1.
         12    1    3    3    0    0 -0.13630792905E+02 -0.16341065790E+01  0.16122986292E+02  0.21175918079E+02  0.00000000000E+00 0. -1.
</event>
<event>
 7    1  0.2313935E-008  0.4614232E+02  0.7816164E-02  0.1320468E+00
        -11   -1    0    0    0    0  0.00000000000E+00  0.00000000000E+00  0.45593999997E+02  0.45594000000E+02  0.51100000000E-03 0. -1.
         11   -1    0    0    0    0 -0.00000000000E+00 -0.00000000000E+00 -0.45593999997E+02  0.45594000000E+02  0.51100000000E-03 0.  1.
    9900012    2    1    2    0    0 -0.36406572602E+02 -0.19672341246E+02  0.17795333962E+02  0.46142318192E+02  0.10000003929E+02 0.  0.
         12    1    1    2    0    0  0.36406572602E+02  0.19672341246E+02 -0.17795333962E+02  0.45045681808E+02  0.00000000000E+00 0. -1.
         11    1    3    3    0    0 -0.64192364518E+01 -0.11532090717E+01  0.39761228007E+01  0.76384579971E+01  0.51100000000E-03 0. -1.
        -11    1    3    3    0    0 -0.22041040759E+02 -0.99388396159E+01  0.82150639493E+01  0.25535764853E+02  0.51100000000E-03 0.  1.
        -12    1    3    3    0    0 -0.79462953909E+01 -0.85802925581E+01  0.56041472124E+01  0.12968095342E+02  0.00000000000E+00 0.  1.
</event>
<event>
 7    1  0.2313935E-008  0.4614232E+02  0.7816164E-02  0.1320468E+00
        -11   -1    0    0    0    0  0.00000000000E+00  0.00000000000E+00  0.45593999997E+02  0.45594000000E+02  0.51100000000E-03 0.  1.
         11   -1    0    0    0    0 -0.00000000000E+00 -0.00000000000E+00 -0.45593999997E+02  0.45594000000E+02  0.51100000000E-03 0. -1.
    9900012    2    1    2    0    0  0.13122691706E+02  0.26909744416E+02  0.33656710376E+02  0.46142317238E+02  0.99999952301E+01 0.  0.
         12    1    1    2    0    0 -0.13122691706E+02 -0.26909744416E+02 -0.33656710376E+02  0.45045682762E+02  0.00000000000E+00 0. -1.
         11    1    3    3    0    0  0.40714943372E+01  0.18309382303E+01  0.58500861090E+01  0.73588659917E+01  0.51100000000E-03 0. -1.
        -11    1    3    3    0    0  0.29204557705E+01  0.33333089010E+01  0.49799426239E+01  0.66663212445E+01  0.51100000000E-03 0.  1.
         12    1    3    3    0    0  0.61307415986E+01  0.21745497285E+02  0.22826681643E+02  0.32117130002E+02  0.00000000000E+00 0. -1.
</event>
<event>
 7    1  0.2313935E-008  0.4614231E+02  0.7816164E-02  0.1320468E+00
        -11   -1    0    0    0    0  0.00000000000E+00  0.00000000000E+00  0.45593999997E+02  0.45594000000E+02  0.51100000000E-03 0. -1.
         11   -1    0    0    0    0 -0.00000000000E+00 -0.00000000000E+00 -0.45593999997E+02  0.45594000000E+02  0.51100000000E-03 0.  1.
    9900012    2    1    2    0    0 -0.31393215666E+02  0.63871679615E+01 -0.31666764904E+02  0.46142313149E+02  0.99999579389E+01 0.  0.
         12    1    1    2    0    0  0.31393215666E+02 -0.63871679615E+01  0.31666764904E+02  0.45045686851E+02  0.00000000000E+00 0. -1.
         11    1    3    3    0    0 -0.68010163093E+01  0.27617201887E+01 -0.56629149879E+01  0.92708968100E+01  0.51100000000E-03 0. -1.
        -11    1    3    3    0    0 -0.12479682840E+02 -0.18945853812E+01 -0.14973105728E+02  0.19583815587E+02  0.51100000000E-03 0.  1.
        -12    1    3    3    0    0 -0.12112516516E+02  0.55200331540E+01 -0.11030744189E+02  0.17287600751E+02  0.00000000000E+00 0.  1.
</event>
<event>
 7    1  0.2313935E-008  0.4614231E+02  0.7816164E-02  0.1320468E+00
        -11   -1    0    0    0    0  0.00000000000E+00  0.00000000000E+00  0.45593999997E+02  0.45594000000E+02  0.51100000000E-03 0.  1.
         11   -1    0    0    0    0 -0.00000000000E+00 -0.00000000000E+00 -0.45593999997E+02  0.45594000000E+02  0.51100000000E-03 0. -1.
    9900012    2    1    2    0    0 -0.10426472675E+02  0.33032855734E+02  0.28796404113E+02  0.46142314521E+02  0.99999704576E+01 0.  0.
         12    1    1    2    0    0  0.10426472675E+02 -0.33032855734E+02 -0.28796404113E+02  0.45045685479E+02  0.00000000000E+00 0. -1.
         11    1    3    3    0    0  0.69491926227E+00  0.23344115420E+01  0.12684605154E+01  0.27461577465E+01  0.51100000000E-03 0. -1.
        -11    1    3    3    0    0 -0.65190807437E+01  0.23594851289E+02  0.16612981141E+02  0.29583890274E+02  0.51100000000E-03 0.  1.
        -12    1    3    3    0    0 -0.46023111933E+01  0.71035929025E+01  0.10914962457E+02  0.13812266501E+02  0.00000000000E+00 0.  1.
</event>
<event>
 7    1  0.2313935E-008  0.4614232E+02  0.7816164E-02  0.1320468E+00
        -11   -1    0    0    0    0  0.00000000000E+00  0.00000000000E+00  0.45593999997E+02  0.45594000000E+02  0.51100000000E-03 0. -1.
         11   -1    0    0    0    0 -0.00000000000E+00 -0.00000000000E+00 -0.45593999997E+02  0.45594000000E+02  0.51100000000E-03 0.  1.
    9900012    2    1    2    0    0 -0.66424584948E+01  0.28876134317E+02 -0.33928751587E+02  0.46142316830E+02  0.99999915129E+01 0.  0.
         12    1    1    2    0    0  0.66424584948E+01 -0.28876134317E+02  0.33928751587E+02  0.45045683170E+02  0.00000000000E+00 0. -1.
         11    1    3    3    0    0 -0.14504788761E+01  0.69974515031E+01 -0.36396095851E+01  0.80196617573E+01  0.51100000000E-03 0. -1.
        -11    1    3    3    0    0 -0.62321465623E+00 -0.15620212757E+00 -0.73500754161E+00  0.97623355799E+00  0.51100000000E-03 0.  1.
        -12    1    3    3    0    0 -0.45687649625E+01  0.22034884941E+02 -0.29554134461E+02  0.37146421515E+02  0.00000000000E+00 0.  1.
</event>
<event>
 7    1  0.2313935E-008  0.4614231E+02  0.7816164E-02  0.1320468E+00
        -11   -1    0    0    0    0  0.00000000000E+00  0.00000000000E+00  0.45593999997E+02  0.45594000000E+02  0.51100000000E-03 0.  1.
         11   -1    0    0    0    0 -0.00000000000E+00 -0.00000000000E+00 -0.45593999997E+02  0.45594000000E+02  0.51100000000E-03 0. -1.
    9900012    2    1    2    0    0  0.81644771679E+01  0.13665981794E+02  0.42139009793E+02  0.46142313279E+02  0.99999591272E+01 0.  0.
         12    1    1    2    0    0 -0.81644771679E+01 -0.13665981794E+02 -0.42139009793E+02  0.45045686721E+02  0.00000000000E+00 0. -1.
         11    1    3    3    0    0  0.51791365419E+00  0.30912727833E+01  0.16456252327E+02  0.16752087717E+02  0.51100000000E-03 0. -1.
        -11    1    3    3    0    0  0.12057238583E+01  0.24533882266E+00  0.68928849467E+01  0.70018443506E+01  0.51100000000E-03 0.  1.
        -12    1    3    3    0    0  0.64408396555E+01  0.10329370188E+02  0.18789872519E+02  0.22388381211E+02  0.00000000000E+00 0.  1.
</event>
<event>
 7    1  0.2313935E-008  0.4614232E+02  0.7816164E-02  0.1320468E+00
        -11   -1    0    0    0    0  0.00000000000E+00  0.00000000000E+00  0.45593999997E+02  0.45594000000E+02  0.51100000000E-03 0.  1.
         11   -1    0    0    0    0 -0.00000000000E+00 -0.00000000000E+00 -0.45593999997E+02  0.45594000000E+02  0.51100000000E-03 0. -1.
    9900012    2    1    2    0    0 -0.15756740403E+02  0.24099417912E+02  0.34641832270E+02  0.46142319244E+02  0.10000013518E+02 0.  0.
         12    1    1    2    0    0  0.15756740403E+02 -0.24099417912E+02 -0.34641832270E+02  0.45045680756E+02  0.00000000000E+00 0. -1.
         11    1    3    3    0    0 -0.63600326626E+01  0.34184917914E+01  0.91923083089E+01  0.11689081825E+02  0.51100000000E-03 0. -1.
        -11    1    3    3    0    0 -0.86959345580E+01  0.18908011698E+02  0.24934256232E+02  0.32478443902E+02  0.51100000000E-03 0.  1.
         12    1    3    3    0    0 -0.70077318246E+00  0.17729144219E+01  0.51526772922E+00  0.19747935167E+01  0.00000000000E+00 0. -1.
</event>
<event>
 7    1  0.2313935E-008  0.4614232E+02  0.7816164E-02  0.1320468E+00
        -11   -1    0    0    0    0  0.00000000000E+00  0.00000000000E+00  0.45593999997E+02  0.45594000000E+02  0.51100000000E-03 0. -1.
         11   -1    0    0    0    0 -0.00000000000E+00 -0.00000000000E+00 -0.45593999997E+02  0.45594000000E+02  0.51100000000E-03 0.  1.
    9900012    2    1    2    0    0 -0.33418535368E+02 -0.30116466246E+02 -0.23050871179E+01  0.46142317944E+02  0.10000001665E+02 0.  0.
         12    1    1    2    0    0  0.33418535368E+02  0.30116466246E+02  0.23050871179E+01  0.45045682056E+02  0.00000000000E+00 0. -1.
         11    1    3    3    0    0 -0.10121439332E+02 -0.98130275370E+01  0.26702014579E+01  0.14348136453E+02  0.51100000000E-03 0. -1.
        -11    1    3    3    0    0 -0.65538602542E+01 -0.92329009839E+01 -0.14548659601E+01  0.11415611242E+02  0.51100000000E-03 0.  1.
        -12    1    3    3    0    0 -0.16743235782E+02 -0.11070537725E+02 -0.35204226157E+01  0.20378570249E+02  0.00000000000E+00 0.  1.
</event>
<event>
 7    1  0.2313935E-008  0.4614232E+02  0.7816164E-02  0.1320468E+00
        -11   -1    0    0    0    0  0.00000000000E+00  0.00000000000E+00  0.45593999997E+02  0.45594000000E+02  0.51100000000E-03 0. -1.
         11   -1    0    0    0    0 -0.00000000000E+00 -0.00000000000E+00 -0.45593999997E+02  0.45594000000E+02  0.51100000000E-03 0.  1.
    9900012    2    1    2    0    0  0.26321144164E+02  0.26334505523E+02 -0.25353594056E+02  0.46142317157E+02  0.99999944880E+01 0.  0.
         12    1    1    2    0    0 -0.26321144164E+02 -0.26334505523E+02  0.25353594056E+02  0.45045682843E+02  0.00000000000E+00 0. -1.
         11    1    3    3    0    0  0.83881018136E+01  0.87374348560E+01 -0.84509739648E+01  0.14768953284E+02  0.51100000000E-03 0.  1.
        -11    1    3    3    0    0  0.63481662581E+01  0.18121791057E+01 -0.24685779406E+01  0.70481973058E+01  0.51100000000E-03 0. -1.
         12    1    3    3    0    0  0.11584876093E+02  0.15784891561E+02 -0.14434042151E+02  0.24325166567E+02  0.00000000000E+00 0. -1.
</event>
<event>
 7    1  0.2313935E-008  0.4614232E+02  0.7816164E-02  0.1320468E+00
        -11   -1    0    0    0    0  0.00000000000E+00  0.00000000000E+00  0.45593999997E+02  0.45594000000E+02  0.51100000000E-03 0.  1.
         11   -1    0    0    0    0 -0.00000000000E+00 -0.00000000000E+00 -0.45593999997E+02  0.45594000000E+02  0.51100000000E-03 0. -1.
    9900012    2    1    2    0    0 -0.14025899636E+02 -0.20815226542E+02  0.37404731848E+02  0.46142317841E+02  0.10000000726E+02 0.  0.
         12    1    1    2    0    0  0.14025899636E+02  0.20815226542E+02 -0.37404731848E+02  0.45045682159E+02  0.00000000000E+00 0. -1.
         11    1    3    3    0    0 -0.59162590485E+01 -0.75001839861E+01  0.79738168729E+01  0.12443337042E+02  0.51100000000E-03 0. -1.
        -11    1    3    3    0    0 -0.30025293651E+01 -0.50348074224E+01  0.63000899754E+01  0.86055564798E+01  0.51100000000E-03 0.  1.
        -12    1    3    3    0    0 -0.51071112225E+01 -0.82802351337E+01  0.23130824999E+02  0.25093424319E+02  0.00000000000E+00 0.  1.
</event>
<event>
 7    1  0.2313935E-008  0.4614231E+02  0.7816164E-02  0.1320468E+00
        -11   -1    0    0    0    0  0.00000000000E+00  0.00000000000E+00  0.45593999997E+02  0.45594000000E+02  0.51100000000E-03 0.  1.
         11   -1    0    0    0    0 -0.00000000000E+00 -0.00000000000E+00 -0.45593999997E+02  0.45594000000E+02  0.51100000000E-03 0. -1.
    9900012    2    1    2    0    0  0.43809209072E+02 -0.61222168038E+01 -0.85079735499E+01  0.46142312615E+02  0.99999530715E+01 0.  0.
         12    1    1    2    0    0 -0.43809209072E+02  0.61222168038E+01  0.85079735499E+01  0.45045687385E+02  0.00000000000E+00 0. -1.
         11    1    3    3    0    0  0.27500813231E+02 -0.62900628954E+01 -0.71597009899E+01  0.29105342089E+02  0.51100000000E-03 0. -1.
        -11    1    3    3    0    0  0.58097292875E+01 -0.68518014870E+00  0.16629066373E+01  0.60817501573E+01  0.51100000000E-03 0.  1.
        -12    1    3    3    0    0  0.10498666554E+02  0.85302624031E+00 -0.30111791973E+01  0.10955220369E+02  0.00000000000E+00 0.  1.
</event>
<event>
 7    1  0.2313935E-008  0.4614232E+02  0.7816164E-02  0.1320468E+00
        -11   -1    0    0    0    0  0.00000000000E+00  0.00000000000E+00  0.45593999997E+02  0.45594000000E+02  0.51100000000E-03 0. -1.
         11   -1    0    0    0    0 -0.00000000000E+00 -0.00000000000E+00 -0.45593999997E+02  0.45594000000E+02  0.51100000000E-03 0.  1.
    9900012    2    1    2    0    0 -0.40492721841E+02  0.12351999411E+02 -0.15390940810E+02  0.46142317958E+02  0.10000001796E+02 0.  0.
         12    1    1    2    0    0  0.40492721841E+02 -0.12351999411E+02  0.15390940810E+02  0.45045682042E+02  0.00000000000E+00 0. -1.
         11    1    3    3    0    0 -0.18382930879E+02  0.24304427435E+01 -0.52471125055E+01  0.19270998665E+02  0.51100000000E-03 0. -1.
        -11    1    3    3    0    0 -0.13690118641E+02  0.43897296079E+01 -0.34781105820E+01  0.14791427515E+02  0.51100000000E-03 0.  1.
         12    1    3    3    0    0 -0.84196723209E+01  0.55318270599E+01 -0.66657177230E+01  0.12079891778E+02  0.00000000000E+00 0. -1.
</event>
<event>
 7    1  0.2313935E-008  0.4614232E+02  0.7816164E-02  0.1320468E+00
        -11   -1    0    0    0    0  0.00000000000E+00  0.00000000000E+00  0.45593999997E+02  0.45594000000E+02  0.51100000000E-03 0.  1.
         11   -1    0    0    0    0 -0.00000000000E+00 -0.00000000000E+00 -0.45593999997E+02  0.45594000000E+02  0.51100000000E-03 0. -1.
    9900012    2    1    2    0    0  0.35981899530E+02  0.11870677920E+02  0.24361924955E+02  0.46142317902E+02  0.10000001288E+02 0.  0.
         12    1    1    2    0    0 -0.35981899530E+02 -0.11870677920E+02 -0.24361924955E+02  0.45045682098E+02  0.00000000000E+00 0. -1.
         11    1    3    3    0    0  0.55240497924E+01  0.34396621125E+01  0.23866252646E+01  0.69312612108E+01  0.51100000000E-03 0. -1.
        -11    1    3    3    0    0  0.19808954535E+02  0.21901126855E+01  0.11416157401E+02  0.22967801884E+02  0.51100000000E-03 0.  1.
         12    1    3    3    0    0  0.10648895203E+02  0.62409031222E+01  0.10559142290E+02  0.16243254807E+02  0.00000000000E+00 0. -1.
</event>
<event>
 7    1  0.2313935E-008  0.4614232E+02  0.7816164E-02  0.1320468E+00
        -11   -1    0    0    0    0  0.00000000000E+00  0.00000000000E+00  0.45593999997E+02  0.45594000000E+02  0.51100000000E-03 0.  1.
         11   -1    0    0    0    0 -0.00000000000E+00 -0.00000000000E+00 -0.45593999997E+02  0.45594000000E+02  0.51100000000E-03 0. -1.
    9900012    2    1    2    0    0 -0.27451481290E+01 -0.34814607382E+01  0.44826966841E+02  0.46142319149E+02  0.10000012658E+02 0.  0.
         12    1    1    2    0    0  0.27451481290E+01  0.34814607382E+01 -0.44826966841E+02  0.45045680851E+02  0.00000000000E+00 0. -1.
         11    1    3    3    0    0 -0.16783377929E+01 -0.34608940706E+01  0.35269508924E+02  0.35478625474E+02  0.51100000000E-03 0. -1.
        -11    1    3    3    0    0  0.10695406657E+01 -0.16522462884E+01  0.49862500061E+01  0.53606458956E+01  0.51100000000E-03 0.  1.
         12    1    3    3    0    0 -0.21363510017E+01  0.16316796208E+01  0.45712079115E+01  0.53030477800E+01  0.00000000000E+00 0. -1.
</event>
<event>
 7    1  0.2313935E-008  0.4614232E+02  0.7816164E-02  0.1320468E+00
        -11   -1    0    0    0    0  0.00000000000E+00  0.00000000000E+00  0.45593999997E+02  0.45594000000E+02  0.51100000000E-03 0. -1.
         11   -1    0    0    0    0 -0.00000000000E+00 -0.00000000000E+00 -0.45593999997E+02  0.45594000000E+02  0.51100000000E-03 0.  1.
    9900012    2    1    2    0    0  0.12084332957E+02 -0.23008319689E+02 -0.36792657823E+02  0.46142317104E+02  0.99999940052E+01 0.  0.
         12    1    1    2    0    0 -0.12084332957E+02  0.23008319689E+02  0.36792657823E+02  0.45045682896E+02  0.00000000000E+00 0. -1.
         11    1    3    3    0    0  0.32927278285E+00 -0.36249639826E+01 -0.12174824770E+01  0.38381047776E+01  0.51100000000E-03 0. -1.
        -11    1    3    3    0    0  0.10072137837E+01 -0.38460000390E+01 -0.54741609598E+01  0.67655476039E+01  0.51100000000E-03 0.  1.
         12    1    3    3    0    0  0.10747846391E+02 -0.15537355668E+02 -0.30101014386E+02  0.35538664722E+02  0.00000000000E+00 0. -1.
</event>
<event>
 7    1  0.2313935E-008  0.4614232E+02  0.7816164E-02  0.1320468E+00
        -11   -1    0    0    0    0  0.00000000000E+00  0.00000000000E+00  0.45593999997E+02  0.45594000000E+02  0.51100000000E-03 0. -1.
         11   -1    0    0    0    0 -0.00000000000E+00 -0.00000000000E+00 -0.45593999997E+02  0.45594000000E+02  0.51100000000E-03 0.  1.
    9900012    2    1    2    0    0 -0.12323916538E+02 -0.27632941178E+02 -0.33371473789E+02  0.46142316301E+02  0.99999866897E+01 0.  0.
         12    1    1    2    0    0  0.12323916538E+02  0.27632941178E+02  0.33371473789E+02  0.45045683699E+02  0.00000000000E+00 0. -1.
         11    1    3    3    0    0 -0.27422723071E+01 -0.43468578091E+01 -0.11222039415E+02  0.12342989877E+02  0.51100000000E-03 0.  1.
        -11    1    3    3    0    0 -0.69948333572E+01 -0.11574896611E+02 -0.12267665470E+02  0.18259286448E+02  0.51100000000E-03 0. -1.
         12    1    3    3    0    0 -0.25868108738E+01 -0.11711186758E+02 -0.98817689053E+01  0.15540039977E+02  0.00000000000E+00 0. -1.
</event>
<event>
 7    1  0.2313935E-008  0.4614232E+02  0.7816164E-02  0.1320468E+00
        -11   -1    0    0    0    0  0.00000000000E+00  0.00000000000E+00  0.45593999997E+02  0.45594000000E+02  0.51100000000E-03 0.  1.
         11   -1    0    0    0    0 -0.00000000000E+00 -0.00000000000E+00 -0.45593999997E+02  0.45594000000E+02  0.51100000000E-03 0. -1.
    9900012    2    1    2    0    0 -0.79451451573E+01 -0.36697492334E+01  0.44187340912E+02  0.46142317767E+02  0.10000000052E+02 0.  0.
         12    1    1    2    0    0  0.79451451573E+01  0.36697492334E+01 -0.44187340912E+02  0.45045682233E+02  0.00000000000E+00 0. -1.
         11    1    3    3    0    0 -0.95789226150E+00  0.18476681724E+01  0.90689507498E+01  0.93046925378E+01  0.51100000000E-03 0. -1.
        -11    1    3    3    0    0 -0.98924924843E+00  0.14879094531E+01  0.39890571053E+01  0.43709341641E+01  0.51100000000E-03 0.  1.
        -12    1    3    3    0    0 -0.59980036473E+01 -0.70053268589E+01  0.31129333057E+02  0.32466691065E+02  0.00000000000E+00 0.  1.
</event>
<event>
 7    1  0.2313935E-008  0.4614232E+02  0.7816164E-02  0.1320468E+00
        -11   -1    0    0    0    0  0.00000000000E+00  0.00000000000E+00  0.45593999997E+02  0.45594000000E+02  0.51100000000E-03 0.  1.
         11   -1    0    0    0    0 -0.00000000000E+00 -0.00000000000E+00 -0.45593999997E+02  0.45594000000E+02  0.51100000000E-03 0. -1.
    9900012    2    1    2    0    0  0.15388658570E+01 -0.43438675329E+02  0.11824842431E+02  0.46142317400E+02  0.99999967027E+01 0.  0.
         12    1    1    2    0    0 -0.15388658570E+01  0.43438675329E+02 -0.11824842431E+02  0.45045682600E+02  0.00000000000E+00 0. -1.
         11    1    3    3    0    0 -0.83007702634E+00 -0.23572290171E+01 -0.10895044772E+01  0.27262752568E+01  0.51100000000E-03 0. -1.
        -11    1    3    3    0    0  0.22582592072E+01 -0.35273156450E+02  0.92080855441E+01  0.36525116567E+02  0.51100000000E-03 0.  1.
        -12    1    3    3    0    0  0.11068367621E+00 -0.58082898612E+01  0.37062613638E+01  0.68909255753E+01  0.00000000000E+00 0.  1.
</event>
<event>
 7    1  0.2313935E-008  0.4614232E+02  0.7816164E-02  0.1320468E+00
        -11   -1    0    0    0    0  0.00000000000E+00  0.00000000000E+00  0.45593999997E+02  0.45594000000E+02  0.51100000000E-03 0. -1.
         11   -1    0    0    0    0 -0.00000000000E+00 -0.00000000000E+00 -0.45593999997E+02  0.45594000000E+02  0.51100000000E-03 0.  1.
    9900012    2    1    2    0    0  0.39642840065E+02 -0.19890360540E+02 -0.78696933573E+01  0.46142320026E+02  0.10000020649E+02 0.  0.
         12    1    1    2    0    0 -0.39642840065E+02  0.19890360540E+02  0.78696933573E+01  0.45045679974E+02  0.00000000000E+00 0. -1.
         11    1    3    3    0    0  0.10076366595E+02 -0.60704677330E+01  0.17546292462E+00  0.11764970453E+02  0.51100000000E-03 0. -1.
        -11    1    3    3    0    0  0.13051997465E+02 -0.22170289197E+01 -0.32985196677E+01  0.13643683055E+02  0.51100000000E-03 0.  1.
        -12    1    3    3    0    0  0.16514476005E+02 -0.11602863888E+02 -0.47466366142E+01  0.20733666518E+02  0.00000000000E+00 0.  1.
</event>
<event>
 7    1  0.2313935E-008  0.4614232E+02  0.7816164E-02  0.1320468E+00
        -11   -1    0    0    0    0  0.00000000000E+00  0.00000000000E+00  0.45593999997E+02  0.45594000000E+02  0.51100000000E-03 0.  1.
         11   -1    0    0    0    0 -0.00000000000E+00 -0.00000000000E+00 -0.45593999997E+02  0.45594000000E+02  0.51100000000E-03 0. -1.
    9900012    2    1    2    0    0 -0.18737228737E+02 -0.38977184427E+02  0.12601932454E+02  0.46142319317E+02  0.10000014190E+02 0.  0.
         12    1    1    2    0    0  0.18737228737E+02  0.38977184427E+02 -0.12601932454E+02  0.45045680683E+02  0.00000000000E+00 0. -1.
         11    1    3    3    0    0 -0.58120178363E+01 -0.16562135682E+02  0.82401937418E+01  0.19390324464E+02  0.51100000000E-03 0. -1.
        -11    1    3    3    0    0 -0.78834352673E+01 -0.13093610015E+02  0.51426157699E+01  0.16125683615E+02  0.51100000000E-03 0.  1.
        -12    1    3    3    0    0 -0.50417756336E+01 -0.93214387302E+01 -0.78087705805E+00  0.10626311238E+02  0.00000000000E+00 0.  1.
</event>
<event>
 7    1  0.2313935E-008  0.4614232E+02  0.7816164E-02  0.1320468E+00
        -11   -1    0    0    0    0  0.00000000000E+00  0.00000000000E+00  0.45593999997E+02  0.45594000000E+02  0.51100000000E-03 0. -1.
         11   -1    0    0    0    0 -0.00000000000E+00 -0.00000000000E+00 -0.45593999997E+02  0.45594000000E+02  0.51100000000E-03 0.  1.
    9900012    2    1    2    0    0  0.32124067089E+02 -0.28868846800E+02  0.12796387523E+02  0.46142317237E+02  0.99999952244E+01 0.  0.
         12    1    1    2    0    0 -0.32124067089E+02  0.28868846800E+02 -0.12796387523E+02  0.45045682763E+02  0.00000000000E+00 0. -1.
         11    1    3    3    0    0  0.53613907797E+01 -0.67144520007E+01  0.49705764081E+01  0.99264800837E+01  0.51100000000E-03 0. -1.
        -11    1    3    3    0    0  0.22953291596E+02 -0.21110061200E+02  0.82096939586E+01  0.32247284446E+02  0.51100000000E-03 0.  1.
        -12    1    3    3    0    0  0.38093847132E+01 -0.10443335995E+01 -0.38388284335E+00  0.39685527082E+01  0.00000000000E+00 0.  1.
</event>
<event>
 7    1  0.2313935E-008  0.4614232E+02  0.7816164E-02  0.1320468E+00
        -11   -1    0    0    0    0  0.00000000000E+00  0.00000000000E+00  0.45593999997E+02  0.45594000000E+02  0.51100000000E-03 0.  1.
         11   -1    0    0    0    0 -0.00000000000E+00 -0.00000000000E+00 -0.45593999997E+02  0.45594000000E+02  0.51100000000E-03 0. -1.
    9900012    2    1    2    0    0 -0.31121644158E+02  0.15932238039E+02  0.28402826451E+02  0.46142317694E+02  0.99999993841E+01 0.  0.
         12    1    1    2    0    0  0.31121644158E+02 -0.15932238039E+02 -0.28402826451E+02  0.45045682306E+02  0.00000000000E+00 0. -1.
         11    1    3    3    0    0 -0.67462092913E+01  0.29768690236E+01  0.44676125290E+01  0.86216385308E+01  0.51100000000E-03 0. -1.
        -11    1    3    3    0    0 -0.20488511017E+02  0.72229500833E+01  0.20136248691E+02  0.29621252559E+02  0.51100000000E-03 0.  1.
         12    1    3    3    0    0 -0.38869238498E+01  0.57324189325E+01  0.37989652314E+01  0.78994266033E+01  0.00000000000E+00 0. -1.
</event>
<event>
 7    1  0.2313935E-008  0.4614232E+02  0.7816164E-02  0.1320468E+00
        -11   -1    0    0    0    0  0.00000000000E+00  0.00000000000E+00  0.45593999997E+02  0.45594000000E+02  0.51100000000E-03 0.  1.
         11   -1    0    0    0    0 -0.00000000000E+00 -0.00000000000E+00 -0.45593999997E+02  0.45594000000E+02  0.51100000000E-03 0. -1.
    9900012    2    1    2    0    0 -0.44926764995E+01  0.17590891748E+02  0.41224869808E+02  0.46142317573E+02  0.99999982841E+01 0.  0.
         12    1    1    2    0    0  0.44926764995E+01 -0.17590891748E+02 -0.41224869808E+02  0.45045682427E+02  0.00000000000E+00 0. -1.
         11    1    3    3    0    0 -0.33819743206E+01  0.31815705514E+01  0.68669627314E+01  0.82894703627E+01  0.51100000000E-03 0. -1.
        -11    1    3    3    0    0 -0.11612881243E+01  0.13131333529E+02  0.23709138640E+02  0.27127546252E+02  0.51100000000E-03 0.  1.
        -12    1    3    3    0    0  0.50585945375E-01  0.12779876674E+01  0.10648768437E+02  0.10725300958E+02  0.00000000000E+00 0.  1.
</event>
<event>
 7    1  0.2313935E-008  0.4614232E+02  0.7816164E-02  0.1320468E+00
        -11   -1    0    0    0    0  0.00000000000E+00  0.00000000000E+00  0.45593999997E+02  0.45594000000E+02  0.51100000000E-03 0.  1.
         11   -1    0    0    0    0 -0.00000000000E+00 -0.00000000000E+00 -0.45593999997E+02  0.45594000000E+02  0.51100000000E-03 0. -1.
    9900012    2    1    2    0    0 -0.10116357461E+02 -0.25947466702E+02  0.35404826648E+02  0.46142318003E+02  0.10000002208E+02 0.  0.
         12    1    1    2    0    0  0.10116357461E+02  0.25947466702E+02 -0.35404826648E+02  0.45045681997E+02  0.00000000000E+00 0. -1.
         11    1    3    3    0    0  0.92226364130E+00 -0.83079399397E+01  0.10263395719E+02  0.13236681163E+02  0.51100000000E-03 0. -1.
        -11    1    3    3    0    0 -0.14308619894E+01 -0.38081953374E+01  0.28469350768E+01  0.49653557127E+01  0.51100000000E-03 0.  1.
         12    1    3    3    0    0 -0.96077591131E+01 -0.13831331425E+02  0.22294495852E+02  0.27940281127E+02  0.00000000000E+00 0. -1.
</event>
<event>
 7    1  0.2313935E-008  0.4614232E+02  0.7816164E-02  0.1320468E+00
        -11   -1    0    0    0    0  0.00000000000E+00  0.00000000000E+00  0.45593999997E+02  0.45594000000E+02  0.51100000000E-03 0. -1.
         11   -1    0    0    0    0 -0.00000000000E+00 -0.00000000000E+00 -0.45593999997E+02  0.45594000000E+02  0.51100000000E-03 0.  1.
    9900012    2    1    2    0    0 -0.19605978897E+02  0.38000374945E+02 -0.14166525391E+02  0.46142319340E+02  0.10000014397E+02 0.  0.
         12    1    1    2    0    0  0.19605978897E+02 -0.38000374945E+02  0.14166525391E+02  0.45045680660E+02  0.00000000000E+00 0. -1.
         11    1    3    3    0    0 -0.66885894153E+01  0.11077562346E+02  0.28257623787E+00  0.12943317406E+02  0.51100000000E-03 0. -1.
        -11    1    3    3    0    0 -0.53558867265E+01  0.11280206512E+02 -0.67566112214E+01  0.14197900444E+02  0.51100000000E-03 0.  1.
         12    1    3    3    0    0 -0.75615027548E+01  0.15642606088E+02 -0.76924904072E+01  0.19001101489E+02  0.00000000000E+00 0. -1.
</event>
<event>
 7    1  0.2313935E-008  0.4614232E+02  0.7816164E-02  0.1320468E+00
        -11   -1    0    0    0    0  0.00000000000E+00  0.00000000000E+00  0.45593999997E+02  0.45594000000E+02  0.51100000000E-03 0.  1.
         11   -1    0    0    0    0 -0.00000000000E+00 -0.00000000000E+00 -0.45593999997E+02  0.45594000000E+02  0.51100000000E-03 0. -1.
    9900012    2    1    2    0    0 -0.36067081728E+02 -0.52694508198E+01  0.26467186162E+02  0.46142318302E+02  0.10000004933E+02 0.  0.
         12    1    1    2    0    0  0.36067081728E+02  0.52694508198E+01 -0.26467186162E+02  0.45045681698E+02  0.00000000000E+00 0. -1.
         11    1    3    3    0    0 -0.56585226762E+01 -0.23621991759E+01  0.64287117377E+01  0.88840980798E+01  0.51100000000E-03 0.  1.
        -11    1    3    3    0    0 -0.25305189447E+02  0.33722196330E+00  0.17029399266E+02  0.30503553420E+02  0.51100000000E-03 0. -1.
        -12    1    3    3    0    0 -0.51033696040E+01 -0.32444736072E+01  0.30090751588E+01  0.67546668026E+01  0.00000000000E+00 0.  1.
</event>
<event>
 7    1  0.2313935E-008  0.4614232E+02  0.7816164E-02  0.1320468E+00
        -11   -1    0    0    0    0  0.00000000000E+00  0.00000000000E+00  0.45593999997E+02  0.45594000000E+02  0.51100000000E-03 0.  1.
         11   -1    0    0    0    0 -0.00000000000E+00 -0.00000000000E+00 -0.45593999997E+02  0.45594000000E+02  0.51100000000E-03 0. -1.
    9900012    2    1    2    0    0 -0.41484545365E+01  0.41634708367E+02  0.16686967022E+02  0.46142317807E+02  0.10000000416E+02 0.  0.
         12    1    1    2    0    0  0.41484545365E+01 -0.41634708367E+02 -0.16686967022E+02  0.45045682193E+02  0.00000000000E+00 0. -1.
         11    1    3    3    0    0  0.12548603635E+00  0.20690893286E+01 -0.90618685017E+00  0.22623112658E+01  0.51100000000E-03 0. -1.
        -11    1    3    3    0    0 -0.47763338730E+01  0.34912236244E+02  0.13754456293E+02  0.37826745472E+02  0.51100000000E-03 0.  1.
        -12    1    3    3    0    0  0.50239330014E+00  0.46533827943E+01  0.38386975798E+01  0.60532610688E+01  0.00000000000E+00 0.  1.
</event>
<event>
 7    1  0.2313935E-008  0.4614232E+02  0.7816164E-02  0.1320468E+00
        -11   -1    0    0    0    0  0.00000000000E+00  0.00000000000E+00  0.45593999997E+02  0.45594000000E+02  0.51100000000E-03 0.  1.
         11   -1    0    0    0    0 -0.00000000000E+00 -0.00000000000E+00 -0.45593999997E+02  0.45594000000E+02  0.51100000000E-03 0. -1.
    9900012    2    1    2    0    0 -0.10419523066E+02 -0.43791997067E+02  0.16757131176E+01  0.46142317826E+02  0.10000000592E+02 0.  0.
         12    1    1    2    0    0  0.10419523066E+02  0.43791997067E+02 -0.16757131176E+01  0.45045682174E+02  0.00000000000E+00 0. -1.
         11    1    3    3    0    0 -0.14173435434E+01 -0.91206317848E+01  0.14151131638E+01  0.93379511887E+01  0.51100000000E-03 0. -1.
        -11    1    3    3    0    0 -0.31430496133E+01 -0.25168076923E+02  0.22538387026E+01  0.25463515980E+02  0.51100000000E-03 0.  1.
         12    1    3    3    0    0 -0.58591299089E+01 -0.95032883593E+01 -0.19932387489E+01  0.11340850658E+02  0.00000000000E+00 0. -1.
</event>
<event>
 7    1  0.2313935E-008  0.4614232E+02  0.7816164E-02  0.1320468E+00
        -11   -1    0    0    0    0  0.00000000000E+00  0.00000000000E+00  0.45593999997E+02  0.45594000000E+02  0.51100000000E-03 0.  1.
         11   -1    0    0    0    0 -0.00000000000E+00 -0.00000000000E+00 -0.45593999997E+02  0.45594000000E+02  0.51100000000E-03 0. -1.
    9900012    2    1    2    0    0  0.13088317495E+02  0.67107894766E+01  0.42576691755E+02  0.46142318398E+02  0.10000005805E+02 0.  0.
         12    1    1    2    0    0 -0.13088317495E+02 -0.67107894766E+01 -0.42576691755E+02  0.45045681602E+02  0.00000000000E+00 0. -1.
         11    1    3    3    0    0  0.75516414384E+01  0.32024270346E+01  0.17227366288E+02  0.19080486807E+02  0.51100000000E-03 0. -1.
        -11    1    3    3    0    0  0.28938647366E+01 -0.10633553415E+00  0.19403979339E+02  0.19618872924E+02  0.51100000000E-03 0.  1.
         12    1    3    3    0    0  0.26428113203E+01  0.36146979761E+01  0.59453461278E+01  0.74429586665E+01  0.00000000000E+00 0. -1.
</event>
<event>
 7    1  0.2313935E-008  0.4614232E+02  0.7816164E-02  0.1320468E+00
        -11   -1    0    0    0    0  0.00000000000E+00  0.00000000000E+00  0.45593999997E+02  0.45594000000E+02  0.51100000000E-03 0.  1.
         11   -1    0    0    0    0 -0.00000000000E+00 -0.00000000000E+00 -0.45593999997E+02  0.45594000000E+02  0.51100000000E-03 0. -1.
    9900012    2    1    2    0    0  0.40329105804E+02 -0.20047134558E+02 -0.88838134645E+00  0.46142316518E+02  0.99999886637E+01 0.  0.
         12    1    1    2    0    0 -0.40329105804E+02  0.20047134558E+02  0.88838134645E+00  0.45045683482E+02  0.00000000000E+00 0. -1.
         11    1    3    3    0    0  0.19334740640E+01  0.10973057567E+01  0.74118938664E-01  0.22243866027E+01  0.51100000000E-03 0. -1.
        -11    1    3    3    0    0  0.31072199515E+02 -0.17415409334E+02  0.18250025053E+00  0.35620378600E+02  0.51100000000E-03 0.  1.
         12    1    3    3    0    0  0.73234322248E+01 -0.37290309811E+01 -0.11450005356E+01  0.82975513157E+01  0.00000000000E+00 0. -1.
</event>
<event>
 7    1  0.2313935E-008  0.4614232E+02  0.7816164E-02  0.1320468E+00
        -11   -1    0    0    0    0  0.00000000000E+00  0.00000000000E+00  0.45593999997E+02  0.45594000000E+02  0.51100000000E-03 0.  1.
         11   -1    0    0    0    0 -0.00000000000E+00 -0.00000000000E+00 -0.45593999997E+02  0.45594000000E+02  0.51100000000E-03 0. -1.
    9900012    2    1    2    0    0  0.69145416449E+01 -0.42851994123E+02  0.12041974449E+02  0.46142318352E+02  0.10000005392E+02 0.  0.
         12    1    1    2    0    0 -0.69145416449E+01  0.42851994123E+02 -0.12041974449E+02  0.45045681648E+02  0.00000000000E+00 0. -1.
         11    1    3    3    0    0  0.29030150997E+01 -0.27101007429E+02  0.10356888036E+02  0.29157455829E+02  0.51100000000E-03 0. -1.
        -11    1    3    3    0    0  0.19318721710E+01 -0.10325103304E+02  0.31980971184E+01  0.10980333044E+02  0.51100000000E-03 0.  1.
        -12    1    3    3    0    0  0.20796543742E+01 -0.54258833901E+01 -0.15130107057E+01  0.60045294799E+01  0.00000000000E+00 0.  1.
</event>
<event>
 7    1  0.2313935E-008  0.4614232E+02  0.7816164E-02  0.1320468E+00
        -11   -1    0    0    0    0  0.00000000000E+00  0.00000000000E+00  0.45593999997E+02  0.45594000000E+02  0.51100000000E-03 0.  1.
         11   -1    0    0    0    0 -0.00000000000E+00 -0.00000000000E+00 -0.45593999997E+02  0.45594000000E+02  0.51100000000E-03 0. -1.
    9900012    2    1    2    0    0  0.13884512466E+02 -0.96853821295E+01  0.41743587166E+02  0.46142318932E+02  0.10000010673E+02 0.  0.
         12    1    1    2    0    0 -0.13884512466E+02  0.96853821295E+01 -0.41743587166E+02  0.45045681068E+02  0.00000000000E+00 0. -1.
         11    1    3    3    0    0  0.13384521953E+01 -0.51909721152E+01  0.18416659862E+02  0.19181006400E+02  0.51100000000E-03 0.  1.
        -11    1    3    3    0    0  0.67686963388E+01 -0.21800493682E+01  0.14632437647E+02  0.16268868957E+02  0.51100000000E-03 0. -1.
        -12    1    3    3    0    0  0.57773639323E+01 -0.23143606461E+01  0.86944896570E+01  0.10692443575E+02  0.00000000000E+00 0.  1.
</event>
<event>
 7    1  0.2313935E-008  0.4614232E+02  0.7816164E-02  0.1320468E+00
        -11   -1    0    0    0    0  0.00000000000E+00  0.00000000000E+00  0.45593999997E+02  0.45594000000E+02  0.51100000000E-03 0.  1.
         11   -1    0    0    0    0 -0.00000000000E+00 -0.00000000000E+00 -0.45593999997E+02  0.45594000000E+02  0.51100000000E-03 0. -1.
    9900012    2    1    2    0    0  0.15803572066E+01  0.34506853629E+02  0.28911815314E+02  0.46142317177E+02  0.99999946709E+01 0.  0.
         12    1    1    2    0    0 -0.15803572066E+01 -0.34506853629E+02 -0.28911815314E+02  0.45045682823E+02  0.00000000000E+00 0. -1.
         11    1    3    3    0    0 -0.23974079149E+01  0.11447125774E+02  0.57346411162E+01  0.13025757643E+02  0.51100000000E-03 0. -1.
        -11    1    3    3    0    0  0.42144523704E+01  0.15454631798E+02  0.16437153974E+02  0.22951847067E+02  0.51100000000E-03 0.  1.
        -12    1    3    3    0    0 -0.23668724896E+00  0.76050960574E+01  0.67400202237E+01  0.10164712466E+02  0.00000000000E+00 0.  1.
</event>
<event>
 7    1  0.2313935E-008  0.4614232E+02  0.7816164E-02  0.1320468E+00
        -11   -1    0    0    0    0  0.00000000000E+00  0.00000000000E+00  0.45593999997E+02  0.45594000000E+02  0.51100000000E-03 0.  1.
         11   -1    0    0    0    0 -0.00000000000E+00 -0.00000000000E+00 -0.45593999997E+02  0.45594000000E+02  0.51100000000E-03 0. -1.
    9900012    2    1    2    0    0 -0.22364140206E+02 -0.45521106106E+01  0.38836027624E+02  0.46142317413E+02  0.99999968240E+01 0.  0.
         12    1    1    2    0    0  0.22364140206E+02  0.45521106106E+01 -0.38836027624E+02  0.45045682587E+02  0.00000000000E+00 0. -1.
         11    1    3    3    0    0 -0.10497077633E+02 -0.43894011755E+01  0.20560305374E+02  0.23498545462E+02  0.51100000000E-03 0.  1.
        -11    1    3    3    0    0 -0.14897098038E+01  0.60253531978E+00  0.74761902911E+01  0.76469409335E+01  0.51100000000E-03 0. -1.
         12    1    3    3    0    0 -0.10377352769E+02 -0.76524475487E+00  0.10799531959E+02  0.14996831017E+02  0.00000000000E+00 0. -1.
</event>
<event>
 7    1  0.3306593E-008  0.4614232E+02  0.7816164E-02  0.1320468E+00
        -11   -1    0    0    0    0  0.00000000000E+00  0.00000000000E+00  0.45593999997E+02  0.45594000000E+02  0.51100000000E-03 0. -1.
         11   -1    0    0    0    0 -0.00000000000E+00 -0.00000000000E+00 -0.45593999997E+02  0.45594000000E+02  0.51100000000E-03 0.  1.
    9900012    2    1    2    0    0  0.25714323485E+02  0.30607065649E+02 -0.20762815737E+02  0.46142318551E+02  0.10000007202E+02 0.  0.
         12    1    1    2    0    0 -0.25714323485E+02 -0.30607065649E+02  0.20762815737E+02  0.45045681449E+02  0.00000000000E+00 0. -1.
         11    1    3    3    0    0  0.17389970914E+02  0.19819518765E+02 -0.12014916331E+02  0.28975552232E+02  0.51100000000E-03 0. -1.
        -11    1    3    3    0    0  0.90474709754E+01  0.93706219846E+01 -0.69413846879E+01  0.14759678488E+02  0.51100000000E-03 0.  1.
         12    1    3    3    0    0 -0.72311840499E+00  0.14169248994E+01 -0.18065147177E+01  0.24070878304E+01  0.00000000000E+00 0. -1.
</event>
<event>
 7    1  0.2313935E-008  0.4614232E+02  0.7816164E-02  0.1320468E+00
        -11   -1    0    0    0    0  0.00000000000E+00  0.00000000000E+00  0.45593999997E+02  0.45594000000E+02  0.51100000000E-03 0.  1.
         11   -1    0    0    0    0 -0.00000000000E+00 -0.00000000000E+00 -0.45593999997E+02  0.45594000000E+02  0.51100000000E-03 0. -1.
    9900012    2    1    2    0    0 -0.81353143695E+01 -0.14352908169E+02  0.41915679642E+02  0.46142317492E+02  0.99999975455E+01 0.  0.
         12    1    1    2    0    0  0.81353143695E+01  0.14352908169E+02 -0.41915679642E+02  0.45045682508E+02  0.00000000000E+00 0. -1.
         11    1    3    3    0    0 -0.29102514765E+01 -0.11774511394E+00  0.62268579036E+01  0.68743863130E+01  0.51100000000E-03 0. -1.
        -11    1    3    3    0    0 -0.29723323771E+01 -0.24521991542E+01  0.49630965921E+01  0.62833405523E+01  0.51100000000E-03 0.  1.
        -12    1    3    3    0    0 -0.22527305158E+01 -0.11782963900E+02  0.30725725146E+02  0.32984590627E+02  0.00000000000E+00 0.  1.
</event>
<event>
 7    1  0.2313935E-008  0.4614232E+02  0.7816164E-02  0.1320468E+00
        -11   -1    0    0    0    0  0.00000000000E+00  0.00000000000E+00  0.45593999997E+02  0.45594000000E+02  0.51100000000E-03 0. -1.
         11   -1    0    0    0    0 -0.00000000000E+00 -0.00000000000E+00 -0.45593999997E+02  0.45594000000E+02  0.51100000000E-03 0.  1.
    9900012    2    1    2    0    0  0.43047088186E+02 -0.12960907614E+02  0.28419114204E+01  0.46142318876E+02  0.10000010162E+02 0.  0.
         12    1    1    2    0    0 -0.43047088186E+02  0.12960907614E+02 -0.28419114204E+01  0.45045681124E+02  0.00000000000E+00 0. -1.
         11    1    3    3    0    0  0.29827794884E+01 -0.57154283653E+00  0.13421136834E+01  0.33203771007E+01  0.51100000000E-03 0. -1.
        -11    1    3    3    0    0  0.15974631449E+02 -0.62578221407E+00  0.63895601287E+00  0.15999647445E+02  0.51100000000E-03 0.  1.
         12    1    3    3    0    0  0.24089677249E+02 -0.11763582563E+02  0.86084172410E+00  0.26822294330E+02  0.00000000000E+00 0. -1.
</event>
<event>
 7    1  0.2313935E-008  0.4614232E+02  0.7816164E-02  0.1320468E+00
        -11   -1    0    0    0    0  0.00000000000E+00  0.00000000000E+00  0.45593999997E+02  0.45594000000E+02  0.51100000000E-03 0. -1.
         11   -1    0    0    0    0 -0.00000000000E+00 -0.00000000000E+00 -0.45593999997E+02  0.45594000000E+02  0.51100000000E-03 0.  1.
    9900012    2    1    2    0    0 -0.40950996060E+02  0.13361342281E+02 -0.13175867989E+02  0.46142322703E+02  0.10000045066E+02 0.  0.
         12    1    1    2    0    0  0.40950996060E+02 -0.13361342281E+02  0.13175867989E+02  0.45045677297E+02  0.00000000000E+00 0. -1.
         11    1    3    3    0    0 -0.25168325810E+02  0.48463599004E+01 -0.81021085786E+01  0.26880773650E+02  0.51100000000E-03 0.  1.
        -11    1    3    3    0    0 -0.62762634229E+01  0.27384447345E+01  0.40906315185E+00  0.68598757307E+01  0.51100000000E-03 0. -1.
        -12    1    3    3    0    0 -0.95064068273E+01  0.57765376463E+01 -0.54828225622E+01  0.12401673322E+02  0.00000000000E+00 0.  1.
</event>
<event>
 7    1  0.2313935E-008  0.4614232E+02  0.7816164E-02  0.1320468E+00
        -11   -1    0    0    0    0  0.00000000000E+00  0.00000000000E+00  0.45593999997E+02  0.45594000000E+02  0.51100000000E-03 0.  1.
         11   -1    0    0    0    0 -0.00000000000E+00 -0.00000000000E+00 -0.45593999997E+02  0.45594000000E+02  0.51100000000E-03 0. -1.
    9900012    2    1    2    0    0 -0.12790111083E+02  0.28646019900E+02  0.32325405215E+02  0.46142320740E+02  0.10000027168E+02 0.  0.
         12    1    1    2    0    0  0.12790111083E+02 -0.28646019900E+02 -0.32325405215E+02  0.45045679260E+02  0.00000000000E+00 0. -1.
         11    1    3    3    0    0 -0.60095251976E+01  0.81477689068E+01  0.12003723307E+02  0.15703181358E+02  0.51100000000E-03 0. -1.
        -11    1    3    3    0    0 -0.26213153703E+01  0.16722481217E+01  0.13482690610E+01  0.33890319817E+01  0.51100000000E-03 0.  1.
        -12    1    3    3    0    0 -0.41592705151E+01  0.18826002871E+02  0.18973412847E+02  0.27050107401E+02  0.00000000000E+00 0.  1.
</event>
<event>
 7    1  0.2313935E-008  0.4614232E+02  0.7816164E-02  0.1320468E+00
        -11   -1    0    0    0    0  0.00000000000E+00  0.00000000000E+00  0.45593999997E+02  0.45594000000E+02  0.51100000000E-03 0.  1.
         11   -1    0    0    0    0 -0.00000000000E+00 -0.00000000000E+00 -0.45593999997E+02  0.45594000000E+02  0.51100000000E-03 0. -1.
    9900012    2    1    2    0    0 -0.21554583642E+02 -0.39522111368E+02  0.15862670318E+01  0.46142316455E+02  0.99999880919E+01 0.  0.
         12    1    1    2    0    0  0.21554583642E+02  0.39522111368E+02 -0.15862670318E+01  0.45045683545E+02  0.00000000000E+00 0. -1.
         11    1    3    3    0    0 -0.48411746424E+01 -0.17156978852E+02 -0.29173394066E+00  0.17829301843E+02  0.51100000000E-03 0. -1.
        -11    1    3    3    0    0  0.75504234158E-01 -0.55552354227E-01  0.33664601552E+00  0.34945350810E+00  0.51100000000E-03 0.  1.
        -12    1    3    3    0    0 -0.16788913234E+02 -0.22309580162E+02  0.15413549569E+01  0.27963561105E+02  0.00000000000E+00 0.  1.
</event>
<event>
 7    1  0.2313935E-008  0.4614232E+02  0.7816164E-02  0.1320468E+00
        -11   -1    0    0    0    0  0.00000000000E+00  0.00000000000E+00  0.45593999997E+02  0.45594000000E+02  0.51100000000E-03 0.  1.
         11   -1    0    0    0    0 -0.00000000000E+00 -0.00000000000E+00 -0.45593999997E+02  0.45594000000E+02  0.51100000000E-03 0. -1.
    9900012    2    1    2    0    0  0.10107435993E+02  0.18720064779E+02  0.39705318705E+02  0.46142318507E+02  0.10000006805E+02 0.  0.
         12    1    1    2    0    0 -0.10107435993E+02 -0.18720064779E+02 -0.39705318705E+02  0.45045681493E+02  0.00000000000E+00 0. -1.
         11    1    3    3    0    0  0.49178167439E+01  0.68857618169E+01  0.75318838055E+01  0.11328190996E+02  0.51100000000E-03 0. -1.
        -11    1    3    3    0    0  0.43719540309E+00  0.54386340036E+00  0.44573100555E+01  0.45116006484E+01  0.51100000000E-03 0.  1.
        -12    1    3    3    0    0  0.47524238459E+01  0.11290439562E+02  0.27716124844E+02  0.30302526863E+02  0.00000000000E+00 0.  1.
</event>
<event>
 7    1  0.2313935E-008  0.4614232E+02  0.7816164E-02  0.1320468E+00
        -11   -1    0    0    0    0  0.00000000000E+00  0.00000000000E+00  0.45593999997E+02  0.45594000000E+02  0.51100000000E-03 0.  1.
         11   -1    0    0    0    0 -0.00000000000E+00 -0.00000000000E+00 -0.45593999997E+02  0.45594000000E+02  0.51100000000E-03 0. -1.
    9900012    2    1    2    0    0  0.21002089302E+02  0.24964909754E+02  0.31060892941E+02  0.46142317139E+02  0.99999943309E+01 0.  0.
         12    1    1    2    0    0 -0.21002089302E+02 -0.24964909754E+02 -0.31060892941E+02  0.45045682861E+02  0.00000000000E+00 0. -1.
         11    1    3    3    0    0  0.54893997318E+01  0.21480037609E+01  0.37008138504E+01  0.69601331157E+01  0.51100000000E-03 0. -1.
        -11    1    3    3    0    0  0.26519019046E+01  0.28611168191E+01  0.64896452124E+01  0.75719263340E+01  0.51100000000E-03 0.  1.
        -12    1    3    3    0    0  0.12860787666E+02  0.19955789174E+02  0.20870433878E+02  0.31610257690E+02  0.00000000000E+00 0.  1.
</event>
<event>
 7    1  0.2313935E-008  0.4614232E+02  0.7816164E-02  0.1320468E+00
        -11   -1    0    0    0    0  0.00000000000E+00  0.00000000000E+00  0.45593999997E+02  0.45594000000E+02  0.51100000000E-03 0.  1.
         11   -1    0    0    0    0 -0.00000000000E+00 -0.00000000000E+00 -0.45593999997E+02  0.45594000000E+02  0.51100000000E-03 0. -1.
    9900012    2    1    2    0    0 -0.27046366140E+02 -0.34552217636E+02  0.10185864915E+02  0.46142317532E+02  0.99999979131E+01 0.  0.
         12    1    1    2    0    0  0.27046366140E+02  0.34552217636E+02 -0.10185864915E+02  0.45045682468E+02  0.00000000000E+00 0. -1.
         11    1    3    3    0    0 -0.73877378003E+01 -0.14492489755E+02  0.10623771732E+01  0.16301520623E+02  0.51100000000E-03 0. -1.
        -11    1    3    3    0    0 -0.38005563875E+01 -0.56837564606E+01  0.36368307193E+01  0.77444079373E+01  0.51100000000E-03 0.  1.
         12    1    3    3    0    0 -0.15858071952E+02 -0.14375971420E+02  0.54866570228E+01  0.22096388972E+02  0.00000000000E+00 0. -1.
</event>
<event>
 7    1  0.2313935E-008  0.4614232E+02  0.7816164E-02  0.1320468E+00
        -11   -1    0    0    0    0  0.00000000000E+00  0.00000000000E+00  0.45593999997E+02  0.45594000000E+02  0.51100000000E-03 0. -1.
         11   -1    0    0    0    0 -0.00000000000E+00 -0.00000000000E+00 -0.45593999997E+02  0.45594000000E+02  0.51100000000E-03 0.  1.
    9900012    2    1    2    0    0 -0.41641369258E+02  0.14477935258E+02  0.92465759603E+01  0.46142318631E+02  0.10000007930E+02 0.  0.
         12    1    1    2    0    0  0.41641369258E+02 -0.14477935258E+02 -0.92465759603E+01  0.45045681369E+02  0.00000000000E+00 0. -1.
         11    1    3    3    0    0 -0.10285839307E+02  0.62874710710E+01  0.36274307618E+01  0.12589242904E+02  0.51100000000E-03 0. -1.
        -11    1    3    3    0    0 -0.30604390369E+02  0.70023722512E+01  0.62517520816E+01  0.32011659303E+02  0.51100000000E-03 0.  1.
         12    1    3    3    0    0 -0.75113958247E+00  0.11880919359E+01 -0.63260688310E+00  0.15414164230E+01  0.00000000000E+00 0. -1.
</event>
<event>
 7    1  0.2313935E-008  0.4614233E+02  0.7816164E-02  0.1320468E+00
        -11   -1    0    0    0    0  0.00000000000E+00  0.00000000000E+00  0.45593999997E+02  0.45594000000E+02  0.51100000000E-03 0.  1.
         11   -1    0    0    0    0 -0.00000000000E+00 -0.00000000000E+00 -0.45593999997E+02  0.45594000000E+02  0.51100000000E-03 0. -1.
    9900012    2    1    2    0    0  0.20099827557E+01 -0.40382150557E+02 -0.19858365670E+02  0.46142325387E+02  0.10000069539E+02 0.  0.
         12    1    1    2    0    0 -0.20099827557E+01  0.40382150557E+02  0.19858365670E+02  0.45045674613E+02  0.00000000000E+00 0. -1.
         11    1    3    3    0    0 -0.10565765347E+00 -0.32499068683E+01 -0.37640913887E+01  0.49740770436E+01  0.51100000000E-03 0. -1.
        -11    1    3    3    0    0 -0.11944041391E+01 -0.99392875193E+00 -0.10956654915E+01  0.19013097438E+01  0.51100000000E-03 0.  1.
        -12    1    3    3    0    0  0.33100445483E+01 -0.36138314937E+02 -0.14998608790E+02  0.39266938600E+02  0.00000000000E+00 0.  1.
</event>
<event>
 7    1  0.2313935E-008  0.4614232E+02  0.7816164E-02  0.1320468E+00
        -11   -1    0    0    0    0  0.00000000000E+00  0.00000000000E+00  0.45593999997E+02  0.45594000000E+02  0.51100000000E-03 0. -1.
         11   -1    0    0    0    0 -0.00000000000E+00 -0.00000000000E+00 -0.45593999997E+02  0.45594000000E+02  0.51100000000E-03 0.  1.
    9900012    2    1    2    0    0  0.18275860392E+01 -0.32889399977E+02 -0.30725571700E+02  0.46142318099E+02  0.10000003084E+02 0.  0.
         12    1    1    2    0    0 -0.18275860392E+01  0.32889399977E+02  0.30725571700E+02  0.45045681901E+02  0.00000000000E+00 0. -1.
         11    1    3    3    0    0  0.40918389226E+00 -0.19456732249E+01 -0.10369818057E+00  0.19909367970E+01  0.51100000000E-03 0. -1.
        -11    1    3    3    0    0  0.18806473711E+01 -0.26749207423E+02 -0.22523490445E+02  0.35019488208E+02  0.51100000000E-03 0.  1.
        -12    1    3    3    0    0 -0.46224522412E+00 -0.41945193292E+01 -0.80983830752E+01  0.91318930942E+01  0.00000000000E+00 0.  1.
</event>
<event>
 7    1  0.2313935E-008  0.4614232E+02  0.7816164E-02  0.1320468E+00
        -11   -1    0    0    0    0  0.00000000000E+00  0.00000000000E+00  0.45593999997E+02  0.45594000000E+02  0.51100000000E-03 0. -1.
         11   -1    0    0    0    0 -0.00000000000E+00 -0.00000000000E+00 -0.45593999997E+02  0.45594000000E+02  0.51100000000E-03 0.  1.
    9900012    2    1    2    0    0  0.43117400734E+02 -0.12771386848E+02 -0.26258176181E+01  0.46142317785E+02  0.10000000219E+02 0.  0.
         12    1    1    2    0    0 -0.43117400734E+02  0.12771386848E+02  0.26258176181E+01  0.45045682215E+02  0.00000000000E+00 0. -1.
         11    1    3    3    0    0  0.64520542004E+01  0.12603262802E+01 -0.14025520705E+01  0.67219475087E+01  0.51100000000E-03 0. -1.
        -11    1    3    3    0    0  0.13583691925E+02 -0.59132527189E+01  0.10195907561E+01  0.14850010424E+02  0.51100000000E-03 0.  1.
         12    1    3    3    0    0  0.23081654608E+02 -0.81184604091E+01 -0.22428563037E+01  0.24570359852E+02  0.00000000000E+00 0. -1.
</event>
<event>
 7    1  0.2313935E-008  0.4614232E+02  0.7816164E-02  0.1320468E+00
        -11   -1    0    0    0    0  0.00000000000E+00  0.00000000000E+00  0.45593999997E+02  0.45594000000E+02  0.51100000000E-03 0.  1.
         11   -1    0    0    0    0 -0.00000000000E+00 -0.00000000000E+00 -0.45593999997E+02  0.45594000000E+02  0.51100000000E-03 0. -1.
    9900012    2    1    2    0    0  0.37614432956E+02 -0.23348691790E+02  0.83130381636E+01  0.46142316762E+02  0.99999908897E+01 0.  0.
         12    1    1    2    0    0 -0.37614432956E+02  0.23348691790E+02 -0.83130381636E+01  0.45045683238E+02  0.00000000000E+00 0. -1.
         11    1    3    3    0    0  0.12725276651E+02 -0.90498048675E+01  0.64897014112E+01  0.16909992863E+02  0.51100000000E-03 0. -1.
        -11    1    3    3    0    0  0.22050881566E+02 -0.14171897841E+02  0.24381870058E+01  0.26325440592E+02  0.51100000000E-03 0.  1.
         12    1    3    3    0    0  0.28382747392E+01 -0.12698908123E+00 -0.61485025342E+00  0.29068833062E+01  0.00000000000E+00 0. -1.
</event>
<event>
 7    1  0.2313935E-008  0.4614232E+02  0.7816164E-02  0.1320468E+00
        -11   -1    0    0    0    0  0.00000000000E+00  0.00000000000E+00  0.45593999997E+02  0.45594000000E+02  0.51100000000E-03 0. -1.
         11   -1    0    0    0    0 -0.00000000000E+00 -0.00000000000E+00 -0.45593999997E+02  0.45594000000E+02  0.51100000000E-03 0.  1.
    9900012    2    1    2    0    0 -0.19748885746E+02 -0.22067779276E+02 -0.33942717875E+02  0.46142317997E+02  0.10000002154E+02 0.  0.
         12    1    1    2    0    0  0.19748885746E+02  0.22067779276E+02  0.33942717875E+02  0.45045682003E+02  0.00000000000E+00 0. -1.
         11    1    3    3    0    0 -0.26204151956E+01 -0.18160901573E+00 -0.42422657025E+01  0.49896268581E+01  0.51100000000E-03 0. -1.
        -11    1    3    3    0    0 -0.26880173298E+01 -0.46240869313E+01 -0.95427837158E+01  0.10939485290E+02  0.51100000000E-03 0.  1.
        -12    1    3    3    0    0 -0.14440453221E+02 -0.17262083329E+02 -0.20157668456E+02  0.30213205849E+02  0.00000000000E+00 0.  1.
</event>
<event>
 7    1  0.2313935E-008  0.4614232E+02  0.7816164E-02  0.1320468E+00
        -11   -1    0    0    0    0  0.00000000000E+00  0.00000000000E+00  0.45593999997E+02  0.45594000000E+02  0.51100000000E-03 0.  1.
         11   -1    0    0    0    0 -0.00000000000E+00 -0.00000000000E+00 -0.45593999997E+02  0.45594000000E+02  0.51100000000E-03 0. -1.
    9900012    2    1    2    0    0  0.38060959322E+01  0.40079485763E+02 -0.20205493632E+02  0.46142317430E+02  0.99999969780E+01 0.  0.
         12    1    1    2    0    0 -0.38060959322E+01 -0.40079485763E+02  0.20205493632E+02  0.45045682570E+02  0.00000000000E+00 0. -1.
         11    1    3    3    0    0  0.33439839081E+00  0.13475491242E+02 -0.28139585381E+01  0.13770223289E+02  0.51100000000E-03 0. -1.
        -11    1    3    3    0    0  0.40531546641E+01  0.26238101548E+02 -0.16548090536E+02  0.31284266593E+02  0.51100000000E-03 0.  1.
         12    1    3    3    0    0 -0.58145712268E+00  0.36589297307E+00 -0.84344455763E+00  0.10878275484E+01  0.00000000000E+00 0. -1.
</event>
<event>
 7    1  0.2313935E-008  0.4614232E+02  0.7816164E-02  0.1320468E+00
        -11   -1    0    0    0    0  0.00000000000E+00  0.00000000000E+00  0.45593999997E+02  0.45594000000E+02  0.51100000000E-03 0.  1.
         11   -1    0    0    0    0 -0.00000000000E+00 -0.00000000000E+00 -0.45593999997E+02  0.45594000000E+02  0.51100000000E-03 0. -1.
    9900012    2    1    2    0    0  0.38012952510E+02 -0.20752352404E+02  0.12388247595E+02  0.46142319105E+02  0.10000012254E+02 0.  0.
         12    1    1    2    0    0 -0.38012952510E+02  0.20752352404E+02 -0.12388247595E+02  0.45045680895E+02  0.00000000000E+00 0. -1.
         11    1    3    3    0    0  0.62092771155E+01 -0.53465708473E+01  0.30886346724E+01  0.87567463434E+01  0.51100000000E-03 0. -1.
        -11    1    3    3    0    0  0.15857210479E+02 -0.11627558820E+02  0.33254962204E+01  0.19942672180E+02  0.51100000000E-03 0.  1.
         12    1    3    3    0    0  0.15946464915E+02 -0.37782227372E+01  0.59741167026E+01  0.17442900582E+02  0.00000000000E+00 0. -1.
</event>
<event>
 7    1  0.2313935E-008  0.4614232E+02  0.7816164E-02  0.1320468E+00
        -11   -1    0    0    0    0  0.00000000000E+00  0.00000000000E+00  0.45593999997E+02  0.45594000000E+02  0.51100000000E-03 0.  1.
         11   -1    0    0    0    0 -0.00000000000E+00 -0.00000000000E+00 -0.45593999997E+02  0.45594000000E+02  0.51100000000E-03 0. -1.
    9900012    2    1    2    0    0 -0.33570972320E+02  0.25056394869E+02  0.16561412213E+02  0.46142317845E+02  0.10000000761E+02 0.  0.
         12    1    1    2    0    0  0.33570972320E+02 -0.25056394869E+02 -0.16561412213E+02  0.45045682155E+02  0.00000000000E+00 0. -1.
         11    1    3    3    0    0 -0.16564029957E+02  0.16167129681E+02  0.85412236175E+01  0.24671758585E+02  0.51100000000E-03 0. -1.
        -11    1    3    3    0    0 -0.95761585114E+01  0.39488941593E+01  0.69715053840E+01  0.12485930662E+02  0.51100000000E-03 0.  1.
        -12    1    3    3    0    0 -0.74307838515E+01  0.49403710286E+01  0.10486832116E+01  0.89846285971E+01  0.00000000000E+00 0.  1.
</event>
<event>
 7    1  0.2313935E-008  0.4614232E+02  0.7816164E-02  0.1320468E+00
        -11   -1    0    0    0    0  0.00000000000E+00  0.00000000000E+00  0.45593999997E+02  0.45594000000E+02  0.51100000000E-03 0.  1.
         11   -1    0    0    0    0 -0.00000000000E+00 -0.00000000000E+00 -0.45593999997E+02  0.45594000000E+02  0.51100000000E-03 0. -1.
    9900012    2    1    2    0    0 -0.15551525949E+02 -0.98407706227E+01  0.41114751389E+02  0.46142317548E+02  0.99999980550E+01 0.  0.
         12    1    1    2    0    0  0.15551525949E+02  0.98407706227E+01 -0.41114751389E+02  0.45045682452E+02  0.00000000000E+00 0. -1.
         11    1    3    3    0    0 -0.93275444250E+01 -0.88800402510E+00  0.15222705434E+02  0.17875189429E+02  0.51100000000E-03 0. -1.
        -11    1    3    3    0    0 -0.35189548686E+01 -0.27567336382E+01  0.12285917365E+02  0.13073881960E+02  0.51100000000E-03 0.  1.
         12    1    3    3    0    0 -0.27050266550E+01 -0.61960329594E+01  0.13606128590E+02  0.15193246159E+02  0.00000000000E+00 0. -1.
</event>
<event>
 7    1  0.2313935E-008  0.4614232E+02  0.7816164E-02  0.1320468E+00
        -11   -1    0    0    0    0  0.00000000000E+00  0.00000000000E+00  0.45593999997E+02  0.45594000000E+02  0.51100000000E-03 0.  1.
         11   -1    0    0    0    0 -0.00000000000E+00 -0.00000000000E+00 -0.45593999997E+02  0.45594000000E+02  0.51100000000E-03 0. -1.
    9900012    2    1    2    0    0  0.28135319565E+02 -0.22563249579E+02  0.26989201627E+02  0.46142318264E+02  0.10000004583E+02 0.  0.
         12    1    1    2    0    0 -0.28135319565E+02  0.22563249579E+02 -0.26989201627E+02  0.45045681736E+02  0.00000000000E+00 0. -1.
         11    1    3    3    0    0  0.17959227779E+01  0.28785234823E+00  0.25150227486E+01  0.31037940147E+01  0.51100000000E-03 0. -1.
        -11    1    3    3    0    0  0.21571402507E+02 -0.16157410711E+02  0.16580233865E+02  0.31643190141E+02  0.51100000000E-03 0.  1.
         12    1    3    3    0    0  0.47679942801E+01 -0.66936912162E+01  0.78939450134E+01  0.11395334108E+02  0.00000000000E+00 0. -1.
</event>
<event>
 7    1  0.2313935E-008  0.4614232E+02  0.7816164E-02  0.1320468E+00
        -11   -1    0    0    0    0  0.00000000000E+00  0.00000000000E+00  0.45593999997E+02  0.45594000000E+02  0.51100000000E-03 0.  1.
         11   -1    0    0    0    0 -0.00000000000E+00 -0.00000000000E+00 -0.45593999997E+02  0.45594000000E+02  0.51100000000E-03 0. -1.
    9900012    2    1    2    0    0  0.81171266031E+01  0.22903873912E+02  0.37929385939E+02  0.46142317608E+02  0.99999986008E+01 0.  0.
         12    1    1    2    0    0 -0.81171266031E+01 -0.22903873912E+02 -0.37929385939E+02  0.45045682392E+02  0.00000000000E+00 0. -1.
         11    1    3    3    0    0  0.19757092145E+01  0.14954596656E+01  0.78049214524E+01  0.81888110035E+01  0.51100000000E-03 0. -1.
        -11    1    3    3    0    0  0.37929130364E+01  0.41990343915E+01  0.86114054280E+01  0.10304095440E+02  0.51100000000E-03 0.  1.
        -12    1    3    3    0    0  0.23485043521E+01  0.17209379854E+02  0.21513059059E+02  0.27649411165E+02  0.00000000000E+00 0.  1.
</event>
<event>
 7    1  0.2313935E-008  0.4614232E+02  0.7816164E-02  0.1320468E+00
        -11   -1    0    0    0    0  0.00000000000E+00  0.00000000000E+00  0.45593999997E+02  0.45594000000E+02  0.51100000000E-03 0. -1.
         11   -1    0    0    0    0 -0.00000000000E+00 -0.00000000000E+00 -0.45593999997E+02  0.45594000000E+02  0.51100000000E-03 0.  1.
    9900012    2    1    2    0    0  0.20931550426E+02  0.24824080305E+02 -0.31220963176E+02  0.46142319765E+02  0.10000018269E+02 0.  0.
         12    1    1    2    0    0 -0.20931550426E+02 -0.24824080305E+02  0.31220963176E+02  0.45045680235E+02  0.00000000000E+00 0. -1.
         11    1    3    3    0    0  0.21874710523E+01 -0.40459744031E+00 -0.75722947441E+00  0.23499203032E+01  0.51100000000E-03 0. -1.
        -11    1    3    3    0    0  0.41151160610E+01  0.48924146932E+01 -0.67604077050E+01  0.93044620653E+01  0.51100000000E-03 0.  1.
         12    1    3    3    0    0  0.14628963313E+02  0.20336263052E+02 -0.23703325997E+02  0.34487937396E+02  0.00000000000E+00 0. -1.
</event>
<event>
 7    1  0.2313935E-008  0.4614232E+02  0.7816164E-02  0.1320468E+00
        -11   -1    0    0    0    0  0.00000000000E+00  0.00000000000E+00  0.45593999997E+02  0.45594000000E+02  0.51100000000E-03 0. -1.
         11   -1    0    0    0    0 -0.00000000000E+00 -0.00000000000E+00 -0.45593999997E+02  0.45594000000E+02  0.51100000000E-03 0.  1.
    9900012    2    1    2    0    0  0.36363595376E+02 -0.24406558915E+02 -0.10541453945E+02  0.46142318321E+02  0.10000005102E+02 0.  0.
         12    1    1    2    0    0 -0.36363595376E+02  0.24406558915E+02  0.10541453945E+02  0.45045681679E+02  0.00000000000E+00 0. -1.
         11    1    3    3    0    0  0.20866049315E+02 -0.14269042589E+02 -0.82158805978E+01  0.26580035453E+02  0.51100000000E-03 0. -1.
        -11    1    3    3    0    0  0.14823025960E-01 -0.39411214950E+00 -0.11674366131E+01  0.12322550934E+01  0.51100000000E-03 0.  1.
        -12    1    3    3    0    0  0.15482723035E+02 -0.97434041763E+01 -0.11581367338E+01  0.18330027774E+02  0.00000000000E+00 0.  1.
</event>
<event>
 7    1  0.2313935E-008  0.4614232E+02  0.7816164E-02  0.1320468E+00
        -11   -1    0    0    0    0  0.00000000000E+00  0.00000000000E+00  0.45593999997E+02  0.45594000000E+02  0.51100000000E-03 0.  1.
         11   -1    0    0    0    0 -0.00000000000E+00 -0.00000000000E+00 -0.45593999997E+02  0.45594000000E+02  0.51100000000E-03 0. -1.
    9900012    2    1    2    0    0  0.11219678967E+02  0.32379585515E+01  0.43505724152E+02  0.46142316458E+02  0.99999881215E+01 0.  0.
         12    1    1    2    0    0 -0.11219678967E+02 -0.32379585515E+01 -0.43505724152E+02  0.45045683542E+02  0.00000000000E+00 0. -1.
         11    1    3    3    0    0  0.75879522808E+01  0.10021655755E+00  0.15737733839E+02  0.17471786681E+02  0.51100000000E-03 0. -1.
        -11    1    3    3    0    0 -0.43529005878E+00  0.11677453202E+01  0.12316695383E+01  0.17521748431E+01  0.51100000000E-03 0.  1.
         12    1    3    3    0    0  0.40670167446E+01  0.19699966738E+01  0.26536320775E+02  0.26918354935E+02  0.00000000000E+00 0. -1.
</event>
<event>
 7    1  0.2313935E-008  0.4614232E+02  0.7816164E-02  0.1320468E+00
        -11   -1    0    0    0    0  0.00000000000E+00  0.00000000000E+00  0.45593999997E+02  0.45594000000E+02  0.51100000000E-03 0.  1.
         11   -1    0    0    0    0 -0.00000000000E+00 -0.00000000000E+00 -0.45593999997E+02  0.45594000000E+02  0.51100000000E-03 0. -1.
    9900012    2    1    2    0    0 -0.22750213202E+01  0.16647735414E+02  0.41794625489E+02  0.46142317230E+02  0.99999951576E+01 0.  0.
         12    1    1    2    0    0  0.22750213202E+01 -0.16647735414E+02 -0.41794625489E+02  0.45045682770E+02  0.00000000000E+00 0. -1.
         11    1    3    3    0    0 -0.36018379921E+01  0.56011627786E+01  0.14670036476E+02  0.16110748954E+02  0.51100000000E-03 0. -1.
        -11    1    3    3    0    0 -0.10534810075E+01  0.62005134608E+01  0.80962841326E+01  0.10252122045E+02  0.51100000000E-03 0.  1.
         12    1    3    3    0    0  0.23802976794E+01  0.48460591742E+01  0.19028304881E+02  0.19779446231E+02  0.00000000000E+00 0. -1.
</event>
<event>
 7    1  0.2313935E-008  0.4614232E+02  0.7816164E-02  0.1320468E+00
        -11   -1    0    0    0    0  0.00000000000E+00  0.00000000000E+00  0.45593999997E+02  0.45594000000E+02  0.51100000000E-03 0. -1.
         11   -1    0    0    0    0 -0.00000000000E+00 -0.00000000000E+00 -0.45593999997E+02  0.45594000000E+02  0.51100000000E-03 0.  1.
    9900012    2    1    2    0    0  0.23353942462E+02  0.25623911707E+02  0.28759727883E+02  0.46142318436E+02  0.10000006157E+02 0.  0.
         12    1    1    2    0    0 -0.23353942462E+02 -0.25623911707E+02 -0.28759727883E+02  0.45045681564E+02  0.00000000000E+00 0. -1.
         11    1    3    3    0    0  0.50445763774E+01  0.11124278981E+02  0.80829027943E+01  0.14646864904E+02  0.51100000000E-03 0. -1.
        -11    1    3    3    0    0  0.22355189113E+01  0.10653405786E+01  0.76112493734E+00  0.25907154963E+01  0.51100000000E-03 0.  1.
        -12    1    3    3    0    0  0.16073847173E+02  0.13434292147E+02  0.19915700151E+02  0.28904738036E+02  0.00000000000E+00 0.  1.
</event>
<event>
 7    1  0.2313935E-008  0.4614232E+02  0.7816164E-02  0.1320468E+00
        -11   -1    0    0    0    0  0.00000000000E+00  0.00000000000E+00  0.45593999997E+02  0.45594000000E+02  0.51100000000E-03 0.  1.
         11   -1    0    0    0    0 -0.00000000000E+00 -0.00000000000E+00 -0.45593999997E+02  0.45594000000E+02  0.51100000000E-03 0. -1.
    9900012    2    1    2    0    0  0.31751775806E+02 -0.20806073411E+02  0.24249650486E+02  0.46142317562E+02  0.99999981842E+01 0.  0.
         12    1    1    2    0    0 -0.31751775806E+02  0.20806073411E+02 -0.24249650486E+02  0.45045682438E+02  0.00000000000E+00 0. -1.
         11    1    3    3    0    0  0.23862175522E+01 -0.25391831783E+01  0.26664984538E+01  0.43876758864E+01  0.51100000000E-03 0. -1.
        -11    1    3    3    0    0  0.25857534304E+02 -0.18655209479E+02  0.17550963939E+02  0.36395951099E+02  0.51100000000E-03 0.  1.
        -12    1    3    3    0    0  0.35080239499E+01  0.38831924645E+00  0.40321880935E+01  0.53586905762E+01  0.00000000000E+00 0.  1.
</event>
<event>
 7    1  0.2313935E-008  0.4614232E+02  0.7816164E-02  0.1320468E+00
        -11   -1    0    0    0    0  0.00000000000E+00  0.00000000000E+00  0.45593999997E+02  0.45594000000E+02  0.51100000000E-03 0. -1.
         11   -1    0    0    0    0 -0.00000000000E+00 -0.00000000000E+00 -0.45593999997E+02  0.45594000000E+02  0.51100000000E-03 0.  1.
    9900012    2    1    2    0    0  0.11423821742E+02  0.20006892764E+02 -0.38708320484E+02  0.46142317233E+02  0.99999951867E+01 0.  0.
         12    1    1    2    0    0 -0.11423821742E+02 -0.20006892764E+02  0.38708320484E+02  0.45045682767E+02  0.00000000000E+00 0. -1.
         11    1    3    3    0    0  0.22379454911E+01  0.90587482073E+01 -0.17677324531E+02  0.19988924982E+02  0.51100000000E-03 0.  1.
        -11    1    3    3    0    0  0.94356597908E+00  0.56669767956E+01 -0.72756479426E+01  0.92703827323E+01  0.51100000000E-03 0. -1.
         12    1    3    3    0    0  0.82423102718E+01  0.52811677612E+01 -0.13755348010E+02  0.16883009519E+02  0.00000000000E+00 0. -1.
</event>
<event>
 7    1  0.2313935E-008  0.4614232E+02  0.7816164E-02  0.1320468E+00
        -11   -1    0    0    0    0  0.00000000000E+00  0.00000000000E+00  0.45593999997E+02  0.45594000000E+02  0.51100000000E-03 0. -1.
         11   -1    0    0    0    0 -0.00000000000E+00 -0.00000000000E+00 -0.45593999997E+02  0.45594000000E+02  0.51100000000E-03 0.  1.
    9900012    2    1    2    0    0  0.10374590969E+02  0.40446492314E+02 -0.16898598130E+02  0.46142317665E+02  0.99999991196E+01 0.  0.
         12    1    1    2    0    0 -0.10374590969E+02 -0.40446492314E+02  0.16898598130E+02  0.45045682335E+02  0.00000000000E+00 0. -1.
         11    1    3    3    0    0  0.51536972095E+01  0.19715753654E+02 -0.10948233855E+02  0.23132992930E+02  0.51100000000E-03 0. -1.
        -11    1    3    3    0    0  0.62955873388E+01  0.15124139885E+02 -0.55090406915E+01  0.17283621056E+02  0.51100000000E-03 0.  1.
         12    1    3    3    0    0 -0.10746935792E+01  0.56065987750E+01 -0.44132358348E+00  0.57257036789E+01  0.00000000000E+00 0. -1.
</event>
<event>
 7    1  0.2313935E-008  0.4614232E+02  0.7816164E-02  0.1320468E+00
        -11   -1    0    0    0    0  0.00000000000E+00  0.00000000000E+00  0.45593999997E+02  0.45594000000E+02  0.51100000000E-03 0. -1.
         11   -1    0    0    0    0 -0.00000000000E+00 -0.00000000000E+00 -0.45593999997E+02  0.45594000000E+02  0.51100000000E-03 0.  1.
    9900012    2    1    2    0    0  0.40510721885E+02 -0.18236278290E+02 -0.74453365579E+01  0.46142317965E+02  0.10000001857E+02 0.  0.
         12    1    1    2    0    0 -0.40510721885E+02  0.18236278290E+02  0.74453365579E+01  0.45045682035E+02  0.00000000000E+00 0. -1.
         11    1    3    3    0    0  0.19452347100E+02 -0.10657236253E+02 -0.29165597178E+01  0.22371339099E+02  0.51100000000E-03 0. -1.
        -11    1    3    3    0    0  0.11327518268E+02 -0.10368456854E+01 -0.54798950274E+00  0.11388064447E+02  0.51100000000E-03 0.  1.
         12    1    3    3    0    0  0.97308565171E+01 -0.65421963518E+01 -0.39807873373E+01  0.12382914418E+02  0.00000000000E+00 0. -1.
</event>
<event>
 7    1  0.2313935E-008  0.4614232E+02  0.7816164E-02  0.1320468E+00
        -11   -1    0    0    0    0  0.00000000000E+00  0.00000000000E+00  0.45593999997E+02  0.45594000000E+02  0.51100000000E-03 0.  1.
         11   -1    0    0    0    0 -0.00000000000E+00 -0.00000000000E+00 -0.45593999997E+02  0.45594000000E+02  0.51100000000E-03 0. -1.
    9900012    2    1    2    0    0  0.15854047026E+02  0.20015724907E+02  0.37109749045E+02  0.46142317357E+02  0.99999963118E+01 0.  0.
         12    1    1    2    0    0 -0.15854047026E+02 -0.20015724907E+02 -0.37109749045E+02  0.45045682643E+02  0.00000000000E+00 0. -1.
         11    1    3    3    0    0 -0.59715212266E+00  0.70312767044E+00  0.11345788343E+01  0.14622751352E+01  0.51100000000E-03 0. -1.
        -11    1    3    3    0    0  0.16197039352E+02  0.19619144156E+02  0.32950142715E+02  0.41628917910E+02  0.51100000000E-03 0.  1.
        -12    1    3    3    0    0  0.25415979748E+00 -0.30654691966E+00  0.30250274951E+01  0.30511243113E+01  0.00000000000E+00 0.  1.
</event>
<event>
 7    1  0.2313935E-008  0.4614232E+02  0.7816164E-02  0.1320468E+00
        -11   -1    0    0    0    0  0.00000000000E+00  0.00000000000E+00  0.45593999997E+02  0.45594000000E+02  0.51100000000E-03 0. -1.
         11   -1    0    0    0    0 -0.00000000000E+00 -0.00000000000E+00 -0.45593999997E+02  0.45594000000E+02  0.51100000000E-03 0.  1.
    9900012    2    1    2    0    0  0.38645442688E+02 -0.18009671120E+02 -0.14535990866E+02  0.46142317356E+02  0.99999963054E+01 0.  0.
         12    1    1    2    0    0 -0.38645442688E+02  0.18009671120E+02  0.14535990866E+02  0.45045682644E+02  0.00000000000E+00 0. -1.
         11    1    3    3    0    0  0.45598914833E+01 -0.21446297541E+01  0.25658339184E-01  0.50391175550E+01  0.51100000000E-03 0. -1.
        -11    1    3    3    0    0  0.24629718307E+02 -0.13097274348E+02 -0.72161561401E+01  0.28813790604E+02  0.51100000000E-03 0.  1.
         12    1    3    3    0    0  0.94558328976E+01 -0.27677670176E+01 -0.73454930650E+01  0.12289409197E+02  0.00000000000E+00 0. -1.
</event>
<event>
 7    1  0.2313935E-008  0.4614232E+02  0.7816164E-02  0.1320468E+00
        -11   -1    0    0    0    0  0.00000000000E+00  0.00000000000E+00  0.45593999997E+02  0.45594000000E+02  0.51100000000E-03 0. -1.
         11   -1    0    0    0    0 -0.00000000000E+00 -0.00000000000E+00 -0.45593999997E+02  0.45594000000E+02  0.51100000000E-03 0.  1.
    9900012    2    1    2    0    0 -0.11599253869E+02  0.64907111209E+01 -0.43040000092E+02  0.46142316199E+02  0.99999857518E+01 0.  0.
         12    1    1    2    0    0  0.11599253869E+02 -0.64907111209E+01  0.43040000092E+02  0.45045683801E+02  0.00000000000E+00 0. -1.
         11    1    3    3    0    0 -0.45891354729E+01 -0.94742763226E+00 -0.13777303584E+02  0.14552383922E+02  0.51100000000E-03 0.  1.
        -11    1    3    3    0    0 -0.29881093855E+01  0.30678874843E+01 -0.20890625839E+02  0.21325078652E+02  0.51100000000E-03 0. -1.
         12    1    3    3    0    0 -0.40220090109E+01  0.43702512689E+01 -0.83720706695E+01  0.10264853624E+02  0.00000000000E+00 0. -1.
</event>
<event>
 7    1  0.2313935E-008  0.4614232E+02  0.7816164E-02  0.1320468E+00
        -11   -1    0    0    0    0  0.00000000000E+00  0.00000000000E+00  0.45593999997E+02  0.45594000000E+02  0.51100000000E-03 0. -1.
         11   -1    0    0    0    0 -0.00000000000E+00 -0.00000000000E+00 -0.45593999997E+02  0.45594000000E+02  0.51100000000E-03 0.  1.
    9900012    2    1    2    0    0  0.18738874532E+02 -0.40401875385E+02 -0.67569387891E+01  0.46142321238E+02  0.10000031703E+02 0.  0.
         12    1    1    2    0    0 -0.18738874532E+02  0.40401875385E+02  0.67569387891E+01  0.45045678762E+02  0.00000000000E+00 0. -1.
         11    1    3    3    0    0 -0.56557354052E-01 -0.52472941605E+01  0.87843255885E+00  0.53206145099E+01  0.51100000000E-03 0. -1.
        -11    1    3    3    0    0  0.19002549264E+01 -0.70640227399E+01 -0.11173356733E+01  0.73999881975E+01  0.51100000000E-03 0.  1.
        -12    1    3    3    0    0  0.16895176960E+02 -0.28090558485E+02 -0.65180356746E+01  0.33421718530E+02  0.00000000000E+00 0.  1.
</event>
<event>
 7    1  0.2313935E-008  0.4614232E+02  0.7816164E-02  0.1320468E+00
        -11   -1    0    0    0    0  0.00000000000E+00  0.00000000000E+00  0.45593999997E+02  0.45594000000E+02  0.51100000000E-03 0.  1.
         11   -1    0    0    0    0 -0.00000000000E+00 -0.00000000000E+00 -0.45593999997E+02  0.45594000000E+02  0.51100000000E-03 0. -1.
    9900012    2    1    2    0    0 -0.22495717929E+02  0.17972562691E+02  0.34641639648E+02  0.46142317273E+02  0.99999955517E+01 0.  0.
         12    1    1    2    0    0  0.22495717929E+02 -0.17972562691E+02 -0.34641639648E+02  0.45045682727E+02  0.00000000000E+00 0. -1.
         11    1    3    3    0    0 -0.14201146741E+01  0.12385636588E+01  0.50779137514E+01  0.54162693759E+01  0.51100000000E-03 0. -1.
        -11    1    3    3    0    0 -0.13767973153E+02  0.59843069616E+01  0.15857717520E+02  0.21836579855E+02  0.51100000000E-03 0.  1.
        -12    1    3    3    0    0 -0.73076301024E+01  0.10749692070E+02  0.13706008376E+02  0.18889468043E+02  0.00000000000E+00 0.  1.
</event>
<event>
 7    1  0.2313935E-008  0.4614232E+02  0.7816164E-02  0.1320468E+00
        -11   -1    0    0    0    0  0.00000000000E+00  0.00000000000E+00  0.45593999997E+02  0.45594000000E+02  0.51100000000E-03 0. -1.
         11   -1    0    0    0    0 -0.00000000000E+00 -0.00000000000E+00 -0.45593999997E+02  0.45594000000E+02  0.51100000000E-03 0.  1.
    9900012    2    1    2    0    0  0.16036418808E+02 -0.11418242697E+02 -0.40516301691E+02  0.46142315443E+02  0.99999788621E+01 0.  0.
         12    1    1    2    0    0 -0.16036418808E+02  0.11418242697E+02  0.40516301691E+02  0.45045684557E+02  0.00000000000E+00 0. -1.
         11    1    3    3    0    0  0.74265277488E+00  0.11525127750E+01 -0.12276978439E+01  0.18403969945E+01  0.51100000000E-03 0. -1.
        -11    1    3    3    0    0  0.87842728522E+01 -0.43872651558E+01 -0.22090126400E+02  0.24174061092E+02  0.51100000000E-03 0.  1.
        -12    1    3    3    0    0  0.65094931810E+01 -0.81834903163E+01 -0.17198477448E+02  0.20127857356E+02  0.00000000000E+00 0.  1.
</event>
<event>
 7    1  0.2313935E-008  0.4614232E+02  0.7816164E-02  0.1320468E+00
        -11   -1    0    0    0    0  0.00000000000E+00  0.00000000000E+00  0.45593999997E+02  0.45594000000E+02  0.51100000000E-03 0.  1.
         11   -1    0    0    0    0 -0.00000000000E+00 -0.00000000000E+00 -0.45593999997E+02  0.45594000000E+02  0.51100000000E-03 0. -1.
    9900012    2    1    2    0    0 -0.31849571835E+02  0.60944794513E+01  0.31266206077E+02  0.46142317096E+02  0.99999939321E+01 0.  0.
         12    1    1    2    0    0  0.31849571835E+02 -0.60944794513E+01 -0.31266206077E+02  0.45045682904E+02  0.00000000000E+00 0. -1.
         11    1    3    3    0    0 -0.33737839403E+01 -0.46417080980E+00  0.44672105353E+01  0.56172807340E+01  0.51100000000E-03 0. -1.
        -11    1    3    3    0    0 -0.18188543676E+02  0.79661249222E+01  0.19521690493E+02  0.27845622049E+02  0.51100000000E-03 0.  1.
         12    1    3    3    0    0 -0.10287244219E+02 -0.14074746610E+01  0.72773050486E+01  0.12679414313E+02  0.00000000000E+00 0. -1.
</event>
<event>
 7    1  0.2313935E-008  0.4614232E+02  0.7816164E-02  0.1320468E+00
        -11   -1    0    0    0    0  0.00000000000E+00  0.00000000000E+00  0.45593999997E+02  0.45594000000E+02  0.51100000000E-03 0.  1.
         11   -1    0    0    0    0 -0.00000000000E+00 -0.00000000000E+00 -0.45593999997E+02  0.45594000000E+02  0.51100000000E-03 0. -1.
    9900012    2    1    2    0    0  0.14156547957E+02 -0.14326849612E+02  0.40292020631E+02  0.46142318782E+02  0.10000009312E+02 0.  0.
         12    1    1    2    0    0 -0.14156547957E+02  0.14326849612E+02 -0.40292020631E+02  0.45045681218E+02  0.00000000000E+00 0. -1.
         11    1    3    3    0    0  0.54581278119E+01 -0.45983102651E+01  0.99240863233E+01  0.12223874432E+02  0.51100000000E-03 0. -1.
        -11    1    3    3    0    0  0.67409441036E+01 -0.99689199576E+01  0.19816916416E+02  0.23184690402E+02  0.51100000000E-03 0.  1.
        -12    1    3    3    0    0  0.19574760415E+01  0.24038061039E+00  0.10551017892E+02  0.10733753949E+02  0.00000000000E+00 0.  1.
</event>
<event>
 7    1  0.2313935E-008  0.4614232E+02  0.7816164E-02  0.1320468E+00
        -11   -1    0    0    0    0  0.00000000000E+00  0.00000000000E+00  0.45593999997E+02  0.45594000000E+02  0.51100000000E-03 0.  1.
         11   -1    0    0    0    0 -0.00000000000E+00 -0.00000000000E+00 -0.45593999997E+02  0.45594000000E+02  0.51100000000E-03 0. -1.
    9900012    2    1    2    0    0 -0.32871513239E+02  0.29950539932E+02 -0.71793025380E+01  0.46142316413E+02  0.99999877083E+01 0.  0.
         12    1    1    2    0    0  0.32871513239E+02 -0.29950539932E+02  0.71793025380E+01  0.45045683587E+02  0.00000000000E+00 0. -1.
         11    1    3    3    0    0 -0.27028755703E+02  0.26371886063E+02 -0.47028014303E+01  0.38054518141E+02  0.51100000000E-03 0.  1.
        -11    1    3    3    0    0 -0.64754547364E+00  0.11397046801E+01  0.74348924943E+00  0.15069898551E+01  0.51100000000E-03 0. -1.
        -12    1    3    3    0    0 -0.51952120627E+01  0.24389491887E+01 -0.32199903571E+01  0.65808084170E+01  0.00000000000E+00 0.  1.
</event>
<event>
 7    1  0.2313935E-008  0.4614232E+02  0.7816164E-02  0.1320468E+00
        -11   -1    0    0    0    0  0.00000000000E+00  0.00000000000E+00  0.45593999997E+02  0.45594000000E+02  0.51100000000E-03 0. -1.
         11   -1    0    0    0    0 -0.00000000000E+00 -0.00000000000E+00 -0.45593999997E+02  0.45594000000E+02  0.51100000000E-03 0.  1.
    9900012    2    1    2    0    0 -0.20229815042E+02  0.40185516885E+02  0.22343381045E+01  0.46142318179E+02  0.10000003809E+02 0.  0.
         12    1    1    2    0    0  0.20229815042E+02 -0.40185516885E+02 -0.22343381045E+01  0.45045681821E+02  0.00000000000E+00 0. -1.
         11    1    3    3    0    0 -0.13694270925E+02  0.24568981850E+02  0.16284871321E+01  0.28174809599E+02  0.51100000000E-03 0.  1.
        -11    1    3    3    0    0 -0.40918974832E+01  0.60297660274E+01  0.28470559293E+01  0.78235178203E+01  0.51100000000E-03 0. -1.
         12    1    3    3    0    0 -0.24436466336E+01  0.95867690075E+01 -0.22412049570E+01  0.10143990760E+02  0.00000000000E+00 0. -1.
</event>
<event>
 7    1  0.2807523E-008  0.4614232E+02  0.7816164E-02  0.1320468E+00
        -11   -1    0    0    0    0  0.00000000000E+00  0.00000000000E+00  0.45593999997E+02  0.45594000000E+02  0.51100000000E-03 0. -1.
         11   -1    0    0    0    0 -0.00000000000E+00 -0.00000000000E+00 -0.45593999997E+02  0.45594000000E+02  0.51100000000E-03 0.  1.
    9900012    2    1    2    0    0 -0.27485875893E+02  0.57108414562E+01 -0.35228204786E+02  0.46142317674E+02  0.99999992073E+01 0.  0.
         12    1    1    2    0    0  0.27485875893E+02 -0.57108414562E+01  0.35228204786E+02  0.45045682326E+02  0.00000000000E+00 0. -1.
         11    1    3    3    0    0 -0.13527040640E+02  0.16146816287E+01 -0.11048779011E+02  0.17540340451E+02  0.51100000000E-03 0. -1.
        -11    1    3    3    0    0 -0.13255472801E+02  0.31516914967E+01 -0.19579235331E+02  0.23853452054E+02  0.51100000000E-03 0.  1.
         12    1    3    3    0    0 -0.70336245223E+00  0.94446833081E+00 -0.46001904438E+01  0.47485251696E+01  0.00000000000E+00 0. -1.
</event>
<event>
 7    1  0.2313935E-008  0.4614232E+02  0.7816164E-02  0.1320468E+00
        -11   -1    0    0    0    0  0.00000000000E+00  0.00000000000E+00  0.45593999997E+02  0.45594000000E+02  0.51100000000E-03 0. -1.
         11   -1    0    0    0    0 -0.00000000000E+00 -0.00000000000E+00 -0.45593999997E+02  0.45594000000E+02  0.51100000000E-03 0.  1.
    9900012    2    1    2    0    0 -0.10729783185E+02  0.18086686856E+02 -0.39835373642E+02  0.46142317834E+02  0.10000000664E+02 0.  0.
         12    1    1    2    0    0  0.10729783185E+02 -0.18086686856E+02  0.39835373642E+02  0.45045682166E+02  0.00000000000E+00 0. -1.
         11    1    3    3    0    0 -0.26269871461E+01  0.13208916338E+02 -0.23449846521E+02  0.27042038281E+02  0.51100000000E-03 0. -1.
        -11    1    3    3    0    0 -0.41575327394E+01  0.39709835061E+01 -0.10174359588E+02  0.11686375904E+02  0.51100000000E-03 0.  1.
         12    1    3    3    0    0 -0.39452632992E+01  0.90678701108E+00 -0.62111675337E+01  0.74139036489E+01  0.00000000000E+00 0. -1.
</event>
<event>
 7    1  0.2313935E-008  0.4614232E+02  0.7816164E-02  0.1320468E+00
        -11   -1    0    0    0    0  0.00000000000E+00  0.00000000000E+00  0.45593999997E+02  0.45594000000E+02  0.51100000000E-03 0.  1.
         11   -1    0    0    0    0 -0.00000000000E+00 -0.00000000000E+00 -0.45593999997E+02  0.45594000000E+02  0.51100000000E-03 0. -1.
    9900012    2    1    2    0    0  0.17860090216E+02 -0.37748518179E+02 -0.16887274447E+02  0.46142317793E+02  0.10000000294E+02 0.  0.
         12    1    1    2    0    0 -0.17860090216E+02  0.37748518179E+02  0.16887274447E+02  0.45045682207E+02  0.00000000000E+00 0. -1.
         11    1    3    3    0    0  0.32224054116E+01 -0.28679685863E+01 -0.12904433941E+01  0.45027086141E+01  0.51100000000E-03 0. -1.
        -11    1    3    3    0    0  0.12839798353E+02 -0.31169200098E+02 -0.10989608836E+02  0.35456324670E+02  0.51100000000E-03 0.  1.
         12    1    3    3    0    0  0.17978864516E+01 -0.37113494949E+01 -0.46072222173E+01  0.61832845096E+01  0.00000000000E+00 0. -1.
</event>
<event>
 7    1  0.2313935E-008  0.4614232E+02  0.7816164E-02  0.1320468E+00
        -11   -1    0    0    0    0  0.00000000000E+00  0.00000000000E+00  0.45593999997E+02  0.45594000000E+02  0.51100000000E-03 0.  1.
         11   -1    0    0    0    0 -0.00000000000E+00 -0.00000000000E+00 -0.45593999997E+02  0.45594000000E+02  0.51100000000E-03 0. -1.
    9900012    2    1    2    0    0 -0.88420531796E+01  0.32043786575E+02  0.30399462987E+02  0.46142317495E+02  0.99999975695E+01 0.  0.
         12    1    1    2    0    0  0.88420531796E+01 -0.32043786575E+02 -0.30399462987E+02  0.45045682505E+02  0.00000000000E+00 0. -1.
         11    1    3    3    0    0 -0.26543938210E+01  0.11222298725E+01  0.32261923467E+01  0.43259130553E+01  0.51100000000E-03 0. -1.
        -11    1    3    3    0    0 -0.27465828509E+01  0.76325759947E+01  0.86725321031E+01  0.11874878821E+02  0.51100000000E-03 0.  1.
         12    1    3    3    0    0 -0.34410765078E+01  0.23288980707E+02  0.18500738537E+02  0.29941525618E+02  0.00000000000E+00 0. -1.
</event>
<event>
 7    1  0.2313935E-008  0.4614232E+02  0.7816164E-02  0.1320468E+00
        -11   -1    0    0    0    0  0.00000000000E+00  0.00000000000E+00  0.45593999997E+02  0.45594000000E+02  0.51100000000E-03 0.  1.
         11   -1    0    0    0    0 -0.00000000000E+00 -0.00000000000E+00 -0.45593999997E+02  0.45594000000E+02  0.51100000000E-03 0. -1.
    9900012    2    1    2    0    0 -0.21829487479E+02 -0.35872566995E+02  0.16301711902E+02  0.46142318772E+02  0.10000009214E+02 0.  0.
         12    1    1    2    0    0  0.21829487479E+02  0.35872566995E+02 -0.16301711902E+02  0.45045681228E+02  0.00000000000E+00 0. -1.
         11    1    3    3    0    0 -0.75349572756E+01 -0.10589093394E+02  0.22903839891E+01  0.13196603318E+02  0.51100000000E-03 0. -1.
        -11    1    3    3    0    0 -0.84733010846E+01 -0.20439699312E+02  0.91308154314E+01  0.23936372531E+02  0.51100000000E-03 0.  1.
         12    1    3    3    0    0 -0.58212291191E+01 -0.48437742893E+01  0.48805124819E+01  0.90093429233E+01  0.00000000000E+00 0. -1.
</event>
<event>
 7    1  0.2313935E-008  0.4614232E+02  0.7816164E-02  0.1320468E+00
        -11   -1    0    0    0    0  0.00000000000E+00  0.00000000000E+00  0.45593999997E+02  0.45594000000E+02  0.51100000000E-03 0.  1.
         11   -1    0    0    0    0 -0.00000000000E+00 -0.00000000000E+00 -0.45593999997E+02  0.45594000000E+02  0.51100000000E-03 0. -1.
    9900012    2    1    2    0    0  0.31175929536E+02  0.31740933212E+02  0.70489745141E+01  0.46142318017E+02  0.10000002334E+02 0.  0.
         12    1    1    2    0    0 -0.31175929536E+02 -0.31740933212E+02 -0.70489745141E+01  0.45045681983E+02  0.00000000000E+00 0. -1.
         11    1    3    3    0    0  0.22320861327E+01  0.37709010579E+01  0.46182297364E+00  0.44062664482E+01  0.51100000000E-03 0. -1.
        -11    1    3    3    0    0  0.12892309833E+02  0.16867731738E+02  0.30403111044E+00  0.21232627298E+02  0.51100000000E-03 0.  1.
        -12    1    3    3    0    0  0.16051533570E+02  0.11102300417E+02  0.62831204300E+01  0.20503424271E+02  0.00000000000E+00 0.  1.
</event>
<event>
 7    1  0.2313935E-008  0.4614232E+02  0.7816164E-02  0.1320468E+00
        -11   -1    0    0    0    0  0.00000000000E+00  0.00000000000E+00  0.45593999997E+02  0.45594000000E+02  0.51100000000E-03 0.  1.
         11   -1    0    0    0    0 -0.00000000000E+00 -0.00000000000E+00 -0.45593999997E+02  0.45594000000E+02  0.51100000000E-03 0. -1.
    9900012    2    1    2    0    0  0.45838307664E+01  0.26710741514E+02  0.35981079977E+02  0.46142319485E+02  0.10000015720E+02 0.  0.
         12    1    1    2    0    0 -0.45838307664E+01 -0.26710741514E+02 -0.35981079977E+02  0.45045680515E+02  0.00000000000E+00 0. -1.
         11    1    3    3    0    0  0.22268390088E+01  0.10223421859E+02  0.14999417845E+02  0.18288239457E+02  0.51100000000E-03 0. -1.
        -11    1    3    3    0    0  0.35996543717E+01  0.32809217097E+01  0.74856170291E+01  0.89306450734E+01  0.51100000000E-03 0.  1.
         12    1    3    3    0    0 -0.12426626140E+01  0.13206397945E+02  0.13496045103E+02  0.18923434955E+02  0.00000000000E+00 0. -1.
</event>
<event>
 7    1  0.2313935E-008  0.4614231E+02  0.7816164E-02  0.1320468E+00
        -11   -1    0    0    0    0  0.00000000000E+00  0.00000000000E+00  0.45593999997E+02  0.45594000000E+02  0.51100000000E-03 0.  1.
         11   -1    0    0    0    0 -0.00000000000E+00 -0.00000000000E+00 -0.45593999997E+02  0.45594000000E+02  0.51100000000E-03 0. -1.
    9900012    2    1    2    0    0  0.35789059642E+02  0.25764221544E+02  0.91903185781E+01  0.46142313665E+02  0.99999626494E+01 0.  0.
         12    1    1    2    0    0 -0.35789059642E+02 -0.25764221544E+02 -0.91903185781E+01  0.45045686335E+02  0.00000000000E+00 0. -1.
         11    1    3    3    0    0  0.68595618854E+01  0.33924393834E+01  0.25323965053E+01  0.80607236990E+01  0.51100000000E-03 0. -1.
        -11    1    3    3    0    0  0.79258843010E+01  0.18685753751E+01  0.14389549379E+01  0.82693293234E+01  0.51100000000E-03 0.  1.
         12    1    3    3    0    0  0.21003613455E+02  0.20503206786E+02  0.52189671350E+01  0.29812260643E+02  0.00000000000E+00 0. -1.
</event>
<event>
 7    1  0.2313935E-008  0.4614232E+02  0.7816164E-02  0.1320468E+00
        -11   -1    0    0    0    0  0.00000000000E+00  0.00000000000E+00  0.45593999997E+02  0.45594000000E+02  0.51100000000E-03 0.  1.
         11   -1    0    0    0    0 -0.00000000000E+00 -0.00000000000E+00 -0.45593999997E+02  0.45594000000E+02  0.51100000000E-03 0. -1.
    9900012    2    1    2    0    0 -0.22192235801E+01 -0.87911057622E+01  0.44123746385E+02  0.46142317756E+02  0.99999999497E+01 0.  0.
         12    1    1    2    0    0  0.22192235801E+01  0.87911057622E+01 -0.44123746385E+02  0.45045682244E+02  0.00000000000E+00 0. -1.
         11    1    3    3    0    0 -0.57317789171E+00  0.11490215049E+00  0.27092709278E+00  0.64431137694E+00  0.51100000000E-03 0. -1.
        -11    1    3    3    0    0 -0.91875426549E+00 -0.10349636326E+02  0.35459450579E+02  0.36950395358E+02  0.51100000000E-03 0.  1.
        -12    1    3    3    0    0 -0.72729142295E+00  0.14436284129E+01  0.83933687131E+01  0.85476110208E+01  0.00000000000E+00 0.  1.
</event>
<event>
 7    1  0.2313935E-008  0.4614232E+02  0.7816164E-02  0.1320468E+00
        -11   -1    0    0    0    0  0.00000000000E+00  0.00000000000E+00  0.45593999997E+02  0.45594000000E+02  0.51100000000E-03 0.  1.
         11   -1    0    0    0    0 -0.00000000000E+00 -0.00000000000E+00 -0.45593999997E+02  0.45594000000E+02  0.51100000000E-03 0. -1.
    9900012    2    1    2    0    0  0.13569279027E+02  0.31230721583E+02  0.29489490380E+02  0.46142319333E+02  0.10000014333E+02 0.  0.
         12    1    1    2    0    0 -0.13569279027E+02 -0.31230721583E+02 -0.29489490380E+02  0.45045680667E+02  0.00000000000E+00 0. -1.
         11    1    3    3    0    0  0.40839526099E+01  0.51194379899E+01  0.32436544159E+01  0.73081193534E+01  0.51100000000E-03 0. -1.
        -11    1    3    3    0    0  0.89596520017E+01  0.14909762692E+02  0.16548096753E+02  0.24008662893E+02  0.51100000000E-03 0.  1.
        -12    1    3    3    0    0  0.52567441510E+00  0.11201520901E+02  0.96977392107E+01  0.14825537086E+02  0.00000000000E+00 0.  1.
</event>
<event>
 7    1  0.2313935E-008  0.4614232E+02  0.7816164E-02  0.1320468E+00
        -11   -1    0    0    0    0  0.00000000000E+00  0.00000000000E+00  0.45593999997E+02  0.45594000000E+02  0.51100000000E-03 0.  1.
         11   -1    0    0    0    0 -0.00000000000E+00 -0.00000000000E+00 -0.45593999997E+02  0.45594000000E+02  0.51100000000E-03 0. -1.
    9900012    2    1    2    0    0  0.87158870610E+01  0.25819029297E+02  0.35868152524E+02  0.46142319557E+02  0.10000016375E+02 0.  0.
         12    1    1    2    0    0 -0.87158870610E+01 -0.25819029297E+02 -0.35868152524E+02  0.45045680443E+02  0.00000000000E+00 0. -1.
         11    1    3    3    0    0  0.27963011551E+01  0.40400799224E+00  0.44231330056E+01  0.52484882065E+01  0.51100000000E-03 0. -1.
        -11    1    3    3    0    0  0.18947839628E+01  0.82578233253E+01  0.90604460040E+01  0.12404577155E+02  0.51100000000E-03 0.  1.
         12    1    3    3    0    0  0.40248019430E+01  0.17157197979E+02  0.22384573515E+02  0.28489254195E+02  0.00000000000E+00 0. -1.
</event>
<event>
 7    1  0.2313935E-008  0.4614232E+02  0.7816164E-02  0.1320468E+00
        -11   -1    0    0    0    0  0.00000000000E+00  0.00000000000E+00  0.45593999997E+02  0.45594000000E+02  0.51100000000E-03 0.  1.
         11   -1    0    0    0    0 -0.00000000000E+00 -0.00000000000E+00 -0.45593999997E+02  0.45594000000E+02  0.51100000000E-03 0. -1.
    9900012    2    1    2    0    0  0.29847860716E+02 -0.16293904945E+02  0.29541958891E+02  0.46142318045E+02  0.10000002589E+02 0.  0.
         12    1    1    2    0    0 -0.29847860716E+02  0.16293904945E+02 -0.29541958891E+02  0.45045681955E+02  0.00000000000E+00 0. -1.
         11    1    3    3    0    0  0.58525614345E+01 -0.52718653170E+01  0.11560341359E+02  0.13988800229E+02  0.51100000000E-03 0. -1.
        -11    1    3    3    0    0  0.21227601670E+01 -0.30172911960E+00  0.59068310544E+00  0.22239734667E+01  0.51100000000E-03 0.  1.
        -12    1    3    3    0    0  0.21872539114E+02 -0.10720310509E+02  0.17390934427E+02  0.29929544349E+02  0.00000000000E+00 0.  1.
</event>
<event>
 7    1  0.2313935E-008  0.4614232E+02  0.7816164E-02  0.1320468E+00
        -11   -1    0    0    0    0  0.00000000000E+00  0.00000000000E+00  0.45593999997E+02  0.45594000000E+02  0.51100000000E-03 0.  1.
         11   -1    0    0    0    0 -0.00000000000E+00 -0.00000000000E+00 -0.45593999997E+02  0.45594000000E+02  0.51100000000E-03 0. -1.
    9900012    2    1    2    0    0  0.30379069611E+02 -0.32730166381E+02  0.59128507084E+01  0.46142318018E+02  0.10000002338E+02 0.  0.
         12    1    1    2    0    0 -0.30379069611E+02  0.32730166381E+02 -0.59128507084E+01  0.45045681982E+02  0.00000000000E+00 0. -1.
         11    1    3    3    0    0  0.12038103586E+02 -0.16296579931E+02 -0.33461604267E+00  0.20263425761E+02  0.51100000000E-03 0. -1.
        -11    1    3    3    0    0  0.16409663376E+02 -0.15433455942E+02  0.42470463493E+01  0.22923918020E+02  0.51100000000E-03 0.  1.
         12    1    3    3    0    0  0.19313026499E+01 -0.10001305069E+01  0.20004204018E+01  0.29549742368E+01  0.00000000000E+00 0. -1.
</event>
<event>
 7    1  0.2313935E-008  0.4614232E+02  0.7816164E-02  0.1320468E+00
        -11   -1    0    0    0    0  0.00000000000E+00  0.00000000000E+00  0.45593999997E+02  0.45594000000E+02  0.51100000000E-03 0. -1.
         11   -1    0    0    0    0 -0.00000000000E+00 -0.00000000000E+00 -0.45593999997E+02  0.45594000000E+02  0.51100000000E-03 0.  1.
    9900012    2    1    2    0    0 -0.38177394971E+02 -0.20792305043E+02  0.11801700078E+02  0.46142316960E+02  0.99999926986E+01 0.  0.
         12    1    1    2    0    0  0.38177394971E+02  0.20792305043E+02 -0.11801700078E+02  0.45045683040E+02  0.00000000000E+00 0. -1.
         11    1    3    3    0    0 -0.14554164461E+02 -0.85654836064E+01  0.69177384385E+01  0.18249556650E+02  0.51100000000E-03 0. -1.
        -11    1    3    3    0    0 -0.63980590644E+01 -0.53122206895E+01  0.42062380437E+01  0.93191891915E+01  0.51100000000E-03 0.  1.
         12    1    3    3    0    0 -0.17225171446E+02 -0.69146007472E+01  0.67772359551E+00  0.18573571119E+02  0.00000000000E+00 0. -1.
</event>
<event>
 7    1  0.2313935E-008  0.4614232E+02  0.7816164E-02  0.1320468E+00
        -11   -1    0    0    0    0  0.00000000000E+00  0.00000000000E+00  0.45593999997E+02  0.45594000000E+02  0.51100000000E-03 0.  1.
         11   -1    0    0    0    0 -0.00000000000E+00 -0.00000000000E+00 -0.45593999997E+02  0.45594000000E+02  0.51100000000E-03 0. -1.
    9900012    2    1    2    0    0 -0.28241129784E+02  0.11563475764E+02  0.33133640630E+02  0.46142317359E+02  0.99999963321E+01 0.  0.
         12    1    1    2    0    0  0.28241129784E+02 -0.11563475764E+02 -0.33133640630E+02  0.45045682641E+02  0.00000000000E+00 0. -1.
         11    1    3    3    0    0 -0.16107697399E+01  0.16695562079E+01  0.19009291771E+01  0.29992547547E+01  0.51100000000E-03 0. -1.
        -11    1    3    3    0    0 -0.10960548072E+01 -0.36000144518E+00  0.49810280479E+01  0.51128835167E+01  0.51100000000E-03 0.  1.
        -12    1    3    3    0    0 -0.25534305237E+02  0.10253921002E+02  0.26251683405E+02  0.38030179087E+02  0.00000000000E+00 0.  1.
</event>
<event>
 7    1  0.2313935E-008  0.4614232E+02  0.7816164E-02  0.1320468E+00
        -11   -1    0    0    0    0  0.00000000000E+00  0.00000000000E+00  0.45593999997E+02  0.45594000000E+02  0.51100000000E-03 0.  1.
         11   -1    0    0    0    0 -0.00000000000E+00 -0.00000000000E+00 -0.45593999997E+02  0.45594000000E+02  0.51100000000E-03 0. -1.
    9900012    2    1    2    0    0  0.57973330613E+01  0.30025234142E+02  0.33075514852E+02  0.46142318313E+02  0.10000005035E+02 0.  0.
         12    1    1    2    0    0 -0.57973330613E+01 -0.30025234142E+02 -0.33075514852E+02  0.45045681687E+02  0.00000000000E+00 0. -1.
         11    1    3    3    0    0  0.81514900897E+00  0.65515331112E+00  0.43152519140E+01  0.44401681399E+01  0.51100000000E-03 0. -1.
        -11    1    3    3    0    0  0.25226264678E+01  0.25417418768E+02  0.24266315542E+02  0.35231561012E+02  0.51100000000E-03 0.  1.
        -12    1    3    3    0    0  0.24595575846E+01  0.39526620629E+01  0.44939473960E+01  0.64705891612E+01  0.00000000000E+00 0.  1.
</event>
<event>
 7    1  0.2313935E-008  0.4614232E+02  0.7816164E-02  0.1320468E+00
        -11   -1    0    0    0    0  0.00000000000E+00  0.00000000000E+00  0.45593999997E+02  0.45594000000E+02  0.51100000000E-03 0.  1.
         11   -1    0    0    0    0 -0.00000000000E+00 -0.00000000000E+00 -0.45593999997E+02  0.45594000000E+02  0.51100000000E-03 0. -1.
    9900012    2    1    2    0    0  0.14944171650E+01  0.19360017503E+02  0.40645657399E+02  0.46142322895E+02  0.10000046819E+02 0.  0.
         12    1    1    2    0    0 -0.14944171650E+01 -0.19360017503E+02 -0.40645657399E+02  0.45045677105E+02  0.00000000000E+00 0. -1.
         11    1    3    3    0    0 -0.12897798326E+01  0.66482632943E+01  0.21970128667E+02  0.22990204235E+02  0.51100000000E-03 0. -1.
        -11    1    3    3    0    0 -0.39458167834E+00  0.44065731520E+01  0.88866215164E+01  0.99270148524E+01  0.51100000000E-03 0.  1.
        -12    1    3    3    0    0  0.31787786759E+01  0.83051810571E+01  0.97889072160E+01  0.13225103808E+02  0.00000000000E+00 0.  1.
</event>
<event>
 7    1  0.2313935E-008  0.4614232E+02  0.7816164E-02  0.1320468E+00
        -11   -1    0    0    0    0  0.00000000000E+00  0.00000000000E+00  0.45593999997E+02  0.45594000000E+02  0.51100000000E-03 0.  1.
         11   -1    0    0    0    0 -0.00000000000E+00 -0.00000000000E+00 -0.45593999997E+02  0.45594000000E+02  0.51100000000E-03 0. -1.
    9900012    2    1    2    0    0 -0.18881795881E+01 -0.12125810897E+02  0.43341815718E+02  0.46142317612E+02  0.99999986401E+01 0.  0.
         12    1    1    2    0    0  0.18881795881E+01  0.12125810897E+02 -0.43341815718E+02  0.45045682388E+02  0.00000000000E+00 0. -1.
         11    1    3    3    0    0 -0.12258281511E+01 -0.53867628766E+01  0.21144930100E+02  0.21854700596E+02  0.51100000000E-03 0. -1.
        -11    1    3    3    0    0 -0.13747706695E+01 -0.81405042061E+01  0.19300290637E+02  0.20991879908E+02  0.51100000000E-03 0.  1.
         12    1    3    3    0    0  0.71241923250E+00  0.14014561857E+01  0.28965949807E+01  0.32957371081E+01  0.00000000000E+00 0. -1.
</event>
<event>
 7    1  0.2313935E-008  0.4614232E+02  0.7816164E-02  0.1320468E+00
        -11   -1    0    0    0    0  0.00000000000E+00  0.00000000000E+00  0.45593999997E+02  0.45594000000E+02  0.51100000000E-03 0. -1.
         11   -1    0    0    0    0 -0.00000000000E+00 -0.00000000000E+00 -0.45593999997E+02  0.45594000000E+02  0.51100000000E-03 0.  1.
    9900012    2    1    2    0    0 -0.42714927567E+02  0.10826532779E+02 -0.93453047126E+01  0.46142316863E+02  0.99999918132E+01 0.  0.
         12    1    1    2    0    0  0.42714927567E+02 -0.10826532779E+02  0.93453047126E+01  0.45045683137E+02  0.00000000000E+00 0. -1.
         11    1    3    3    0    0 -0.11660297347E+02  0.51937383419E+00 -0.13111877410E+01  0.11745275517E+02  0.51100000000E-03 0. -1.
        -11    1    3    3    0    0 -0.87504643023E+01  0.22250047302E+01  0.84081285846E+00  0.90679787207E+01  0.51100000000E-03 0.  1.
        -12    1    3    3    0    0 -0.22304165917E+02  0.80821542142E+01 -0.88749298301E+01  0.25329062626E+02  0.00000000000E+00 0.  1.
</event>
<event>
 7    1  0.2313935E-008  0.4614232E+02  0.7816164E-02  0.1320468E+00
        -11   -1    0    0    0    0  0.00000000000E+00  0.00000000000E+00  0.45593999997E+02  0.45594000000E+02  0.51100000000E-03 0. -1.
         11   -1    0    0    0    0 -0.00000000000E+00 -0.00000000000E+00 -0.45593999997E+02  0.45594000000E+02  0.51100000000E-03 0.  1.
    9900012    2    1    2    0    0 -0.41296482033E+02  0.14647976576E+02 -0.10447525746E+02  0.46142318295E+02  0.10000004867E+02 0.  0.
         12    1    1    2    0    0  0.41296482033E+02 -0.14647976576E+02  0.10447525746E+02  0.45045681705E+02  0.00000000000E+00 0. -1.
         11    1    3    3    0    0 -0.74628730351E+01  0.16929215349E+01 -0.26339893968E+01  0.80931055637E+01  0.51100000000E-03 0. -1.
        -11    1    3    3    0    0 -0.19109811248E+02  0.10920739629E+02 -0.72550489328E+01  0.23175055021E+02  0.51100000000E-03 0.  1.
         12    1    3    3    0    0 -0.14723797750E+02  0.20343154119E+01 -0.55848741688E+00  0.14874157710E+02  0.00000000000E+00 0. -1.
</event>
<event>
 7    1  0.2313935E-008  0.4614232E+02  0.7816164E-02  0.1320468E+00
        -11   -1    0    0    0    0  0.00000000000E+00  0.00000000000E+00  0.45593999997E+02  0.45594000000E+02  0.51100000000E-03 0. -1.
         11   -1    0    0    0    0 -0.00000000000E+00 -0.00000000000E+00 -0.45593999997E+02  0.45594000000E+02  0.51100000000E-03 0.  1.
    9900012    2    1    2    0    0  0.58908365103E+01 -0.44519980563E+02  0.35189351181E+01  0.46142317316E+02  0.99999959436E+01 0.  0.
         12    1    1    2    0    0 -0.58908365103E+01  0.44519980563E+02 -0.35189351181E+01  0.45045682684E+02  0.00000000000E+00 0. -1.
         11    1    3    3    0    0  0.13148310639E+01 -0.37348978670E+01  0.27005618232E+01  0.47928360316E+01  0.51100000000E-03 0. -1.
        -11    1    3    3    0    0  0.62280487774E+00 -0.99033065332E+01  0.22799058433E+01  0.10181421174E+02  0.51100000000E-03 0.  1.
         12    1    3    3    0    0  0.39532005687E+01 -0.30881776162E+02 -0.14615325484E+01  0.31168060111E+02  0.00000000000E+00 0. -1.
</event>
<event>
 7    1  0.2313935E-008  0.4614232E+02  0.7816164E-02  0.1320468E+00
        -11   -1    0    0    0    0  0.00000000000E+00  0.00000000000E+00  0.45593999997E+02  0.45594000000E+02  0.51100000000E-03 0.  1.
         11   -1    0    0    0    0 -0.00000000000E+00 -0.00000000000E+00 -0.45593999997E+02  0.45594000000E+02  0.51100000000E-03 0. -1.
    9900012    2    1    2    0    0  0.32509919259E+02  0.21426796330E+02  0.22651953221E+02  0.46142318343E+02  0.10000005310E+02 0.  0.
         12    1    1    2    0    0 -0.32509919259E+02 -0.21426796330E+02 -0.22651953221E+02  0.45045681657E+02  0.00000000000E+00 0. -1.
         11    1    3    3    0    0  0.78150435992E+01  0.41407479292E+01  0.89528544424E+01  0.12584685248E+02  0.51100000000E-03 0. -1.
        -11    1    3    3    0    0  0.15961519754E+02  0.11944749185E+02  0.11735682566E+02  0.23133814893E+02  0.51100000000E-03 0.  1.
        -12    1    3    3    0    0  0.87333559055E+01  0.53412992160E+01  0.19634162120E+01  0.10423818202E+02  0.00000000000E+00 0.  1.
</event>
<event>
 7    1  0.2313935E-008  0.4614232E+02  0.7816164E-02  0.1320468E+00
        -11   -1    0    0    0    0  0.00000000000E+00  0.00000000000E+00  0.45593999997E+02  0.45594000000E+02  0.51100000000E-03 0. -1.
         11   -1    0    0    0    0 -0.00000000000E+00 -0.00000000000E+00 -0.45593999997E+02  0.45594000000E+02  0.51100000000E-03 0.  1.
    9900012    2    1    2    0    0  0.96885920151E+01  0.89670980508E+01 -0.43067805051E+02  0.46142317692E+02  0.99999993712E+01 0.  0.
         12    1    1    2    0    0 -0.96885920151E+01 -0.89670980508E+01  0.43067805051E+02  0.45045682308E+02  0.00000000000E+00 0. -1.
         11    1    3    3    0    0  0.34853654415E+00  0.68090640975E+00 -0.90829044332E+01  0.91150570193E+01  0.51100000000E-03 0. -1.
        -11    1    3    3    0    0  0.23072770004E+00  0.23728214756E+01 -0.16033694496E+01  0.28730316531E+01  0.51100000000E-03 0.  1.
         12    1    3    3    0    0  0.91093277709E+01  0.59133701655E+01 -0.32381531168E+02  0.34154229020E+02  0.00000000000E+00 0. -1.
</event>
<event>
 7    1  0.2313935E-008  0.4614232E+02  0.7816164E-02  0.1320468E+00
        -11   -1    0    0    0    0  0.00000000000E+00  0.00000000000E+00  0.45593999997E+02  0.45594000000E+02  0.51100000000E-03 0. -1.
         11   -1    0    0    0    0 -0.00000000000E+00 -0.00000000000E+00 -0.45593999997E+02  0.45594000000E+02  0.51100000000E-03 0.  1.
    9900012    2    1    2    0    0  0.12953341914E+02  0.38522094182E+02 -0.19426081146E+02  0.46142318347E+02  0.10000005339E+02 0.  0.
         12    1    1    2    0    0 -0.12953341914E+02 -0.38522094182E+02  0.19426081146E+02  0.45045681653E+02  0.00000000000E+00 0. -1.
         11    1    3    3    0    0  0.94971479512E+01  0.27770179195E+02 -0.15653381928E+02  0.33262697392E+02  0.51100000000E-03 0.  1.
        -11    1    3    3    0    0  0.46454335763E+01  0.74995447284E+01 -0.31093914951E+01  0.93536912487E+01  0.51100000000E-03 0. -1.
        -12    1    3    3    0    0 -0.11892396133E+01  0.32523702585E+01 -0.66330772296E+00  0.35259297060E+01  0.00000000000E+00 0.  1.
</event>
<event>
 7    1  0.2313935E-008  0.4614232E+02  0.7816164E-02  0.1320468E+00
        -11   -1    0    0    0    0  0.00000000000E+00  0.00000000000E+00  0.45593999997E+02  0.45594000000E+02  0.51100000000E-03 0. -1.
         11   -1    0    0    0    0 -0.00000000000E+00 -0.00000000000E+00 -0.45593999997E+02  0.45594000000E+02  0.51100000000E-03 0.  1.
    9900012    2    1    2    0    0 -0.93168070201E+00  0.42574946829E+02 -0.14683983166E+02  0.46142317765E+02  0.10000000037E+02 0.  0.
         12    1    1    2    0    0  0.93168070201E+00 -0.42574946829E+02  0.14683983166E+02  0.45045682235E+02  0.00000000000E+00 0. -1.
         11    1    3    3    0    0 -0.26456121819E+01  0.20846554583E+02 -0.81045017066E+01  0.22522456570E+02  0.51100000000E-03 0.  1.
        -11    1    3    3    0    0 -0.20223305986E+01  0.10781862808E+02 -0.45523920352E+01  0.11876980263E+02  0.51100000000E-03 0. -1.
        -12    1    3    3    0    0  0.37362620785E+01  0.10946529438E+02 -0.20270894241E+01  0.11742880932E+02  0.00000000000E+00 0.  1.
</event>
<event>
 7    1  0.2313935E-008  0.4614232E+02  0.7816164E-02  0.1320468E+00
        -11   -1    0    0    0    0  0.00000000000E+00  0.00000000000E+00  0.45593999997E+02  0.45594000000E+02  0.51100000000E-03 0.  1.
         11   -1    0    0    0    0 -0.00000000000E+00 -0.00000000000E+00 -0.45593999997E+02  0.45594000000E+02  0.51100000000E-03 0. -1.
    9900012    2    1    2    0    0 -0.13600704923E+02  0.29400160839E+02  0.31301191107E+02  0.46142321001E+02  0.10000029545E+02 0.  0.
         12    1    1    2    0    0  0.13600704923E+02 -0.29400160839E+02 -0.31301191107E+02  0.45045678999E+02  0.00000000000E+00 0. -1.
         11    1    3    3    0    0 -0.41424697736E+01  0.35649334632E+01  0.48729925627E+01  0.73222170959E+01  0.51100000000E-03 0. -1.
        -11    1    3    3    0    0 -0.74432003594E+01  0.22114334901E+02  0.25349129724E+02  0.34453206204E+02  0.51100000000E-03 0.  1.
        -12    1    3    3    0    0 -0.20150347899E+01  0.37208924751E+01  0.10790688198E+01  0.43668977013E+01  0.00000000000E+00 0.  1.
</event>
<event>
 7    1  0.2313935E-008  0.4614232E+02  0.7816164E-02  0.1320468E+00
        -11   -1    0    0    0    0  0.00000000000E+00  0.00000000000E+00  0.45593999997E+02  0.45594000000E+02  0.51100000000E-03 0. -1.
         11   -1    0    0    0    0 -0.00000000000E+00 -0.00000000000E+00 -0.45593999997E+02  0.45594000000E+02  0.51100000000E-03 0.  1.
    9900012    2    1    2    0    0 -0.37238373534E+02  0.25289110371E+02 -0.16964672924E+01  0.46142316877E+02  0.99999919337E+01 0.  0.
         12    1    1    2    0    0  0.37238373534E+02 -0.25289110371E+02  0.16964672924E+01  0.45045683123E+02  0.00000000000E+00 0. -1.
         11    1    3    3    0    0 -0.18727521235E+01  0.37950754134E+01 -0.85013145015E-02  0.42320054871E+01  0.51100000000E-03 0. -1.
        -11    1    3    3    0    0 -0.32770001352E+02  0.21323117952E+02 -0.25239459342E+01  0.39178037868E+02  0.51100000000E-03 0.  1.
        -12    1    3    3    0    0 -0.25956200585E+01  0.17091700474E+00  0.83597995630E+00  0.27322735218E+01  0.00000000000E+00 0.  1.
</event>
<event>
 7    1  0.2313935E-008  0.4614232E+02  0.7816164E-02  0.1320468E+00
        -11   -1    0    0    0    0  0.00000000000E+00  0.00000000000E+00  0.45593999997E+02  0.45594000000E+02  0.51100000000E-03 0.  1.
         11   -1    0    0    0    0 -0.00000000000E+00 -0.00000000000E+00 -0.45593999997E+02  0.45594000000E+02  0.51100000000E-03 0. -1.
    9900012    2    1    2    0    0 -0.37311895536E+02 -0.24991196231E+02  0.35179706249E+01  0.46142317023E+02  0.99999932695E+01 0.  0.
         12    1    1    2    0    0  0.37311895536E+02  0.24991196231E+02 -0.35179706249E+01  0.45045682977E+02  0.00000000000E+00 0. -1.
         11    1    3    3    0    0 -0.30090493131E+00  0.21674736980E+00  0.29942540109E+00  0.47663301600E+00  0.51100000000E-03 0. -1.
        -11    1    3    3    0    0 -0.26490375371E+02 -0.14545882804E+02 -0.52666241143E+00  0.30225817895E+02  0.51100000000E-03 0.  1.
        -12    1    3    3    0    0 -0.10520615233E+02 -0.10662060797E+02  0.37452076352E+01  0.15439866112E+02  0.00000000000E+00 0.  1.
</event>
<event>
 7    1  0.2313935E-008  0.4614232E+02  0.7816164E-02  0.1320468E+00
        -11   -1    0    0    0    0  0.00000000000E+00  0.00000000000E+00  0.45593999997E+02  0.45594000000E+02  0.51100000000E-03 0.  1.
         11   -1    0    0    0    0 -0.00000000000E+00 -0.00000000000E+00 -0.45593999997E+02  0.45594000000E+02  0.51100000000E-03 0. -1.
    9900012    2    1    2    0    0  0.41356777115E+02 -0.84502244995E+01  0.15726542718E+02  0.46142318150E+02  0.10000003550E+02 0.  0.
         12    1    1    2    0    0 -0.41356777115E+02  0.84502244995E+01 -0.15726542718E+02  0.45045681850E+02  0.00000000000E+00 0. -1.
         11    1    3    3    0    0  0.39536477664E+01  0.32930525794E+00  0.10250997376E+01  0.40976337497E+01  0.51100000000E-03 0.  1.
        -11    1    3    3    0    0  0.13201207590E+02  0.89250588126E+00  0.63508388888E+01  0.14676566473E+02  0.51100000000E-03 0. -1.
        -12    1    3    3    0    0  0.24201921758E+02 -0.96720356387E+01  0.83506040911E+01  0.27368117927E+02  0.00000000000E+00 0.  1.
</event>
<event>
 7    1  0.2313935E-008  0.4614232E+02  0.7816164E-02  0.1320468E+00
        -11   -1    0    0    0    0  0.00000000000E+00  0.00000000000E+00  0.45593999997E+02  0.45594000000E+02  0.51100000000E-03 0. -1.
         11   -1    0    0    0    0 -0.00000000000E+00 -0.00000000000E+00 -0.45593999997E+02  0.45594000000E+02  0.51100000000E-03 0.  1.
    9900012    2    1    2    0    0  0.14668083638E+02  0.37104572835E+02 -0.20909602802E+02  0.46142317718E+02  0.99999996078E+01 0.  0.
         12    1    1    2    0    0 -0.14668083638E+02 -0.37104572835E+02  0.20909602802E+02  0.45045682282E+02  0.00000000000E+00 0. -1.
         11    1    3    3    0    0  0.27899945847E+01  0.57867077908E+01 -0.39985891110E+01  0.75669526217E+01  0.51100000000E-03 0. -1.
        -11    1    3    3    0    0  0.12994818799E+02  0.29567700980E+02 -0.16998477121E+02  0.36497431163E+02  0.51100000000E-03 0.  1.
         12    1    3    3    0    0 -0.11167297453E+01  0.17501640650E+01  0.87463430256E-01  0.20779339330E+01  0.00000000000E+00 0. -1.
</event>
<event>
 7    1  0.2313935E-008  0.4614232E+02  0.7816164E-02  0.1320468E+00
        -11   -1    0    0    0    0  0.00000000000E+00  0.00000000000E+00  0.45593999997E+02  0.45594000000E+02  0.51100000000E-03 0. -1.
         11   -1    0    0    0    0 -0.00000000000E+00 -0.00000000000E+00 -0.45593999997E+02  0.45594000000E+02  0.51100000000E-03 0.  1.
    9900012    2    1    2    0    0  0.26389972709E+02 -0.25821654346E+02  0.25805522720E+02  0.46142317681E+02  0.99999992681E+01 0.  0.
         12    1    1    2    0    0 -0.26389972709E+02  0.25821654346E+02 -0.25805522720E+02  0.45045682319E+02  0.00000000000E+00 0. -1.
         11    1    3    3    0    0  0.22887788893E+01 -0.57100140069E+00 -0.23387505578E+00  0.23704955614E+01  0.51100000000E-03 0. -1.
        -11    1    3    3    0    0  0.19422612526E+02 -0.22061020093E+02  0.23151596159E+02  0.37415543426E+02  0.51100000000E-03 0.  1.
        -12    1    3    3    0    0  0.46785812933E+01 -0.31896328523E+01  0.28878016169E+01  0.63562786934E+01  0.00000000000E+00 0.  1.
</event>
<event>
 7    1  0.2313935E-008  0.4614232E+02  0.7816164E-02  0.1320468E+00
        -11   -1    0    0    0    0  0.00000000000E+00  0.00000000000E+00  0.45593999997E+02  0.45594000000E+02  0.51100000000E-03 0.  1.
         11   -1    0    0    0    0 -0.00000000000E+00 -0.00000000000E+00 -0.45593999997E+02  0.45594000000E+02  0.51100000000E-03 0. -1.
    9900012    2    1    2    0    0 -0.11537716670E+02 -0.20298041699E+02  0.38522516351E+02  0.46142315758E+02  0.99999817373E+01 0.  0.
         12    1    1    2    0    0  0.11537716670E+02  0.20298041699E+02 -0.38522516351E+02  0.45045684242E+02  0.00000000000E+00 0. -1.
         11    1    3    3    0    0 -0.11039054064E+01 -0.12389013774E+01  0.25766361876E+01  0.30647247958E+01  0.51100000000E-03 0. -1.
        -11    1    3    3    0    0 -0.10285809348E+02 -0.18733890577E+02  0.28499883615E+02  0.35623024807E+02  0.51100000000E-03 0.  1.
         12    1    3    3    0    0 -0.14800191531E+00 -0.32524974498E+00  0.74459965488E+01  0.74545661556E+01  0.00000000000E+00 0. -1.
</event>
<event>
 7    1  0.2313935E-008  0.4614232E+02  0.7816164E-02  0.1320468E+00
        -11   -1    0    0    0    0  0.00000000000E+00  0.00000000000E+00  0.45593999997E+02  0.45594000000E+02  0.51100000000E-03 0.  1.
         11   -1    0    0    0    0 -0.00000000000E+00 -0.00000000000E+00 -0.45593999997E+02  0.45594000000E+02  0.51100000000E-03 0. -1.
    9900012    2    1    2    0    0  0.25785185103E+02 -0.21758535506E+02  0.29846337204E+02  0.46142317824E+02  0.10000000574E+02 0.  0.
         12    1    1    2    0    0 -0.25785185103E+02  0.21758535506E+02 -0.29846337204E+02  0.45045682176E+02  0.00000000000E+00 0. -1.
         11    1    3    3    0    0  0.30099826617E+01 -0.29390126172E-01  0.54374903873E+01  0.62150753315E+01  0.51100000000E-03 0. -1.
        -11    1    3    3    0    0  0.12869386991E+02 -0.12698381959E+02  0.12332911551E+02  0.21885400008E+02  0.51100000000E-03 0.  1.
        -12    1    3    3    0    0  0.99058154507E+01 -0.90307634203E+01  0.12075935266E+02  0.18041842485E+02  0.00000000000E+00 0.  1.
</event>
<event>
 7    1  0.2313935E-008  0.4614232E+02  0.7816164E-02  0.1320468E+00
        -11   -1    0    0    0    0  0.00000000000E+00  0.00000000000E+00  0.45593999997E+02  0.45594000000E+02  0.51100000000E-03 0. -1.
         11   -1    0    0    0    0 -0.00000000000E+00 -0.00000000000E+00 -0.45593999997E+02  0.45594000000E+02  0.51100000000E-03 0.  1.
    9900012    2    1    2    0    0 -0.41015465611E+02  0.12661983206E+01 -0.18580682683E+02  0.46142318227E+02  0.10000004244E+02 0.  0.
         12    1    1    2    0    0  0.41015465611E+02 -0.12661983206E+01  0.18580682683E+02  0.45045681773E+02  0.00000000000E+00 0. -1.
         11    1    3    3    0    0 -0.50557382077E+01 -0.23724832848E+00 -0.38711998825E+01  0.63720455417E+01  0.51100000000E-03 0. -1.
        -11    1    3    3    0    0 -0.63486804546E+01 -0.48202650729E+00  0.56623055141E+00  0.63920818492E+01  0.51100000000E-03 0.  1.
         12    1    3    3    0    0 -0.29611046949E+02  0.19854731563E+01 -0.15275713352E+02  0.33378190836E+02  0.00000000000E+00 0. -1.
</event>
<event>
 7    1  0.2313935E-008  0.4614232E+02  0.7816164E-02  0.1320468E+00
        -11   -1    0    0    0    0  0.00000000000E+00  0.00000000000E+00  0.45593999997E+02  0.45594000000E+02  0.51100000000E-03 0.  1.
         11   -1    0    0    0    0 -0.00000000000E+00 -0.00000000000E+00 -0.45593999997E+02  0.45594000000E+02  0.51100000000E-03 0. -1.
    9900012    2    1    2    0    0  0.30269788428E+02 -0.33729899730E+01  0.33188498759E+02  0.46142316492E+02  0.99999884295E+01 0.  0.
         12    1    1    2    0    0 -0.30269788428E+02  0.33729899730E+01 -0.33188498759E+02  0.45045683508E+02  0.00000000000E+00 0. -1.
         11    1    3    3    0    0  0.50971047421E+01 -0.25111700949E+01  0.39382242269E+01  0.69134696297E+01  0.51100000000E-03 0. -1.
        -11    1    3    3    0    0  0.57728430556E+01  0.67979422486E+00  0.29703308516E+01  0.65276873976E+01  0.51100000000E-03 0.  1.
        -12    1    3    3    0    0  0.19399840630E+02 -0.15416141030E+01  0.26279943680E+02  0.32701159465E+02  0.00000000000E+00 0.  1.
</event>
<event>
 7    1  0.2313935E-008  0.4614232E+02  0.7816164E-02  0.1320468E+00
        -11   -1    0    0    0    0  0.00000000000E+00  0.00000000000E+00  0.45593999997E+02  0.45594000000E+02  0.51100000000E-03 0.  1.
         11   -1    0    0    0    0 -0.00000000000E+00 -0.00000000000E+00 -0.45593999997E+02  0.45594000000E+02  0.51100000000E-03 0. -1.
    9900012    2    1    2    0    0  0.14028303361E+02  0.32900462597E+02 -0.27383932541E+02  0.46142317680E+02  0.99999992581E+01 0.  0.
         12    1    1    2    0    0 -0.14028303361E+02 -0.32900462597E+02  0.27383932541E+02  0.45045682320E+02  0.00000000000E+00 0. -1.
         11    1    3    3    0    0 -0.13176916390E+01  0.54243641388E+01 -0.37149229822E+01  0.67052733420E+01  0.51100000000E-03 0. -1.
        -11    1    3    3    0    0  0.73065801730E+01  0.11577814418E+02 -0.11255643431E+02  0.17723470592E+02  0.51100000000E-03 0.  1.
         12    1    3    3    0    0  0.80394148268E+01  0.15898284041E+02 -0.12413366128E+02  0.21713573746E+02  0.00000000000E+00 0. -1.
</event>
<event>
 7    1  0.2313935E-008  0.4614231E+02  0.7816164E-02  0.1320468E+00
        -11   -1    0    0    0    0  0.00000000000E+00  0.00000000000E+00  0.45593999997E+02  0.45594000000E+02  0.51100000000E-03 0. -1.
         11   -1    0    0    0    0 -0.00000000000E+00 -0.00000000000E+00 -0.45593999997E+02  0.45594000000E+02  0.51100000000E-03 0.  1.
    9900012    2    1    2    0    0 -0.44566172297E+02  0.41089179691E+01  0.51075256118E+01  0.46142314991E+02  0.99999747384E+01 0.  0.
         12    1    1    2    0    0  0.44566172297E+02 -0.41089179691E+01 -0.51075256118E+01  0.45045685009E+02  0.00000000000E+00 0. -1.
         11    1    3    3    0    0 -0.19968221580E+02  0.28280079792E+01  0.14113807154E+01  0.20216812261E+02  0.51100000000E-03 0. -1.
        -11    1    3    3    0    0 -0.15841978847E+02 -0.23420891707E+01  0.37587378731E+01  0.16449370387E+02  0.51100000000E-03 0.  1.
         12    1    3    3    0    0 -0.87559718698E+01  0.36229991605E+01 -0.62592976594E-01  0.94761323430E+01  0.00000000000E+00 0. -1.
</event>
<event>
 7    1  0.2313935E-008  0.4614232E+02  0.7816164E-02  0.1320468E+00
        -11   -1    0    0    0    0  0.00000000000E+00  0.00000000000E+00  0.45593999997E+02  0.45594000000E+02  0.51100000000E-03 0. -1.
         11   -1    0    0    0    0 -0.00000000000E+00 -0.00000000000E+00 -0.45593999997E+02  0.45594000000E+02  0.51100000000E-03 0.  1.
    9900012    2    1    2    0    0  0.75620489755E+01 -0.27497849940E+02 -0.34868283236E+02  0.46142317500E+02  0.99999976228E+01 0.  0.
         12    1    1    2    0    0 -0.75620489755E+01  0.27497849940E+02  0.34868283236E+02  0.45045682500E+02  0.00000000000E+00 0. -1.
         11    1    3    3    0    0  0.15235645509E+01 -0.13438272117E+02 -0.18919489479E+02  0.23256299981E+02  0.51100000000E-03 0.  1.
        -11    1    3    3    0    0  0.65569572651E+01 -0.11102865935E+02 -0.10354850956E+02  0.16537540903E+02  0.51100000000E-03 0. -1.
        -12    1    3    3    0    0 -0.51847284048E+00 -0.29567118880E+01 -0.55939428018E+01  0.63484766161E+01  0.00000000000E+00 0.  1.
</event>
<event>
 7    1  0.2313935E-008  0.4614232E+02  0.7816164E-02  0.1320468E+00
        -11   -1    0    0    0    0  0.00000000000E+00  0.00000000000E+00  0.45593999997E+02  0.45594000000E+02  0.51100000000E-03 0.  1.
         11   -1    0    0    0    0 -0.00000000000E+00 -0.00000000000E+00 -0.45593999997E+02  0.45594000000E+02  0.51100000000E-03 0. -1.
    9900012    2    1    2    0    0  0.10651572944E+02  0.36752616748E+01  0.43613645162E+02  0.46142316534E+02  0.99999888128E+01 0.  0.
         12    1    1    2    0    0 -0.10651572944E+02 -0.36752616748E+01 -0.43613645162E+02  0.45045683466E+02  0.00000000000E+00 0. -1.
         11    1    3    3    0    0 -0.29184183974E+00  0.12591264800E+01  0.92904308614E+00  0.15917576665E+01  0.51100000000E-03 0. -1.
        -11    1    3    3    0    0  0.10733697159E+02  0.37279171301E+01  0.36627436156E+02  0.38349428945E+02  0.51100000000E-03 0.  1.
        -12    1    3    3    0    0  0.20971762459E+00 -0.13117819353E+01  0.60571659206E+01  0.62011299226E+01  0.00000000000E+00 0.  1.
</event>
<event>
 7    1  0.2313935E-008  0.4614232E+02  0.7816164E-02  0.1320468E+00
        -11   -1    0    0    0    0  0.00000000000E+00  0.00000000000E+00  0.45593999997E+02  0.45594000000E+02  0.51100000000E-03 0. -1.
         11   -1    0    0    0    0 -0.00000000000E+00 -0.00000000000E+00 -0.45593999997E+02  0.45594000000E+02  0.51100000000E-03 0.  1.
    9900012    2    1    2    0    0 -0.98371364216E+01  0.40479075016E+02 -0.17140265033E+02  0.46142318159E+02  0.10000003627E+02 0.  0.
         12    1    1    2    0    0  0.98371364216E+01 -0.40479075016E+02  0.17140265033E+02  0.45045681841E+02  0.00000000000E+00 0. -1.
         11    1    3    3    0    0  0.47259588510E+00  0.44982371186E+01  0.18711234733E+00  0.45268637419E+01  0.51100000000E-03 0. -1.
        -11    1    3    3    0    0 -0.43508030708E+01  0.11106908001E+02 -0.30073961742E+01  0.12301923618E+02  0.51100000000E-03 0.  1.
         12    1    3    3    0    0 -0.59589292358E+01  0.24873929896E+02 -0.14319981207E+02  0.29313530799E+02  0.00000000000E+00 0. -1.
</event>
<event>
 7    1  0.2313935E-008  0.4614231E+02  0.7816164E-02  0.1320468E+00
        -11   -1    0    0    0    0  0.00000000000E+00  0.00000000000E+00  0.45593999997E+02  0.45594000000E+02  0.51100000000E-03 0. -1.
         11   -1    0    0    0    0 -0.00000000000E+00 -0.00000000000E+00 -0.45593999997E+02  0.45594000000E+02  0.51100000000E-03 0.  1.
    9900012    2    1    2    0    0  0.28177854006E+02 -0.46822455530E+00 -0.35141187596E+02  0.46142314788E+02  0.99999728874E+01 0.  0.
         12    1    1    2    0    0 -0.28177854006E+02  0.46822455530E+00  0.35141187596E+02  0.45045685212E+02  0.00000000000E+00 0. -1.
         11    1    3    3    0    0  0.12050056637E+02 -0.80122524695E+00 -0.18765485728E+02  0.22315673454E+02  0.51100000000E-03 0. -1.
        -11    1    3    3    0    0  0.37861345419E+01 -0.15735783255E+01 -0.73573077242E+01  0.84226445209E+01  0.51100000000E-03 0.  1.
         12    1    3    3    0    0  0.12341662827E+02  0.19065790171E+01 -0.90183941436E+01  0.15403996813E+02  0.00000000000E+00 0. -1.
</event>
<event>
 7    1  0.2313935E-008  0.4614232E+02  0.7816164E-02  0.1320468E+00
        -11   -1    0    0    0    0  0.00000000000E+00  0.00000000000E+00  0.45593999997E+02  0.45594000000E+02  0.51100000000E-03 0. -1.
         11   -1    0    0    0    0 -0.00000000000E+00 -0.00000000000E+00 -0.45593999997E+02  0.45594000000E+02  0.51100000000E-03 0.  1.
    9900012    2    1    2    0    0 -0.38342976775E+02 -0.17484405540E+02 -0.15913046587E+02  0.46142319222E+02  0.10000013325E+02 0.  0.
         12    1    1    2    0    0  0.38342976775E+02  0.17484405540E+02  0.15913046587E+02  0.45045680778E+02  0.00000000000E+00 0. -1.
         11    1    3    3    0    0 -0.26458969644E+02 -0.89693150044E+01 -0.76813726377E+01  0.28974629802E+02  0.51100000000E-03 0.  1.
        -11    1    3    3    0    0 -0.13255595914E+01  0.20477111611E+00 -0.10607567752E+01  0.17100422912E+01  0.51100000000E-03 0. -1.
        -12    1    3    3    0    0 -0.10558447539E+02 -0.87198616519E+01 -0.71709171743E+01  0.15457647129E+02  0.00000000000E+00 0.  1.
</event>
<event>
 7    1  0.2313935E-008  0.4614232E+02  0.7816164E-02  0.1320468E+00
        -11   -1    0    0    0    0  0.00000000000E+00  0.00000000000E+00  0.45593999997E+02  0.45594000000E+02  0.51100000000E-03 0. -1.
         11   -1    0    0    0    0 -0.00000000000E+00 -0.00000000000E+00 -0.45593999997E+02  0.45594000000E+02  0.51100000000E-03 0.  1.
    9900012    2    1    2    0    0  0.36271254917E+01 -0.86387501327E+01 -0.44060520018E+02  0.46142317993E+02  0.10000002116E+02 0.  0.
         12    1    1    2    0    0 -0.36271254917E+01  0.86387501327E+01  0.44060520018E+02  0.45045682007E+02  0.00000000000E+00 0. -1.
         11    1    3    3    0    0 -0.11634938914E+00  0.14354743798E+00  0.57886042199E-01  0.19363393893E+00  0.51100000000E-03 0. -1.
        -11    1    3    3    0    0  0.48792575991E+01 -0.91452405486E+01 -0.43246960564E+02  0.44471813294E+02  0.51100000000E-03 0.  1.
        -12    1    3    3    0    0 -0.11357827183E+01  0.36294297796E+00 -0.87144549671E+00  0.14768707601E+01  0.00000000000E+00 0.  1.
</event>
<event>
 7    1  0.2313935E-008  0.4614232E+02  0.7816164E-02  0.1320468E+00
        -11   -1    0    0    0    0  0.00000000000E+00  0.00000000000E+00  0.45593999997E+02  0.45594000000E+02  0.51100000000E-03 0. -1.
         11   -1    0    0    0    0 -0.00000000000E+00 -0.00000000000E+00 -0.45593999997E+02  0.45594000000E+02  0.51100000000E-03 0.  1.
    9900012    2    1    2    0    0  0.34840150334E+02 -0.51122784492E+00 -0.28548486872E+02  0.46142317278E+02  0.99999955948E+01 0.  0.
         12    1    1    2    0    0 -0.34840150334E+02  0.51122784492E+00  0.28548486872E+02  0.45045682722E+02  0.00000000000E+00 0. -1.
         11    1    3    3    0    0  0.11072079998E+02 -0.39333642405E+01 -0.68422243496E+01  0.13596997611E+02  0.51100000000E-03 0.  1.
        -11    1    3    3    0    0  0.15596254621E+01 -0.23855077856E+00 -0.59585621606E+00  0.16865298537E+01  0.51100000000E-03 0. -1.
        -12    1    3    3    0    0  0.22208444874E+02  0.36606871741E+01 -0.21110406307E+02  0.30858789813E+02  0.00000000000E+00 0.  1.
</event>
<event>
 7    1  0.2313935E-008  0.4614230E+02  0.7816164E-02  0.1320468E+00
        -11   -1    0    0    0    0  0.00000000000E+00  0.00000000000E+00  0.45593999997E+02  0.45594000000E+02  0.51100000000E-03 0. -1.
         11   -1    0    0    0    0 -0.00000000000E+00 -0.00000000000E+00 -0.45593999997E+02  0.45594000000E+02  0.51100000000E-03 0.  1.
    9900012    2    1    2    0    0 -0.43719218577E+02  0.62625380717E+01 -0.88614534146E+01  0.46142303061E+02  0.99998659524E+01 0.  0.
         12    1    1    2    0    0  0.43719218577E+02 -0.62625380717E+01  0.88614534146E+01  0.45045696939E+02  0.00000000000E+00 0. -1.
         11    1    3    3    0    0 -0.41321500603E+00 -0.11511179039E+00 -0.17388663783E+01  0.17909924367E+01  0.51100000000E-03 0. -1.
        -11    1    3    3    0    0 -0.41493721444E+01  0.75002939291E+00 -0.70921048374E+00  0.42758406254E+01  0.51100000000E-03 0.  1.
         12    1    3    3    0    0 -0.39156631427E+02  0.56276204692E+01 -0.64133765526E+01  0.40075469999E+02  0.00000000000E+00 0. -1.
</event>
<event>
 7    1  0.2313935E-008  0.4614232E+02  0.7816164E-02  0.1320468E+00
        -11   -1    0    0    0    0  0.00000000000E+00  0.00000000000E+00  0.45593999997E+02  0.45594000000E+02  0.51100000000E-03 0.  1.
         11   -1    0    0    0    0 -0.00000000000E+00 -0.00000000000E+00 -0.45593999997E+02  0.45594000000E+02  0.51100000000E-03 0. -1.
    9900012    2    1    2    0    0 -0.30808075254E+02  0.32747047947E+02  0.27580349516E+01  0.46142318666E+02  0.10000008248E+02 0.  0.
         12    1    1    2    0    0  0.30808075254E+02 -0.32747047947E+02 -0.27580349516E+01  0.45045681334E+02  0.00000000000E+00 0. -1.
         11    1    3    3    0    0 -0.77152059692E+01  0.74137228758E+01 -0.89707077233E+00  0.10737431083E+02  0.51100000000E-03 0.  1.
        -11    1    3    3    0    0 -0.14716530414E+02  0.11664130356E+02 -0.70299077005E+00  0.18791551311E+02  0.51100000000E-03 0. -1.
         12    1    3    3    0    0 -0.83763388713E+01  0.13669194714E+02  0.43580964940E+01  0.16613336272E+02  0.00000000000E+00 0. -1.
</event>
<event>
 7    1  0.2313935E-008  0.4614232E+02  0.7816164E-02  0.1320468E+00
        -11   -1    0    0    0    0  0.00000000000E+00  0.00000000000E+00  0.45593999997E+02  0.45594000000E+02  0.51100000000E-03 0.  1.
         11   -1    0    0    0    0 -0.00000000000E+00 -0.00000000000E+00 -0.45593999997E+02  0.45594000000E+02  0.51100000000E-03 0. -1.
    9900012    2    1    2    0    0 -0.31743143974E+02 -0.46869589243E+01  0.31615165328E+02  0.46142318165E+02  0.10000003682E+02 0.  0.
         12    1    1    2    0    0  0.31743143974E+02  0.46869589243E+01 -0.31615165328E+02  0.45045681835E+02  0.00000000000E+00 0. -1.
         11    1    3    3    0    0 -0.42678235367E+01 -0.17860656731E+01  0.68735180842E+01  0.82855053825E+01  0.51100000000E-03 0. -1.
        -11    1    3    3    0    0 -0.27909018046E+02 -0.25296407342E+01  0.24545662473E+02  0.37253213513E+02  0.51100000000E-03 0.  1.
         12    1    3    3    0    0  0.43369760930E+00 -0.37125251708E+00  0.19598477056E+00  0.60359926941E+00  0.00000000000E+00 0. -1.
</event>
<event>
 7    1  0.2313935E-008  0.4614232E+02  0.7816164E-02  0.1320468E+00
        -11   -1    0    0    0    0  0.00000000000E+00  0.00000000000E+00  0.45593999997E+02  0.45594000000E+02  0.51100000000E-03 0.  1.
         11   -1    0    0    0    0 -0.00000000000E+00 -0.00000000000E+00 -0.45593999997E+02  0.45594000000E+02  0.51100000000E-03 0. -1.
    9900012    2    1    2    0    0 -0.25225123296E+02 -0.21323654765E+02  0.30628551208E+02  0.46142320440E+02  0.10000024433E+02 0.  0.
         12    1    1    2    0    0  0.25225123296E+02  0.21323654765E+02 -0.30628551208E+02  0.45045679560E+02  0.00000000000E+00 0. -1.
         11    1    3    3    0    0 -0.27914773069E+01 -0.60121738114E+01  0.79532227089E+01  0.10353372939E+02  0.51100000000E-03 0. -1.
        -11    1    3    3    0    0 -0.16432294959E+01 -0.25742345210E+01  0.11452151392E+01  0.32616567142E+01  0.51100000000E-03 0.  1.
        -12    1    3    3    0    0 -0.20790416493E+02 -0.12737246433E+02  0.21530113360E+02  0.32527290787E+02  0.00000000000E+00 0.  1.
</event>
<event>
 7    1  0.2313935E-008  0.4614232E+02  0.7816164E-02  0.1320468E+00
        -11   -1    0    0    0    0  0.00000000000E+00  0.00000000000E+00  0.45593999997E+02  0.45594000000E+02  0.51100000000E-03 0.  1.
         11   -1    0    0    0    0 -0.00000000000E+00 -0.00000000000E+00 -0.45593999997E+02  0.45594000000E+02  0.51100000000E-03 0. -1.
    9900012    2    1    2    0    0 -0.26264691740E+02 -0.58484163986E+01  0.36125827610E+02  0.46142318441E+02  0.10000006204E+02 0.  0.
         12    1    1    2    0    0  0.26264691740E+02  0.58484163986E+01 -0.36125827610E+02  0.45045681559E+02  0.00000000000E+00 0. -1.
         11    1    3    3    0    0 -0.47576620587E+01 -0.18164424545E+01  0.11357636360E+02  0.12447116751E+02  0.51100000000E-03 0. -1.
        -11    1    3    3    0    0 -0.47721150197E+01 -0.28843602218E+01  0.94852970965E+01  0.11002884936E+02  0.51100000000E-03 0.  1.
        -12    1    3    3    0    0 -0.16734914662E+02 -0.11476137223E+01  0.15282894153E+02  0.22692316755E+02  0.00000000000E+00 0.  1.
</event>
<event>
 7    1  0.2313935E-008  0.4614232E+02  0.7816164E-02  0.1320468E+00
        -11   -1    0    0    0    0  0.00000000000E+00  0.00000000000E+00  0.45593999997E+02  0.45594000000E+02  0.51100000000E-03 0.  1.
         11   -1    0    0    0    0 -0.00000000000E+00 -0.00000000000E+00 -0.45593999997E+02  0.45594000000E+02  0.51100000000E-03 0. -1.
    9900012    2    1    2    0    0 -0.29875422787E+02 -0.29080701192E+02 -0.17055365403E+02  0.46142316993E+02  0.99999929953E+01 0.  0.
         12    1    1    2    0    0  0.29875422787E+02  0.29080701192E+02  0.17055365403E+02  0.45045683007E+02  0.00000000000E+00 0. -1.
         11    1    3    3    0    0 -0.11802635445E+02 -0.13754855216E+02 -0.11441577273E+02  0.21433803587E+02  0.51100000000E-03 0. -1.
        -11    1    3    3    0    0 -0.34818602457E+01 -0.21115874451E+01 -0.25004061023E+01  0.47785126605E+01  0.51100000000E-03 0.  1.
        -12    1    3    3    0    0 -0.14590927097E+02 -0.13214258531E+02 -0.31133820284E+01  0.19930000746E+02  0.00000000000E+00 0.  1.
</event>
<event>
 7    1  0.2313935E-008  0.4614232E+02  0.7816164E-02  0.1320468E+00
        -11   -1    0    0    0    0  0.00000000000E+00  0.00000000000E+00  0.45593999997E+02  0.45594000000E+02  0.51100000000E-03 0.  1.
         11   -1    0    0    0    0 -0.00000000000E+00 -0.00000000000E+00 -0.45593999997E+02  0.45594000000E+02  0.51100000000E-03 0. -1.
    9900012    2    1    2    0    0  0.15596874096E+02  0.28414189032E+02  0.31280742675E+02  0.46142317830E+02  0.10000000627E+02 0.  0.
         12    1    1    2    0    0 -0.15596874096E+02 -0.28414189032E+02 -0.31280742675E+02  0.45045682170E+02  0.00000000000E+00 0. -1.
         11    1    3    3    0    0 -0.17589891622E+00  0.88960566550E+00 -0.63310157504E+00  0.11059640746E+01  0.51100000000E-03 0. -1.
        -11    1    3    3    0    0  0.82770795804E+01  0.15804133863E+02  0.17055502793E+02  0.24681387103E+02  0.51100000000E-03 0.  1.
         12    1    3    3    0    0  0.74956934322E+01  0.11720449504E+02  0.14858341456E+02  0.20354966653E+02  0.00000000000E+00 0. -1.
</event>
<event>
 7    1  0.2313935E-008  0.4614232E+02  0.7816164E-02  0.1320468E+00
        -11   -1    0    0    0    0  0.00000000000E+00  0.00000000000E+00  0.45593999997E+02  0.45594000000E+02  0.51100000000E-03 0.  1.
         11   -1    0    0    0    0 -0.00000000000E+00 -0.00000000000E+00 -0.45593999997E+02  0.45594000000E+02  0.51100000000E-03 0. -1.
    9900012    2    1    2    0    0  0.26080152662E+01 -0.22380228260E+02  0.39005598425E+02  0.46142322415E+02  0.10000042440E+02 0.  0.
         12    1    1    2    0    0 -0.26080152662E+01  0.22380228260E+02 -0.39005598425E+02  0.45045677585E+02  0.00000000000E+00 0. -1.
         11    1    3    3    0    0  0.38206681908E+01 -0.58135106920E+01  0.10242291571E+02  0.12381395272E+02  0.51100000000E-03 0. -1.
        -11    1    3    3    0    0 -0.47869628642E+00 -0.16317528707E+02  0.24584350135E+02  0.29510695774E+02  0.51100000000E-03 0.  1.
         12    1    3    3    0    0 -0.73395663821E+00 -0.24918886064E+00  0.41789567190E+01  0.42502313695E+01  0.00000000000E+00 0. -1.
</event>
<event>
 7    1  0.2313935E-008  0.4614232E+02  0.7816164E-02  0.1320468E+00
        -11   -1    0    0    0    0  0.00000000000E+00  0.00000000000E+00  0.45593999997E+02  0.45594000000E+02  0.51100000000E-03 0.  1.
         11   -1    0    0    0    0 -0.00000000000E+00 -0.00000000000E+00 -0.45593999997E+02  0.45594000000E+02  0.51100000000E-03 0. -1.
    9900012    2    1    2    0    0  0.10791204806E+02 -0.29071547919E+02  0.32672747140E+02  0.46142318684E+02  0.10000008412E+02 0.  0.
         12    1    1    2    0    0 -0.10791204806E+02  0.29071547919E+02 -0.32672747140E+02  0.45045681316E+02  0.00000000000E+00 0. -1.
         11    1    3    3    0    0  0.13502470235E+01 -0.11367456880E+02  0.96098981627E+01  0.14946316800E+02  0.51100000000E-03 0. -1.
        -11    1    3    3    0    0  0.44028176728E+01 -0.13948259032E+02  0.17459448668E+02  0.22776546743E+02  0.51100000000E-03 0.  1.
         12    1    3    3    0    0  0.50381401098E+01 -0.37558320078E+01  0.56034003096E+01  0.84194551407E+01  0.00000000000E+00 0. -1.
</event>
<event>
 7    1  0.2313935E-008  0.4614233E+02  0.7816164E-02  0.1320468E+00
        -11   -1    0    0    0    0  0.00000000000E+00  0.00000000000E+00  0.45593999997E+02  0.45594000000E+02  0.51100000000E-03 0.  1.
         11   -1    0    0    0    0 -0.00000000000E+00 -0.00000000000E+00 -0.45593999997E+02  0.45594000000E+02  0.51100000000E-03 0. -1.
    9900012    2    1    2    0    0 -0.33365272672E+02  0.30256120037E+02 -0.66227940253E+00  0.46142325022E+02  0.10000066209E+02 0.  0.
         12    1    1    2    0    0  0.33365272672E+02 -0.30256120037E+02  0.66227940253E+00  0.45045674978E+02  0.00000000000E+00 0. -1.
         11    1    3    3    0    0 -0.14970564811E+02  0.18665157367E+02  0.35271522477E+00  0.23929695330E+02  0.51100000000E-03 0. -1.
        -11    1    3    3    0    0 -0.10017852651E+02  0.88540247663E+01 -0.88486795455E+00  0.13399034214E+02  0.51100000000E-03 0.  1.
         12    1    3    3    0    0 -0.83768552100E+01  0.27369379046E+01 -0.13012667274E+00  0.88135954782E+01  0.00000000000E+00 0. -1.
</event>
<event>
 7    1  0.2313935E-008  0.4614232E+02  0.7816164E-02  0.1320468E+00
        -11   -1    0    0    0    0  0.00000000000E+00  0.00000000000E+00  0.45593999997E+02  0.45594000000E+02  0.51100000000E-03 0. -1.
         11   -1    0    0    0    0 -0.00000000000E+00 -0.00000000000E+00 -0.45593999997E+02  0.45594000000E+02  0.51100000000E-03 0.  1.
    9900012    2    1    2    0    0 -0.34611960669E+02 -0.27602043534E+02 -0.83218332714E+01  0.46142317214E+02  0.99999950154E+01 0.  0.
         12    1    1    2    0    0  0.34611960669E+02  0.27602043534E+02  0.83218332714E+01  0.45045682786E+02  0.00000000000E+00 0. -1.
         11    1    3    3    0    0 -0.31018307121E+01 -0.43476122814E+00 -0.11317634475E+01  0.33303543136E+01  0.51100000000E-03 0. -1.
        -11    1    3    3    0    0 -0.10708994636E+02 -0.54370428152E+01 -0.34701075784E+01  0.12501425821E+02  0.51100000000E-03 0.  1.
        -12    1    3    3    0    0 -0.20801135321E+02 -0.21730239491E+02 -0.37199622455E+01  0.30310537080E+02  0.00000000000E+00 0.  1.
</event>
<event>
 7    1  0.2313935E-008  0.4614232E+02  0.7816164E-02  0.1320468E+00
        -11   -1    0    0    0    0  0.00000000000E+00  0.00000000000E+00  0.45593999997E+02  0.45594000000E+02  0.51100000000E-03 0.  1.
         11   -1    0    0    0    0 -0.00000000000E+00 -0.00000000000E+00 -0.45593999997E+02  0.45594000000E+02  0.51100000000E-03 0. -1.
    9900012    2    1    2    0    0  0.28006183059E+02  0.26325542620E+02  0.23488986536E+02  0.46142323490E+02  0.10000052238E+02 0.  0.
         12    1    1    2    0    0 -0.28006183059E+02 -0.26325542620E+02 -0.23488986536E+02  0.45045676510E+02  0.00000000000E+00 0. -1.
         11    1    3    3    0    0  0.10692226747E+02  0.84707816144E+01  0.41443326182E+01  0.14256694816E+02  0.51100000000E-03 0. -1.
        -11    1    3    3    0    0  0.72062608789E+01  0.68371297337E+01  0.48228274110E+01  0.11042472701E+02  0.51100000000E-03 0.  1.
         12    1    3    3    0    0  0.10107695433E+02  0.11017631272E+02  0.14521826507E+02  0.20843155973E+02  0.00000000000E+00 0. -1.
</event>
<event>
 7    1  0.2313935E-008  0.4614232E+02  0.7816164E-02  0.1320468E+00
        -11   -1    0    0    0    0  0.00000000000E+00  0.00000000000E+00  0.45593999997E+02  0.45594000000E+02  0.51100000000E-03 0.  1.
         11   -1    0    0    0    0 -0.00000000000E+00 -0.00000000000E+00 -0.45593999997E+02  0.45594000000E+02  0.51100000000E-03 0. -1.
    9900012    2    1    2    0    0 -0.29966494914E+02  0.24988252233E+02  0.22510211621E+02  0.46142321025E+02  0.10000029765E+02 0.  0.
         12    1    1    2    0    0  0.29966494914E+02 -0.24988252233E+02 -0.22510211621E+02  0.45045678975E+02  0.00000000000E+00 0. -1.
         11    1    3    3    0    0 -0.18420463954E+01  0.53314040001E+01  0.39689303552E+01  0.68970582106E+01  0.51100000000E-03 0. -1.
        -11    1    3    3    0    0 -0.97814385540E+01  0.72995132274E+01  0.89662786730E+01  0.15144424289E+02  0.51100000000E-03 0.  1.
        -12    1    3    3    0    0 -0.18343009964E+02  0.12357335005E+02  0.95750025929E+01  0.24100838526E+02  0.00000000000E+00 0.  1.
</event>
<event>
 7    1  0.2313935E-008  0.4614232E+02  0.7816164E-02  0.1320468E+00
        -11   -1    0    0    0    0  0.00000000000E+00  0.00000000000E+00  0.45593999997E+02  0.45594000000E+02  0.51100000000E-03 0.  1.
         11   -1    0    0    0    0 -0.00000000000E+00 -0.00000000000E+00 -0.45593999997E+02  0.45594000000E+02  0.51100000000E-03 0. -1.
    9900012    2    1    2    0    0  0.54347169906E+01 -0.42670406105E+02  0.13372129513E+02  0.46142317036E+02  0.99999933914E+01 0.  0.
         12    1    1    2    0    0 -0.54347169906E+01  0.42670406105E+02 -0.13372129513E+02  0.45045682964E+02  0.00000000000E+00 0. -1.
         11    1    3    3    0    0  0.17416135512E+01 -0.46230875384E+01 -0.97826035704E+00  0.50361840452E+01  0.51100000000E-03 0. -1.
        -11    1    3    3    0    0  0.48431195907E+01 -0.29495420265E+02  0.11231362519E+02  0.31930849163E+02  0.51100000000E-03 0.  1.
        -12    1    3    3    0    0 -0.11500161512E+01 -0.85518983015E+01  0.31190273511E+01  0.91752838280E+01  0.00000000000E+00 0.  1.
</event>
<event>
 7    1  0.2313935E-008  0.4614232E+02  0.7816164E-02  0.1320468E+00
        -11   -1    0    0    0    0  0.00000000000E+00  0.00000000000E+00  0.45593999997E+02  0.45594000000E+02  0.51100000000E-03 0. -1.
         11   -1    0    0    0    0 -0.00000000000E+00 -0.00000000000E+00 -0.45593999997E+02  0.45594000000E+02  0.51100000000E-03 0.  1.
    9900012    2    1    2    0    0  0.29593198569E+02  0.32486655502E+02  0.98981504931E+01  0.46142316850E+02  0.99999916943E+01 0.  0.
         12    1    1    2    0    0 -0.29593198569E+02 -0.32486655502E+02 -0.98981504931E+01  0.45045683150E+02  0.00000000000E+00 0. -1.
         11    1    3    3    0    0  0.21527900305E+01  0.28607719652E+01  0.28711439982E+01  0.45893342951E+01  0.51100000000E-03 0. -1.
        -11    1    3    3    0    0  0.18484534047E+02  0.15003377363E+02  0.40192354300E+01  0.24144017581E+02  0.51100000000E-03 0.  1.
         12    1    3    3    0    0  0.89558744913E+01  0.14622506174E+02  0.30077710649E+01  0.17408964974E+02  0.00000000000E+00 0. -1.
</event>
<event>
 7    1  0.2313935E-008  0.4614232E+02  0.7816164E-02  0.1320468E+00
        -11   -1    0    0    0    0  0.00000000000E+00  0.00000000000E+00  0.45593999997E+02  0.45594000000E+02  0.51100000000E-03 0.  1.
         11   -1    0    0    0    0 -0.00000000000E+00 -0.00000000000E+00 -0.45593999997E+02  0.45594000000E+02  0.51100000000E-03 0. -1.
    9900012    2    1    2    0    0 -0.16866139401E+02  0.36255856108E+01  0.41611315712E+02  0.46142321799E+02  0.10000036823E+02 0.  0.
         12    1    1    2    0    0  0.16866139401E+02 -0.36255856108E+01 -0.41611315712E+02  0.45045678201E+02  0.00000000000E+00 0. -1.
         11    1    3    3    0    0  0.72698432105E-01  0.10162342308E+01  0.35141246234E+01  0.36588371382E+01  0.51100000000E-03 0. -1.
        -11    1    3    3    0    0 -0.48209268759E+01  0.43820463438E+01  0.14547027856E+02  0.15939249851E+02  0.51100000000E-03 0.  1.
         12    1    3    3    0    0 -0.12117910957E+02 -0.17726949638E+01  0.23550163232E+02  0.26544234810E+02  0.00000000000E+00 0. -1.
</event>
<event>
 7    1  0.2313935E-008  0.4614232E+02  0.7816164E-02  0.1320468E+00
        -11   -1    0    0    0    0  0.00000000000E+00  0.00000000000E+00  0.45593999997E+02  0.45594000000E+02  0.51100000000E-03 0.  1.
         11   -1    0    0    0    0 -0.00000000000E+00 -0.00000000000E+00 -0.45593999997E+02  0.45594000000E+02  0.51100000000E-03 0. -1.
    9900012    2    1    2    0    0  0.35187282219E+02 -0.69307916084E+00  0.28115624084E+02  0.46142317561E+02  0.99999981787E+01 0.  0.
         12    1    1    2    0    0 -0.35187282219E+02  0.69307916084E+00 -0.28115624084E+02  0.45045682439E+02  0.00000000000E+00 0. -1.
         11    1    3    3    0    0  0.73883145171E+01  0.11477154613E+01  0.59545570145E+01  0.95583048541E+01  0.51100000000E-03 0. -1.
        -11    1    3    3    0    0  0.24408015832E+02  0.79168292990E+00  0.20806513630E+02  0.32082534320E+02  0.51100000000E-03 0.  1.
         12    1    3    3    0    0  0.33909518704E+01 -0.26324775520E+01  0.13545534402E+01  0.45014783873E+01  0.00000000000E+00 0. -1.
</event>
<event>
 7    1  0.2313935E-008  0.4614232E+02  0.7816164E-02  0.1320468E+00
        -11   -1    0    0    0    0  0.00000000000E+00  0.00000000000E+00  0.45593999997E+02  0.45594000000E+02  0.51100000000E-03 0.  1.
         11   -1    0    0    0    0 -0.00000000000E+00 -0.00000000000E+00 -0.45593999997E+02  0.45594000000E+02  0.51100000000E-03 0. -1.
    9900012    2    1    2    0    0  0.14695227635E+02 -0.37428616575E+02  0.20304246546E+02  0.46142317835E+02  0.10000000670E+02 0.  0.
         12    1    1    2    0    0 -0.14695227635E+02  0.37428616575E+02 -0.20304246546E+02  0.45045682165E+02  0.00000000000E+00 0. -1.
         11    1    3    3    0    0  0.36723568789E+00 -0.29698694083E+01 -0.71251259190E+00  0.30761438210E+01  0.51100000000E-03 0. -1.
        -11    1    3    3    0    0  0.84068611960E+01 -0.24119753023E+02  0.12621704689E+02  0.28491143020E+02  0.51100000000E-03 0.  1.
         12    1    3    3    0    0  0.59211307511E+01 -0.10338994143E+02  0.83950544484E+01  0.14575030993E+02  0.00000000000E+00 0. -1.
</event>
<event>
 7    1  0.2313935E-008  0.4614232E+02  0.7816164E-02  0.1320468E+00
        -11   -1    0    0    0    0  0.00000000000E+00  0.00000000000E+00  0.45593999997E+02  0.45594000000E+02  0.51100000000E-03 0. -1.
         11   -1    0    0    0    0 -0.00000000000E+00 -0.00000000000E+00 -0.45593999997E+02  0.45594000000E+02  0.51100000000E-03 0.  1.
    9900012    2    1    2    0    0  0.43073526877E+02  0.12792299624E+02 -0.31846211302E+01  0.46142318087E+02  0.10000002971E+02 0.  0.
         12    1    1    2    0    0 -0.43073526877E+02 -0.12792299624E+02  0.31846211302E+01  0.45045681913E+02  0.00000000000E+00 0. -1.
         11    1    3    3    0    0  0.89126367545E+01  0.58278313586E+01  0.15222711126E+01  0.10757138182E+02  0.51100000000E-03 0.  1.
        -11    1    3    3    0    0  0.11017434189E+02  0.29109980368E+01  0.13222314585E+00  0.11396282240E+02  0.51100000000E-03 0. -1.
        -12    1    3    3    0    0  0.23143455933E+02  0.40534702284E+01 -0.48391153886E+01  0.23988897665E+02  0.00000000000E+00 0.  1.
</event>
<event>
 7    1  0.2481027E-008  0.4614232E+02  0.7816164E-02  0.1320468E+00
        -11   -1    0    0    0    0  0.00000000000E+00  0.00000000000E+00  0.45593999997E+02  0.45594000000E+02  0.51100000000E-03 0. -1.
         11   -1    0    0    0    0 -0.00000000000E+00 -0.00000000000E+00 -0.45593999997E+02  0.45594000000E+02  0.51100000000E-03 0.  1.
    9900012    2    1    2    0    0 -0.24542723242E+02 -0.10563726219E+02 -0.36265356397E+02  0.46142315963E+02  0.99999836079E+01 0.  0.
         12    1    1    2    0    0  0.24542723242E+02  0.10563726219E+02  0.36265356397E+02  0.45045684037E+02  0.00000000000E+00 0. -1.
         11    1    3    3    0    0 -0.10943298240E+01  0.11665427999E+01 -0.42291505434E+01  0.45215146188E+01  0.51100000000E-03 0. -1.
        -11    1    3    3    0    0 -0.10114332094E+02 -0.27976453204E+01 -0.11764485924E+02  0.15764823576E+02  0.51100000000E-03 0.  1.
         12    1    3    3    0    0 -0.13334061323E+02 -0.89326236983E+01 -0.20271719929E+02  0.25855977769E+02  0.00000000000E+00 0. -1.
</event>
<event>
 7    1  0.2313935E-008  0.4614232E+02  0.7816164E-02  0.1320468E+00
        -11   -1    0    0    0    0  0.00000000000E+00  0.00000000000E+00  0.45593999997E+02  0.45594000000E+02  0.51100000000E-03 0. -1.
         11   -1    0    0    0    0 -0.00000000000E+00 -0.00000000000E+00 -0.45593999997E+02  0.45594000000E+02  0.51100000000E-03 0.  1.
    9900012    2    1    2    0    0  0.29707165027E+02  0.33035567071E+02 -0.74329742775E+01  0.46142318162E+02  0.10000003654E+02 0.  0.
         12    1    1    2    0    0 -0.29707165027E+02 -0.33035567071E+02  0.74329742775E+01  0.45045681838E+02  0.00000000000E+00 0. -1.
         11    1    3    3    0    0  0.36907301400E+01  0.50098016429E+01 -0.24550109829E+01  0.66892959760E+01  0.51100000000E-03 0. -1.
        -11    1    3    3    0    0  0.17061506514E+02  0.23614256543E+02 -0.42853412320E+01  0.29446430451E+02  0.51100000000E-03 0.  1.
         12    1    3    3    0    0  0.89549283737E+01  0.44115088855E+01 -0.69262206259E+00  0.10006591735E+02  0.00000000000E+00 0. -1.
</event>
<event>
 7    1  0.2313935E-008  0.4614232E+02  0.7816164E-02  0.1320468E+00
        -11   -1    0    0    0    0  0.00000000000E+00  0.00000000000E+00  0.45593999997E+02  0.45594000000E+02  0.51100000000E-03 0.  1.
         11   -1    0    0    0    0 -0.00000000000E+00 -0.00000000000E+00 -0.45593999997E+02  0.45594000000E+02  0.51100000000E-03 0. -1.
    9900012    2    1    2    0    0  0.20307191715E+02 -0.10275579829E+01  0.40195466752E+02  0.46142318096E+02  0.10000003055E+02 0.  0.
         12    1    1    2    0    0 -0.20307191715E+02  0.10275579829E+01 -0.40195466752E+02  0.45045681904E+02  0.00000000000E+00 0. -1.
         11    1    3    3    0    0  0.36605244534E+01  0.10769580519E+01  0.31258818451E+01  0.49325870991E+01  0.51100000000E-03 0. -1.
        -11    1    3    3    0    0  0.80284869296E+01 -0.40693968024E+01  0.15940184955E+02  0.18305903129E+02  0.51100000000E-03 0.  1.
         12    1    3    3    0    0  0.86181803316E+01  0.19648807676E+01  0.21129399952E+02  0.22903827868E+02  0.00000000000E+00 0. -1.
</event>
<event>
 7    1  0.2313935E-008  0.4614232E+02  0.7816164E-02  0.1320468E+00
        -11   -1    0    0    0    0  0.00000000000E+00  0.00000000000E+00  0.45593999997E+02  0.45594000000E+02  0.51100000000E-03 0. -1.
         11   -1    0    0    0    0 -0.00000000000E+00 -0.00000000000E+00 -0.45593999997E+02  0.45594000000E+02  0.51100000000E-03 0.  1.
    9900012    2    1    2    0    0 -0.15320768467E+02 -0.40597471966E+02 -0.12092676783E+02  0.46142317541E+02  0.99999979920E+01 0.  0.
         12    1    1    2    0    0  0.15320768467E+02  0.40597471966E+02  0.12092676783E+02  0.45045682459E+02  0.00000000000E+00 0. -1.
         11    1    3    3    0    0 -0.19625520782E+01 -0.70036555023E+01 -0.53300610477E+01  0.90173361969E+01  0.51100000000E-03 0.  1.
        -11    1    3    3    0    0 -0.10911801408E+01 -0.85078403561E+01 -0.17397380501E+01  0.87521831773E+01  0.51100000000E-03 0. -1.
         12    1    3    3    0    0 -0.12267036248E+02 -0.25085976107E+02 -0.50228776851E+01  0.28372798167E+02  0.00000000000E+00 0. -1.
</event>
<event>
 7    1  0.2313935E-008  0.4614232E+02  0.7816164E-02  0.1320468E+00
        -11   -1    0    0    0    0  0.00000000000E+00  0.00000000000E+00  0.45593999997E+02  0.45594000000E+02  0.51100000000E-03 0.  1.
         11   -1    0    0    0    0 -0.00000000000E+00 -0.00000000000E+00 -0.45593999997E+02  0.45594000000E+02  0.51100000000E-03 0. -1.
    9900012    2    1    2    0    0 -0.85984260521E+01 -0.38054424942E+02  0.22517576768E+02  0.46142318167E+02  0.10000003704E+02 0.  0.
         12    1    1    2    0    0  0.85984260521E+01  0.38054424942E+02 -0.22517576768E+02  0.45045681833E+02  0.00000000000E+00 0. -1.
         11    1    3    3    0    0  0.13620345764E+01 -0.21212709819E+01 -0.72773752155E-01  0.25219486605E+01  0.51100000000E-03 0. -1.
        -11    1    3    3    0    0 -0.60401177229E+01 -0.21027117599E+02  0.12470028919E+02  0.25181825155E+02  0.51100000000E-03 0.  1.
        -12    1    3    3    0    0 -0.39203429056E+01 -0.14906036362E+02  0.10120321602E+02  0.18438544352E+02  0.00000000000E+00 0.  1.
</event>
<event>
 7    1  0.2313935E-008  0.4614232E+02  0.7816164E-02  0.1320468E+00
        -11   -1    0    0    0    0  0.00000000000E+00  0.00000000000E+00  0.45593999997E+02  0.45594000000E+02  0.51100000000E-03 0.  1.
         11   -1    0    0    0    0 -0.00000000000E+00 -0.00000000000E+00 -0.45593999997E+02  0.45594000000E+02  0.51100000000E-03 0. -1.
    9900012    2    1    2    0    0  0.41967917572E+02  0.15851543440E+02 -0.40664320995E+01  0.46142318689E+02  0.10000008459E+02 0.  0.
         12    1    1    2    0    0 -0.41967917572E+02 -0.15851543440E+02  0.40664320995E+01  0.45045681311E+02  0.00000000000E+00 0. -1.
         11    1    3    3    0    0  0.21005349498E+02  0.60548910278E+01 -0.17102522008E+01  0.21927411515E+02  0.51100000000E-03 0. -1.
        -11    1    3    3    0    0  0.54890946512E+01  0.54018584540E+01 -0.25976756094E+01  0.81276167282E+01  0.51100000000E-03 0.  1.
        -12    1    3    3    0    0  0.15473473423E+02  0.43947939581E+01  0.24149571076E+00  0.16087290445E+02  0.00000000000E+00 0.  1.
</event>
<event>
 7    1  0.2313935E-008  0.4614232E+02  0.7816164E-02  0.1320468E+00
        -11   -1    0    0    0    0  0.00000000000E+00  0.00000000000E+00  0.45593999997E+02  0.45594000000E+02  0.51100000000E-03 0. -1.
         11   -1    0    0    0    0 -0.00000000000E+00 -0.00000000000E+00 -0.45593999997E+02  0.45594000000E+02  0.51100000000E-03 0.  1.
    9900012    2    1    2    0    0  0.35067364353E+02 -0.13973662760E+02 -0.24579060189E+02  0.46142317705E+02  0.99999994920E+01 0.  0.
         12    1    1    2    0    0 -0.35067364353E+02  0.13973662760E+02  0.24579060189E+02  0.45045682295E+02  0.00000000000E+00 0. -1.
         11    1    3    3    0    0  0.12303555340E+02 -0.82654418660E+01 -0.76420162945E+01  0.16676193107E+02  0.51100000000E-03 0. -1.
        -11    1    3    3    0    0  0.23588661080E+01 -0.18145014836E+01 -0.59393147410E+00  0.30347025895E+01  0.51100000000E-03 0.  1.
         12    1    3    3    0    0  0.20404942905E+02 -0.38937194102E+01 -0.16343112420E+02  0.26431422008E+02  0.00000000000E+00 0. -1.
</event>
<event>
 7    1  0.2313935E-008  0.4614232E+02  0.7816164E-02  0.1320468E+00
        -11   -1    0    0    0    0  0.00000000000E+00  0.00000000000E+00  0.45593999997E+02  0.45594000000E+02  0.51100000000E-03 0. -1.
         11   -1    0    0    0    0 -0.00000000000E+00 -0.00000000000E+00 -0.45593999997E+02  0.45594000000E+02  0.51100000000E-03 0.  1.
    9900012    2    1    2    0    0 -0.21842965328E+02  0.47830607723E+00 -0.39392506464E+02  0.46142317892E+02  0.10000001191E+02 0.  0.
         12    1    1    2    0    0  0.21842965328E+02 -0.47830607723E+00  0.39392506464E+02  0.45045682108E+02  0.00000000000E+00 0. -1.
         11    1    3    3    0    0 -0.31369647593E+01  0.82006567346E+00 -0.26466983161E+01  0.41854590964E+01  0.51100000000E-03 0. -1.
        -11    1    3    3    0    0 -0.99089205079E+01 -0.94864813737E+00 -0.11470256959E+02  0.15187278686E+02  0.51100000000E-03 0.  1.
        -12    1    3    3    0    0 -0.87970800611E+01  0.60688854114E+00 -0.25275551189E+02  0.26769580109E+02  0.00000000000E+00 0.  1.
</event>
<event>
 7    1  0.2313935E-008  0.4614232E+02  0.7816164E-02  0.1320468E+00
        -11   -1    0    0    0    0  0.00000000000E+00  0.00000000000E+00  0.45593999997E+02  0.45594000000E+02  0.51100000000E-03 0. -1.
         11   -1    0    0    0    0 -0.00000000000E+00 -0.00000000000E+00 -0.45593999997E+02  0.45594000000E+02  0.51100000000E-03 0.  1.
    9900012    2    1    2    0    0  0.12739146484E+02 -0.43136700832E+02  0.24602246757E+01  0.46142317441E+02  0.99999970779E+01 0.  0.
         12    1    1    2    0    0 -0.12739146484E+02  0.43136700832E+02 -0.24602246757E+01  0.45045682559E+02  0.00000000000E+00 0. -1.
         11    1    3    3    0    0  0.20370433010E+01 -0.16150968067E+02  0.98268548721E+00  0.16308555606E+02  0.51100000000E-03 0. -1.
        -11    1    3    3    0    0  0.66014111468E+01 -0.22658073971E+02 -0.33466134064E+00  0.23602519858E+02  0.51100000000E-03 0.  1.
        -12    1    3    3    0    0  0.41006920365E+01 -0.43276587939E+01  0.18122005292E+01  0.62312419768E+01  0.00000000000E+00 0.  1.
</event>
<event>
 7    1  0.2313935E-008  0.4614232E+02  0.7816164E-02  0.1320468E+00
        -11   -1    0    0    0    0  0.00000000000E+00  0.00000000000E+00  0.45593999997E+02  0.45594000000E+02  0.51100000000E-03 0.  1.
         11   -1    0    0    0    0 -0.00000000000E+00 -0.00000000000E+00 -0.45593999997E+02  0.45594000000E+02  0.51100000000E-03 0. -1.
    9900012    2    1    2    0    0 -0.24415969115E+02  0.31600468978E+02  0.20841893610E+02  0.46142315227E+02  0.99999768936E+01 0.  0.
         12    1    1    2    0    0  0.24415969115E+02 -0.31600468978E+02 -0.20841893610E+02  0.45045684773E+02  0.00000000000E+00 0. -1.
         11    1    3    3    0    0 -0.17721460865E+02  0.21426403204E+02  0.11451616389E+02  0.30071256169E+02  0.51100000000E-03 0. -1.
        -11    1    3    3    0    0 -0.28990610518E+01  0.35331671874E+01  0.92691728555E+00  0.46633680181E+01  0.51100000000E-03 0.  1.
        -12    1    3    3    0    0 -0.37954471983E+01  0.66408985866E+01  0.84633599346E+01  0.11407691040E+02  0.00000000000E+00 0.  1.
</event>
<event>
 7    1  0.2313935E-008  0.4614232E+02  0.7816164E-02  0.1320468E+00
        -11   -1    0    0    0    0  0.00000000000E+00  0.00000000000E+00  0.45593999997E+02  0.45594000000E+02  0.51100000000E-03 0. -1.
         11   -1    0    0    0    0 -0.00000000000E+00 -0.00000000000E+00 -0.45593999997E+02  0.45594000000E+02  0.51100000000E-03 0.  1.
    9900012    2    1    2    0    0 -0.30811374248E+02 -0.16684611118E+02 -0.28308946484E+02  0.46142317829E+02  0.10000000620E+02 0.  0.
         12    1    1    2    0    0  0.30811374248E+02  0.16684611118E+02  0.28308946484E+02  0.45045682171E+02  0.00000000000E+00 0. -1.
         11    1    3    3    0    0 -0.29577025199E+01 -0.20804000113E+01 -0.86007595632E+00  0.37169610322E+01  0.51100000000E-03 0.  1.
        -11    1    3    3    0    0 -0.25582957517E+01 -0.23514021245E+01 -0.65000936166E+01  0.73705621489E+01  0.51100000000E-03 0. -1.
         12    1    3    3    0    0 -0.25295375976E+02 -0.12252808983E+02 -0.20948776911E+02  0.35054794648E+02  0.00000000000E+00 0. -1.
</event>
<event>
 7    1  0.2313935E-008  0.4614232E+02  0.7816164E-02  0.1320468E+00
        -11   -1    0    0    0    0  0.00000000000E+00  0.00000000000E+00  0.45593999997E+02  0.45594000000E+02  0.51100000000E-03 0. -1.
         11   -1    0    0    0    0 -0.00000000000E+00 -0.00000000000E+00 -0.45593999997E+02  0.45594000000E+02  0.51100000000E-03 0.  1.
    9900012    2    1    2    0    0 -0.78036537084E+01  0.23517527834E+02 -0.37618377914E+02  0.46142317815E+02  0.10000000491E+02 0.  0.
         12    1    1    2    0    0  0.78036537084E+01 -0.23517527834E+02  0.37618377914E+02  0.45045682185E+02  0.00000000000E+00 0. -1.
         11    1    3    3    0    0 -0.53324137758E+01  0.79608016948E+01 -0.15302867840E+02  0.18055103564E+02  0.51100000000E-03 0. -1.
        -11    1    3    3    0    0  0.12949962075E+00  0.13466294905E+02 -0.19623266903E+02  0.23799799849E+02  0.51100000000E-03 0.  1.
        -12    1    3    3    0    0 -0.26007395534E+01  0.20904312334E+01 -0.26922431716E+01  0.42874144027E+01  0.00000000000E+00 0.  1.
</event>
<event>
 7    1  0.2313935E-008  0.4614232E+02  0.7816164E-02  0.1320468E+00
        -11   -1    0    0    0    0  0.00000000000E+00  0.00000000000E+00  0.45593999997E+02  0.45594000000E+02  0.51100000000E-03 0. -1.
         11   -1    0    0    0    0 -0.00000000000E+00 -0.00000000000E+00 -0.45593999997E+02  0.45594000000E+02  0.51100000000E-03 0.  1.
    9900012    2    1    2    0    0 -0.17757260132E+02 -0.19564191576E+02 -0.36483361310E+02  0.46142317278E+02  0.99999955919E+01 0.  0.
         12    1    1    2    0    0  0.17757260132E+02  0.19564191576E+02  0.36483361310E+02  0.45045682722E+02  0.00000000000E+00 0. -1.
         11    1    3    3    0    0  0.33382629105E-01 -0.14310374871E+01 -0.16083286440E+01  0.21530685028E+01  0.51100000000E-03 0. -1.
        -11    1    3    3    0    0 -0.82694772175E+01 -0.12210415791E+02 -0.14216705267E+02  0.20483974618E+02  0.51100000000E-03 0.  1.
         12    1    3    3    0    0 -0.95211655433E+01 -0.59227382981E+01 -0.20658327400E+02  0.23505274157E+02  0.00000000000E+00 0. -1.
</event>
<event>
 7    1  0.2313935E-008  0.4614232E+02  0.7816164E-02  0.1320468E+00
        -11   -1    0    0    0    0  0.00000000000E+00  0.00000000000E+00  0.45593999997E+02  0.45594000000E+02  0.51100000000E-03 0. -1.
         11   -1    0    0    0    0 -0.00000000000E+00 -0.00000000000E+00 -0.45593999997E+02  0.45594000000E+02  0.51100000000E-03 0.  1.
    9900012    2    1    2    0    0  0.26128792068E+02 -0.26860349893E+02 -0.24998428701E+02  0.46142316423E+02  0.99999878023E+01 0.  0.
         12    1    1    2    0    0 -0.26128792068E+02  0.26860349893E+02  0.24998428701E+02  0.45045683577E+02  0.00000000000E+00 0. -1.
         11    1    3    3    0    0  0.64893881748E+00 -0.33660150644E+01 -0.59339717041E+00  0.34789796587E+01  0.51100000000E-03 0. -1.
        -11    1    3    3    0    0  0.10756978436E+02 -0.13082058453E+02 -0.12613416336E+02  0.21117554555E+02  0.51100000000E-03 0.  1.
        -12    1    3    3    0    0  0.14722874815E+02 -0.10412276375E+02 -0.11791615195E+02  0.21545782210E+02  0.00000000000E+00 0.  1.
</event>
<event>
 7    1  0.2313935E-008  0.4614232E+02  0.7816164E-02  0.1320468E+00
        -11   -1    0    0    0    0  0.00000000000E+00  0.00000000000E+00  0.45593999997E+02  0.45594000000E+02  0.51100000000E-03 0.  1.
         11   -1    0    0    0    0 -0.00000000000E+00 -0.00000000000E+00 -0.45593999997E+02  0.45594000000E+02  0.51100000000E-03 0. -1.
    9900012    2    1    2    0    0 -0.34875770335E+02 -0.23263238828E+02  0.16480768277E+02  0.46142319183E+02  0.10000012968E+02 0.  0.
         12    1    1    2    0    0  0.34875770335E+02  0.23263238828E+02 -0.16480768277E+02  0.45045680817E+02  0.00000000000E+00 0. -1.
         11    1    3    3    0    0 -0.13054271126E+01  0.29955155713E+00  0.11385388659E+01  0.17578799993E+01  0.51100000000E-03 0. -1.
        -11    1    3    3    0    0  0.24115865184E+00  0.34235332913E-01  0.51192246603E+00  0.56691659503E+00  0.51100000000E-03 0.  1.
        -12    1    3    3    0    0 -0.33811501874E+02 -0.23597025718E+02  0.14830306945E+02  0.43817522589E+02  0.00000000000E+00 0.  1.
</event>
<event>
 7    1  0.2313935E-008  0.4614232E+02  0.7816164E-02  0.1320468E+00
        -11   -1    0    0    0    0  0.00000000000E+00  0.00000000000E+00  0.45593999997E+02  0.45594000000E+02  0.51100000000E-03 0. -1.
         11   -1    0    0    0    0 -0.00000000000E+00 -0.00000000000E+00 -0.45593999997E+02  0.45594000000E+02  0.51100000000E-03 0.  1.
    9900012    2    1    2    0    0 -0.73043713816E+01  0.28705348208E+02 -0.33937629647E+02  0.46142316932E+02  0.99999924350E+01 0.  0.
         12    1    1    2    0    0  0.73043713816E+01 -0.28705348208E+02  0.33937629647E+02  0.45045683068E+02  0.00000000000E+00 0. -1.
         11    1    3    3    0    0  0.14363473695E+01  0.16790027188E+01 -0.20319374254E+01  0.30018184251E+01  0.51100000000E-03 0. -1.
        -11    1    3    3    0    0  0.69427520278E+00  0.14546477854E+01 -0.30320222168E+01  0.34338283622E+01  0.51100000000E-03 0.  1.
        -12    1    3    3    0    0 -0.94349939540E+01  0.25571697704E+02 -0.28873670005E+02  0.39706670144E+02  0.00000000000E+00 0.  1.
</event>
<event>
 7    1  0.2313935E-008  0.4614232E+02  0.7816164E-02  0.1320468E+00
        -11   -1    0    0    0    0  0.00000000000E+00  0.00000000000E+00  0.45593999997E+02  0.45594000000E+02  0.51100000000E-03 0. -1.
         11   -1    0    0    0    0 -0.00000000000E+00 -0.00000000000E+00 -0.45593999997E+02  0.45594000000E+02  0.51100000000E-03 0.  1.
    9900012    2    1    2    0    0 -0.73859319918E+01 -0.43077827607E+02 -0.10902399076E+02  0.46142317318E+02  0.99999959576E+01 0.  0.
         12    1    1    2    0    0  0.73859319918E+01  0.43077827607E+02  0.10902399076E+02  0.45045682682E+02  0.00000000000E+00 0. -1.
         11    1    3    3    0    0  0.72857922818E+00 -0.80004881734E-01 -0.10523938071E+01  0.12824825375E+01  0.51100000000E-03 0. -1.
        -11    1    3    3    0    0 -0.40000088833E+01 -0.23401552405E+02 -0.52293283816E+01  0.24310051452E+02  0.51100000000E-03 0.  1.
         12    1    3    3    0    0 -0.41145023367E+01 -0.19596270320E+02 -0.46206768873E+01  0.20549783328E+02  0.00000000000E+00 0. -1.
</event>
<event>
 7    1  0.2313935E-008  0.4614232E+02  0.7816164E-02  0.1320468E+00
        -11   -1    0    0    0    0  0.00000000000E+00  0.00000000000E+00  0.45593999997E+02  0.45594000000E+02  0.51100000000E-03 0.  1.
         11   -1    0    0    0    0 -0.00000000000E+00 -0.00000000000E+00 -0.45593999997E+02  0.45594000000E+02  0.51100000000E-03 0. -1.
    9900012    2    1    2    0    0 -0.34654344348E+02 -0.22091718631E+02  0.18443042589E+02  0.46142318362E+02  0.10000005476E+02 0.  0.
         12    1    1    2    0    0  0.34654344348E+02  0.22091718631E+02 -0.18443042589E+02  0.45045681638E+02  0.00000000000E+00 0. -1.
         11    1    3    3    0    0 -0.22154453639E+01  0.34394402087E+00  0.10502600464E+00  0.22444434438E+01  0.51100000000E-03 0. -1.
        -11    1    3    3    0    0 -0.13356145192E+02 -0.10157879417E+02  0.10938899372E+02  0.20030692659E+02  0.51100000000E-03 0.  1.
         12    1    3    3    0    0 -0.19082753792E+02 -0.12277783235E+02  0.73991172125E+01  0.23867182259E+02  0.00000000000E+00 0. -1.
</event>
<event>
 7    1  0.2313935E-008  0.4614232E+02  0.7816164E-02  0.1320468E+00
        -11   -1    0    0    0    0  0.00000000000E+00  0.00000000000E+00  0.45593999997E+02  0.45594000000E+02  0.51100000000E-03 0. -1.
         11   -1    0    0    0    0 -0.00000000000E+00 -0.00000000000E+00 -0.45593999997E+02  0.45594000000E+02  0.51100000000E-03 0.  1.
    9900012    2    1    2    0    0 -0.39075791671E+01 -0.44792822868E+02 -0.27289364187E+01  0.46142320414E+02  0.10000024188E+02 0.  0.
         12    1    1    2    0    0  0.39075791671E+01  0.44792822868E+02  0.27289364187E+01  0.45045679586E+02  0.00000000000E+00 0. -1.
         11    1    3    3    0    0 -0.40114757337E+00 -0.19402397781E+01 -0.14045447938E+01  0.24286202073E+01  0.51100000000E-03 0. -1.
        -11    1    3    3    0    0  0.43987260779E+00 -0.23476825418E+02 -0.37976739640E+01  0.23786070449E+02  0.51100000000E-03 0.  1.
         12    1    3    3    0    0 -0.39463042015E+01 -0.19375757672E+02  0.24732823391E+01  0.19927629757E+02  0.00000000000E+00 0. -1.
</event>
<event>
 7    1  0.2313935E-008  0.4614232E+02  0.7816164E-02  0.1320468E+00
        -11   -1    0    0    0    0  0.00000000000E+00  0.00000000000E+00  0.45593999997E+02  0.45594000000E+02  0.51100000000E-03 0.  1.
         11   -1    0    0    0    0 -0.00000000000E+00 -0.00000000000E+00 -0.45593999997E+02  0.45594000000E+02  0.51100000000E-03 0. -1.
    9900012    2    1    2    0    0 -0.39162988850E+02  0.13345369703E+02  0.17812212389E+02  0.46142317650E+02  0.99999989859E+01 0.  0.
         12    1    1    2    0    0  0.39162988850E+02 -0.13345369703E+02 -0.17812212389E+02  0.45045682350E+02  0.00000000000E+00 0. -1.
         11    1    3    3    0    0 -0.55053876171E+00 -0.40112259836E+00  0.16476387993E+01  0.17828926331E+01  0.51100000000E-03 0. -1.
        -11    1    3    3    0    0 -0.14102615264E+02  0.47270059180E+01  0.32526830922E+01  0.15225251715E+02  0.51100000000E-03 0.  1.
         12    1    3    3    0    0 -0.24509834825E+02  0.90194863832E+01  0.12911890498E+02  0.29134173302E+02  0.00000000000E+00 0. -1.
</event>
<event>
 7    1  0.2313935E-008  0.4614232E+02  0.7816164E-02  0.1320468E+00
        -11   -1    0    0    0    0  0.00000000000E+00  0.00000000000E+00  0.45593999997E+02  0.45594000000E+02  0.51100000000E-03 0.  1.
         11   -1    0    0    0    0 -0.00000000000E+00 -0.00000000000E+00 -0.45593999997E+02  0.45594000000E+02  0.51100000000E-03 0. -1.
    9900012    2    1    2    0    0 -0.24703844002E+02  0.68210361333E+01  0.37044662402E+02  0.46142318133E+02  0.10000003392E+02 0.  0.
         12    1    1    2    0    0  0.24703844002E+02 -0.68210361333E+01 -0.37044662402E+02  0.45045681867E+02  0.00000000000E+00 0. -1.
         11    1    3    3    0    0 -0.36201052439E+01  0.42098455172E+01  0.60503182020E+01  0.82118397368E+01  0.51100000000E-03 0. -1.
        -11    1    3    3    0    0 -0.13454281662E+02  0.41409203672E+01  0.19517240665E+02  0.24064239028E+02  0.51100000000E-03 0.  1.
        -12    1    3    3    0    0 -0.76294570955E+01 -0.15297297511E+01  0.11477103535E+02  0.13866239369E+02  0.00000000000E+00 0.  1.
</event>
<event>
 7    1  0.2313935E-008  0.4614232E+02  0.7816164E-02  0.1320468E+00
        -11   -1    0    0    0    0  0.00000000000E+00  0.00000000000E+00  0.45593999997E+02  0.45594000000E+02  0.51100000000E-03 0.  1.
         11   -1    0    0    0    0 -0.00000000000E+00 -0.00000000000E+00 -0.45593999997E+02  0.45594000000E+02  0.51100000000E-03 0. -1.
    9900012    2    1    2    0    0  0.40970750398E+02 -0.43940077993E+01  0.18199003136E+02  0.46142318655E+02  0.10000008149E+02 0.  0.
         12    1    1    2    0    0 -0.40970750398E+02  0.43940077993E+01 -0.18199003136E+02  0.45045681345E+02  0.00000000000E+00 0. -1.
         11    1    3    3    0    0  0.97893190481E+01 -0.36002519326E+01  0.14433957907E+01  0.10529766050E+02  0.51100000000E-03 0.  1.
        -11    1    3    3    0    0  0.11545645113E+02 -0.21256243797E+01  0.59867440753E+01  0.13178061502E+02  0.51100000000E-03 0. -1.
         12    1    3    3    0    0  0.19635786237E+02  0.13318685129E+01  0.10768863270E+02  0.22434491102E+02  0.00000000000E+00 0. -1.
</event>
<event>
 7    1  0.2313935E-008  0.4614232E+02  0.7816164E-02  0.1320468E+00
        -11   -1    0    0    0    0  0.00000000000E+00  0.00000000000E+00  0.45593999997E+02  0.45594000000E+02  0.51100000000E-03 0.  1.
         11   -1    0    0    0    0 -0.00000000000E+00 -0.00000000000E+00 -0.45593999997E+02  0.45594000000E+02  0.51100000000E-03 0. -1.
    9900012    2    1    2    0    0 -0.27465342725E+02  0.13483928544E+02  0.33059824278E+02  0.46142319172E+02  0.10000012865E+02 0.  0.
         12    1    1    2    0    0  0.27465342725E+02 -0.13483928544E+02 -0.33059824278E+02  0.45045680828E+02  0.00000000000E+00 0. -1.
         11    1    3    3    0    0 -0.11475182245E+02  0.30423533943E+01  0.95588653925E+01  0.15241641302E+02  0.51100000000E-03 0. -1.
        -11    1    3    3    0    0 -0.11306649578E+02  0.37953829521E+01  0.13585969944E+02  0.18078269719E+02  0.51100000000E-03 0.  1.
         12    1    3    3    0    0 -0.46835109021E+01  0.66461921972E+01  0.99149889411E+01  0.12822408151E+02  0.00000000000E+00 0. -1.
</event>
<event>
 7    1  0.2313935E-008  0.4614232E+02  0.7816164E-02  0.1320468E+00
        -11   -1    0    0    0    0  0.00000000000E+00  0.00000000000E+00  0.45593999997E+02  0.45594000000E+02  0.51100000000E-03 0.  1.
         11   -1    0    0    0    0 -0.00000000000E+00 -0.00000000000E+00 -0.45593999997E+02  0.45594000000E+02  0.51100000000E-03 0. -1.
    9900012    2    1    2    0    0 -0.22298985894E+02  0.61548173576E+01  0.38652127019E+02  0.46142317946E+02  0.10000001689E+02 0.  0.
         12    1    1    2    0    0  0.22298985894E+02 -0.61548173576E+01 -0.38652127019E+02  0.45045682054E+02  0.00000000000E+00 0. -1.
         11    1    3    3    0    0 -0.21242651397E+01  0.11114539456E+01  0.60885282456E+00  0.24735671166E+01  0.51100000000E-03 0. -1.
        -11    1    3    3    0    0 -0.14492901774E+02  0.14426684543E+01  0.23537810522E+02  0.27679487325E+02  0.51100000000E-03 0.  1.
         12    1    3    3    0    0 -0.56818189799E+01  0.36006949577E+01  0.14505463672E+02  0.15989263505E+02  0.00000000000E+00 0. -1.
</event>
<event>
 7    1  0.2313935E-008  0.4614232E+02  0.7816164E-02  0.1320468E+00
        -11   -1    0    0    0    0  0.00000000000E+00  0.00000000000E+00  0.45593999997E+02  0.45594000000E+02  0.51100000000E-03 0.  1.
         11   -1    0    0    0    0 -0.00000000000E+00 -0.00000000000E+00 -0.45593999997E+02  0.45594000000E+02  0.51100000000E-03 0. -1.
    9900012    2    1    2    0    0 -0.23267359570E+02  0.16484171539E+02  0.34871414775E+02  0.46142317620E+02  0.99999987117E+01 0.  0.
         12    1    1    2    0    0  0.23267359570E+02 -0.16484171539E+02 -0.34871414775E+02  0.45045682380E+02  0.00000000000E+00 0. -1.
         11    1    3    3    0    0 -0.69463113467E+01  0.94741334558E+00  0.90009376476E+01  0.11409018896E+02  0.51100000000E-03 0. -1.
        -11    1    3    3    0    0 -0.58045638164E+01  0.45272375704E+01  0.12318507181E+02  0.14350416738E+02  0.51100000000E-03 0.  1.
         12    1    3    3    0    0 -0.10516484407E+02  0.11009520623E+02  0.13551969946E+02  0.20382881986E+02  0.00000000000E+00 0. -1.
</event>
<event>
 7    1  0.2313935E-008  0.4614232E+02  0.7816164E-02  0.1320468E+00
        -11   -1    0    0    0    0  0.00000000000E+00  0.00000000000E+00  0.45593999997E+02  0.45594000000E+02  0.51100000000E-03 0. -1.
         11   -1    0    0    0    0 -0.00000000000E+00 -0.00000000000E+00 -0.45593999997E+02  0.45594000000E+02  0.51100000000E-03 0.  1.
    9900012    2    1    2    0    0 -0.34740219924E+02  0.24541606203E+02  0.14830383773E+02  0.46142316541E+02  0.99999888768E+01 0.  0.
         12    1    1    2    0    0  0.34740219924E+02 -0.24541606203E+02 -0.14830383773E+02  0.45045683459E+02  0.00000000000E+00 0. -1.
         11    1    3    3    0    0 -0.89321524139E+01  0.51247251894E+01  0.18180802725E+01  0.10457130158E+02  0.51100000000E-03 0. -1.
        -11    1    3    3    0    0 -0.22943901477E+02  0.16721017253E+02  0.13963464915E+02  0.31638479509E+02  0.51100000000E-03 0.  1.
        -12    1    3    3    0    0 -0.28641660337E+01  0.26958637608E+01 -0.95116141496E+00  0.40467068738E+01  0.00000000000E+00 0.  1.
</event>
<event>
 7    1  0.2313935E-008  0.4614232E+02  0.7816164E-02  0.1320468E+00
        -11   -1    0    0    0    0  0.00000000000E+00  0.00000000000E+00  0.45593999997E+02  0.45594000000E+02  0.51100000000E-03 0.  1.
         11   -1    0    0    0    0 -0.00000000000E+00 -0.00000000000E+00 -0.45593999997E+02  0.45594000000E+02  0.51100000000E-03 0. -1.
    9900012    2    1    2    0    0 -0.69106633469E+01  0.44006676621E+02  0.66909374944E+01  0.46142317636E+02  0.99999988548E+01 0.  0.
         12    1    1    2    0    0  0.69106633469E+01 -0.44006676621E+02 -0.66909374944E+01  0.45045682364E+02  0.00000000000E+00 0. -1.
         11    1    3    3    0    0  0.10968606558E+01  0.38459901393E+01 -0.15346871398E+01  0.42836909702E+01  0.51100000000E-03 0. -1.
        -11    1    3    3    0    0 -0.42673256790E+01  0.25015481006E+02  0.39437907516E+01  0.25681468886E+02  0.51100000000E-03 0.  1.
         12    1    3    3    0    0 -0.37401983238E+01  0.15145205476E+02  0.42818338826E+01  0.16177157779E+02  0.00000000000E+00 0. -1.
</event>
<event>
 7    1  0.2313935E-008  0.4614232E+02  0.7816164E-02  0.1320468E+00
        -11   -1    0    0    0    0  0.00000000000E+00  0.00000000000E+00  0.45593999997E+02  0.45594000000E+02  0.51100000000E-03 0.  1.
         11   -1    0    0    0    0 -0.00000000000E+00 -0.00000000000E+00 -0.45593999997E+02  0.45594000000E+02  0.51100000000E-03 0. -1.
    9900012    2    1    2    0    0  0.59172065199E+01 -0.63650897550E+01  0.44199386074E+02  0.46142318410E+02  0.10000005921E+02 0.  0.
         12    1    1    2    0    0 -0.59172065199E+01  0.63650897550E+01 -0.44199386074E+02  0.45045681590E+02  0.00000000000E+00 0. -1.
         11    1    3    3    0    0  0.27810452546E+01 -0.14999893868E+01  0.98135258870E+01  0.10309678533E+02  0.51100000000E-03 0. -1.
        -11    1    3    3    0    0  0.32966186520E+01 -0.43071210242E+01  0.94948548837E+01  0.10934864223E+02  0.51100000000E-03 0.  1.
         12    1    3    3    0    0 -0.16045738667E+00 -0.55797934404E+00  0.24891005303E+02  0.24897775654E+02  0.00000000000E+00 0. -1.
</event>
<event>
 7    1  0.2313935E-008  0.4614232E+02  0.7816164E-02  0.1320468E+00
        -11   -1    0    0    0    0  0.00000000000E+00  0.00000000000E+00  0.45593999997E+02  0.45594000000E+02  0.51100000000E-03 0. -1.
         11   -1    0    0    0    0 -0.00000000000E+00 -0.00000000000E+00 -0.45593999997E+02  0.45594000000E+02  0.51100000000E-03 0.  1.
    9900012    2    1    2    0    0 -0.32883998591E+01  0.22160352623E+02 -0.39079643716E+02  0.46142319242E+02  0.10000013500E+02 0.  0.
         12    1    1    2    0    0  0.32883998591E+01 -0.22160352623E+02  0.39079643716E+02  0.45045680758E+02  0.00000000000E+00 0. -1.
         11    1    3    3    0    0 -0.11609813643E+01  0.28400519890E+01 -0.12216891807E+01  0.33024684319E+01  0.51100000000E-03 0. -1.
        -11    1    3    3    0    0 -0.18906368428E+01  0.54427431578E+01 -0.74845622768E+01  0.94454557057E+01  0.51100000000E-03 0.  1.
        -12    1    3    3    0    0 -0.23678165203E+00  0.13877557476E+02 -0.30373392259E+02  0.33394395104E+02  0.00000000000E+00 0.  1.
</event>
<event>
 7    1  0.2313935E-008  0.4614232E+02  0.7816164E-02  0.1320468E+00
        -11   -1    0    0    0    0  0.00000000000E+00  0.00000000000E+00  0.45593999997E+02  0.45594000000E+02  0.51100000000E-03 0.  1.
         11   -1    0    0    0    0 -0.00000000000E+00 -0.00000000000E+00 -0.45593999997E+02  0.45594000000E+02  0.51100000000E-03 0. -1.
    9900012    2    1    2    0    0 -0.17949353263E+02  0.28211702827E+02  0.30183339430E+02  0.46142318320E+02  0.10000005092E+02 0.  0.
         12    1    1    2    0    0  0.17949353263E+02 -0.28211702827E+02 -0.30183339430E+02  0.45045681680E+02  0.00000000000E+00 0. -1.
         11    1    3    3    0    0 -0.34691730660E+00  0.21121259198E+01  0.72038425037E+00  0.22584023662E+01  0.51100000000E-03 0. -1.
        -11    1    3    3    0    0 -0.21268513631E+01  0.89420649896E+01  0.10804377726E+02  0.14185154258E+02  0.51100000000E-03 0.  1.
         12    1    3    3    0    0 -0.15475584593E+02  0.17157511917E+02  0.18658577453E+02  0.29698761696E+02  0.00000000000E+00 0. -1.
</event>
<event>
 7    1  0.2313935E-008  0.4614232E+02  0.7816164E-02  0.1320468E+00
        -11   -1    0    0    0    0  0.00000000000E+00  0.00000000000E+00  0.45593999997E+02  0.45594000000E+02  0.51100000000E-03 0.  1.
         11   -1    0    0    0    0 -0.00000000000E+00 -0.00000000000E+00 -0.45593999997E+02  0.45594000000E+02  0.51100000000E-03 0. -1.
    9900012    2    1    2    0    0  0.37718189813E+02 -0.17467027488E+02  0.17359568994E+02  0.46142317325E+02  0.99999960203E+01 0.  0.
         12    1    1    2    0    0 -0.37718189813E+02  0.17467027488E+02 -0.17359568994E+02  0.45045682675E+02  0.00000000000E+00 0. -1.
         11    1    3    3    0    0  0.87446623150E+01 -0.64108000690E+01  0.48642084671E+01  0.11883938775E+02  0.51100000000E-03 0. -1.
        -11    1    3    3    0    0  0.14085969782E+02 -0.87943903195E+01  0.86171968604E+01  0.18708605715E+02  0.51100000000E-03 0.  1.
         12    1    3    3    0    0  0.14887557716E+02 -0.22618370989E+01  0.38781636669E+01  0.15549772835E+02  0.00000000000E+00 0. -1.
</event>
<event>
 7    1  0.2313935E-008  0.4614232E+02  0.7816164E-02  0.1320468E+00
        -11   -1    0    0    0    0  0.00000000000E+00  0.00000000000E+00  0.45593999997E+02  0.45594000000E+02  0.51100000000E-03 0.  1.
         11   -1    0    0    0    0 -0.00000000000E+00 -0.00000000000E+00 -0.45593999997E+02  0.45594000000E+02  0.51100000000E-03 0. -1.
    9900012    2    1    2    0    0  0.37108975753E+02 -0.58485575951E+00  0.25528326456E+02  0.46142316641E+02  0.99999897814E+01 0.  0.
         12    1    1    2    0    0 -0.37108975753E+02  0.58485575951E+00 -0.25528326456E+02  0.45045683359E+02  0.00000000000E+00 0. -1.
         11    1    3    3    0    0  0.13777837580E+01  0.61245506981E+00  0.15552103034E+01  0.21661183359E+01  0.51100000000E-03 0.  1.
        -11    1    3    3    0    0  0.92928786234E+01  0.42145261942E+00  0.11230004120E+02  0.14582462351E+02  0.51100000000E-03 0. -1.
        -12    1    3    3    0    0  0.26438313372E+02 -0.16187634487E+01  0.12743112032E+02  0.29393735953E+02  0.00000000000E+00 0.  1.
</event>
<event>
 7    1  0.2313935E-008  0.4614232E+02  0.7816164E-02  0.1320468E+00
        -11   -1    0    0    0    0  0.00000000000E+00  0.00000000000E+00  0.45593999997E+02  0.45594000000E+02  0.51100000000E-03 0.  1.
         11   -1    0    0    0    0 -0.00000000000E+00 -0.00000000000E+00 -0.45593999997E+02  0.45594000000E+02  0.51100000000E-03 0. -1.
    9900012    2    1    2    0    0  0.42801346085E+02  0.11452697060E+02 -0.81236681442E+01  0.46142317846E+02  0.10000000774E+02 0.  0.
         12    1    1    2    0    0 -0.42801346085E+02 -0.11452697060E+02  0.81236681442E+01  0.45045682154E+02  0.00000000000E+00 0. -1.
         11    1    3    3    0    0  0.47388183137E+01 -0.29869930302E+00 -0.26216151023E+01  0.54238811095E+01  0.51100000000E-03 0. -1.
        -11    1    3    3    0    0 -0.13014898979E+00 -0.10462987300E+00  0.26595225908E+00  0.31403349359E+00  0.51100000000E-03 0.  1.
        -12    1    3    3    0    0  0.38192676761E+02  0.11856026236E+02 -0.57680053010E+01  0.40404403243E+02  0.00000000000E+00 0.  1.
</event>
<event>
 7    1  0.2313935E-008  0.4614232E+02  0.7816164E-02  0.1320468E+00
        -11   -1    0    0    0    0  0.00000000000E+00  0.00000000000E+00  0.45593999997E+02  0.45594000000E+02  0.51100000000E-03 0.  1.
         11   -1    0    0    0    0 -0.00000000000E+00 -0.00000000000E+00 -0.45593999997E+02  0.45594000000E+02  0.51100000000E-03 0. -1.
    9900012    2    1    2    0    0 -0.15330656766E+01 -0.78076043233E+01  0.44337394593E+02  0.46142317244E+02  0.99999952868E+01 0.  0.
         12    1    1    2    0    0  0.15330656766E+01  0.78076043233E+01 -0.44337394593E+02  0.45045682756E+02  0.00000000000E+00 0. -1.
         11    1    3    3    0    0  0.20673114225E+01 -0.45851236704E+01  0.98065059397E+01  0.11021102241E+02  0.51100000000E-03 0. -1.
        -11    1    3    3    0    0 -0.20562561390E+01 -0.39893315957E+01  0.28403428440E+02  0.28755829032E+02  0.51100000000E-03 0.  1.
         12    1    3    3    0    0 -0.15441209600E+01  0.76685094274E+00  0.61274602134E+01  0.63653859721E+01  0.00000000000E+00 0. -1.
</event>
<event>
 7    1  0.2313935E-008  0.4614232E+02  0.7816164E-02  0.1320468E+00
        -11   -1    0    0    0    0  0.00000000000E+00  0.00000000000E+00  0.45593999997E+02  0.45594000000E+02  0.51100000000E-03 0.  1.
         11   -1    0    0    0    0 -0.00000000000E+00 -0.00000000000E+00 -0.45593999997E+02  0.45594000000E+02  0.51100000000E-03 0. -1.
    9900012    2    1    2    0    0  0.19522299341E+01 -0.33985713383E+02  0.29500400743E+02  0.46142316968E+02  0.99999927644E+01 0.  0.
         12    1    1    2    0    0 -0.19522299341E+01  0.33985713383E+02 -0.29500400743E+02  0.45045683032E+02  0.00000000000E+00 0. -1.
         11    1    3    3    0    0  0.33135401821E+01 -0.11099268577E+02  0.91109416235E+01  0.14737115356E+02  0.51100000000E-03 0. -1.
        -11    1    3    3    0    0 -0.27590404768E+01 -0.35355058344E+01  0.37646061786E+01  0.58552852876E+01  0.51100000000E-03 0.  1.
        -12    1    3    3    0    0  0.13977302289E+01 -0.19350938972E+02  0.16624852941E+02  0.25549916324E+02  0.00000000000E+00 0.  1.
</event>
<event>
 7    1  0.2313935E-008  0.4614232E+02  0.7816164E-02  0.1320468E+00
        -11   -1    0    0    0    0  0.00000000000E+00  0.00000000000E+00  0.45593999997E+02  0.45594000000E+02  0.51100000000E-03 0. -1.
         11   -1    0    0    0    0 -0.00000000000E+00 -0.00000000000E+00 -0.45593999997E+02  0.45594000000E+02  0.51100000000E-03 0.  1.
    9900012    2    1    2    0    0 -0.39497971094E+02  0.20416512163E+02  0.72242526551E+01  0.46142317456E+02  0.99999972171E+01 0.  0.
         12    1    1    2    0    0  0.39497971094E+02 -0.20416512163E+02 -0.72242526551E+01  0.45045682544E+02  0.00000000000E+00 0. -1.
         11    1    3    3    0    0  0.69290008647E-01 -0.37486276687E+00  0.11258455871E+00  0.39749055745E+00  0.51100000000E-03 0. -1.
        -11    1    3    3    0    0 -0.29949964561E+02  0.14126653184E+02  0.78106816314E+01  0.34023072395E+02  0.51100000000E-03 0.  1.
         12    1    3    3    0    0 -0.96172965419E+01  0.66647217462E+01 -0.69901353496E+00  0.11721754504E+02  0.00000000000E+00 0. -1.
</event>
<event>
 7    1  0.2313935E-008  0.4614232E+02  0.7816164E-02  0.1320468E+00
        -11   -1    0    0    0    0  0.00000000000E+00  0.00000000000E+00  0.45593999997E+02  0.45594000000E+02  0.51100000000E-03 0.  1.
         11   -1    0    0    0    0 -0.00000000000E+00 -0.00000000000E+00 -0.45593999997E+02  0.45594000000E+02  0.51100000000E-03 0. -1.
    9900012    2    1    2    0    0 -0.80288381486E+01 -0.27180291754E+02  0.35012613619E+02  0.46142316363E+02  0.99999872543E+01 0.  0.
         12    1    1    2    0    0  0.80288381486E+01  0.27180291754E+02 -0.35012613619E+02  0.45045683637E+02  0.00000000000E+00 0. -1.
         11    1    3    3    0    0 -0.27946201747E+01 -0.13367745950E+01  0.69427670932E+01  0.76025576887E+01  0.51100000000E-03 0. -1.
        -11    1    3    3    0    0 -0.11710007976E+01 -0.33184446198E+01  0.38337919458E+01  0.52039675736E+01  0.51100000000E-03 0.  1.
         12    1    3    3    0    0 -0.40632171763E+01 -0.22525072540E+02  0.24236054580E+02  0.33335791101E+02  0.00000000000E+00 0. -1.
</event>
<event>
 7    1  0.2313935E-008  0.4614232E+02  0.7816164E-02  0.1320468E+00
        -11   -1    0    0    0    0  0.00000000000E+00  0.00000000000E+00  0.45593999997E+02  0.45594000000E+02  0.51100000000E-03 0.  1.
         11   -1    0    0    0    0 -0.00000000000E+00 -0.00000000000E+00 -0.45593999997E+02  0.45594000000E+02  0.51100000000E-03 0. -1.
    9900012    2    1    2    0    0  0.28363050176E+02  0.90380166635E+01  0.33807767403E+02  0.46142317663E+02  0.99999991022E+01 0.  0.
         12    1    1    2    0    0 -0.28363050176E+02 -0.90380166635E+01 -0.33807767403E+02  0.45045682337E+02  0.00000000000E+00 0. -1.
         11    1    3    3    0    0 -0.45900730038E+00  0.85113108039E+00  0.89730812132E+00  0.13191944298E+01  0.51100000000E-03 0. -1.
        -11    1    3    3    0    0  0.19972041856E+02  0.38415406493E+01  0.19478986360E+02  0.28161512749E+02  0.51100000000E-03 0.  1.
        -12    1    3    3    0    0  0.88500156206E+01  0.43453449338E+01  0.13431472921E+02  0.16661610484E+02  0.00000000000E+00 0.  1.
</event>
<event>
 7    1  0.2313935E-008  0.4614232E+02  0.7816164E-02  0.1320468E+00
        -11   -1    0    0    0    0  0.00000000000E+00  0.00000000000E+00  0.45593999997E+02  0.45594000000E+02  0.51100000000E-03 0. -1.
         11   -1    0    0    0    0 -0.00000000000E+00 -0.00000000000E+00 -0.45593999997E+02  0.45594000000E+02  0.51100000000E-03 0.  1.
    9900012    2    1    2    0    0  0.43594692561E+02 -0.13109657983E+01 -0.11264883162E+02  0.46142318260E+02  0.10000004547E+02 0.  0.
         12    1    1    2    0    0 -0.43594692561E+02  0.13109657983E+01  0.11264883162E+02  0.45045681740E+02  0.00000000000E+00 0. -1.
         11    1    3    3    0    0  0.14778272238E+02  0.23521985955E+00 -0.32589576970E+00  0.14783736572E+02  0.51100000000E-03 0. -1.
        -11    1    3    3    0    0  0.12263433028E+02 -0.34045884119E+01 -0.50108556436E+01  0.13678146308E+02  0.51100000000E-03 0.  1.
         12    1    3    3    0    0  0.16552987295E+02  0.18584027540E+01 -0.59281317485E+01  0.17680435380E+02  0.00000000000E+00 0. -1.
</event>
<event>
 7    1  0.2313935E-008  0.4614232E+02  0.7816164E-02  0.1320468E+00
        -11   -1    0    0    0    0  0.00000000000E+00  0.00000000000E+00  0.45593999997E+02  0.45594000000E+02  0.51100000000E-03 0.  1.
         11   -1    0    0    0    0 -0.00000000000E+00 -0.00000000000E+00 -0.45593999997E+02  0.45594000000E+02  0.51100000000E-03 0. -1.
    9900012    2    1    2    0    0  0.31180975221E+02 -0.14205546238E+02  0.29241455135E+02  0.46142318097E+02  0.10000003067E+02 0.  0.
         12    1    1    2    0    0 -0.31180975221E+02  0.14205546238E+02 -0.29241455135E+02  0.45045681903E+02  0.00000000000E+00 0. -1.
         11    1    3    3    0    0  0.16661909100E+02 -0.10421400736E+02  0.15858970808E+02  0.25253351530E+02  0.51100000000E-03 0.  1.
        -11    1    3    3    0    0  0.88458102425E+01 -0.12951231423E+01  0.11177535052E+02  0.14313035768E+02  0.51100000000E-03 0. -1.
        -12    1    3    3    0    0  0.56732558782E+01 -0.24890223600E+01  0.22049492748E+01  0.65759307990E+01  0.00000000000E+00 0.  1.
</event>
<event>
 7    1  0.2313935E-008  0.4614232E+02  0.7816164E-02  0.1320468E+00
        -11   -1    0    0    0    0  0.00000000000E+00  0.00000000000E+00  0.45593999997E+02  0.45594000000E+02  0.51100000000E-03 0. -1.
         11   -1    0    0    0    0 -0.00000000000E+00 -0.00000000000E+00 -0.45593999997E+02  0.45594000000E+02  0.51100000000E-03 0.  1.
    9900012    2    1    2    0    0 -0.27193768008E+02 -0.14225867732E+02 -0.32973279304E+02  0.46142317862E+02  0.10000000921E+02 0.  0.
         12    1    1    2    0    0  0.27193768008E+02  0.14225867732E+02  0.32973279304E+02  0.45045682138E+02  0.00000000000E+00 0. -1.
         11    1    3    3    0    0 -0.90011355289E+01 -0.74495590043E+01 -0.95871026860E+01  0.15113864772E+02  0.51100000000E-03 0. -1.
        -11    1    3    3    0    0 -0.74568931819E+01  0.29950706113E+00 -0.73567682755E+01  0.10479360674E+02  0.51100000000E-03 0.  1.
        -12    1    3    3    0    0 -0.10735739297E+02 -0.70758157889E+01 -0.16029408343E+02  0.20549092417E+02  0.00000000000E+00 0.  1.
</event>
<event>
 7    1  0.2313935E-008  0.4614232E+02  0.7816164E-02  0.1320468E+00
        -11   -1    0    0    0    0  0.00000000000E+00  0.00000000000E+00  0.45593999997E+02  0.45594000000E+02  0.51100000000E-03 0.  1.
         11   -1    0    0    0    0 -0.00000000000E+00 -0.00000000000E+00 -0.45593999997E+02  0.45594000000E+02  0.51100000000E-03 0. -1.
    9900012    2    1    2    0    0 -0.57003633921E+01  0.40573430074E+01  0.44498956229E+02  0.46142320068E+02  0.10000021035E+02 0.  0.
         12    1    1    2    0    0  0.57003633921E+01 -0.40573430074E+01 -0.44498956229E+02  0.45045679932E+02  0.00000000000E+00 0. -1.
         11    1    3    3    0    0 -0.34159901592E+00  0.16252738943E+00 -0.49626933841E+00  0.62401006190E+00  0.51100000000E-03 0. -1.
        -11    1    3    3    0    0 -0.45502453972E+00  0.99349934838E-01  0.12166654655E+01  0.13027635462E+01  0.51100000000E-03 0.  1.
        -12    1    3    3    0    0 -0.49037398365E+01  0.37954656831E+01  0.43778560102E+02  0.44215546460E+02  0.00000000000E+00 0.  1.
</event>
<event>
 7    1  0.2313935E-008  0.4614232E+02  0.7816164E-02  0.1320468E+00
        -11   -1    0    0    0    0  0.00000000000E+00  0.00000000000E+00  0.45593999997E+02  0.45594000000E+02  0.51100000000E-03 0.  1.
         11   -1    0    0    0    0 -0.00000000000E+00 -0.00000000000E+00 -0.45593999997E+02  0.45594000000E+02  0.51100000000E-03 0. -1.
    9900012    2    1    2    0    0 -0.58786871053E+01 -0.26280787081E+02  0.36109205744E+02  0.46142317953E+02  0.10000001748E+02 0.  0.
         12    1    1    2    0    0  0.58786871053E+01  0.26280787081E+02 -0.36109205744E+02  0.45045682047E+02  0.00000000000E+00 0. -1.
         11    1    3    3    0    0 -0.62564566594E+01 -0.78778050489E+01  0.15789121707E+02  0.18721629920E+02  0.51100000000E-03 0. -1.
        -11    1    3    3    0    0 -0.78703248808E-01 -0.55040682058E+01  0.60918961447E+01  0.82104908449E+01  0.51100000000E-03 0.  1.
         12    1    3    3    0    0  0.45647280292E+00 -0.12898913826E+02  0.14228187892E+02  0.19210197188E+02  0.00000000000E+00 0. -1.
</event>
<event>
 7    1  0.2313935E-008  0.4614232E+02  0.7816164E-02  0.1320468E+00
        -11   -1    0    0    0    0  0.00000000000E+00  0.00000000000E+00  0.45593999997E+02  0.45594000000E+02  0.51100000000E-03 0.  1.
         11   -1    0    0    0    0 -0.00000000000E+00 -0.00000000000E+00 -0.45593999997E+02  0.45594000000E+02  0.51100000000E-03 0. -1.
    9900012    2    1    2    0    0 -0.42023274907E+02  0.15582187960E+02  0.45114550799E+01  0.46142318270E+02  0.10000004645E+02 0.  0.
         12    1    1    2    0    0  0.42023274907E+02 -0.15582187960E+02 -0.45114550799E+01  0.45045681730E+02  0.00000000000E+00 0. -1.
         11    1    3    3    0    0 -0.66513056780E+01  0.16466508632E+01  0.42191239844E+01  0.80468834802E+01  0.51100000000E-03 0. -1.
        -11    1    3    3    0    0 -0.24343913682E+02  0.85238788074E+01  0.72902306987E+00  0.25803374162E+02  0.51100000000E-03 0.  1.
         12    1    3    3    0    0 -0.11028055547E+02  0.54116582897E+01 -0.43669197436E+00  0.12292060628E+02  0.00000000000E+00 0. -1.
</event>
<event>
 7    1  0.2313935E-008  0.4614232E+02  0.7816164E-02  0.1320468E+00
        -11   -1    0    0    0    0  0.00000000000E+00  0.00000000000E+00  0.45593999997E+02  0.45594000000E+02  0.51100000000E-03 0.  1.
         11   -1    0    0    0    0 -0.00000000000E+00 -0.00000000000E+00 -0.45593999997E+02  0.45594000000E+02  0.51100000000E-03 0. -1.
    9900012    2    1    2    0    0 -0.28583964590E+02  0.26483318086E+02  0.22598762031E+02  0.46142320808E+02  0.10000027786E+02 0.  0.
         12    1    1    2    0    0  0.28583964590E+02 -0.26483318086E+02 -0.22598762031E+02  0.45045679192E+02  0.00000000000E+00 0. -1.
         11    1    3    3    0    0 -0.30409994250E+01  0.34591954247E+01  0.14487614593E+00  0.46081123953E+01  0.51100000000E-03 0. -1.
        -11    1    3    3    0    0 -0.18410336607E+02  0.18894775099E+02  0.14609284406E+02  0.30155997930E+02  0.51100000000E-03 0.  1.
         12    1    3    3    0    0 -0.71326285584E+01  0.41293475618E+01  0.78446014785E+01  0.11378210483E+02  0.00000000000E+00 0. -1.
</event>
<event>
 7    1  0.2313935E-008  0.4614231E+02  0.7816164E-02  0.1320468E+00
        -11   -1    0    0    0    0  0.00000000000E+00  0.00000000000E+00  0.45593999997E+02  0.45594000000E+02  0.51100000000E-03 0. -1.
         11   -1    0    0    0    0 -0.00000000000E+00 -0.00000000000E+00 -0.45593999997E+02  0.45594000000E+02  0.51100000000E-03 0.  1.
    9900012    2    1    2    0    0 -0.23869800918E+02 -0.27770251381E+02  0.26232800621E+02  0.46142311127E+02  0.99999395023E+01 0.  0.
         12    1    1    2    0    0  0.23869800918E+02  0.27770251381E+02 -0.26232800621E+02  0.45045688873E+02  0.00000000000E+00 0. -1.
         11    1    3    3    0    0 -0.40244301326E+01 -0.72793620589E+01  0.97846909395E+01  0.12842325604E+02  0.51100000000E-03 0. -1.
        -11    1    3    3    0    0 -0.11855235111E+02 -0.15152246316E+02  0.12290005453E+02  0.22829397764E+02  0.51100000000E-03 0.  1.
         12    1    3    3    0    0 -0.79901356743E+01 -0.53386430060E+01  0.41581042289E+01  0.10470587759E+02  0.00000000000E+00 0. -1.
</event>
<event>
 7    1  0.2313935E-008  0.4614232E+02  0.7816164E-02  0.1320468E+00
        -11   -1    0    0    0    0  0.00000000000E+00  0.00000000000E+00  0.45593999997E+02  0.45594000000E+02  0.51100000000E-03 0.  1.
         11   -1    0    0    0    0 -0.00000000000E+00 -0.00000000000E+00 -0.45593999997E+02  0.45594000000E+02  0.51100000000E-03 0. -1.
    9900012    2    1    2    0    0 -0.26644403830E+02 -0.37869555034E+00  0.36318668120E+02  0.46142319632E+02  0.10000017063E+02 0.  0.
         12    1    1    2    0    0  0.26644403830E+02  0.37869555034E+00 -0.36318668120E+02  0.45045680368E+02  0.00000000000E+00 0. -1.
         11    1    3    3    0    0 -0.26802561420E+01  0.11690861767E+01  0.92909183099E+00  0.30681830725E+01  0.51100000000E-03 0. -1.
        -11    1    3    3    0    0 -0.47212642784E+01 -0.26344926726E+00  0.38153978196E+01  0.60759363629E+01  0.51100000000E-03 0.  1.
         12    1    3    3    0    0 -0.19242883409E+02 -0.12843324598E+01  0.31574178470E+02  0.36998200197E+02  0.00000000000E+00 0. -1.
</event>
<event>
 7    1  0.2313935E-008  0.4614232E+02  0.7816164E-02  0.1320468E+00
        -11   -1    0    0    0    0  0.00000000000E+00  0.00000000000E+00  0.45593999997E+02  0.45594000000E+02  0.51100000000E-03 0.  1.
         11   -1    0    0    0    0 -0.00000000000E+00 -0.00000000000E+00 -0.45593999997E+02  0.45594000000E+02  0.51100000000E-03 0. -1.
    9900012    2    1    2    0    0 -0.20868168512E+02  0.38306269774E+02 -0.11236664810E+02  0.46142318774E+02  0.10000009239E+02 0.  0.
         12    1    1    2    0    0  0.20868168512E+02 -0.38306269774E+02  0.11236664810E+02  0.45045681226E+02  0.00000000000E+00 0. -1.
         11    1    3    3    0    0 -0.33164260849E+01  0.85357256523E+01 -0.11339217494E+01  0.92273004277E+01  0.51100000000E-03 0. -1.
        -11    1    3    3    0    0 -0.26896980209E+01  0.11843650857E+02 -0.23379410719E+01  0.12368205601E+02  0.51100000000E-03 0.  1.
         12    1    3    3    0    0 -0.14862044406E+02  0.17926893265E+02 -0.77648019891E+01  0.24546812746E+02  0.00000000000E+00 0. -1.
</event>
<event>
 7    1  0.2313935E-008  0.4614232E+02  0.7816164E-02  0.1320468E+00
        -11   -1    0    0    0    0  0.00000000000E+00  0.00000000000E+00  0.45593999997E+02  0.45594000000E+02  0.51100000000E-03 0.  1.
         11   -1    0    0    0    0 -0.00000000000E+00 -0.00000000000E+00 -0.45593999997E+02  0.45594000000E+02  0.51100000000E-03 0. -1.
    9900012    2    1    2    0    0  0.14099957645E+02 -0.13456711675E+02  0.40610609794E+02  0.46142317382E+02  0.99999965397E+01 0.  0.
         12    1    1    2    0    0 -0.14099957645E+02  0.13456711675E+02 -0.40610609794E+02  0.45045682618E+02  0.00000000000E+00 0. -1.
         11    1    3    3    0    0  0.61303979602E-01  0.60774668937E+00  0.65850445411E+01  0.66133143042E+01  0.51100000000E-03 0. -1.
        -11    1    3    3    0    0  0.13060119944E+02 -0.13118838392E+02  0.32952604783E+02  0.37796095248E+02  0.51100000000E-03 0.  1.
         12    1    3    3    0    0  0.97853372173E+00 -0.94561997252E+00  0.10729604696E+01  0.17329078298E+01  0.00000000000E+00 0. -1.
</event>
<event>
 7    1  0.2313935E-008  0.4614232E+02  0.7816164E-02  0.1320468E+00
        -11   -1    0    0    0    0  0.00000000000E+00  0.00000000000E+00  0.45593999997E+02  0.45594000000E+02  0.51100000000E-03 0.  1.
         11   -1    0    0    0    0 -0.00000000000E+00 -0.00000000000E+00 -0.45593999997E+02  0.45594000000E+02  0.51100000000E-03 0. -1.
    9900012    2    1    2    0    0  0.30034916563E+02  0.59868198103E+01  0.33032941527E+02  0.46142318184E+02  0.10000003853E+02 0.  0.
         12    1    1    2    0    0 -0.30034916563E+02 -0.59868198103E+01 -0.33032941527E+02  0.45045681816E+02  0.00000000000E+00 0. -1.
         11    1    3    3    0    0  0.30884265950E+00 -0.90975252113E+00  0.44913386941E+00  0.10605446392E+01  0.51100000000E-03 0. -1.
        -11    1    3    3    0    0  0.12068661461E+02  0.59932897749E+01  0.14141479626E+02  0.19533395968E+02  0.51100000000E-03 0.  1.
        -12    1    3    3    0    0  0.17657412443E+02  0.90328255657E+00  0.18442328031E+02  0.25548377576E+02  0.00000000000E+00 0.  1.
</event>
<event>
 7    1  0.2313935E-008  0.4614231E+02  0.7816164E-02  0.1320468E+00
        -11   -1    0    0    0    0  0.00000000000E+00  0.00000000000E+00  0.45593999997E+02  0.45594000000E+02  0.51100000000E-03 0.  1.
         11   -1    0    0    0    0 -0.00000000000E+00 -0.00000000000E+00 -0.45593999997E+02  0.45594000000E+02  0.51100000000E-03 0. -1.
    9900012    2    1    2    0    0  0.66426173829E+01 -0.29407224068E+02  0.33469457929E+02  0.46142314222E+02  0.99999677310E+01 0.  0.
         12    1    1    2    0    0 -0.66426173829E+01  0.29407224068E+02 -0.33469457929E+02  0.45045685778E+02  0.00000000000E+00 0. -1.
         11    1    3    3    0    0  0.12382745426E+01 -0.31073241185E+01  0.37849546799E+01  0.50512047286E+01  0.51100000000E-03 0.  1.
        -11    1    3    3    0    0  0.19782802502E+01 -0.12546955552E+02  0.74563248499E+01  0.14728763251E+02  0.51100000000E-03 0. -1.
        -12    1    3    3    0    0  0.34260625901E+01 -0.13752944398E+02  0.22228178399E+02  0.26362346243E+02  0.00000000000E+00 0.  1.
</event>
<event>
 7    1  0.2313935E-008  0.4614232E+02  0.7816164E-02  0.1320468E+00
        -11   -1    0    0    0    0  0.00000000000E+00  0.00000000000E+00  0.45593999997E+02  0.45594000000E+02  0.51100000000E-03 0.  1.
         11   -1    0    0    0    0 -0.00000000000E+00 -0.00000000000E+00 -0.45593999997E+02  0.45594000000E+02  0.51100000000E-03 0. -1.
    9900012    2    1    2    0    0  0.38380280991E+02 -0.23545636105E+02  0.12925589112E+01  0.46142315889E+02  0.99999829271E+01 0.  0.
         12    1    1    2    0    0 -0.38380280991E+02  0.23545636105E+02 -0.12925589112E+01  0.45045684111E+02  0.00000000000E+00 0. -1.
         11    1    3    3    0    0  0.30556096140E+01 -0.46620455657E+00  0.34871871016E+00  0.31105790139E+01  0.51100000000E-03 0. -1.
        -11    1    3    3    0    0  0.30076494802E+02 -0.19890329273E+02  0.38012247082E+01  0.36258379000E+02  0.51100000000E-03 0.  1.
        -12    1    3    3    0    0  0.52481765746E+01 -0.31891022754E+01 -0.28573845071E+01  0.67733578750E+01  0.00000000000E+00 0.  1.
</event>
<event>
 7    1  0.2313935E-008  0.4614232E+02  0.7816164E-02  0.1320468E+00
        -11   -1    0    0    0    0  0.00000000000E+00  0.00000000000E+00  0.45593999997E+02  0.45594000000E+02  0.51100000000E-03 0. -1.
         11   -1    0    0    0    0 -0.00000000000E+00 -0.00000000000E+00 -0.45593999997E+02  0.45594000000E+02  0.51100000000E-03 0.  1.
    9900012    2    1    2    0    0  0.16046081082E+02 -0.23742982534E+02 -0.34754963721E+02  0.46142318288E+02  0.10000004806E+02 0.  0.
         12    1    1    2    0    0 -0.16046081082E+02  0.23742982534E+02  0.34754963721E+02  0.45045681712E+02  0.00000000000E+00 0. -1.
         11    1    3    3    0    0  0.52912282539E+00 -0.57066516670E+01 -0.53949500905E+01  0.78709167797E+01  0.51100000000E-03 0. -1.
        -11    1    3    3    0    0  0.18580872990E+01  0.28194695576E-01 -0.16600095630E+01  0.24917695242E+01  0.51100000000E-03 0.  1.
        -12    1    3    3    0    0  0.13658870957E+02 -0.18064525562E+02 -0.27700004067E+02  0.35779631984E+02  0.00000000000E+00 0.  1.
</event>
<event>
 7    1  0.2313935E-008  0.4614232E+02  0.7816164E-02  0.1320468E+00
        -11   -1    0    0    0    0  0.00000000000E+00  0.00000000000E+00  0.45593999997E+02  0.45594000000E+02  0.51100000000E-03 0.  1.
         11   -1    0    0    0    0 -0.00000000000E+00 -0.00000000000E+00 -0.45593999997E+02  0.45594000000E+02  0.51100000000E-03 0. -1.
    9900012    2    1    2    0    0 -0.79436436628E+01 -0.30873439177E+02  0.31825192930E+02  0.46142316230E+02  0.99999860397E+01 0.  0.
         12    1    1    2    0    0  0.79436436628E+01  0.30873439177E+02 -0.31825192930E+02  0.45045683770E+02  0.00000000000E+00 0. -1.
         11    1    3    3    0    0  0.15688228635E+01 -0.65841521452E+01  0.45627034289E+01  0.81627524457E+01  0.51100000000E-03 0. -1.
        -11    1    3    3    0    0 -0.17492446204E+01 -0.31615106620E+01  0.60700700520E+01  0.70640467938E+01  0.51100000000E-03 0.  1.
        -12    1    3    3    0    0 -0.77632219059E+01 -0.21127776370E+02  0.21192419449E+02  0.30915516991E+02  0.00000000000E+00 0.  1.
</event>
<event>
 7    1  0.2313935E-008  0.4614232E+02  0.7816164E-02  0.1320468E+00
        -11   -1    0    0    0    0  0.00000000000E+00  0.00000000000E+00  0.45593999997E+02  0.45594000000E+02  0.51100000000E-03 0.  1.
         11   -1    0    0    0    0 -0.00000000000E+00 -0.00000000000E+00 -0.45593999997E+02  0.45594000000E+02  0.51100000000E-03 0. -1.
    9900012    2    1    2    0    0 -0.65227219555E+01 -0.15910426817E+02  0.41634431754E+02  0.46142317735E+02  0.99999997634E+01 0.  0.
         12    1    1    2    0    0  0.65227219555E+01  0.15910426817E+02 -0.41634431754E+02  0.45045682265E+02  0.00000000000E+00 0. -1.
         11    1    3    3    0    0 -0.18545557989E+01 -0.55130481722E+01  0.97184445690E+01  0.11326130957E+02  0.51100000000E-03 0. -1.
        -11    1    3    3    0    0 -0.40244660880E+01 -0.18725788172E+01  0.55966631897E+01  0.71432148113E+01  0.51100000000E-03 0.  1.
        -12    1    3    3    0    0 -0.64370006857E+00 -0.85247998275E+01  0.26319323996E+02  0.27672971967E+02  0.00000000000E+00 0.  1.
</event>
<event>
 7    1  0.2313935E-008  0.4614232E+02  0.7816164E-02  0.1320468E+00
        -11   -1    0    0    0    0  0.00000000000E+00  0.00000000000E+00  0.45593999997E+02  0.45594000000E+02  0.51100000000E-03 0.  1.
         11   -1    0    0    0    0 -0.00000000000E+00 -0.00000000000E+00 -0.45593999997E+02  0.45594000000E+02  0.51100000000E-03 0. -1.
    9900012    2    1    2    0    0 -0.31426279137E+02  0.45315079228E+01  0.31952588763E+02  0.46142317487E+02  0.99999974985E+01 0.  0.
         12    1    1    2    0    0  0.31426279137E+02 -0.45315079228E+01 -0.31952588763E+02  0.45045682513E+02  0.00000000000E+00 0. -1.
         11    1    3    3    0    0 -0.12405518820E+01 -0.13968516929E+01  0.22813951475E+01  0.29487162807E+01  0.51100000000E-03 0. -1.
        -11    1    3    3    0    0 -0.24230409918E+02  0.29989570008E+01  0.25750923998E+02  0.35485442014E+02  0.51100000000E-03 0.  1.
        -12    1    3    3    0    0 -0.59553173369E+01  0.29294026150E+01  0.39202696166E+01  0.77081591921E+01  0.00000000000E+00 0.  1.
</event>
<event>
 7    1  0.2313935E-008  0.4614232E+02  0.7816164E-02  0.1320468E+00
        -11   -1    0    0    0    0  0.00000000000E+00  0.00000000000E+00  0.45593999997E+02  0.45594000000E+02  0.51100000000E-03 0. -1.
         11   -1    0    0    0    0 -0.00000000000E+00 -0.00000000000E+00 -0.45593999997E+02  0.45594000000E+02  0.51100000000E-03 0.  1.
    9900012    2    1    2    0    0 -0.29046808800E+02 -0.29904148729E+02  0.17062774881E+02  0.46142317640E+02  0.99999988955E+01 0.  0.
         12    1    1    2    0    0  0.29046808800E+02  0.29904148729E+02 -0.17062774881E+02  0.45045682360E+02  0.00000000000E+00 0. -1.
         11    1    3    3    0    0 -0.56424928555E+00 -0.34832382518E+01  0.90512683161E+00  0.36428808404E+01  0.51100000000E-03 0. -1.
        -11    1    3    3    0    0 -0.12846947971E+02 -0.13608680944E+02  0.48320601728E+01  0.19328452473E+02  0.51100000000E-03 0.  1.
         12    1    3    3    0    0 -0.15635611543E+02 -0.12812229532E+02  0.11325587877E+02  0.23170984327E+02  0.00000000000E+00 0. -1.
</event>
<event>
 7    1  0.2313935E-008  0.4614232E+02  0.7816164E-02  0.1320468E+00
        -11   -1    0    0    0    0  0.00000000000E+00  0.00000000000E+00  0.45593999997E+02  0.45594000000E+02  0.51100000000E-03 0.  1.
         11   -1    0    0    0    0 -0.00000000000E+00 -0.00000000000E+00 -0.45593999997E+02  0.45594000000E+02  0.51100000000E-03 0. -1.
    9900012    2    1    2    0    0 -0.11817016211E+02 -0.91363745646E+01  0.42497040284E+02  0.46142316020E+02  0.99999841262E+01 0.  0.
         12    1    1    2    0    0  0.11817016211E+02  0.91363745646E+01 -0.42497040284E+02  0.45045683980E+02  0.00000000000E+00 0. -1.
         11    1    3    3    0    0  0.26711855080E+00  0.97542996209E+00  0.85896354786E+00  0.13268890567E+01  0.51100000000E-03 0. -1.
        -11    1    3    3    0    0 -0.41034134241E+01 -0.64074247143E+00  0.11773562359E+02  0.12484603459E+02  0.51100000000E-03 0.  1.
         12    1    3    3    0    0 -0.79807213375E+01 -0.94710620553E+01  0.29864514377E+02  0.32330823505E+02  0.00000000000E+00 0. -1.
</event>
<event>
 7    1  0.2313935E-008  0.4614232E+02  0.7816164E-02  0.1320468E+00
        -11   -1    0    0    0    0  0.00000000000E+00  0.00000000000E+00  0.45593999997E+02  0.45594000000E+02  0.51100000000E-03 0.  1.
         11   -1    0    0    0    0 -0.00000000000E+00 -0.00000000000E+00 -0.45593999997E+02  0.45594000000E+02  0.51100000000E-03 0. -1.
    9900012    2    1    2    0    0 -0.23365098992E+02 -0.35707125679E+02  0.14428681054E+02  0.46142317498E+02  0.99999975993E+01 0.  0.
         12    1    1    2    0    0  0.23365098992E+02  0.35707125679E+02 -0.14428681054E+02  0.45045682502E+02  0.00000000000E+00 0. -1.
         11    1    3    3    0    0 -0.33670912427E+01 -0.69053432546E+01  0.35678356010E+01  0.84705678698E+01  0.51100000000E-03 0. -1.
        -11    1    3    3    0    0 -0.74494943371E+01 -0.17164790255E+02  0.34723840548E+01  0.19031091447E+02  0.51100000000E-03 0.  1.
        -12    1    3    3    0    0 -0.12548513412E+02 -0.11636992169E+02  0.73884613982E+01  0.18640658181E+02  0.00000000000E+00 0.  1.
</event>
<event>
 7    1  0.2313935E-008  0.4614231E+02  0.7816164E-02  0.1320468E+00
        -11   -1    0    0    0    0  0.00000000000E+00  0.00000000000E+00  0.45593999997E+02  0.45594000000E+02  0.51100000000E-03 0.  1.
         11   -1    0    0    0    0 -0.00000000000E+00 -0.00000000000E+00 -0.45593999997E+02  0.45594000000E+02  0.51100000000E-03 0. -1.
    9900012    2    1    2    0    0 -0.18038151138E+02 -0.39202906549E+02 -0.12917856754E+02  0.46142314285E+02  0.99999683063E+01 0.  0.
         12    1    1    2    0    0  0.18038151138E+02  0.39202906549E+02  0.12917856754E+02  0.45045685715E+02  0.00000000000E+00 0. -1.
         11    1    3    3    0    0 -0.15431620357E+01 -0.79806573383E+00 -0.66648488731E+00  0.18607687525E+01  0.51100000000E-03 0. -1.
        -11    1    3    3    0    0 -0.62298113653E+01 -0.23893526605E+02 -0.85047968787E+01  0.26115947876E+02  0.51100000000E-03 0.  1.
        -12    1    3    3    0    0 -0.10265177737E+02 -0.14511314210E+02 -0.37465749882E+01  0.18165597657E+02  0.00000000000E+00 0.  1.
</event>
<event>
 7    1  0.2313935E-008  0.4614232E+02  0.7816164E-02  0.1320468E+00
        -11   -1    0    0    0    0  0.00000000000E+00  0.00000000000E+00  0.45593999997E+02  0.45594000000E+02  0.51100000000E-03 0.  1.
         11   -1    0    0    0    0 -0.00000000000E+00 -0.00000000000E+00 -0.45593999997E+02  0.45594000000E+02  0.51100000000E-03 0. -1.
    9900012    2    1    2    0    0  0.25366656583E+02 -0.10752215670E+02  0.35637567128E+02  0.46142316535E+02  0.99999888224E+01 0.  0.
         12    1    1    2    0    0 -0.25366656583E+02  0.10752215670E+02 -0.35637567128E+02  0.45045683465E+02  0.00000000000E+00 0. -1.
         11    1    3    3    0    0  0.27599629731E+01 -0.98925726260E+00  0.74428691561E+01  0.79995204281E+01  0.51100000000E-03 0.  1.
        -11    1    3    3    0    0  0.13561060407E+01 -0.23754603967E+01  0.57296390958E+01  0.63490629324E+01  0.51100000000E-03 0. -1.
         12    1    3    3    0    0  0.21250587569E+02 -0.73874980110E+01  0.22465058876E+02  0.31793733175E+02  0.00000000000E+00 0. -1.
</event>
<event>
 7    1  0.2313935E-008  0.4614232E+02  0.7816164E-02  0.1320468E+00
        -11   -1    0    0    0    0  0.00000000000E+00  0.00000000000E+00  0.45593999997E+02  0.45594000000E+02  0.51100000000E-03 0.  1.
         11   -1    0    0    0    0 -0.00000000000E+00 -0.00000000000E+00 -0.45593999997E+02  0.45594000000E+02  0.51100000000E-03 0. -1.
    9900012    2    1    2    0    0  0.14771971478E+02 -0.33828414170E+02  0.25817450698E+02  0.46142317552E+02  0.99999980952E+01 0.  0.
         12    1    1    2    0    0 -0.14771971478E+02  0.33828414170E+02 -0.25817450698E+02  0.45045682448E+02  0.00000000000E+00 0. -1.
         11    1    3    3    0    0  0.10416799556E+02 -0.28578247914E+02  0.22338496170E+02  0.37739029906E+02  0.51100000000E-03 0. -1.
        -11    1    3    3    0    0  0.18605939280E+01 -0.47099840345E+01  0.26751368895E+01  0.57273132452E+01  0.51100000000E-03 0.  1.
        -12    1    3    3    0    0  0.24945779937E+01 -0.54018222152E+00  0.80381763931E+00  0.26759744013E+01  0.00000000000E+00 0.  1.
</event>
<event>
 7    1  0.2313935E-008  0.4614231E+02  0.7816164E-02  0.1320468E+00
        -11   -1    0    0    0    0  0.00000000000E+00  0.00000000000E+00  0.45593999997E+02  0.45594000000E+02  0.51100000000E-03 0.  1.
         11   -1    0    0    0    0 -0.00000000000E+00 -0.00000000000E+00 -0.45593999997E+02  0.45594000000E+02  0.51100000000E-03 0. -1.
    9900012    2    1    2    0    0 -0.27802966866E+02  0.12311202785E+02  0.33234671667E+02  0.46142311179E+02  0.99999399786E+01 0.  0.
         12    1    1    2    0    0  0.27802966866E+02 -0.12311202785E+02 -0.33234671667E+02  0.45045688821E+02  0.00000000000E+00 0. -1.
         11    1    3    3    0    0 -0.12349067977E+02  0.88248335304E+01  0.17446658186E+02  0.23124944300E+02  0.51100000000E-03 0. -1.
        -11    1    3    3    0    0 -0.14279976107E+02  0.34787779559E+01  0.11764615703E+02  0.18826199739E+02  0.51100000000E-03 0.  1.
        -12    1    3    3    0    0 -0.11739227816E+01  0.75912988371E-02  0.40233977776E+01  0.41911671407E+01  0.00000000000E+00 0.  1.
</event>
<event>
 7    1  0.2313935E-008  0.4614232E+02  0.7816164E-02  0.1320468E+00
        -11   -1    0    0    0    0  0.00000000000E+00  0.00000000000E+00  0.45593999997E+02  0.45594000000E+02  0.51100000000E-03 0.  1.
         11   -1    0    0    0    0 -0.00000000000E+00 -0.00000000000E+00 -0.45593999997E+02  0.45594000000E+02  0.51100000000E-03 0. -1.
    9900012    2    1    2    0    0 -0.16213369711E+02  0.14681739331E+02  0.39378758596E+02  0.46142318124E+02  0.10000003305E+02 0.  0.
         12    1    1    2    0    0  0.16213369711E+02 -0.14681739331E+02 -0.39378758596E+02  0.45045681876E+02  0.00000000000E+00 0. -1.
         11    1    3    3    0    0 -0.70163781525E+01  0.13613547300E+01  0.73302594761E+01  0.10237946734E+02  0.51100000000E-03 0. -1.
        -11    1    3    3    0    0 -0.49529957204E+01  0.71881059404E+01  0.17287658719E+02  0.19366573726E+02  0.51100000000E-03 0.  1.
         12    1    3    3    0    0 -0.42439958377E+01  0.61322786604E+01  0.14760840401E+02  0.16537797664E+02  0.00000000000E+00 0. -1.
</event>
<event>
 7    1  0.2313935E-008  0.4614232E+02  0.7816164E-02  0.1320468E+00
        -11   -1    0    0    0    0  0.00000000000E+00  0.00000000000E+00  0.45593999997E+02  0.45594000000E+02  0.51100000000E-03 0. -1.
         11   -1    0    0    0    0 -0.00000000000E+00 -0.00000000000E+00 -0.45593999997E+02  0.45594000000E+02  0.51100000000E-03 0.  1.
    9900012    2    1    2    0    0  0.41329890310E+02  0.38262134062E+00 -0.17911091299E+02  0.46142318479E+02  0.10000006549E+02 0.  0.
         12    1    1    2    0    0 -0.41329890310E+02 -0.38262134062E+00  0.17911091299E+02  0.45045681521E+02  0.00000000000E+00 0. -1.
         11    1    3    3    0    0  0.23840487311E+00 -0.24778920879E+00  0.19987602095E+00  0.39772736942E+00  0.51100000000E-03 0. -1.
        -11    1    3    3    0    0  0.38847404374E+02 -0.39190953951E+00 -0.18835122578E+02  0.43174486245E+02  0.51100000000E-03 0.  1.
        -12    1    3    3    0    0  0.22440810627E+01  0.10223200889E+01  0.72415525774E+00  0.25701048651E+01  0.00000000000E+00 0.  1.
</event>
<event>
 7    1  0.2313935E-008  0.4614232E+02  0.7816164E-02  0.1320468E+00
        -11   -1    0    0    0    0  0.00000000000E+00  0.00000000000E+00  0.45593999997E+02  0.45594000000E+02  0.51100000000E-03 0. -1.
         11   -1    0    0    0    0 -0.00000000000E+00 -0.00000000000E+00 -0.45593999997E+02  0.45594000000E+02  0.51100000000E-03 0.  1.
    9900012    2    1    2    0    0 -0.29882264139E+02  0.32780591580E+02 -0.78483515408E+01  0.46142317451E+02  0.99999971742E+01 0.  0.
         12    1    1    2    0    0  0.29882264139E+02 -0.32780591580E+02  0.78483515408E+01  0.45045682549E+02  0.00000000000E+00 0. -1.
         11    1    3    3    0    0 -0.14757809910E+02  0.23150901156E+02 -0.40684566608E+01  0.27754450410E+02  0.51100000000E-03 0. -1.
        -11    1    3    3    0    0 -0.64072654508E+01  0.49244013783E+01 -0.19734286086E+01  0.83184854526E+01  0.51100000000E-03 0.  1.
         12    1    3    3    0    0 -0.87171887782E+01  0.47052890451E+01 -0.18064662714E+01  0.10069381589E+02  0.00000000000E+00 0. -1.
</event>
<event>
 7    1  0.2313935E-008  0.4614232E+02  0.7816164E-02  0.1320468E+00
        -11   -1    0    0    0    0  0.00000000000E+00  0.00000000000E+00  0.45593999997E+02  0.45594000000E+02  0.51100000000E-03 0.  1.
         11   -1    0    0    0    0 -0.00000000000E+00 -0.00000000000E+00 -0.45593999997E+02  0.45594000000E+02  0.51100000000E-03 0. -1.
    9900012    2    1    2    0    0 -0.27935325099E+02 -0.33514501602E+02 -0.11203092838E+02  0.46142317686E+02  0.99999993126E+01 0.  0.
         12    1    1    2    0    0  0.27935325099E+02  0.33514501602E+02  0.11203092838E+02  0.45045682314E+02  0.00000000000E+00 0. -1.
         11    1    3    3    0    0  0.30035231316E+00 -0.13309886607E+00 -0.51464827736E+00  0.61056525506E+00  0.51100000000E-03 0. -1.
        -11    1    3    3    0    0 -0.16838474818E+02 -0.16653013670E+02 -0.85441803097E+01  0.25176578717E+02  0.51100000000E-03 0.  1.
        -12    1    3    3    0    0 -0.11397202594E+02 -0.16728389066E+02 -0.21442642508E+01  0.20355173713E+02  0.00000000000E+00 0.  1.
</event>
<event>
 7    1  0.2313935E-008  0.4614232E+02  0.7816164E-02  0.1320468E+00
        -11   -1    0    0    0    0  0.00000000000E+00  0.00000000000E+00  0.45593999997E+02  0.45594000000E+02  0.51100000000E-03 0.  1.
         11   -1    0    0    0    0 -0.00000000000E+00 -0.00000000000E+00 -0.45593999997E+02  0.45594000000E+02  0.51100000000E-03 0. -1.
    9900012    2    1    2    0    0 -0.36852620024E+02  0.22729345670E+01  0.25803712339E+02  0.46142318690E+02  0.10000008470E+02 0.  0.
         12    1    1    2    0    0  0.36852620024E+02 -0.22729345670E+01 -0.25803712339E+02  0.45045681310E+02  0.00000000000E+00 0. -1.
         11    1    3    3    0    0 -0.30675985270E+02  0.19893245417E+01  0.17067565226E+02  0.35160706299E+02  0.51100000000E-03 0. -1.
        -11    1    3    3    0    0 -0.38097873378E+01  0.31831742536E+00  0.32919273585E+01  0.50450561481E+01  0.51100000000E-03 0.  1.
        -12    1    3    3    0    0 -0.23668474168E+01 -0.34707400014E-01  0.54442197539E+01  0.59365562431E+01  0.00000000000E+00 0.  1.
</event>
<event>
 7    1  0.2313935E-008  0.4614233E+02  0.7816164E-02  0.1320468E+00
        -11   -1    0    0    0    0  0.00000000000E+00  0.00000000000E+00  0.45593999997E+02  0.45594000000E+02  0.51100000000E-03 0.  1.
         11   -1    0    0    0    0 -0.00000000000E+00 -0.00000000000E+00 -0.45593999997E+02  0.45594000000E+02  0.51100000000E-03 0. -1.
    9900012    2    1    2    0    0  0.36632953881E+02  0.18082646472E+02  0.18977809193E+02  0.46142327008E+02  0.10000084324E+02 0.  0.
         12    1    1    2    0    0 -0.36632953881E+02 -0.18082646472E+02 -0.18977809193E+02  0.45045672992E+02  0.00000000000E+00 0. -1.
         11    1    3    3    0    0  0.89263742350E+01  0.16674018249E+01  0.27658399993E+01  0.94926422556E+01  0.51100000000E-03 0. -1.
        -11    1    3    3    0    0  0.81018897988E+00  0.20370334292E+01  0.21323894084E+01  0.30582668662E+01  0.51100000000E-03 0.  1.
        -12    1    3    3    0    0  0.26896390666E+02  0.14378211218E+02  0.14079579786E+02  0.33591417887E+02  0.00000000000E+00 0.  1.
</event>
<event>
 7    1  0.2313935E-008  0.4614232E+02  0.7816164E-02  0.1320468E+00
        -11   -1    0    0    0    0  0.00000000000E+00  0.00000000000E+00  0.45593999997E+02  0.45594000000E+02  0.51100000000E-03 0. -1.
         11   -1    0    0    0    0 -0.00000000000E+00 -0.00000000000E+00 -0.45593999997E+02  0.45594000000E+02  0.51100000000E-03 0.  1.
    9900012    2    1    2    0    0 -0.30310310667E+02 -0.25889932613E+02 -0.20978800932E+02  0.46142316167E+02  0.99999854634E+01 0.  0.
         12    1    1    2    0    0  0.30310310667E+02  0.25889932613E+02  0.20978800932E+02  0.45045683833E+02  0.00000000000E+00 0. -1.
         11    1    3    3    0    0 -0.43335306496E+01 -0.14803080978E+01 -0.43479445944E+01  0.63146989170E+01  0.51100000000E-03 0. -1.
        -11    1    3    3    0    0 -0.19437332912E+02 -0.14274077843E+02 -0.11557962420E+02  0.26742208296E+02  0.51100000000E-03 0.  1.
         12    1    3    3    0    0 -0.65394471062E+01 -0.10135546672E+02 -0.50728939176E+01  0.13085408954E+02  0.00000000000E+00 0. -1.
</event>
<event>
 7    1  0.2313935E-008  0.4614232E+02  0.7816164E-02  0.1320468E+00
        -11   -1    0    0    0    0  0.00000000000E+00  0.00000000000E+00  0.45593999997E+02  0.45594000000E+02  0.51100000000E-03 0. -1.
         11   -1    0    0    0    0 -0.00000000000E+00 -0.00000000000E+00 -0.45593999997E+02  0.45594000000E+02  0.51100000000E-03 0.  1.
    9900012    2    1    2    0    0 -0.42924647872E+02 -0.51651126457E+00  0.13649956835E+02  0.46142317627E+02  0.99999987803E+01 0.  0.
         12    1    1    2    0    0  0.42924647872E+02  0.51651126457E+00 -0.13649956835E+02  0.45045682373E+02  0.00000000000E+00 0. -1.
         11    1    3    3    0    0 -0.34465686327E+01 -0.13829026994E+01  0.12741129142E+01  0.39261455901E+01  0.51100000000E-03 0. -1.
        -11    1    3    3    0    0 -0.26792058343E+02  0.28424391826E+01  0.49782875207E+01  0.27398488966E+02  0.51100000000E-03 0.  1.
        -12    1    3    3    0    0 -0.12686020897E+02 -0.19760477478E+01  0.73975564004E+01  0.14817683071E+02  0.00000000000E+00 0.  1.
</event>
<event>
 7    1  0.2313935E-008  0.4614232E+02  0.7816164E-02  0.1320468E+00
        -11   -1    0    0    0    0  0.00000000000E+00  0.00000000000E+00  0.45593999997E+02  0.45594000000E+02  0.51100000000E-03 0.  1.
         11   -1    0    0    0    0 -0.00000000000E+00 -0.00000000000E+00 -0.45593999997E+02  0.45594000000E+02  0.51100000000E-03 0. -1.
    9900012    2    1    2    0    0 -0.43310314417E+02 -0.40012722774E+01  0.11718357759E+02  0.46142318483E+02  0.10000006581E+02 0.  0.
         12    1    1    2    0    0  0.43310314417E+02  0.40012722774E+01 -0.11718357759E+02  0.45045681517E+02  0.00000000000E+00 0. -1.
         11    1    3    3    0    0 -0.82959837548E+01  0.61900878981E+00  0.28617277171E+01  0.87974998795E+01  0.51100000000E-03 0. -1.
        -11    1    3    3    0    0 -0.26907325633E+02 -0.48970993649E+01  0.10067028299E+02  0.29143280768E+02  0.51100000000E-03 0.  1.
         12    1    3    3    0    0 -0.81070050296E+01  0.27681829769E+00 -0.12103982564E+01  0.82015378351E+01  0.00000000000E+00 0. -1.
</event>
<event>
 7    1  0.2313935E-008  0.4614232E+02  0.7816164E-02  0.1320468E+00
        -11   -1    0    0    0    0  0.00000000000E+00  0.00000000000E+00  0.45593999997E+02  0.45594000000E+02  0.51100000000E-03 0.  1.
         11   -1    0    0    0    0 -0.00000000000E+00 -0.00000000000E+00 -0.45593999997E+02  0.45594000000E+02  0.51100000000E-03 0. -1.
    9900012    2    1    2    0    0 -0.31268974002E+02 -0.22523848105E+02  0.23324687564E+02  0.46142317426E+02  0.99999969408E+01 0.  0.
         12    1    1    2    0    0  0.31268974002E+02  0.22523848105E+02 -0.23324687564E+02  0.45045682574E+02  0.00000000000E+00 0. -1.
         11    1    3    3    0    0 -0.60218978195E+01 -0.35895371642E+01  0.40727127283E+01  0.81077135882E+01  0.51100000000E-03 0.  1.
        -11    1    3    3    0    0 -0.19005694074E+01 -0.55168299255E+01  0.27262880181E+01  0.64405141967E+01  0.51100000000E-03 0. -1.
         12    1    3    3    0    0 -0.23346506776E+02 -0.13417481015E+02  0.16525686818E+02  0.31594089641E+02  0.00000000000E+00 0. -1.
</event>
<event>
 7    1  0.2313935E-008  0.4614232E+02  0.7816164E-02  0.1320468E+00
        -11   -1    0    0    0    0  0.00000000000E+00  0.00000000000E+00  0.45593999997E+02  0.45594000000E+02  0.51100000000E-03 0. -1.
         11   -1    0    0    0    0 -0.00000000000E+00 -0.00000000000E+00 -0.45593999997E+02  0.45594000000E+02  0.51100000000E-03 0.  1.
    9900012    2    1    2    0    0  0.13507154787E+01  0.42575789737E+02  0.14648932322E+02  0.46142317386E+02  0.99999965794E+01 0.  0.
         12    1    1    2    0    0 -0.13507154787E+01 -0.42575789737E+02 -0.14648932322E+02  0.45045682614E+02  0.00000000000E+00 0. -1.
         11    1    3    3    0    0  0.69543831984E+00  0.25421278342E+02  0.93389268889E+01  0.27091337780E+02  0.51100000000E-03 0.  1.
        -11    1    3    3    0    0  0.18707761234E+01  0.11201878129E+02  0.61653011213E+00  0.11373741098E+02  0.51100000000E-03 0. -1.
        -12    1    3    3    0    0 -0.12154989645E+01  0.59526332650E+01  0.46934753208E+01  0.76772385079E+01  0.00000000000E+00 0.  1.
</event>
<event>
 7    1  0.2313935E-008  0.4614232E+02  0.7816164E-02  0.1320468E+00
        -11   -1    0    0    0    0  0.00000000000E+00  0.00000000000E+00  0.45593999997E+02  0.45594000000E+02  0.51100000000E-03 0.  1.
         11   -1    0    0    0    0 -0.00000000000E+00 -0.00000000000E+00 -0.45593999997E+02  0.45594000000E+02  0.51100000000E-03 0. -1.
    9900012    2    1    2    0    0 -0.12245383006E+02  0.41512942939E+01  0.43150096924E+02  0.46142317479E+02  0.99999974258E+01 0.  0.
         12    1    1    2    0    0  0.12245383006E+02 -0.41512942939E+01 -0.43150096924E+02  0.45045682521E+02  0.00000000000E+00 0. -1.
         11    1    3    3    0    0  0.35689112731E+00  0.30970260111E+00  0.18679926622E+01  0.19268325887E+01  0.51100000000E-03 0. -1.
        -11    1    3    3    0    0 -0.85990860030E+01 -0.17833924676E+01  0.20046938488E+02  0.21886171702E+02  0.51100000000E-03 0.  1.
         12    1    3    3    0    0 -0.40031881307E+01  0.56249841604E+01  0.21235165774E+02  0.22329313188E+02  0.00000000000E+00 0. -1.
</event>
<event>
 7    1  0.2313935E-008  0.4614232E+02  0.7816164E-02  0.1320468E+00
        -11   -1    0    0    0    0  0.00000000000E+00  0.00000000000E+00  0.45593999997E+02  0.45594000000E+02  0.51100000000E-03 0. -1.
         11   -1    0    0    0    0 -0.00000000000E+00 -0.00000000000E+00 -0.45593999997E+02  0.45594000000E+02  0.51100000000E-03 0.  1.
    9900012    2    1    2    0    0  0.17896241302E+02 -0.13596678782E+02 -0.39038039575E+02  0.46142315851E+02  0.99999825808E+01 0.  0.
         12    1    1    2    0    0 -0.17896241302E+02  0.13596678782E+02  0.39038039575E+02  0.45045684149E+02  0.00000000000E+00 0. -1.
         11    1    3    3    0    0  0.62436179078E+01 -0.62899054161E+01 -0.82952338889E+01  0.12139051868E+02  0.51100000000E-03 0. -1.
        -11    1    3    3    0    0  0.43516081534E+01 -0.51310548433E+01 -0.11755147022E+02  0.13544286585E+02  0.51100000000E-03 0.  1.
         12    1    3    3    0    0  0.73010152407E+01 -0.21757185223E+01 -0.18987658664E+02  0.20458977398E+02  0.00000000000E+00 0. -1.
</event>
<event>
 7    1  0.2313935E-008  0.4614231E+02  0.7816164E-02  0.1320468E+00
        -11   -1    0    0    0    0  0.00000000000E+00  0.00000000000E+00  0.45593999997E+02  0.45594000000E+02  0.51100000000E-03 0.  1.
         11   -1    0    0    0    0 -0.00000000000E+00 -0.00000000000E+00 -0.45593999997E+02  0.45594000000E+02  0.51100000000E-03 0. -1.
    9900012    2    1    2    0    0  0.37902280420E+02 -0.14919046873E+01  0.24296207082E+02  0.46142308539E+02  0.99999159032E+01 0.  0.
         12    1    1    2    0    0 -0.37902280420E+02  0.14919046873E+01 -0.24296207082E+02  0.45045691461E+02  0.00000000000E+00 0. -1.
         11    1    3    3    0    0  0.46425184392E+01 -0.40377999040E+00  0.40961563301E+01  0.62043946264E+01  0.51100000000E-03 0.  1.
        -11    1    3    3    0    0  0.27700364944E+02 -0.34629050143E+01  0.19016863705E+02  0.33777848283E+02  0.51100000000E-03 0. -1.
         12    1    3    3    0    0  0.55593970371E+01  0.23747803174E+01  0.11831870461E+01  0.61600656294E+01  0.00000000000E+00 0. -1.
</event>
<event>
 7    1  0.2313935E-008  0.4614232E+02  0.7816164E-02  0.1320468E+00
        -11   -1    0    0    0    0  0.00000000000E+00  0.00000000000E+00  0.45593999997E+02  0.45594000000E+02  0.51100000000E-03 0.  1.
         11   -1    0    0    0    0 -0.00000000000E+00 -0.00000000000E+00 -0.45593999997E+02  0.45594000000E+02  0.51100000000E-03 0. -1.
    9900012    2    1    2    0    0  0.17313483720E+02  0.41133075837E+02  0.61177461164E+01  0.46142318033E+02  0.10000002481E+02 0.  0.
         12    1    1    2    0    0 -0.17313483720E+02 -0.41133075837E+02 -0.61177461164E+01  0.45045681967E+02  0.00000000000E+00 0. -1.
         11    1    3    3    0    0  0.35524469676E+01  0.16334997251E+02 -0.12656227138E+01  0.16764659727E+02  0.51100000000E-03 0. -1.
        -11    1    3    3    0    0  0.13860658778E+01  0.31553086309E+01  0.15195461444E+01  0.37664534937E+01  0.51100000000E-03 0.  1.
         12    1    3    3    0    0  0.12374970874E+02  0.21642769955E+02  0.58638226858E+01  0.25611204813E+02  0.00000000000E+00 0. -1.
</event>
<event>
 7    1  0.2313935E-008  0.4614232E+02  0.7816164E-02  0.1320468E+00
        -11   -1    0    0    0    0  0.00000000000E+00  0.00000000000E+00  0.45593999997E+02  0.45594000000E+02  0.51100000000E-03 0. -1.
         11   -1    0    0    0    0 -0.00000000000E+00 -0.00000000000E+00 -0.45593999997E+02  0.45594000000E+02  0.51100000000E-03 0.  1.
    9900012    2    1    2    0    0  0.23523175648E+02  0.36795317580E+02 -0.11039849892E+02  0.46142317921E+02  0.10000001454E+02 0.  0.
         12    1    1    2    0    0 -0.23523175648E+02 -0.36795317580E+02  0.11039849892E+02  0.45045682079E+02  0.00000000000E+00 0. -1.
         11    1    3    3    0    0 -0.43103754320E+00  0.89121690373E-01 -0.48623895462E-01  0.44283245553E+00  0.51100000000E-03 0. -1.
        -11    1    3    3    0    0  0.75361099621E+01  0.13120398362E+02 -0.70516050324E+01  0.16693200422E+02  0.51100000000E-03 0.  1.
        -12    1    3    3    0    0  0.16418103229E+02  0.23585797528E+02 -0.39396209640E+01  0.29006285043E+02  0.00000000000E+00 0.  1.
</event>
<event>
 7    1  0.2313935E-008  0.4614232E+02  0.7816164E-02  0.1320468E+00
        -11   -1    0    0    0    0  0.00000000000E+00  0.00000000000E+00  0.45593999997E+02  0.45594000000E+02  0.51100000000E-03 0.  1.
         11   -1    0    0    0    0 -0.00000000000E+00 -0.00000000000E+00 -0.45593999997E+02  0.45594000000E+02  0.51100000000E-03 0. -1.
    9900012    2    1    2    0    0  0.30410659712E+02  0.30509718128E+02  0.13170511084E+02  0.46142317781E+02  0.10000000183E+02 0.  0.
         12    1    1    2    0    0 -0.30410659712E+02 -0.30509718128E+02 -0.13170511084E+02  0.45045682219E+02  0.00000000000E+00 0. -1.
         11    1    3    3    0    0  0.56335439052E+00  0.37970199486E+00 -0.37826199948E+00  0.77757583269E+00  0.51100000000E-03 0.  1.
        -11    1    3    3    0    0  0.23152173717E+01  0.54781555316E+01 -0.15675581359E+00  0.59493690551E+01  0.51100000000E-03 0. -1.
        -12    1    3    3    0    0  0.27532087950E+02  0.24651860601E+02  0.13705528897E+02  0.39415372893E+02  0.00000000000E+00 0.  1.
</event>
<event>
 7    1  0.2313935E-008  0.4614232E+02  0.7816164E-02  0.1320468E+00
        -11   -1    0    0    0    0  0.00000000000E+00  0.00000000000E+00  0.45593999997E+02  0.45594000000E+02  0.51100000000E-03 0.  1.
         11   -1    0    0    0    0 -0.00000000000E+00 -0.00000000000E+00 -0.45593999997E+02  0.45594000000E+02  0.51100000000E-03 0. -1.
    9900012    2    1    2    0    0  0.31639583949E+01  0.39906576881E+02  0.20653521477E+02  0.46142318070E+02  0.10000002818E+02 0.  0.
         12    1    1    2    0    0 -0.31639583949E+01 -0.39906576881E+02 -0.20653521477E+02  0.45045681930E+02  0.00000000000E+00 0. -1.
         11    1    3    3    0    0 -0.26646142786E+01  0.10695236265E+02  0.40412238384E+01  0.11739665174E+02  0.51100000000E-03 0. -1.
        -11    1    3    3    0    0  0.84833876417E+00  0.15127254473E+02  0.75208792944E+01  0.16914997256E+02  0.51100000000E-03 0.  1.
         12    1    3    3    0    0  0.49802339093E+01  0.14084086143E+02  0.90914183445E+01  0.17487655641E+02  0.00000000000E+00 0. -1.
</event>
<event>
 7    1  0.2313935E-008  0.4614232E+02  0.7816164E-02  0.1320468E+00
        -11   -1    0    0    0    0  0.00000000000E+00  0.00000000000E+00  0.45593999997E+02  0.45594000000E+02  0.51100000000E-03 0.  1.
         11   -1    0    0    0    0 -0.00000000000E+00 -0.00000000000E+00 -0.45593999997E+02  0.45594000000E+02  0.51100000000E-03 0. -1.
    9900012    2    1    2    0    0 -0.36171443182E+02 -0.25226602705E+02  0.91847013492E+01  0.46142317357E+02  0.99999963120E+01 0.  0.
         12    1    1    2    0    0  0.36171443182E+02  0.25226602705E+02 -0.91847013492E+01  0.45045682643E+02  0.00000000000E+00 0. -1.
         11    1    3    3    0    0 -0.14466565321E+02 -0.10888052097E+02  0.69981896405E+01  0.19411487557E+02  0.51100000000E-03 0. -1.
        -11    1    3    3    0    0 -0.22022716939E+02 -0.13835821898E+02  0.23493605662E+01  0.26114163289E+02  0.51100000000E-03 0.  1.
         12    1    3    3    0    0  0.31783907771E+00 -0.50272870990E+00 -0.16284885747E+00  0.61666651073E+00  0.00000000000E+00 0. -1.
</event>
<event>
 7    1  0.2313935E-008  0.4614232E+02  0.7816164E-02  0.1320468E+00
        -11   -1    0    0    0    0  0.00000000000E+00  0.00000000000E+00  0.45593999997E+02  0.45594000000E+02  0.51100000000E-03 0.  1.
         11   -1    0    0    0    0 -0.00000000000E+00 -0.00000000000E+00 -0.45593999997E+02  0.45594000000E+02  0.51100000000E-03 0. -1.
    9900012    2    1    2    0    0 -0.24909668845E+02  0.28050970232E+02  0.24935213418E+02  0.46142318729E+02  0.10000008830E+02 0.  0.
         12    1    1    2    0    0  0.24909668845E+02 -0.28050970232E+02 -0.24935213418E+02  0.45045681271E+02  0.00000000000E+00 0. -1.
         11    1    3    3    0    0 -0.21969334646E+00 -0.97812870875E-01  0.88799531009E+00  0.91998285639E+00  0.51100000000E-03 0. -1.
        -11    1    3    3    0    0 -0.14820752845E+02  0.21461227433E+02  0.13829016673E+02  0.29520851957E+02  0.51100000000E-03 0.  1.
         12    1    3    3    0    0 -0.98692226530E+01  0.66875556697E+01  0.10218201435E+02  0.15701483916E+02  0.00000000000E+00 0. -1.
</event>
<event>
 7    1  0.2313935E-008  0.4614232E+02  0.7816164E-02  0.1320468E+00
        -11   -1    0    0    0    0  0.00000000000E+00  0.00000000000E+00  0.45593999997E+02  0.45594000000E+02  0.51100000000E-03 0. -1.
         11   -1    0    0    0    0 -0.00000000000E+00 -0.00000000000E+00 -0.45593999997E+02  0.45594000000E+02  0.51100000000E-03 0.  1.
    9900012    2    1    2    0    0  0.41232670856E+02  0.87802025434E+01  0.15870992639E+02  0.46142317521E+02  0.99999978116E+01 0.  0.
         12    1    1    2    0    0 -0.41232670856E+02 -0.87802025434E+01 -0.15870992639E+02  0.45045682479E+02  0.00000000000E+00 0. -1.
         11    1    3    3    0    0  0.63453306611E+01 -0.95945685614E+00  0.11088080554E+01  0.65125443739E+01  0.51100000000E-03 0. -1.
        -11    1    3    3    0    0  0.16920136074E+02  0.47018990621E+01  0.37321396758E+01  0.17953487860E+02  0.51100000000E-03 0.  1.
         12    1    3    3    0    0  0.17967204122E+02  0.50377603375E+01  0.11030044907E+02  0.21676285287E+02  0.00000000000E+00 0. -1.
</event>
<event>
 7    1  0.2313935E-008  0.4614232E+02  0.7816164E-02  0.1320468E+00
        -11   -1    0    0    0    0  0.00000000000E+00  0.00000000000E+00  0.45593999997E+02  0.45594000000E+02  0.51100000000E-03 0.  1.
         11   -1    0    0    0    0 -0.00000000000E+00 -0.00000000000E+00 -0.45593999997E+02  0.45594000000E+02  0.51100000000E-03 0. -1.
    9900012    2    1    2    0    0  0.43018542293E+02  0.12894257289E+02 -0.35009522028E+01  0.46142317428E+02  0.99999969645E+01 0.  0.
         12    1    1    2    0    0 -0.43018542293E+02 -0.12894257289E+02  0.35009522028E+01  0.45045682572E+02  0.00000000000E+00 0. -1.
         11    1    3    3    0    0  0.11142993057E+01 -0.53595018425E+00  0.84320580468E+00  0.14966301590E+01  0.51100000000E-03 0. -1.
        -11    1    3    3    0    0  0.10271046892E+02  0.66393549276E+00 -0.16918768211E+01  0.10430611777E+02  0.51100000000E-03 0.  1.
         12    1    3    3    0    0  0.31633196095E+02  0.12766271981E+02 -0.26522811864E+01  0.34215075493E+02  0.00000000000E+00 0. -1.
</event>
<event>
 7    1  0.2313935E-008  0.4614232E+02  0.7816164E-02  0.1320468E+00
        -11   -1    0    0    0    0  0.00000000000E+00  0.00000000000E+00  0.45593999997E+02  0.45594000000E+02  0.51100000000E-03 0.  1.
         11   -1    0    0    0    0 -0.00000000000E+00 -0.00000000000E+00 -0.45593999997E+02  0.45594000000E+02  0.51100000000E-03 0. -1.
    9900012    2    1    2    0    0 -0.18831945420E+02 -0.15694556542E+02  0.37790901440E+02  0.46142317577E+02  0.99999983191E+01 0.  0.
         12    1    1    2    0    0  0.18831945420E+02  0.15694556542E+02 -0.37790901440E+02  0.45045682423E+02  0.00000000000E+00 0. -1.
         11    1    3    3    0    0 -0.16649462428E+02 -0.14559765140E+02  0.28438538185E+02  0.36026959550E+02  0.51100000000E-03 0.  1.
        -11    1    3    3    0    0 -0.21079955995E+01 -0.95166138825E+00  0.31400504282E+01  0.38999002292E+01  0.51100000000E-03 0. -1.
        -12    1    3    3    0    0 -0.74487392011E-01 -0.18313001377E+00  0.62123128264E+01  0.62154577971E+01  0.00000000000E+00 0.  1.
</event>
<event>
 7    1  0.2313935E-008  0.4614232E+02  0.7816164E-02  0.1320468E+00
        -11   -1    0    0    0    0  0.00000000000E+00  0.00000000000E+00  0.45593999997E+02  0.45594000000E+02  0.51100000000E-03 0.  1.
         11   -1    0    0    0    0 -0.00000000000E+00 -0.00000000000E+00 -0.45593999997E+02  0.45594000000E+02  0.51100000000E-03 0. -1.
    9900012    2    1    2    0    0  0.38214161231E+02  0.13802617399E+02  0.19449398932E+02  0.46142317805E+02  0.10000000398E+02 0.  0.
         12    1    1    2    0    0 -0.38214161231E+02 -0.13802617399E+02 -0.19449398932E+02  0.45045682195E+02  0.00000000000E+00 0. -1.
         11    1    3    3    0    0  0.13673849080E+02  0.17646380740E+01  0.44466089850E+01  0.14486560251E+02  0.51100000000E-03 0. -1.
        -11    1    3    3    0    0  0.16819514932E+02  0.74090697475E+01  0.71874895106E+01  0.19734497785E+02  0.51100000000E-03 0.  1.
         12    1    3    3    0    0  0.77207972182E+01  0.46289095775E+01  0.78153004365E+01  0.11921259769E+02  0.00000000000E+00 0. -1.
</event>
<event>
 7    1  0.2313935E-008  0.4614232E+02  0.7816164E-02  0.1320468E+00
        -11   -1    0    0    0    0  0.00000000000E+00  0.00000000000E+00  0.45593999997E+02  0.45594000000E+02  0.51100000000E-03 0. -1.
         11   -1    0    0    0    0 -0.00000000000E+00 -0.00000000000E+00 -0.45593999997E+02  0.45594000000E+02  0.51100000000E-03 0.  1.
    9900012    2    1    2    0    0  0.42324803983E+01 -0.36649191601E+02 -0.25846397363E+02  0.46142318831E+02  0.10000009760E+02 0.  0.
         12    1    1    2    0    0 -0.42324803983E+01  0.36649191601E+02  0.25846397363E+02  0.45045681169E+02  0.00000000000E+00 0. -1.
         11    1    3    3    0    0  0.55955333608E+00 -0.39505156598E+00 -0.97460203228E+00  0.11912241847E+01  0.51100000000E-03 0. -1.
        -11    1    3    3    0    0 -0.18073615108E+01 -0.23209456627E+02 -0.14863052113E+02  0.27619843427E+02  0.51100000000E-03 0.  1.
        -12    1    3    3    0    0  0.54802885730E+01 -0.13044683408E+02 -0.10008743217E+02  0.17331251220E+02  0.00000000000E+00 0.  1.
</event>
<event>
 7    1  0.2313935E-008  0.4614232E+02  0.7816164E-02  0.1320468E+00
        -11   -1    0    0    0    0  0.00000000000E+00  0.00000000000E+00  0.45593999997E+02  0.45594000000E+02  0.51100000000E-03 0.  1.
         11   -1    0    0    0    0 -0.00000000000E+00 -0.00000000000E+00 -0.45593999997E+02  0.45594000000E+02  0.51100000000E-03 0. -1.
    9900012    2    1    2    0    0  0.54158706225E+01  0.43794151147E+02  0.90473313343E+01  0.46142317260E+02  0.99999954298E+01 0.  0.
         12    1    1    2    0    0 -0.54158706225E+01 -0.43794151147E+02 -0.90473313343E+01  0.45045682740E+02  0.00000000000E+00 0. -1.
         11    1    3    3    0    0  0.93307161792E-01  0.11036727194E+02  0.95717862718E+00  0.11078548848E+02  0.51100000000E-03 0.  1.
        -11    1    3    3    0    0  0.15057599335E+01  0.19071249988E+01  0.24875581136E+01  0.34774105838E+01  0.51100000000E-03 0. -1.
         12    1    3    3    0    0  0.38168035272E+01  0.30850298953E+02  0.56025945936E+01  0.31586357828E+02  0.00000000000E+00 0. -1.
</event>
<event>
 7    1  0.2313935E-008  0.4614232E+02  0.7816164E-02  0.1320468E+00
        -11   -1    0    0    0    0  0.00000000000E+00  0.00000000000E+00  0.45593999997E+02  0.45594000000E+02  0.51100000000E-03 0.  1.
         11   -1    0    0    0    0 -0.00000000000E+00 -0.00000000000E+00 -0.45593999997E+02  0.45594000000E+02  0.51100000000E-03 0. -1.
    9900012    2    1    2    0    0 -0.23421567841E+02 -0.12028406978E+02  0.36549434823E+02  0.46142316517E+02  0.99999886536E+01 0.  0.
         12    1    1    2    0    0  0.23421567841E+02  0.12028406978E+02 -0.36549434823E+02  0.45045683483E+02  0.00000000000E+00 0. -1.
         11    1    3    3    0    0 -0.71851858640E+01 -0.50797981797E+01  0.18006138256E+02  0.20041263948E+02  0.51100000000E-03 0. -1.
        -11    1    3    3    0    0 -0.10346326590E+02 -0.62727095955E+01  0.14685087553E+02  0.19027484234E+02  0.51100000000E-03 0.  1.
         12    1    3    3    0    0 -0.58900553874E+01 -0.67589920265E+00  0.38582090136E+01  0.70735683351E+01  0.00000000000E+00 0. -1.
</event>
<event>
 7    1  0.2313935E-008  0.4614232E+02  0.7816164E-02  0.1320468E+00
        -11   -1    0    0    0    0  0.00000000000E+00  0.00000000000E+00  0.45593999997E+02  0.45594000000E+02  0.51100000000E-03 0.  1.
         11   -1    0    0    0    0 -0.00000000000E+00 -0.00000000000E+00 -0.45593999997E+02  0.45594000000E+02  0.51100000000E-03 0. -1.
    9900012    2    1    2    0    0 -0.16064673870E+02  0.38304336992E+02  0.17430364681E+02  0.46142316613E+02  0.99999895268E+01 0.  0.
         12    1    1    2    0    0  0.16064673870E+02 -0.38304336992E+02 -0.17430364681E+02  0.45045683387E+02  0.00000000000E+00 0. -1.
         11    1    3    3    0    0 -0.83813575169E+01  0.25116351210E+02  0.10112690790E+02  0.28343337262E+02  0.51100000000E-03 0.  1.
        -11    1    3    3    0    0 -0.87419184705E+00  0.48424853316E+01  0.27183852804E+00  0.49282625760E+01  0.51100000000E-03 0. -1.
        -12    1    3    3    0    0 -0.68091245058E+01  0.83455004506E+01  0.70458353637E+01  0.12870716774E+02  0.00000000000E+00 0.  1.
</event>
<event>
 7    1  0.2313935E-008  0.4614232E+02  0.7816164E-02  0.1320468E+00
        -11   -1    0    0    0    0  0.00000000000E+00  0.00000000000E+00  0.45593999997E+02  0.45594000000E+02  0.51100000000E-03 0.  1.
         11   -1    0    0    0    0 -0.00000000000E+00 -0.00000000000E+00 -0.45593999997E+02  0.45594000000E+02  0.51100000000E-03 0. -1.
    9900012    2    1    2    0    0 -0.10301364385E+02  0.43410514017E+02  0.62066753399E+01  0.46142315920E+02  0.99999832149E+01 0.  0.
         12    1    1    2    0    0  0.10301364385E+02 -0.43410514017E+02 -0.62066753399E+01  0.45045684080E+02  0.00000000000E+00 0. -1.
         11    1    3    3    0    0 -0.12177833268E+01  0.85976165793E+01  0.25073667556E+01  0.90381909354E+01  0.51100000000E-03 0. -1.
        -11    1    3    3    0    0 -0.52378244324E+01  0.10945830883E+02 -0.19180522814E+01  0.12285151335E+02  0.51100000000E-03 0.  1.
        -12    1    3    3    0    0 -0.38457566263E+01  0.23867066555E+02  0.56173608657E+01  0.24818973650E+02  0.00000000000E+00 0.  1.
</event>
<event>
 7    1  0.2313935E-008  0.4614232E+02  0.7816164E-02  0.1320468E+00
        -11   -1    0    0    0    0  0.00000000000E+00  0.00000000000E+00  0.45593999997E+02  0.45594000000E+02  0.51100000000E-03 0. -1.
         11   -1    0    0    0    0 -0.00000000000E+00 -0.00000000000E+00 -0.45593999997E+02  0.45594000000E+02  0.51100000000E-03 0.  1.
    9900012    2    1    2    0    0 -0.21238562119E+02 -0.32570682518E+02 -0.22741759713E+02  0.46142317461E+02  0.99999972641E+01 0.  0.
         12    1    1    2    0    0  0.21238562119E+02  0.32570682518E+02  0.22741759713E+02  0.45045682539E+02  0.00000000000E+00 0. -1.
         11    1    3    3    0    0 -0.14303059242E+02 -0.19118749100E+02 -0.17713806791E+02  0.29730170234E+02  0.51100000000E-03 0. -1.
        -11    1    3    3    0    0 -0.51090708008E+01 -0.95140373312E+01 -0.53648803277E+01  0.12058252443E+02  0.51100000000E-03 0.  1.
        -12    1    3    3    0    0 -0.18264320764E+01 -0.39378960864E+01  0.33692740588E+00  0.43538947844E+01  0.00000000000E+00 0.  1.
</event>
<event>
 7    1  0.2313935E-008  0.4614232E+02  0.7816164E-02  0.1320468E+00
        -11   -1    0    0    0    0  0.00000000000E+00  0.00000000000E+00  0.45593999997E+02  0.45594000000E+02  0.51100000000E-03 0.  1.
         11   -1    0    0    0    0 -0.00000000000E+00 -0.00000000000E+00 -0.45593999997E+02  0.45594000000E+02  0.51100000000E-03 0. -1.
    9900012    2    1    2    0    0 -0.67349955986E+01  0.38561364710E+02  0.22288437968E+02  0.46142317842E+02  0.10000000742E+02 0.  0.
         12    1    1    2    0    0  0.67349955986E+01 -0.38561364710E+02 -0.22288437968E+02  0.45045682158E+02  0.00000000000E+00 0. -1.
         11    1    3    3    0    0 -0.41875496228E+01  0.11263916387E+02  0.36103952758E+01  0.12547762292E+02  0.51100000000E-03 0. -1.
        -11    1    3    3    0    0  0.77569926236E+00  0.87328143666E+01  0.37226255875E+01  0.95247938368E+01  0.51100000000E-03 0.  1.
         12    1    3    3    0    0 -0.33231452382E+01  0.18564633956E+02  0.14955417105E+02  0.24069761714E+02  0.00000000000E+00 0. -1.
</event>
<event>
 7    1  0.2313935E-008  0.4614232E+02  0.7816164E-02  0.1320468E+00
        -11   -1    0    0    0    0  0.00000000000E+00  0.00000000000E+00  0.45593999997E+02  0.45594000000E+02  0.51100000000E-03 0. -1.
         11   -1    0    0    0    0 -0.00000000000E+00 -0.00000000000E+00 -0.45593999997E+02  0.45594000000E+02  0.51100000000E-03 0.  1.
    9900012    2    1    2    0    0  0.13099990528E+01  0.32447728589E+02 -0.31217658961E+02  0.46142318529E+02  0.10000007006E+02 0.  0.
         12    1    1    2    0    0 -0.13099990528E+01 -0.32447728589E+02  0.31217658961E+02  0.45045681471E+02  0.00000000000E+00 0. -1.
         11    1    3    3    0    0  0.34543272855E+00  0.17349092861E+01 -0.52881584353E+01  0.55761863221E+01  0.51100000000E-03 0. -1.
        -11    1    3    3    0    0 -0.13793839985E+01  0.26801423036E+01 -0.32426134668E+01  0.44272345024E+01  0.51100000000E-03 0.  1.
         12    1    3    3    0    0  0.23439503228E+01  0.28032677000E+02 -0.22686887059E+02  0.36138897705E+02  0.00000000000E+00 0. -1.
</event>
<event>
 7    1  0.2313935E-008  0.4614232E+02  0.7816164E-02  0.1320468E+00
        -11   -1    0    0    0    0  0.00000000000E+00  0.00000000000E+00  0.45593999997E+02  0.45594000000E+02  0.51100000000E-03 0.  1.
         11   -1    0    0    0    0 -0.00000000000E+00 -0.00000000000E+00 -0.45593999997E+02  0.45594000000E+02  0.51100000000E-03 0. -1.
    9900012    2    1    2    0    0 -0.28916306890E+01 -0.11029228122E+02  0.43578756823E+02  0.46142318217E+02  0.10000004160E+02 0.  0.
         12    1    1    2    0    0  0.28916306890E+01  0.11029228122E+02 -0.43578756823E+02  0.45045681783E+02  0.00000000000E+00 0. -1.
         11    1    3    3    0    0 -0.24202246823E+00 -0.50288151193E+01  0.14967848938E+02  0.15791898507E+02  0.51100000000E-03 0. -1.
        -11    1    3    3    0    0 -0.32667603909E+01 -0.27292772672E+01  0.25299187398E+02  0.25654815554E+02  0.51100000000E-03 0.  1.
         12    1    3    3    0    0  0.61715217005E+00 -0.32711357357E+01  0.33117204870E+01  0.46956041556E+01  0.00000000000E+00 0. -1.
</event>
<event>
 7    1  0.2313935E-008  0.4614232E+02  0.7816164E-02  0.1320468E+00
        -11   -1    0    0    0    0  0.00000000000E+00  0.00000000000E+00  0.45593999997E+02  0.45594000000E+02  0.51100000000E-03 0.  1.
         11   -1    0    0    0    0 -0.00000000000E+00 -0.00000000000E+00 -0.45593999997E+02  0.45594000000E+02  0.51100000000E-03 0. -1.
    9900012    2    1    2    0    0 -0.11597116013E+02 -0.56693305900E+01  0.43156449054E+02  0.46142317586E+02  0.99999984063E+01 0.  0.
         12    1    1    2    0    0  0.11597116013E+02  0.56693305900E+01 -0.43156449054E+02  0.45045682414E+02  0.00000000000E+00 0. -1.
         11    1    3    3    0    0 -0.52186662807E+01 -0.19528713788E+01  0.18052463414E+02  0.18892845734E+02  0.51100000000E-03 0.  1.
        -11    1    3    3    0    0 -0.20480030025E+01 -0.21130082854E+01  0.20564870390E+02  0.20774335483E+02  0.51100000000E-03 0. -1.
         12    1    3    3    0    0 -0.43304467298E+01 -0.16034509258E+01  0.45391152500E+01  0.64751363695E+01  0.00000000000E+00 0. -1.
</event>
<event>
 7    1  0.2313935E-008  0.4614232E+02  0.7816164E-02  0.1320468E+00
        -11   -1    0    0    0    0  0.00000000000E+00  0.00000000000E+00  0.45593999997E+02  0.45594000000E+02  0.51100000000E-03 0.  1.
         11   -1    0    0    0    0 -0.00000000000E+00 -0.00000000000E+00 -0.45593999997E+02  0.45594000000E+02  0.51100000000E-03 0. -1.
    9900012    2    1    2    0    0 -0.32992099682E+02 -0.16762007028E+01  0.30623930554E+02  0.46142318600E+02  0.10000007649E+02 0.  0.
         12    1    1    2    0    0  0.32992099682E+02  0.16762007028E+01 -0.30623930554E+02  0.45045681400E+02  0.00000000000E+00 0. -1.
         11    1    3    3    0    0 -0.33384060020E+01 -0.21945273440E+01  0.14540856174E+01  0.42515021042E+01  0.51100000000E-03 0. -1.
        -11    1    3    3    0    0 -0.12081183519E+02  0.26003536418E+01  0.11398863997E+02  0.16812225759E+02  0.51100000000E-03 0.  1.
        -12    1    3    3    0    0 -0.17572510161E+02 -0.20820270006E+01  0.17770980940E+02  0.25078590737E+02  0.00000000000E+00 0.  1.
</event>
<event>
 7    1  0.2313935E-008  0.4614232E+02  0.7816164E-02  0.1320468E+00
        -11   -1    0    0    0    0  0.00000000000E+00  0.00000000000E+00  0.45593999997E+02  0.45594000000E+02  0.51100000000E-03 0.  1.
         11   -1    0    0    0    0 -0.00000000000E+00 -0.00000000000E+00 -0.45593999997E+02  0.45594000000E+02  0.51100000000E-03 0. -1.
    9900012    2    1    2    0    0  0.21844934271E+02  0.28090287526E+02  0.27619702339E+02  0.46142319142E+02  0.10000012595E+02 0.  0.
         12    1    1    2    0    0 -0.21844934271E+02 -0.28090287526E+02 -0.27619702339E+02  0.45045680858E+02  0.00000000000E+00 0. -1.
         11    1    3    3    0    0  0.11044141811E+02  0.16171320852E+02  0.11929282290E+02  0.22930164907E+02  0.51100000000E-03 0. -1.
        -11    1    3    3    0    0  0.79645963375E+01  0.10975087053E+02  0.10227659243E+02  0.16985062393E+02  0.51100000000E-03 0.  1.
         12    1    3    3    0    0  0.28361961231E+01  0.94387962110E+00  0.54627608064E+01  0.62270918426E+01  0.00000000000E+00 0. -1.
</event>
<event>
 7    1  0.2313935E-008  0.4614232E+02  0.7816164E-02  0.1320468E+00
        -11   -1    0    0    0    0  0.00000000000E+00  0.00000000000E+00  0.45593999997E+02  0.45594000000E+02  0.51100000000E-03 0.  1.
         11   -1    0    0    0    0 -0.00000000000E+00 -0.00000000000E+00 -0.45593999997E+02  0.45594000000E+02  0.51100000000E-03 0. -1.
    9900012    2    1    2    0    0 -0.30438947492E+02  0.28616598509E+02  0.16842633304E+02  0.46142317285E+02  0.99999956607E+01 0.  0.
         12    1    1    2    0    0  0.30438947492E+02 -0.28616598509E+02 -0.16842633304E+02  0.45045682715E+02  0.00000000000E+00 0. -1.
         11    1    3    3    0    0 -0.16947571917E+02  0.12374717548E+02  0.47201457444E+01  0.21508919182E+02  0.51100000000E-03 0. -1.
        -11    1    3    3    0    0 -0.10914358887E+01  0.18322861220E+01  0.89129498781E-01  0.21345840487E+01  0.51100000000E-03 0.  1.
        -12    1    3    3    0    0 -0.12399939686E+02  0.14409594839E+02  0.12033358061E+02  0.22498814055E+02  0.00000000000E+00 0.  1.
</event>
<event>
 7    1  0.2313935E-008  0.4614232E+02  0.7816164E-02  0.1320468E+00
        -11   -1    0    0    0    0  0.00000000000E+00  0.00000000000E+00  0.45593999997E+02  0.45594000000E+02  0.51100000000E-03 0. -1.
         11   -1    0    0    0    0 -0.00000000000E+00 -0.00000000000E+00 -0.45593999997E+02  0.45594000000E+02  0.51100000000E-03 0.  1.
    9900012    2    1    2    0    0  0.30394797801E+02  0.25845099563E+02 -0.20911732561E+02  0.46142318037E+02  0.10000002520E+02 0.  0.
         12    1    1    2    0    0 -0.30394797801E+02 -0.25845099563E+02  0.20911732561E+02  0.45045681963E+02  0.00000000000E+00 0. -1.
         11    1    3    3    0    0  0.93033085847E+01  0.46949164730E+01 -0.69988480653E+01  0.12552994297E+02  0.51100000000E-03 0. -1.
        -11    1    3    3    0    0  0.51352845599E+01  0.63270733197E+01 -0.84959412316E+00  0.81929734981E+01  0.51100000000E-03 0.  1.
        -12    1    3    3    0    0  0.15956204656E+02  0.14823109770E+02 -0.13063290373E+02  0.25396350243E+02  0.00000000000E+00 0.  1.
</event>
<event>
 7    1  0.2557440E-008  0.4614232E+02  0.7816164E-02  0.1320468E+00
        -11   -1    0    0    0    0  0.00000000000E+00  0.00000000000E+00  0.45593999997E+02  0.45594000000E+02  0.51100000000E-03 0. -1.
         11   -1    0    0    0    0 -0.00000000000E+00 -0.00000000000E+00 -0.45593999997E+02  0.45594000000E+02  0.51100000000E-03 0.  1.
    9900012    2    1    2    0    0  0.18088353501E+02 -0.41153943993E+02 -0.28771204098E+01  0.46142318072E+02  0.10000002832E+02 0.  0.
         12    1    1    2    0    0 -0.18088353501E+02  0.41153943993E+02  0.28771204098E+01  0.45045681928E+02  0.00000000000E+00 0. -1.
         11    1    3    3    0    0  0.83890361678E+01 -0.15739432876E+02 -0.12977093905E+01  0.17882665489E+02  0.51100000000E-03 0. -1.
        -11    1    3    3    0    0  0.82723131724E+01 -0.23440032267E+02 -0.35721596446E+01  0.25112279918E+02  0.51100000000E-03 0.  1.
         12    1    3    3    0    0  0.14270041612E+01 -0.19744788498E+01  0.19927486253E+01  0.31473726643E+01  0.00000000000E+00 0. -1.
</event>
<event>
 7    1  0.2313935E-008  0.4614232E+02  0.7816164E-02  0.1320468E+00
        -11   -1    0    0    0    0  0.00000000000E+00  0.00000000000E+00  0.45593999997E+02  0.45594000000E+02  0.51100000000E-03 0.  1.
         11   -1    0    0    0    0 -0.00000000000E+00 -0.00000000000E+00 -0.45593999997E+02  0.45594000000E+02  0.51100000000E-03 0. -1.
    9900012    2    1    2    0    0  0.19099017638E+02 -0.94821263875E+01  0.39679091663E+02  0.46142317512E+02  0.99999977284E+01 0.  0.
         12    1    1    2    0    0 -0.19099017638E+02  0.94821263875E+01 -0.39679091663E+02  0.45045682488E+02  0.00000000000E+00 0. -1.
         11    1    3    3    0    0  0.12414264284E+02 -0.50519197204E+01  0.20832831568E+02  0.24771813054E+02  0.51100000000E-03 0.  1.
        -11    1    3    3    0    0  0.66095984460E+01 -0.47452792827E+01  0.19222737339E+02  0.20873861601E+02  0.51100000000E-03 0. -1.
        -12    1    3    3    0    0  0.75154907997E-01  0.31507261556E+00 -0.37647724285E+00  0.49664285724E+00  0.00000000000E+00 0.  1.
</event>
<event>
 7    1  0.2313935E-008  0.4614232E+02  0.7816164E-02  0.1320468E+00
        -11   -1    0    0    0    0  0.00000000000E+00  0.00000000000E+00  0.45593999997E+02  0.45594000000E+02  0.51100000000E-03 0.  1.
         11   -1    0    0    0    0 -0.00000000000E+00 -0.00000000000E+00 -0.45593999997E+02  0.45594000000E+02  0.51100000000E-03 0. -1.
    9900012    2    1    2    0    0 -0.14016409749E+02  0.30506060532E+02  0.30033880763E+02  0.46142318019E+02  0.10000002352E+02 0.  0.
         12    1    1    2    0    0  0.14016409749E+02 -0.30506060532E+02 -0.30033880763E+02  0.45045681981E+02  0.00000000000E+00 0. -1.
         11    1    3    3    0    0  0.86826131879E+00  0.28990534177E+01  0.24510423289E+01  0.38943545287E+01  0.51100000000E-03 0.  1.
        -11    1    3    3    0    0 -0.86240209559E+01  0.20613557982E+02  0.16825364192E+02  0.27971152829E+02  0.51100000000E-03 0. -1.
        -12    1    3    3    0    0 -0.62606501118E+01  0.69934491327E+01  0.10757474242E+02  0.14276810661E+02  0.00000000000E+00 0.  1.
</event>
<event>
 7    1  0.2313935E-008  0.4614232E+02  0.7816164E-02  0.1320468E+00
        -11   -1    0    0    0    0  0.00000000000E+00  0.00000000000E+00  0.45593999997E+02  0.45594000000E+02  0.51100000000E-03 0.  1.
         11   -1    0    0    0    0 -0.00000000000E+00 -0.00000000000E+00 -0.45593999997E+02  0.45594000000E+02  0.51100000000E-03 0. -1.
    9900012    2    1    2    0    0 -0.14510052863E+02  0.37700097121E+02  0.19931749797E+02  0.46142316444E+02  0.99999879924E+01 0.  0.
         12    1    1    2    0    0  0.14510052863E+02 -0.37700097121E+02 -0.19931749797E+02  0.45045683556E+02  0.00000000000E+00 0. -1.
         11    1    3    3    0    0 -0.58473643265E+01  0.18774115474E+02  0.11505668735E+02  0.22782438296E+02  0.51100000000E-03 0. -1.
        -11    1    3    3    0    0 -0.74032477765E+01  0.96654842405E+01  0.29474008393E+01  0.12526645010E+02  0.51100000000E-03 0.  1.
        -12    1    3    3    0    0 -0.12594407596E+01  0.92604974064E+01  0.54786802227E+01  0.10833233138E+02  0.00000000000E+00 0.  1.
</event>
<event>
 7    1  0.2313935E-008  0.4614231E+02  0.7816164E-02  0.1320468E+00
        -11   -1    0    0    0    0  0.00000000000E+00  0.00000000000E+00  0.45593999997E+02  0.45594000000E+02  0.51100000000E-03 0.  1.
         11   -1    0    0    0    0 -0.00000000000E+00 -0.00000000000E+00 -0.45593999997E+02  0.45594000000E+02  0.51100000000E-03 0. -1.
    9900012    2    1    2    0    0  0.15423842827E+02 -0.35558321978E+02  0.22952660639E+02  0.46142314082E+02  0.99999664505E+01 0.  0.
         12    1    1    2    0    0 -0.15423842827E+02  0.35558321978E+02 -0.22952660639E+02  0.45045685918E+02  0.00000000000E+00 0. -1.
         11    1    3    3    0    0  0.52334724456E+01 -0.18576153182E+02  0.11547180508E+02  0.22489999529E+02  0.51100000000E-03 0.  1.
        -11    1    3    3    0    0  0.31421502121E+01 -0.10742640887E+01  0.18932038026E+01  0.38224824639E+01  0.51100000000E-03 0. -1.
         12    1    3    3    0    0  0.70482201688E+01 -0.15907904707E+02  0.95122763282E+01  0.19829832089E+02  0.00000000000E+00 0. -1.
</event>
<event>
 7    1  0.2313935E-008  0.4614232E+02  0.7816164E-02  0.1320468E+00
        -11   -1    0    0    0    0  0.00000000000E+00  0.00000000000E+00  0.45593999997E+02  0.45594000000E+02  0.51100000000E-03 0. -1.
         11   -1    0    0    0    0 -0.00000000000E+00 -0.00000000000E+00 -0.45593999997E+02  0.45594000000E+02  0.51100000000E-03 0.  1.
    9900012    2    1    2    0    0 -0.99401838042E+01 -0.43867802814E+02 -0.24335349445E+01  0.46142317964E+02  0.10000001847E+02 0.  0.
         12    1    1    2    0    0  0.99401838042E+01  0.43867802814E+02  0.24335349445E+01  0.45045682036E+02  0.00000000000E+00 0. -1.
         11    1    3    3    0    0  0.15528449645E+01 -0.17752096278E+01 -0.61144490964E+00  0.24365060733E+01  0.51100000000E-03 0. -1.
        -11    1    3    3    0    0 -0.67085848089E+01 -0.27176439728E+02 -0.69957370541E+00  0.28000953378E+02  0.51100000000E-03 0.  1.
         12    1    3    3    0    0 -0.47844439598E+01 -0.14916153458E+02 -0.11225163294E+01  0.15704858513E+02  0.00000000000E+00 0. -1.
</event>
<event>
 7    1  0.2313935E-008  0.4614232E+02  0.7816164E-02  0.1320468E+00
        -11   -1    0    0    0    0  0.00000000000E+00  0.00000000000E+00  0.45593999997E+02  0.45594000000E+02  0.51100000000E-03 0. -1.
         11   -1    0    0    0    0 -0.00000000000E+00 -0.00000000000E+00 -0.45593999997E+02  0.45594000000E+02  0.51100000000E-03 0.  1.
    9900012    2    1    2    0    0 -0.25284347019E+02  0.61452806805E+01 -0.36770243191E+02  0.46142318041E+02  0.10000002551E+02 0.  0.
         12    1    1    2    0    0  0.25284347019E+02 -0.61452806805E+01  0.36770243191E+02  0.45045681959E+02  0.00000000000E+00 0. -1.
         11    1    3    3    0    0 -0.97201819730E+01  0.40355456982E+01 -0.99768044670E+01  0.14501868649E+02  0.51100000000E-03 0. -1.
        -11    1    3    3    0    0 -0.83658168341E+00 -0.12551215172E+01 -0.12278774384E+01  0.19449632904E+01  0.51100000000E-03 0.  1.
        -12    1    3    3    0    0 -0.14727583363E+02  0.33648564996E+01 -0.25565561286E+02  0.29695486102E+02  0.00000000000E+00 0.  1.
</event>
<event>
 7    1  0.2313935E-008  0.4614232E+02  0.7816164E-02  0.1320468E+00
        -11   -1    0    0    0    0  0.00000000000E+00  0.00000000000E+00  0.45593999997E+02  0.45594000000E+02  0.51100000000E-03 0.  1.
         11   -1    0    0    0    0 -0.00000000000E+00 -0.00000000000E+00 -0.45593999997E+02  0.45594000000E+02  0.51100000000E-03 0. -1.
    9900012    2    1    2    0    0 -0.41213853149E+02  0.23814073132E+01 -0.18023891547E+02  0.46142318091E+02  0.10000003009E+02 0.  0.
         12    1    1    2    0    0  0.41213853149E+02 -0.23814073132E+01  0.18023891547E+02  0.45045681909E+02  0.00000000000E+00 0. -1.
         11    1    3    3    0    0 -0.62414901303E+01  0.48433878629E+00  0.10604639955E+00  0.62611523865E+01  0.51100000000E-03 0. -1.
        -11    1    3    3    0    0 -0.11833129701E+02  0.89280238375E+00 -0.93655904710E+01  0.15117352273E+02  0.51100000000E-03 0.  1.
        -12    1    3    3    0    0 -0.23139233317E+02  0.10042661432E+01 -0.87643474755E+01  0.24763813432E+02  0.00000000000E+00 0.  1.
</event>
<event>
 7    1  0.2313935E-008  0.4614232E+02  0.7816164E-02  0.1320468E+00
        -11   -1    0    0    0    0  0.00000000000E+00  0.00000000000E+00  0.45593999997E+02  0.45594000000E+02  0.51100000000E-03 0.  1.
         11   -1    0    0    0    0 -0.00000000000E+00 -0.00000000000E+00 -0.45593999997E+02  0.45594000000E+02  0.51100000000E-03 0. -1.
    9900012    2    1    2    0    0 -0.22411144289E+02  0.35001323453E+01  0.38917903196E+02  0.46142317588E+02  0.99999984199E+01 0.  0.
         12    1    1    2    0    0  0.22411144289E+02 -0.35001323453E+01 -0.38917903196E+02  0.45045682412E+02  0.00000000000E+00 0. -1.
         11    1    3    3    0    0 -0.70389362331E+01  0.15889112453E+01  0.15782846837E+02  0.17354236278E+02  0.51100000000E-03 0. -1.
        -11    1    3    3    0    0  0.54863901568E-01 -0.53356918028E+00 -0.30767422545E+00  0.61836058087E+00  0.51100000000E-03 0.  1.
        -12    1    3    3    0    0 -0.15427071958E+02  0.24447902803E+01  0.23442730585E+02  0.28169720729E+02  0.00000000000E+00 0.  1.
</event>
<event>
 7    1  0.2313935E-008  0.4614232E+02  0.7816164E-02  0.1320468E+00
        -11   -1    0    0    0    0  0.00000000000E+00  0.00000000000E+00  0.45593999997E+02  0.45594000000E+02  0.51100000000E-03 0. -1.
         11   -1    0    0    0    0 -0.00000000000E+00 -0.00000000000E+00 -0.45593999997E+02  0.45594000000E+02  0.51100000000E-03 0.  1.
    9900012    2    1    2    0    0  0.37501094289E+02  0.90632470495E+01 -0.23251645190E+02  0.46142317365E+02  0.99999963895E+01 0.  0.
         12    1    1    2    0    0 -0.37501094289E+02 -0.90632470495E+01  0.23251645190E+02  0.45045682635E+02  0.00000000000E+00 0. -1.
         11    1    3    3    0    0  0.86020997783E+01 -0.14523637039E+01 -0.44554527363E+01  0.97957409251E+01  0.51100000000E-03 0. -1.
        -11    1    3    3    0    0  0.25521764973E+02  0.86698832746E+01 -0.18012855553E+02  0.32418980995E+02  0.51100000000E-03 0.  1.
         12    1    3    3    0    0  0.33772295378E+01  0.18457274788E+01 -0.78333690111E+00  0.39275954448E+01  0.00000000000E+00 0. -1.
</event>
<event>
 7    1  0.2313935E-008  0.4614232E+02  0.7816164E-02  0.1320468E+00
        -11   -1    0    0    0    0  0.00000000000E+00  0.00000000000E+00  0.45593999997E+02  0.45594000000E+02  0.51100000000E-03 0. -1.
         11   -1    0    0    0    0 -0.00000000000E+00 -0.00000000000E+00 -0.45593999997E+02  0.45594000000E+02  0.51100000000E-03 0.  1.
    9900012    2    1    2    0    0 -0.42272590162E+02 -0.43518955612E+01 -0.14939966350E+02  0.46142317981E+02  0.10000002006E+02 0.  0.
         12    1    1    2    0    0  0.42272590162E+02  0.43518955612E+01  0.14939966350E+02  0.45045682019E+02  0.00000000000E+00 0. -1.
         11    1    3    3    0    0 -0.47414652741E+01  0.22981701746E+01 -0.29831754149E+01  0.60549496211E+01  0.51100000000E-03 0. -1.
        -11    1    3    3    0    0 -0.76108630608E+01 -0.26546284260E+01 -0.20458220402E+01  0.83161094684E+01  0.51100000000E-03 0.  1.
         12    1    3    3    0    0 -0.29920261828E+02 -0.39954373098E+01 -0.99109688945E+01  0.31771258892E+02  0.00000000000E+00 0. -1.
</event>
<event>
 7    1  0.2313935E-008  0.4614232E+02  0.7816164E-02  0.1320468E+00
        -11   -1    0    0    0    0  0.00000000000E+00  0.00000000000E+00  0.45593999997E+02  0.45594000000E+02  0.51100000000E-03 0. -1.
         11   -1    0    0    0    0 -0.00000000000E+00 -0.00000000000E+00 -0.45593999997E+02  0.45594000000E+02  0.51100000000E-03 0.  1.
    9900012    2    1    2    0    0 -0.50617047290E+01 -0.44148605058E+02  0.73751721045E+01  0.46142319332E+02  0.10000014320E+02 0.  0.
         12    1    1    2    0    0  0.50617047290E+01  0.44148605058E+02 -0.73751721045E+01  0.45045680668E+02  0.00000000000E+00 0. -1.
         11    1    3    3    0    0 -0.36873714890E+00 -0.19969202385E+02 -0.34785274217E+00  0.19975635479E+02  0.51100000000E-03 0. -1.
        -11    1    3    3    0    0 -0.17457614000E+01 -0.16739769936E+02  0.37979607019E+01  0.17253755710E+02  0.51100000000E-03 0.  1.
         12    1    3    3    0    0 -0.29472061801E+01 -0.74396327371E+01  0.39250641448E+01  0.89129281424E+01  0.00000000000E+00 0. -1.
</event>
<event>
 7    1  0.2313935E-008  0.4614232E+02  0.7816164E-02  0.1320468E+00
        -11   -1    0    0    0    0  0.00000000000E+00  0.00000000000E+00  0.45593999997E+02  0.45594000000E+02  0.51100000000E-03 0.  1.
         11   -1    0    0    0    0 -0.00000000000E+00 -0.00000000000E+00 -0.45593999997E+02  0.45594000000E+02  0.51100000000E-03 0. -1.
    9900012    2    1    2    0    0  0.14459858098E+02  0.96800264782E+01  0.41549040409E+02  0.46142321320E+02  0.10000032453E+02 0.  0.
         12    1    1    2    0    0 -0.14459858098E+02 -0.96800264782E+01 -0.41549040409E+02  0.45045678680E+02  0.00000000000E+00 0. -1.
         11    1    3    3    0    0 -0.24677273260E+00  0.40818783490E+01  0.86430529334E+01  0.95616416952E+01  0.51100000000E-03 0. -1.
        -11    1    3    3    0    0  0.43557007955E+01  0.29319559689E+01  0.96505589464E+01  0.10986436340E+02  0.51100000000E-03 0.  1.
         12    1    3    3    0    0  0.10350930035E+02  0.26661921603E+01  0.23255428529E+02  0.25594243284E+02  0.00000000000E+00 0. -1.
</event>
<event>
 7    1  0.2313935E-008  0.4614232E+02  0.7816164E-02  0.1320468E+00
        -11   -1    0    0    0    0  0.00000000000E+00  0.00000000000E+00  0.45593999997E+02  0.45594000000E+02  0.51100000000E-03 0. -1.
         11   -1    0    0    0    0 -0.00000000000E+00 -0.00000000000E+00 -0.45593999997E+02  0.45594000000E+02  0.51100000000E-03 0.  1.
    9900012    2    1    2    0    0 -0.37007849190E+02  0.11180166601E+02 -0.23120040725E+02  0.46142319740E+02  0.10000018047E+02 0.  0.
         12    1    1    2    0    0  0.37007849190E+02 -0.11180166601E+02  0.23120040725E+02  0.45045680260E+02  0.00000000000E+00 0. -1.
         11    1    3    3    0    0 -0.10012999515E+02  0.31625725360E+01 -0.60422331020E+01  0.12114891887E+02  0.51100000000E-03 0.  1.
        -11    1    3    3    0    0 -0.14426987397E+02  0.86140280148E+01 -0.88149147153E+01  0.18974777092E+02  0.51100000000E-03 0. -1.
         12    1    3    3    0    0 -0.12567862279E+02 -0.59643394987E+00 -0.82628929081E+01  0.15052650761E+02  0.00000000000E+00 0. -1.
</event>
<event>
 7    1  0.2313935E-008  0.4614232E+02  0.7816164E-02  0.1320468E+00
        -11   -1    0    0    0    0  0.00000000000E+00  0.00000000000E+00  0.45593999997E+02  0.45594000000E+02  0.51100000000E-03 0.  1.
         11   -1    0    0    0    0 -0.00000000000E+00 -0.00000000000E+00 -0.45593999997E+02  0.45594000000E+02  0.51100000000E-03 0. -1.
    9900012    2    1    2    0    0  0.17271215219E+02  0.33352977534E+00  0.41601771343E+02  0.46142317676E+02  0.99999992196E+01 0.  0.
         12    1    1    2    0    0 -0.17271215219E+02 -0.33352977534E+00 -0.41601771343E+02  0.45045682324E+02  0.00000000000E+00 0. -1.
         11    1    3    3    0    0  0.12313236515E+02 -0.89778647286E+00  0.23600618787E+02  0.26634770910E+02  0.51100000000E-03 0. -1.
        -11    1    3    3    0    0  0.55870385952E+01  0.20644789746E+01  0.17167977284E+02  0.18171860609E+02  0.51100000000E-03 0.  1.
         12    1    3    3    0    0 -0.62905989168E+00 -0.83316272645E+00  0.83317527084E+00  0.13356861562E+01  0.00000000000E+00 0. -1.
</event>
<event>
 7    1  0.2313935E-008  0.4614232E+02  0.7816164E-02  0.1320468E+00
        -11   -1    0    0    0    0  0.00000000000E+00  0.00000000000E+00  0.45593999997E+02  0.45594000000E+02  0.51100000000E-03 0. -1.
         11   -1    0    0    0    0 -0.00000000000E+00 -0.00000000000E+00 -0.45593999997E+02  0.45594000000E+02  0.51100000000E-03 0.  1.
    9900012    2    1    2    0    0  0.21457312114E+01  0.38853598711E+02  0.22691566148E+02  0.46142317970E+02  0.10000001907E+02 0.  0.
         12    1    1    2    0    0 -0.21457312114E+01 -0.38853598711E+02 -0.22691566148E+02  0.45045682030E+02  0.00000000000E+00 0. -1.
         11    1    3    3    0    0 -0.23336267510E+01  0.16172092527E+02  0.10132544471E+02  0.19226306151E+02  0.51100000000E-03 0. -1.
        -11    1    3    3    0    0 -0.30392700008E+00  0.21615888968E+01  0.31696281503E+01  0.38485557099E+01  0.51100000000E-03 0.  1.
         12    1    3    3    0    0  0.47832849624E+01  0.20519917288E+02  0.93893935268E+01  0.23067456109E+02  0.00000000000E+00 0. -1.
</event>
<event>
 7    1  0.2313935E-008  0.4614232E+02  0.7816164E-02  0.1320468E+00
        -11   -1    0    0    0    0  0.00000000000E+00  0.00000000000E+00  0.45593999997E+02  0.45594000000E+02  0.51100000000E-03 0.  1.
         11   -1    0    0    0    0 -0.00000000000E+00 -0.00000000000E+00 -0.45593999997E+02  0.45594000000E+02  0.51100000000E-03 0. -1.
    9900012    2    1    2    0    0 -0.36804531420E+02 -0.20981234130E+01  0.25887019595E+02  0.46142318315E+02  0.10000005055E+02 0.  0.
         12    1    1    2    0    0  0.36804531420E+02  0.20981234130E+01 -0.25887019595E+02  0.45045681685E+02  0.00000000000E+00 0. -1.
         11    1    3    3    0    0 -0.10148616493E+02 -0.33469192891E+01  0.97970142433E+01  0.14497509227E+02  0.51100000000E-03 0. -1.
        -11    1    3    3    0    0 -0.13567285406E+02  0.59717451452E+00  0.11383695321E+02  0.17720507049E+02  0.51100000000E-03 0.  1.
        -12    1    3    3    0    0 -0.13088629522E+02  0.65162136165E+00  0.47063100308E+01  0.13924302039E+02  0.00000000000E+00 0.  1.
</event>
<event>
 7    1  0.2313935E-008  0.4614232E+02  0.7816164E-02  0.1320468E+00
        -11   -1    0    0    0    0  0.00000000000E+00  0.00000000000E+00  0.45593999997E+02  0.45594000000E+02  0.51100000000E-03 0. -1.
         11   -1    0    0    0    0 -0.00000000000E+00 -0.00000000000E+00 -0.45593999997E+02  0.45594000000E+02  0.51100000000E-03 0.  1.
    9900012    2    1    2    0    0 -0.37977392031E+01  0.32804553040E+02 -0.30635796657E+02  0.46142316966E+02  0.99999927521E+01 0.  0.
         12    1    1    2    0    0  0.37977392031E+01 -0.32804553040E+02  0.30635796657E+02  0.45045683034E+02  0.00000000000E+00 0. -1.
         11    1    3    3    0    0  0.12538026613E+01  0.82141605037E+01 -0.79316688589E+01  0.11487202664E+02  0.51100000000E-03 0.  1.
        -11    1    3    3    0    0 -0.41518719889E+01  0.22403521988E+02 -0.16841610035E+02  0.28333649030E+02  0.51100000000E-03 0. -1.
         12    1    3    3    0    0 -0.89966987550E+00  0.21868705475E+01 -0.58625177627E+01  0.63214652727E+01  0.00000000000E+00 0. -1.
</event>
<event>
 7    1  0.2313935E-008  0.4614232E+02  0.7816164E-02  0.1320468E+00
        -11   -1    0    0    0    0  0.00000000000E+00  0.00000000000E+00  0.45593999997E+02  0.45594000000E+02  0.51100000000E-03 0.  1.
         11   -1    0    0    0    0 -0.00000000000E+00 -0.00000000000E+00 -0.45593999997E+02  0.45594000000E+02  0.51100000000E-03 0. -1.
    9900012    2    1    2    0    0 -0.28553774707E+01 -0.37643147581E+02  0.24575471484E+02  0.46142317199E+02  0.99999948768E+01 0.  0.
         12    1    1    2    0    0  0.28553774707E+01  0.37643147581E+02 -0.24575471484E+02  0.45045682801E+02  0.00000000000E+00 0. -1.
         11    1    3    3    0    0 -0.19654295113E+01 -0.43149252869E+01  0.22881063022E+01  0.52646865155E+01  0.51100000000E-03 0. -1.
        -11    1    3    3    0    0 -0.22028329634E+01 -0.23537283787E+02  0.19412509844E+02  0.30589242224E+02  0.51100000000E-03 0.  1.
        -12    1    3    3    0    0  0.13128850040E+01 -0.97909385069E+01  0.28748553381E+01  0.10288388460E+02  0.00000000000E+00 0.  1.
</event>
<event>
 7    1  0.2313935E-008  0.4614232E+02  0.7816164E-02  0.1320468E+00
        -11   -1    0    0    0    0  0.00000000000E+00  0.00000000000E+00  0.45593999997E+02  0.45594000000E+02  0.51100000000E-03 0. -1.
         11   -1    0    0    0    0 -0.00000000000E+00 -0.00000000000E+00 -0.45593999997E+02  0.45594000000E+02  0.51100000000E-03 0.  1.
    9900012    2    1    2    0    0 -0.23727716111E+02  0.37957017849E+02 -0.50372384278E+01  0.46142317778E+02  0.10000000157E+02 0.  0.
         12    1    1    2    0    0  0.23727716111E+02 -0.37957017849E+02  0.50372384278E+01  0.45045682222E+02  0.00000000000E+00 0. -1.
         11    1    3    3    0    0 -0.17058637460E+01  0.42580524205E+01 -0.21972365353E+01  0.50861409918E+01  0.51100000000E-03 0. -1.
        -11    1    3    3    0    0 -0.15980116650E+02  0.21339864402E+02  0.12948501315E+01  0.26691395205E+02  0.51100000000E-03 0.  1.
        -12    1    3    3    0    0 -0.60417357154E+01  0.12359101026E+02 -0.41348520240E+01  0.14364781582E+02  0.00000000000E+00 0.  1.
</event>
<event>
 7    1  0.2313935E-008  0.4614232E+02  0.7816164E-02  0.1320468E+00
        -11   -1    0    0    0    0  0.00000000000E+00  0.00000000000E+00  0.45593999997E+02  0.45594000000E+02  0.51100000000E-03 0.  1.
         11   -1    0    0    0    0 -0.00000000000E+00 -0.00000000000E+00 -0.45593999997E+02  0.45594000000E+02  0.51100000000E-03 0. -1.
    9900012    2    1    2    0    0  0.33049654699E+02  0.17371152640E+02  0.25200730366E+02  0.46142318400E+02  0.10000005827E+02 0.  0.
         12    1    1    2    0    0 -0.33049654699E+02 -0.17371152640E+02 -0.25200730366E+02  0.45045681600E+02  0.00000000000E+00 0. -1.
         11    1    3    3    0    0  0.56391249260E+01  0.13432957110E+01  0.36410537050E+01  0.68455420269E+01  0.51100000000E-03 0. -1.
        -11    1    3    3    0    0  0.26598570841E+02  0.13009157765E+02  0.20426594216E+02  0.35971765429E+02  0.51100000000E-03 0.  1.
         12    1    3    3    0    0  0.81195893282E+00  0.30186991647E+01  0.11330824447E+01  0.33250109446E+01  0.00000000000E+00 0. -1.
</event>
<event>
 7    1  0.2313935E-008  0.4614232E+02  0.7816164E-02  0.1320468E+00
        -11   -1    0    0    0    0  0.00000000000E+00  0.00000000000E+00  0.45593999997E+02  0.45594000000E+02  0.51100000000E-03 0. -1.
         11   -1    0    0    0    0 -0.00000000000E+00 -0.00000000000E+00 -0.45593999997E+02  0.45594000000E+02  0.51100000000E-03 0.  1.
    9900012    2    1    2    0    0  0.23363890704E+02  0.14513639634E+02 -0.35673468258E+02  0.46142318056E+02  0.10000002686E+02 0.  0.
         12    1    1    2    0    0 -0.23363890704E+02 -0.14513639634E+02  0.35673468258E+02  0.45045681944E+02  0.00000000000E+00 0. -1.
         11    1    3    3    0    0  0.16693489905E+02  0.79519063500E+01 -0.23815332865E+02  0.30150878918E+02  0.51100000000E-03 0. -1.
        -11    1    3    3    0    0  0.60636593486E+01  0.47941357468E+01 -0.58348488777E+01  0.96848935947E+01  0.51100000000E-03 0.  1.
         12    1    3    3    0    0  0.60674145119E+00  0.17675975376E+01 -0.60232865147E+01  0.63065455427E+01  0.00000000000E+00 0. -1.
</event>
<event>
 7    1  0.2313935E-008  0.4614232E+02  0.7816164E-02  0.1320468E+00
        -11   -1    0    0    0    0  0.00000000000E+00  0.00000000000E+00  0.45593999997E+02  0.45594000000E+02  0.51100000000E-03 0.  1.
         11   -1    0    0    0    0 -0.00000000000E+00 -0.00000000000E+00 -0.45593999997E+02  0.45594000000E+02  0.51100000000E-03 0. -1.
    9900012    2    1    2    0    0  0.10596753538E+01  0.22484156206E+02  0.39018627275E+02  0.46142318003E+02  0.10000002204E+02 0.  0.
         12    1    1    2    0    0 -0.10596753538E+01 -0.22484156206E+02 -0.39018627275E+02  0.45045681997E+02  0.00000000000E+00 0. -1.
         11    1    3    3    0    0 -0.32794336723E+00  0.42666237038E+01  0.39109424286E+01  0.57971627218E+01  0.51100000000E-03 0. -1.
        -11    1    3    3    0    0 -0.15668010217E+01  0.15648431637E+02  0.30358764061E+02  0.34190390955E+02  0.51100000000E-03 0.  1.
        -12    1    3    3    0    0  0.29544197427E+01  0.25691008652E+01  0.47489207861E+01  0.61547643257E+01  0.00000000000E+00 0.  1.
</event>
<event>
 7    1  0.2313935E-008  0.4614232E+02  0.7816164E-02  0.1320468E+00
        -11   -1    0    0    0    0  0.00000000000E+00  0.00000000000E+00  0.45593999997E+02  0.45594000000E+02  0.51100000000E-03 0.  1.
         11   -1    0    0    0    0 -0.00000000000E+00 -0.00000000000E+00 -0.45593999997E+02  0.45594000000E+02  0.51100000000E-03 0. -1.
    9900012    2    1    2    0    0  0.24058070379E+02  0.37740104593E+02  0.50997172375E+01  0.46142319175E+02  0.10000012894E+02 0.  0.
         12    1    1    2    0    0 -0.24058070379E+02 -0.37740104593E+02 -0.50997172375E+01  0.45045680825E+02  0.00000000000E+00 0. -1.
         11    1    3    3    0    0  0.84337535214E+01  0.15459617916E+02  0.40235793745E+01  0.18064251322E+02  0.51100000000E-03 0. -1.
        -11    1    3    3    0    0  0.49281374976E+01  0.99458333598E+01 -0.24691793593E+01  0.11371147145E+02  0.51100000000E-03 0.  1.
         12    1    3    3    0    0  0.10696179360E+02  0.12334653317E+02  0.35453172223E+01  0.16706920709E+02  0.00000000000E+00 0. -1.
</event>
<event>
 7    1  0.2313935E-008  0.4614232E+02  0.7816164E-02  0.1320468E+00
        -11   -1    0    0    0    0  0.00000000000E+00  0.00000000000E+00  0.45593999997E+02  0.45594000000E+02  0.51100000000E-03 0. -1.
         11   -1    0    0    0    0 -0.00000000000E+00 -0.00000000000E+00 -0.45593999997E+02  0.45594000000E+02  0.51100000000E-03 0.  1.
    9900012    2    1    2    0    0 -0.90752497367E+01  0.27205013185E+02 -0.34736732512E+02  0.46142317789E+02  0.10000000258E+02 0.  0.
         12    1    1    2    0    0  0.90752497367E+01 -0.27205013185E+02  0.34736732512E+02  0.45045682211E+02  0.00000000000E+00 0. -1.
         11    1    3    3    0    0  0.10159345720E+01  0.41523884320E+01 -0.36737151328E+01  0.56365446758E+01  0.51100000000E-03 0. -1.
        -11    1    3    3    0    0 -0.87453720849E+01  0.12854031415E+02 -0.16441447896E+02  0.22628054837E+02  0.51100000000E-03 0.  1.
         12    1    3    3    0    0 -0.13458122238E+01  0.10198593338E+02 -0.14621569484E+02  0.17877718277E+02  0.00000000000E+00 0. -1.
</event>
<event>
 7    1  0.2313935E-008  0.4614232E+02  0.7816164E-02  0.1320468E+00
        -11   -1    0    0    0    0  0.00000000000E+00  0.00000000000E+00  0.45593999997E+02  0.45594000000E+02  0.51100000000E-03 0.  1.
         11   -1    0    0    0    0 -0.00000000000E+00 -0.00000000000E+00 -0.45593999997E+02  0.45594000000E+02  0.51100000000E-03 0. -1.
    9900012    2    1    2    0    0 -0.11114322306E+02  0.83945726381E+01  0.42838260528E+02  0.46142316797E+02  0.99999912120E+01 0.  0.
         12    1    1    2    0    0  0.11114322306E+02 -0.83945726381E+01 -0.42838260528E+02  0.45045683203E+02  0.00000000000E+00 0. -1.
         11    1    3    3    0    0 -0.81158948990E+01  0.12843224684E+01  0.17266083706E+02  0.19121581551E+02  0.51100000000E-03 0. -1.
        -11    1    3    3    0    0 -0.26940107776E+01  0.30190249693E+01  0.78682931916E+01  0.88477253487E+01  0.51100000000E-03 0.  1.
         12    1    3    3    0    0 -0.30441662915E+00  0.40912252004E+01  0.17703883631E+02  0.18173009898E+02  0.00000000000E+00 0. -1.
</event>
<event>
 7    1  0.2313935E-008  0.4614231E+02  0.7816164E-02  0.1320468E+00
        -11   -1    0    0    0    0  0.00000000000E+00  0.00000000000E+00  0.45593999997E+02  0.45594000000E+02  0.51100000000E-03 0. -1.
         11   -1    0    0    0    0 -0.00000000000E+00 -0.00000000000E+00 -0.45593999997E+02  0.45594000000E+02  0.51100000000E-03 0.  1.
    9900012    2    1    2    0    0  0.18059856618E+02 -0.33569082412E+02 -0.24001509465E+02  0.46142310177E+02  0.99999308419E+01 0.  0.
         12    1    1    2    0    0 -0.18059856618E+02  0.33569082412E+02  0.24001509465E+02  0.45045689823E+02  0.00000000000E+00 0. -1.
         11    1    3    3    0    0  0.91735457854E+01 -0.13255266175E+02 -0.14023426443E+02  0.21366153447E+02  0.51100000000E-03 0.  1.
        -11    1    3    3    0    0  0.82128456387E+01 -0.14279242392E+02 -0.60712753152E+01  0.17555853183E+02  0.51100000000E-03 0. -1.
         12    1    3    3    0    0  0.67346519431E+00 -0.60345738450E+01 -0.39068077062E+01  0.72203035471E+01  0.00000000000E+00 0. -1.
</event>
<event>
 7    1  0.2313935E-008  0.4614232E+02  0.7816164E-02  0.1320468E+00
        -11   -1    0    0    0    0  0.00000000000E+00  0.00000000000E+00  0.45593999997E+02  0.45594000000E+02  0.51100000000E-03 0.  1.
         11   -1    0    0    0    0 -0.00000000000E+00 -0.00000000000E+00 -0.45593999997E+02  0.45594000000E+02  0.51100000000E-03 0. -1.
    9900012    2    1    2    0    0  0.23653247462E+02 -0.36637530903E+01  0.38160377228E+02  0.46142316607E+02  0.99999894714E+01 0.  0.
         12    1    1    2    0    0 -0.23653247462E+02  0.36637530903E+01 -0.38160377228E+02  0.45045683393E+02  0.00000000000E+00 0. -1.
         11    1    3    3    0    0  0.18967094925E+01 -0.15619918440E+01  0.65312115297E+01  0.69781121893E+01  0.51100000000E-03 0. -1.
        -11    1    3    3    0    0  0.12566946249E+02 -0.37701932525E+01  0.22834084863E+02  0.26335108259E+02  0.51100000000E-03 0.  1.
        -12    1    3    3    0    0  0.91895917211E+01  0.16684320062E+01  0.87950808347E+01  0.12829096159E+02  0.00000000000E+00 0.  1.
</event>
<event>
 7    1  0.2313935E-008  0.4614232E+02  0.7816164E-02  0.1320468E+00
        -11   -1    0    0    0    0  0.00000000000E+00  0.00000000000E+00  0.45593999997E+02  0.45594000000E+02  0.51100000000E-03 0.  1.
         11   -1    0    0    0    0 -0.00000000000E+00 -0.00000000000E+00 -0.45593999997E+02  0.45594000000E+02  0.51100000000E-03 0. -1.
    9900012    2    1    2    0    0 -0.18995717488E+02  0.30882009997E+02  0.26731577435E+02  0.46142322554E+02  0.10000043706E+02 0.  0.
         12    1    1    2    0    0  0.18995717488E+02 -0.30882009997E+02 -0.26731577435E+02  0.45045677446E+02  0.00000000000E+00 0. -1.
         11    1    3    3    0    0 -0.47824102576E+01  0.67699967286E+01  0.47193348236E+01  0.95381562692E+01  0.51100000000E-03 0. -1.
        -11    1    3    3    0    0 -0.11098785625E+02  0.21770738258E+02  0.21724578377E+02  0.32697177135E+02  0.51100000000E-03 0.  1.
        -12    1    3    3    0    0 -0.31145216053E+01  0.23412750108E+01  0.28766423431E+00  0.39069891500E+01  0.00000000000E+00 0.  1.
</event>
<event>
 7    1  0.2313935E-008  0.4614232E+02  0.7816164E-02  0.1320468E+00
        -11   -1    0    0    0    0  0.00000000000E+00  0.00000000000E+00  0.45593999997E+02  0.45594000000E+02  0.51100000000E-03 0.  1.
         11   -1    0    0    0    0 -0.00000000000E+00 -0.00000000000E+00 -0.45593999997E+02  0.45594000000E+02  0.51100000000E-03 0. -1.
    9900012    2    1    2    0    0  0.27981273977E+02 -0.33185659567E+02  0.12036350481E+02  0.46142318441E+02  0.10000006196E+02 0.  0.
         12    1    1    2    0    0 -0.27981273977E+02  0.33185659567E+02 -0.12036350481E+02  0.45045681559E+02  0.00000000000E+00 0. -1.
         11    1    3    3    0    0  0.10819193868E+02 -0.11906136200E+02  0.65467038241E+01  0.17368660466E+02  0.51100000000E-03 0. -1.
        -11    1    3    3    0    0  0.11767109672E+02 -0.11867304388E+02  0.63795893093E+01  0.17888458387E+02  0.51100000000E-03 0.  1.
         12    1    3    3    0    0  0.53949704374E+01 -0.94122189793E+01 -0.88994265261E+00  0.10885199588E+02  0.00000000000E+00 0. -1.
</event>
<event>
 7    1  0.2313935E-008  0.4614232E+02  0.7816164E-02  0.1320468E+00
        -11   -1    0    0    0    0  0.00000000000E+00  0.00000000000E+00  0.45593999997E+02  0.45594000000E+02  0.51100000000E-03 0. -1.
         11   -1    0    0    0    0 -0.00000000000E+00 -0.00000000000E+00 -0.45593999997E+02  0.45594000000E+02  0.51100000000E-03 0.  1.
    9900012    2    1    2    0    0 -0.11060143474E+02  0.43536199116E+02  0.33743189512E+01  0.46142318348E+02  0.10000005352E+02 0.  0.
         12    1    1    2    0    0  0.11060143474E+02 -0.43536199116E+02 -0.33743189512E+01  0.45045681652E+02  0.00000000000E+00 0. -1.
         11    1    3    3    0    0 -0.12502032984E+01  0.15592975298E+02  0.93812701804E+00  0.15671118961E+02  0.51100000000E-03 0. -1.
        -11    1    3    3    0    0 -0.46945966184E+00  0.81461668481E+01  0.26532396879E+01  0.85802160692E+01  0.51100000000E-03 0.  1.
         12    1    3    3    0    0 -0.93404805136E+01  0.19797056969E+02 -0.21704775474E+00  0.21890983317E+02  0.00000000000E+00 0. -1.
</event>
<event>
 7    1  0.2313935E-008  0.4614232E+02  0.7816164E-02  0.1320468E+00
        -11   -1    0    0    0    0  0.00000000000E+00  0.00000000000E+00  0.45593999997E+02  0.45594000000E+02  0.51100000000E-03 0. -1.
         11   -1    0    0    0    0 -0.00000000000E+00 -0.00000000000E+00 -0.45593999997E+02  0.45594000000E+02  0.51100000000E-03 0.  1.
    9900012    2    1    2    0    0 -0.12309259852E+02  0.40235946065E+02 -0.16083048935E+02  0.46142315446E+02  0.99999788897E+01 0.  0.
         12    1    1    2    0    0  0.12309259852E+02 -0.40235946065E+02  0.16083048935E+02  0.45045684554E+02  0.00000000000E+00 0. -1.
         11    1    3    3    0    0  0.68582145730E+00  0.26794318796E+01  0.14178833237E+00  0.27694422654E+01  0.51100000000E-03 0. -1.
        -11    1    3    3    0    0 -0.69741888060E+01  0.14780371462E+02 -0.93638583139E+01  0.18835618727E+02  0.51100000000E-03 0.  1.
        -12    1    3    3    0    0 -0.60208925033E+01  0.22776142724E+02 -0.68609789537E+01  0.24537254453E+02  0.00000000000E+00 0.  1.
</event>
<event>
 7    1  0.2313935E-008  0.4614232E+02  0.7816164E-02  0.1320468E+00
        -11   -1    0    0    0    0  0.00000000000E+00  0.00000000000E+00  0.45593999997E+02  0.45594000000E+02  0.51100000000E-03 0.  1.
         11   -1    0    0    0    0 -0.00000000000E+00 -0.00000000000E+00 -0.45593999997E+02  0.45594000000E+02  0.51100000000E-03 0. -1.
    9900012    2    1    2    0    0 -0.13545390399E+01  0.41471838463E+02  0.17531837269E+02  0.46142317860E+02  0.10000000899E+02 0.  0.
         12    1    1    2    0    0  0.13545390399E+01 -0.41471838463E+02 -0.17531837269E+02  0.45045682140E+02  0.00000000000E+00 0. -1.
         11    1    3    3    0    0  0.36097147966E+00  0.33534504801E+01 -0.72525442063E+00  0.34499166319E+01  0.51100000000E-03 0. -1.
        -11    1    3    3    0    0  0.95907471047E+00  0.24109200488E+02  0.13554773946E+02  0.27674993577E+02  0.51100000000E-03 0.  1.
        -12    1    3    3    0    0 -0.26745852300E+01  0.14009187494E+02  0.47023177432E+01  0.15017407651E+02  0.00000000000E+00 0.  1.
</event>
<event>
 7    1  0.2313935E-008  0.4614232E+02  0.7816164E-02  0.1320468E+00
        -11   -1    0    0    0    0  0.00000000000E+00  0.00000000000E+00  0.45593999997E+02  0.45594000000E+02  0.51100000000E-03 0. -1.
         11   -1    0    0    0    0 -0.00000000000E+00 -0.00000000000E+00 -0.45593999997E+02  0.45594000000E+02  0.51100000000E-03 0.  1.
    9900012    2    1    2    0    0  0.32380725766E+02 -0.13071463858E+02 -0.28455909882E+02  0.46142319012E+02  0.10000011402E+02 0.  0.
         12    1    1    2    0    0 -0.32380725766E+02  0.13071463858E+02  0.28455909882E+02  0.45045680988E+02  0.00000000000E+00 0. -1.
         11    1    3    3    0    0  0.18398798600E+02 -0.62799742818E+01 -0.12969121037E+02  0.23369894472E+02  0.51100000000E-03 0. -1.
        -11    1    3    3    0    0  0.79441420101E+01 -0.36085803203E+01 -0.44472730064E+01  0.97933386371E+01  0.51100000000E-03 0.  1.
        -12    1    3    3    0    0  0.60377851559E+01 -0.31829092560E+01 -0.11039515838E+02  0.12979085903E+02  0.00000000000E+00 0.  1.
</event>
<event>
 7    1  0.2313935E-008  0.4614232E+02  0.7816164E-02  0.1320468E+00
        -11   -1    0    0    0    0  0.00000000000E+00  0.00000000000E+00  0.45593999997E+02  0.45594000000E+02  0.51100000000E-03 0.  1.
         11   -1    0    0    0    0 -0.00000000000E+00 -0.00000000000E+00 -0.45593999997E+02  0.45594000000E+02  0.51100000000E-03 0. -1.
    9900012    2    1    2    0    0 -0.39055378602E+02  0.15376666934E+01  0.22392553586E+02  0.46142317935E+02  0.10000001586E+02 0.  0.
         12    1    1    2    0    0  0.39055378602E+02 -0.15376666934E+01 -0.22392553586E+02  0.45045682065E+02  0.00000000000E+00 0. -1.
         11    1    3    3    0    0 -0.19219317902E+02  0.26465758885E+01  0.14546867047E+02  0.24248667709E+02  0.51100000000E-03 0. -1.
        -11    1    3    3    0    0 -0.15238971288E+02  0.11837580914E+01  0.62634816975E+01  0.16518436135E+02  0.51100000000E-03 0.  1.
        -12    1    3    3    0    0 -0.45970894128E+01 -0.22926672865E+01  0.15822048412E+01  0.53752140902E+01  0.00000000000E+00 0.  1.
</event>
<event>
 7    1  0.2313935E-008  0.4614231E+02  0.7816164E-02  0.1320468E+00
        -11   -1    0    0    0    0  0.00000000000E+00  0.00000000000E+00  0.45593999997E+02  0.45594000000E+02  0.51100000000E-03 0.  1.
         11   -1    0    0    0    0 -0.00000000000E+00 -0.00000000000E+00 -0.45593999997E+02  0.45594000000E+02  0.51100000000E-03 0. -1.
    9900012    2    1    2    0    0  0.47451697365E+00 -0.61022437849E+01  0.44627922327E+02  0.46142312118E+02  0.99999485403E+01 0.  0.
         12    1    1    2    0    0 -0.47451697365E+00  0.61022437849E+01 -0.44627922327E+02  0.45045687882E+02  0.00000000000E+00 0. -1.
         11    1    3    3    0    0  0.43468938623E+00 -0.18190694652E+01  0.53127705045E+01  0.56323617849E+01  0.51100000000E-03 0.  1.
        -11    1    3    3    0    0  0.36191669423E+01  0.23086968226E+00  0.10078109109E+02  0.10710740107E+02  0.51100000000E-03 0. -1.
         12    1    3    3    0    0 -0.35793393549E+01 -0.45140440019E+01  0.29237042713E+02  0.29799210226E+02  0.00000000000E+00 0. -1.
</event>
<event>
 7    1  0.2313935E-008  0.4614232E+02  0.7816164E-02  0.1320468E+00
        -11   -1    0    0    0    0  0.00000000000E+00  0.00000000000E+00  0.45593999997E+02  0.45594000000E+02  0.51100000000E-03 0. -1.
         11   -1    0    0    0    0 -0.00000000000E+00 -0.00000000000E+00 -0.45593999997E+02  0.45594000000E+02  0.51100000000E-03 0.  1.
    9900012    2    1    2    0    0  0.38232923433E+02 -0.12360160988E+02  0.20361323955E+02  0.46142317331E+02  0.99999960818E+01 0.  0.
         12    1    1    2    0    0 -0.38232923433E+02  0.12360160988E+02 -0.20361323955E+02  0.45045682669E+02  0.00000000000E+00 0. -1.
         11    1    3    3    0    0  0.62166636148E+01 -0.20558463009E+01  0.49389417880E+01  0.82016191547E+01  0.51100000000E-03 0. -1.
        -11    1    3    3    0    0  0.29591850825E+02 -0.67492389901E+01  0.13803911327E+02  0.33343332623E+02  0.51100000000E-03 0.  1.
        -12    1    3    3    0    0  0.24244089928E+01 -0.35550756972E+01  0.16184708404E+01  0.45973655541E+01  0.00000000000E+00 0.  1.
</event>
<event>
 7    1  0.2313935E-008  0.4614232E+02  0.7816164E-02  0.1320468E+00
        -11   -1    0    0    0    0  0.00000000000E+00  0.00000000000E+00  0.45593999997E+02  0.45594000000E+02  0.51100000000E-03 0.  1.
         11   -1    0    0    0    0 -0.00000000000E+00 -0.00000000000E+00 -0.45593999997E+02  0.45594000000E+02  0.51100000000E-03 0. -1.
    9900012    2    1    2    0    0 -0.16709962805E+02  0.27203626657E+02  0.31778192130E+02  0.46142315909E+02  0.99999831080E+01 0.  0.
         12    1    1    2    0    0  0.16709962805E+02 -0.27203626657E+02 -0.31778192130E+02  0.45045684091E+02  0.00000000000E+00 0. -1.
         11    1    3    3    0    0 -0.79010572802E+01  0.64481134492E+01  0.74588136264E+01  0.12634823868E+02  0.51100000000E-03 0. -1.
        -11    1    3    3    0    0 -0.56858522484E+01  0.79228505500E+01  0.88720469773E+01  0.13183842174E+02  0.51100000000E-03 0.  1.
        -12    1    3    3    0    0 -0.31230532762E+01  0.12832662657E+02  0.15447331526E+02  0.20323649867E+02  0.00000000000E+00 0.  1.
</event>
<event>
 7    1  0.2313935E-008  0.4614232E+02  0.7816164E-02  0.1320468E+00
        -11   -1    0    0    0    0  0.00000000000E+00  0.00000000000E+00  0.45593999997E+02  0.45594000000E+02  0.51100000000E-03 0.  1.
         11   -1    0    0    0    0 -0.00000000000E+00 -0.00000000000E+00 -0.45593999997E+02  0.45594000000E+02  0.51100000000E-03 0. -1.
    9900012    2    1    2    0    0  0.42578074314E+02 -0.13184751141E+02  0.65102560053E+01  0.46142317541E+02  0.99999979958E+01 0.  0.
         12    1    1    2    0    0 -0.42578074314E+02  0.13184751141E+02 -0.65102560053E+01  0.45045682459E+02  0.00000000000E+00 0. -1.
         11    1    3    3    0    0  0.11717571137E+01  0.39912613184E+00 -0.43664164112E+00  0.13126205037E+01  0.51100000000E-03 0. -1.
        -11    1    3    3    0    0  0.99701377622E+00 -0.42846023910E+00  0.16908246258E+01  0.20091049806E+01  0.51100000000E-03 0.  1.
        -12    1    3    3    0    0  0.40409303424E+02 -0.13155417034E+02  0.52560730206E+01  0.42820592057E+02  0.00000000000E+00 0.  1.
</event>
<event>
 7    1  0.2313935E-008  0.4614232E+02  0.7816164E-02  0.1320468E+00
        -11   -1    0    0    0    0  0.00000000000E+00  0.00000000000E+00  0.45593999997E+02  0.45594000000E+02  0.51100000000E-03 0. -1.
         11   -1    0    0    0    0 -0.00000000000E+00 -0.00000000000E+00 -0.45593999997E+02  0.45594000000E+02  0.51100000000E-03 0.  1.
    9900012    2    1    2    0    0 -0.40403372188E+02 -0.61984666613E+01  0.18927756361E+02  0.46142318365E+02  0.10000005504E+02 0.  0.
         12    1    1    2    0    0  0.40403372188E+02  0.61984666613E+01 -0.18927756361E+02  0.45045681635E+02  0.00000000000E+00 0. -1.
         11    1    3    3    0    0 -0.11134491055E+02  0.12241684503E+01  0.45297242571E+01  0.12082792788E+02  0.51100000000E-03 0. -1.
        -11    1    3    3    0    0 -0.23005441015E+02 -0.45459624718E+01  0.83585940817E+01  0.24895425009E+02  0.51100000000E-03 0.  1.
         12    1    3    3    0    0 -0.62634401174E+01 -0.28766726399E+01  0.60394380225E+01  0.91641005674E+01  0.00000000000E+00 0. -1.
</event>
<event>
 7    1  0.2313935E-008  0.4614232E+02  0.7816164E-02  0.1320468E+00
        -11   -1    0    0    0    0  0.00000000000E+00  0.00000000000E+00  0.45593999997E+02  0.45594000000E+02  0.51100000000E-03 0.  1.
         11   -1    0    0    0    0 -0.00000000000E+00 -0.00000000000E+00 -0.45593999997E+02  0.45594000000E+02  0.51100000000E-03 0. -1.
    9900012    2    1    2    0    0 -0.22026563423E+02 -0.17678921657E+01  0.39253261961E+02  0.46142317482E+02  0.99999974516E+01 0.  0.
         12    1    1    2    0    0  0.22026563423E+02  0.17678921657E+01 -0.39253261961E+02  0.45045682518E+02  0.00000000000E+00 0. -1.
         11    1    3    3    0    0 -0.72060053361E+01 -0.26937115805E+01  0.10433865459E+02  0.12963338446E+02  0.51100000000E-03 0. -1.
        -11    1    3    3    0    0 -0.13843312993E+02  0.25398699407E+01  0.27449063883E+02  0.30847031660E+02  0.51100000000E-03 0.  1.
         12    1    3    3    0    0 -0.97724509467E+00 -0.16140505259E+01  0.13703326185E+01  0.23319473752E+01  0.00000000000E+00 0. -1.
</event>
<event>
 7    1  0.2313935E-008  0.4614232E+02  0.7816164E-02  0.1320468E+00
        -11   -1    0    0    0    0  0.00000000000E+00  0.00000000000E+00  0.45593999997E+02  0.45594000000E+02  0.51100000000E-03 0.  1.
         11   -1    0    0    0    0 -0.00000000000E+00 -0.00000000000E+00 -0.45593999997E+02  0.45594000000E+02  0.51100000000E-03 0. -1.
    9900012    2    1    2    0    0 -0.16589999915E+02  0.38192619776E+02  0.17181653604E+02  0.46142317375E+02  0.99999964824E+01 0.  0.
         12    1    1    2    0    0  0.16589999915E+02 -0.38192619776E+02 -0.17181653604E+02  0.45045682625E+02  0.00000000000E+00 0. -1.
         11    1    3    3    0    0 -0.24956852853E+00 -0.34545410291E+00  0.84582224405E+00  0.94712117351E+00  0.51100000000E-03 0.  1.
        -11    1    3    3    0    0 -0.65561458897E+01  0.10271936694E+02  0.56514591987E+01  0.13432599291E+02  0.51100000000E-03 0. -1.
         12    1    3    3    0    0 -0.97842854966E+01  0.28266137185E+02  0.10684372161E+02  0.31762596911E+02  0.00000000000E+00 0. -1.
</event>
<event>
 7    1  0.2313935E-008  0.4614232E+02  0.7816164E-02  0.1320468E+00
        -11   -1    0    0    0    0  0.00000000000E+00  0.00000000000E+00  0.45593999997E+02  0.45594000000E+02  0.51100000000E-03 0.  1.
         11   -1    0    0    0    0 -0.00000000000E+00 -0.00000000000E+00 -0.45593999997E+02  0.45594000000E+02  0.51100000000E-03 0. -1.
    9900012    2    1    2    0    0  0.63968056277E+01 -0.28350649042E+02  0.34415622674E+02  0.46142317550E+02  0.99999980794E+01 0.  0.
         12    1    1    2    0    0 -0.63968056277E+01  0.28350649042E+02 -0.34415622674E+02  0.45045682450E+02  0.00000000000E+00 0. -1.
         11    1    3    3    0    0  0.21230275087E+01 -0.15845813586E+02  0.22623899998E+02  0.27702669643E+02  0.51100000000E-03 0. -1.
        -11    1    3    3    0    0  0.11946250045E+01 -0.10347652853E+02  0.87396703259E+01  0.13597164636E+02  0.51100000000E-03 0.  1.
         12    1    3    3    0    0  0.30791531145E+01 -0.21571826025E+01  0.30520523502E+01  0.48424832712E+01  0.00000000000E+00 0. -1.
</event>
<event>
 7    1  0.2313935E-008  0.4614232E+02  0.7816164E-02  0.1320468E+00
        -11   -1    0    0    0    0  0.00000000000E+00  0.00000000000E+00  0.45593999997E+02  0.45594000000E+02  0.51100000000E-03 0. -1.
         11   -1    0    0    0    0 -0.00000000000E+00 -0.00000000000E+00 -0.45593999997E+02  0.45594000000E+02  0.51100000000E-03 0.  1.
    9900012    2    1    2    0    0 -0.13199347635E+02 -0.36607949037E+02 -0.22688080085E+02  0.46142315538E+02  0.99999797307E+01 0.  0.
         12    1    1    2    0    0  0.13199347635E+02  0.36607949037E+02  0.22688080085E+02  0.45045684462E+02  0.00000000000E+00 0. -1.
         11    1    3    3    0    0 -0.56382859560E+01 -0.93673946637E+01 -0.82595603374E+01  0.13702506652E+02  0.51100000000E-03 0. -1.
        -11    1    3    3    0    0 -0.78720254970E+01 -0.27523270326E+02 -0.14129386025E+02  0.31923952521E+02  0.51100000000E-03 0.  1.
         12    1    3    3    0    0  0.31096381787E+00  0.28271595280E+00 -0.29913372335E+00  0.51585636610E+00  0.00000000000E+00 0. -1.
</event>
<event>
 7    1  0.2313935E-008  0.4614232E+02  0.7816164E-02  0.1320468E+00
        -11   -1    0    0    0    0  0.00000000000E+00  0.00000000000E+00  0.45593999997E+02  0.45594000000E+02  0.51100000000E-03 0.  1.
         11   -1    0    0    0    0 -0.00000000000E+00 -0.00000000000E+00 -0.45593999997E+02  0.45594000000E+02  0.51100000000E-03 0. -1.
    9900012    2    1    2    0    0  0.14733951193E+02  0.21522191198E+01  0.42513434680E+02  0.46142317707E+02  0.99999995103E+01 0.  0.
         12    1    1    2    0    0 -0.14733951193E+02 -0.21522191198E+01 -0.42513434680E+02  0.45045682293E+02  0.00000000000E+00 0. -1.
         11    1    3    3    0    0  0.82892371898E+01  0.27279350431E+00  0.30124535873E+02  0.31245376159E+02  0.51100000000E-03 0. -1.
        -11    1    3    3    0    0  0.72296387069E+01  0.17097222389E+01  0.10691735588E+02  0.13019371571E+02  0.51100000000E-03 0.  1.
         12    1    3    3    0    0 -0.78492470373E+00  0.16970337656E+00  0.16971632190E+01  0.18775699770E+01  0.00000000000E+00 0. -1.
</event>
<event>
 7    1  0.2313935E-008  0.4614232E+02  0.7816164E-02  0.1320468E+00
        -11   -1    0    0    0    0  0.00000000000E+00  0.00000000000E+00  0.45593999997E+02  0.45594000000E+02  0.51100000000E-03 0. -1.
         11   -1    0    0    0    0 -0.00000000000E+00 -0.00000000000E+00 -0.45593999997E+02  0.45594000000E+02  0.51100000000E-03 0.  1.
    9900012    2    1    2    0    0 -0.27677122847E+02  0.22330875618E+02 -0.27648188324E+02  0.46142318159E+02  0.10000003627E+02 0.  0.
         12    1    1    2    0    0  0.27677122847E+02 -0.22330875618E+02  0.27648188324E+02  0.45045681841E+02  0.00000000000E+00 0. -1.
         11    1    3    3    0    0 -0.23786338334E+01  0.56915917093E+01 -0.23585876048E+01  0.66041692020E+01  0.51100000000E-03 0. -1.
        -11    1    3    3    0    0 -0.73265575532E+01  0.35608911183E+01 -0.61627755412E+01  0.10214606883E+02  0.51100000000E-03 0.  1.
         12    1    3    3    0    0 -0.17971931460E+02  0.13078392791E+02 -0.19126825178E+02  0.29323542074E+02  0.00000000000E+00 0. -1.
</event>
<event>
 7    1  0.2313935E-008  0.4614232E+02  0.7816164E-02  0.1320468E+00
        -11   -1    0    0    0    0  0.00000000000E+00  0.00000000000E+00  0.45593999997E+02  0.45594000000E+02  0.51100000000E-03 0.  1.
         11   -1    0    0    0    0 -0.00000000000E+00 -0.00000000000E+00 -0.45593999997E+02  0.45594000000E+02  0.51100000000E-03 0. -1.
    9900012    2    1    2    0    0 -0.72686398083E+00 -0.25444239185E+02  0.37164174936E+02  0.46142317215E+02  0.99999950157E+01 0.  0.
         12    1    1    2    0    0  0.72686398083E+00  0.25444239185E+02 -0.37164174936E+02  0.45045682785E+02  0.00000000000E+00 0. -1.
         11    1    3    3    0    0  0.27526364086E+01 -0.18937405338E+02  0.27199576174E+02  0.33256868049E+02  0.51100000000E-03 0. -1.
        -11    1    3    3    0    0 -0.53261466151E+00 -0.26497900840E+01  0.61305830959E+01  0.66999339716E+01  0.51100000000E-03 0.  1.
         12    1    3    3    0    0 -0.29468857280E+01 -0.38570437637E+01  0.38340156652E+01  0.61855151935E+01  0.00000000000E+00 0. -1.
</event>
<event>
 7    1  0.2313935E-008  0.4614232E+02  0.7816164E-02  0.1320468E+00
        -11   -1    0    0    0    0  0.00000000000E+00  0.00000000000E+00  0.45593999997E+02  0.45594000000E+02  0.51100000000E-03 0. -1.
         11   -1    0    0    0    0 -0.00000000000E+00 -0.00000000000E+00 -0.45593999997E+02  0.45594000000E+02  0.51100000000E-03 0.  1.
    9900012    2    1    2    0    0 -0.35595017724E+01  0.15803951575E+02 -0.42031877517E+02  0.46142315792E+02  0.99999820403E+01 0.  0.
         12    1    1    2    0    0  0.35595017724E+01 -0.15803951575E+02  0.42031877517E+02  0.45045684208E+02  0.00000000000E+00 0. -1.
         11    1    3    3    0    0 -0.14775316555E+01  0.54923791656E+01 -0.23039679928E+02  0.23731333299E+02  0.51100000000E-03 0. -1.
        -11    1    3    3    0    0 -0.39717212707E+01  0.60708715884E+01 -0.11614691641E+02  0.13694200009E+02  0.51100000000E-03 0.  1.
         12    1    3    3    0    0  0.18897511538E+01  0.42407008207E+01 -0.73775059472E+01  0.87167824841E+01  0.00000000000E+00 0. -1.
</event>
<event>
 7    1  0.2313935E-008  0.4614232E+02  0.7816164E-02  0.1320468E+00
        -11   -1    0    0    0    0  0.00000000000E+00  0.00000000000E+00  0.45593999997E+02  0.45594000000E+02  0.51100000000E-03 0.  1.
         11   -1    0    0    0    0 -0.00000000000E+00 -0.00000000000E+00 -0.45593999997E+02  0.45594000000E+02  0.51100000000E-03 0. -1.
    9900012    2    1    2    0    0  0.15794258501E+02 -0.42068706106E+02 -0.31430747782E+01  0.46142317031E+02  0.99999933454E+01 0.  0.
         12    1    1    2    0    0 -0.15794258501E+02  0.42068706106E+02  0.31430747782E+01  0.45045682969E+02  0.00000000000E+00 0. -1.
         11    1    3    3    0    0  0.42788164154E+01 -0.20331716336E+02 -0.10842256013E+01  0.20805347978E+02  0.51100000000E-03 0. -1.
        -11    1    3    3    0    0  0.44229661746E+01 -0.13872899327E+02 -0.23157306888E+01  0.14743899566E+02  0.51100000000E-03 0.  1.
         12    1    3    3    0    0  0.70924759114E+01 -0.78640904430E+01  0.25688151191E+00  0.10593069487E+02  0.00000000000E+00 0. -1.
</event>
<event>
 7    1  0.2313935E-008  0.4614232E+02  0.7816164E-02  0.1320468E+00
        -11   -1    0    0    0    0  0.00000000000E+00  0.00000000000E+00  0.45593999997E+02  0.45594000000E+02  0.51100000000E-03 0.  1.
         11   -1    0    0    0    0 -0.00000000000E+00 -0.00000000000E+00 -0.45593999997E+02  0.45594000000E+02  0.51100000000E-03 0. -1.
    9900012    2    1    2    0    0  0.15198102343E+02  0.39204675361E+01  0.42222755967E+02  0.46142317610E+02  0.99999986225E+01 0.  0.
         12    1    1    2    0    0 -0.15198102343E+02 -0.39204675361E+01 -0.42222755967E+02  0.45045682390E+02  0.00000000000E+00 0. -1.
         11    1    3    3    0    0  0.15617961496E+01 -0.20481462526E+01  0.36470219141E+01  0.44648493130E+01  0.51100000000E-03 0. -1.
        -11    1    3    3    0    0  0.79475556402E+01  0.67488179124E+00  0.20830474659E+02  0.22305330772E+02  0.51100000000E-03 0.  1.
         12    1    3    3    0    0  0.56887505528E+01  0.52937319974E+01  0.17745259395E+02  0.19372137525E+02  0.00000000000E+00 0. -1.
</event>
<event>
 7    1  0.2313935E-008  0.4614232E+02  0.7816164E-02  0.1320468E+00
        -11   -1    0    0    0    0  0.00000000000E+00  0.00000000000E+00  0.45593999997E+02  0.45594000000E+02  0.51100000000E-03 0. -1.
         11   -1    0    0    0    0 -0.00000000000E+00 -0.00000000000E+00 -0.45593999997E+02  0.45594000000E+02  0.51100000000E-03 0.  1.
    9900012    2    1    2    0    0  0.24053365710E+02 -0.36973040364E+02  0.91402092836E+01  0.46142317171E+02  0.99999946222E+01 0.  0.
         12    1    1    2    0    0 -0.24053365710E+02  0.36973040364E+02 -0.91402092836E+01  0.45045682829E+02  0.00000000000E+00 0. -1.
         11    1    3    3    0    0  0.14796570821E+02 -0.29027036236E+02  0.88565775622E+01  0.33763090899E+02  0.51100000000E-03 0. -1.
        -11    1    3    3    0    0  0.39702756696E+01 -0.41449423102E+01  0.10093756110E+01  0.58277332671E+01  0.51100000000E-03 0.  1.
         12    1    3    3    0    0  0.52865192192E+01 -0.38010618185E+01 -0.72574388959E+00  0.65514930051E+01  0.00000000000E+00 0. -1.
</event>
<event>
 7    1  0.2313935E-008  0.4614232E+02  0.7816164E-02  0.1320468E+00
        -11   -1    0    0    0    0  0.00000000000E+00  0.00000000000E+00  0.45593999997E+02  0.45594000000E+02  0.51100000000E-03 0.  1.
         11   -1    0    0    0    0 -0.00000000000E+00 -0.00000000000E+00 -0.45593999997E+02  0.45594000000E+02  0.51100000000E-03 0. -1.
    9900012    2    1    2    0    0 -0.26792724084E+02 -0.16002593111E+02  0.32483541609E+02  0.46142317348E+02  0.99999962314E+01 0.  0.
         12    1    1    2    0    0  0.26792724084E+02  0.16002593111E+02 -0.32483541609E+02  0.45045682652E+02  0.00000000000E+00 0. -1.
         11    1    3    3    0    0 -0.77988565283E+01 -0.62553594454E+01  0.68152600079E+01  0.12099564214E+02  0.51100000000E-03 0. -1.
        -11    1    3    3    0    0 -0.19515112867E+02 -0.92705049977E+01  0.25207397729E+02  0.33199319175E+02  0.51100000000E-03 0.  1.
         12    1    3    3    0    0  0.52124531219E+00 -0.47672866823E+00  0.46088387233E+00  0.84343395850E+00  0.00000000000E+00 0. -1.
</event>
<event>
 7    1  0.2313935E-008  0.4614232E+02  0.7816164E-02  0.1320468E+00
        -11   -1    0    0    0    0  0.00000000000E+00  0.00000000000E+00  0.45593999997E+02  0.45594000000E+02  0.51100000000E-03 0.  1.
         11   -1    0    0    0    0 -0.00000000000E+00 -0.00000000000E+00 -0.45593999997E+02  0.45594000000E+02  0.51100000000E-03 0. -1.
    9900012    2    1    2    0    0 -0.24628789582E+01 -0.44315355757E+02 -0.76939582993E+01  0.46142317377E+02  0.99999964976E+01 0.  0.
         12    1    1    2    0    0  0.24628789582E+01  0.44315355757E+02  0.76939582993E+01  0.45045682623E+02  0.00000000000E+00 0. -1.
         11    1    3    3    0    0  0.50251132186E-01 -0.42200417359E+01 -0.21575274081E+01  0.47398525512E+01  0.51100000000E-03 0. -1.
        -11    1    3    3    0    0  0.21402803170E+01 -0.17125991580E+02  0.25671106642E+00  0.17261120713E+02  0.51100000000E-03 0.  1.
         12    1    3    3    0    0 -0.46534104074E+01 -0.22969322441E+02 -0.57931419576E+01  0.24141344112E+02  0.00000000000E+00 0. -1.
</event>
<event>
 7    1  0.2313935E-008  0.4614232E+02  0.7816164E-02  0.1320468E+00
        -11   -1    0    0    0    0  0.00000000000E+00  0.00000000000E+00  0.45593999997E+02  0.45594000000E+02  0.51100000000E-03 0. -1.
         11   -1    0    0    0    0 -0.00000000000E+00 -0.00000000000E+00 -0.45593999997E+02  0.45594000000E+02  0.51100000000E-03 0.  1.
    9900012    2    1    2    0    0 -0.71373306447E+01  0.19478268709E+02 -0.39984609594E+02  0.46142318243E+02  0.10000004392E+02 0.  0.
         12    1    1    2    0    0  0.71373306447E+01 -0.19478268709E+02  0.39984609594E+02  0.45045681757E+02  0.00000000000E+00 0. -1.
         11    1    3    3    0    0 -0.63509899547E+00  0.55415253736E+01 -0.47282578614E+01  0.73122005488E+01  0.51100000000E-03 0. -1.
        -11    1    3    3    0    0 -0.27374954568E+01  0.34188098803E+01 -0.54041023952E+01  0.69560380485E+01  0.51100000000E-03 0.  1.
        -12    1    3    3    0    0 -0.37647361924E+01  0.10517933455E+02 -0.29852249337E+02  0.31874079645E+02  0.00000000000E+00 0.  1.
</event>
<event>
 7    1  0.2313935E-008  0.4614232E+02  0.7816164E-02  0.1320468E+00
        -11   -1    0    0    0    0  0.00000000000E+00  0.00000000000E+00  0.45593999997E+02  0.45594000000E+02  0.51100000000E-03 0. -1.
         11   -1    0    0    0    0 -0.00000000000E+00 -0.00000000000E+00 -0.45593999997E+02  0.45594000000E+02  0.51100000000E-03 0.  1.
    9900012    2    1    2    0    0 -0.39837402313E+02  0.87655599041E+01  0.19111775614E+02  0.46142316183E+02  0.99999856055E+01 0.  0.
         12    1    1    2    0    0  0.39837402313E+02 -0.87655599041E+01 -0.19111775614E+02  0.45045683817E+02  0.00000000000E+00 0. -1.
         11    1    3    3    0    0 -0.24684348613E+02  0.31477795669E+01  0.11654348952E+02  0.27478162828E+02  0.51100000000E-03 0. -1.
        -11    1    3    3    0    0 -0.14190813737E+02  0.54922009347E+01  0.83401960265E+01  0.17352300587E+02  0.51100000000E-03 0.  1.
         12    1    3    3    0    0 -0.96223996259E+00  0.12557940245E+00 -0.88276936502E+00  0.13118527676E+01  0.00000000000E+00 0. -1.
</event>
<event>
 7    1  0.2313935E-008  0.4614232E+02  0.7816164E-02  0.1320468E+00
        -11   -1    0    0    0    0  0.00000000000E+00  0.00000000000E+00  0.45593999997E+02  0.45594000000E+02  0.51100000000E-03 0.  1.
         11   -1    0    0    0    0 -0.00000000000E+00 -0.00000000000E+00 -0.45593999997E+02  0.45594000000E+02  0.51100000000E-03 0. -1.
    9900012    2    1    2    0    0  0.14797443097E+02 -0.39527231405E+02  0.15739988781E+02  0.46142316616E+02  0.99999895556E+01 0.  0.
         12    1    1    2    0    0 -0.14797443097E+02  0.39527231405E+02 -0.15739988781E+02  0.45045683384E+02  0.00000000000E+00 0. -1.
         11    1    3    3    0    0 -0.28725959689E-01 -0.10818327201E+02  0.37515475972E+01  0.11450377210E+02  0.51100000000E-03 0. -1.
        -11    1    3    3    0    0  0.92751810306E+01 -0.15824556129E+02  0.49635607194E+01  0.19002170800E+02  0.51100000000E-03 0.  1.
         12    1    3    3    0    0  0.55509880263E+01 -0.12884348074E+02  0.70248804644E+01  0.15689768606E+02  0.00000000000E+00 0. -1.
</event>
<event>
 7    1  0.2313935E-008  0.4614232E+02  0.7816164E-02  0.1320468E+00
        -11   -1    0    0    0    0  0.00000000000E+00  0.00000000000E+00  0.45593999997E+02  0.45594000000E+02  0.51100000000E-03 0. -1.
         11   -1    0    0    0    0 -0.00000000000E+00 -0.00000000000E+00 -0.45593999997E+02  0.45594000000E+02  0.51100000000E-03 0.  1.
    9900012    2    1    2    0    0 -0.21449991550E+02  0.93446664297E+01 -0.38492707106E+02  0.46142318426E+02  0.10000006059E+02 0.  0.
         12    1    1    2    0    0  0.21449991550E+02 -0.93446664297E+01  0.38492707106E+02  0.45045681574E+02  0.00000000000E+00 0. -1.
         11    1    3    3    0    0 -0.40806529186E+01  0.23031013546E+01 -0.43816739129E+01  0.64152217913E+01  0.51100000000E-03 0. -1.
        -11    1    3    3    0    0 -0.58593089416E+01  0.16335663279E+01 -0.19142531955E+02  0.20085730510E+02  0.51100000000E-03 0.  1.
        -12    1    3    3    0    0 -0.11510029690E+02  0.54079987472E+01 -0.14968501238E+02  0.19641366124E+02  0.00000000000E+00 0.  1.
</event>
<event>
 7    1  0.2313935E-008  0.4614232E+02  0.7816164E-02  0.1320468E+00
        -11   -1    0    0    0    0  0.00000000000E+00  0.00000000000E+00  0.45593999997E+02  0.45594000000E+02  0.51100000000E-03 0. -1.
         11   -1    0    0    0    0 -0.00000000000E+00 -0.00000000000E+00 -0.45593999997E+02  0.45594000000E+02  0.51100000000E-03 0.  1.
    9900012    2    1    2    0    0 -0.20135229307E+02 -0.27965870784E+02 -0.29010274088E+02  0.46142318846E+02  0.10000009893E+02 0.  0.
         12    1    1    2    0    0  0.20135229307E+02  0.27965870784E+02  0.29010274088E+02  0.45045681154E+02  0.00000000000E+00 0. -1.
         11    1    3    3    0    0 -0.85136912546E+01 -0.12308063104E+02 -0.10666315653E+02  0.18377748666E+02  0.51100000000E-03 0.  1.
        -11    1    3    3    0    0 -0.31001202558E+01 -0.36130474300E+01 -0.77727813673E+00  0.48237971449E+01  0.51100000000E-03 0. -1.
         12    1    3    3    0    0 -0.85214177961E+01 -0.12044760250E+02 -0.17566680299E+02  0.22940773035E+02  0.00000000000E+00 0. -1.
</event>
<event>
 7    1  0.2313935E-008  0.4614232E+02  0.7816164E-02  0.1320468E+00
        -11   -1    0    0    0    0  0.00000000000E+00  0.00000000000E+00  0.45593999997E+02  0.45594000000E+02  0.51100000000E-03 0.  1.
         11   -1    0    0    0    0 -0.00000000000E+00 -0.00000000000E+00 -0.45593999997E+02  0.45594000000E+02  0.51100000000E-03 0. -1.
    9900012    2    1    2    0    0 -0.12976826797E+02 -0.37013926540E+02  0.22151405198E+02  0.46142317145E+02  0.99999943827E+01 0.  0.
         12    1    1    2    0    0  0.12976826797E+02  0.37013926540E+02 -0.22151405198E+02  0.45045682855E+02  0.00000000000E+00 0. -1.
         11    1    3    3    0    0 -0.15940598993E+00 -0.33846212729E+01  0.27026567183E+01  0.43342156187E+01  0.51100000000E-03 0.  1.
        -11    1    3    3    0    0 -0.43395847361E+01 -0.31989123282E+01  0.34251525792E+01  0.63872299330E+01  0.51100000000E-03 0. -1.
         12    1    3    3    0    0 -0.84778360706E+01 -0.30430392939E+02  0.16023595901E+02  0.35420871593E+02  0.00000000000E+00 0. -1.
</event>
<event>
 7    1  0.2313935E-008  0.4614232E+02  0.7816164E-02  0.1320468E+00
        -11   -1    0    0    0    0  0.00000000000E+00  0.00000000000E+00  0.45593999997E+02  0.45594000000E+02  0.51100000000E-03 0. -1.
         11   -1    0    0    0    0 -0.00000000000E+00 -0.00000000000E+00 -0.45593999997E+02  0.45594000000E+02  0.51100000000E-03 0.  1.
    9900012    2    1    2    0    0 -0.33422355970E+02  0.20022026564E+02 -0.22609249010E+02  0.46142316888E+02  0.99999920342E+01 0.  0.
         12    1    1    2    0    0  0.33422355970E+02 -0.20022026564E+02  0.22609249010E+02  0.45045683112E+02  0.00000000000E+00 0. -1.
         11    1    3    3    0    0 -0.11549663701E+02  0.28899046922E+01 -0.64120099523E+01  0.13522579363E+02  0.51100000000E-03 0.  1.
        -11    1    3    3    0    0 -0.36302848680E+00 -0.28556508797E+00  0.13699739286E+00  0.48177344101E+00  0.51100000000E-03 0. -1.
        -12    1    3    3    0    0 -0.21509663782E+02  0.17417686960E+02 -0.16334236450E+02  0.32137964084E+02  0.00000000000E+00 0.  1.
</event>
<event>
 7    1  0.2313935E-008  0.4614232E+02  0.7816164E-02  0.1320468E+00
        -11   -1    0    0    0    0  0.00000000000E+00  0.00000000000E+00  0.45593999997E+02  0.45594000000E+02  0.51100000000E-03 0. -1.
         11   -1    0    0    0    0 -0.00000000000E+00 -0.00000000000E+00 -0.45593999997E+02  0.45594000000E+02  0.51100000000E-03 0.  1.
    9900012    2    1    2    0    0  0.31201564522E+01  0.91431107307E+01 -0.43997515280E+02  0.46142320951E+02  0.10000029090E+02 0.  0.
         12    1    1    2    0    0 -0.31201564522E+01 -0.91431107307E+01  0.43997515280E+02  0.45045679049E+02  0.00000000000E+00 0. -1.
         11    1    3    3    0    0  0.22660311716E+01 -0.91209383665E+00 -0.54303153355E+01  0.59544216630E+01  0.51100000000E-03 0. -1.
        -11    1    3    3    0    0  0.10055973229E+01  0.88747487414E+01 -0.37623245899E+02  0.38668863746E+02  0.51100000000E-03 0.  1.
         12    1    3    3    0    0 -0.15147204221E+00  0.11804558260E+01 -0.94395404573E+00  0.15190355417E+01  0.00000000000E+00 0. -1.
</event>
<event>
 7    1  0.2313935E-008  0.4614232E+02  0.7816164E-02  0.1320468E+00
        -11   -1    0    0    0    0  0.00000000000E+00  0.00000000000E+00  0.45593999997E+02  0.45594000000E+02  0.51100000000E-03 0. -1.
         11   -1    0    0    0    0 -0.00000000000E+00 -0.00000000000E+00 -0.45593999997E+02  0.45594000000E+02  0.51100000000E-03 0.  1.
    9900012    2    1    2    0    0  0.16816406899E+02  0.30367310659E+02 -0.28707984382E+02  0.46142318022E+02  0.10000002375E+02 0.  0.
         12    1    1    2    0    0 -0.16816406899E+02 -0.30367310659E+02  0.28707984382E+02  0.45045681978E+02  0.00000000000E+00 0. -1.
         11    1    3    3    0    0  0.28393236004E+01  0.13332355642E+01 -0.30526837103E+01  0.43770028185E+01  0.51100000000E-03 0. -1.
        -11    1    3    3    0    0  0.10607328246E+02  0.22762406218E+02 -0.16028644115E+02  0.29791944914E+02  0.51100000000E-03 0.  1.
        -12    1    3    3    0    0  0.33697550520E+01  0.62716688771E+01 -0.96266565569E+01  0.11973370289E+02  0.00000000000E+00 0.  1.
</event>
<event>
 7    1  0.2313935E-008  0.4614232E+02  0.7816164E-02  0.1320468E+00
        -11   -1    0    0    0    0  0.00000000000E+00  0.00000000000E+00  0.45593999997E+02  0.45594000000E+02  0.51100000000E-03 0.  1.
         11   -1    0    0    0    0 -0.00000000000E+00 -0.00000000000E+00 -0.45593999997E+02  0.45594000000E+02  0.51100000000E-03 0. -1.
    9900012    2    1    2    0    0  0.15183122212E+02  0.55899837828E+01  0.42039723858E+02  0.46142317622E+02  0.99999987314E+01 0.  0.
         12    1    1    2    0    0 -0.15183122212E+02 -0.55899837828E+01 -0.42039723858E+02  0.45045682378E+02  0.00000000000E+00 0. -1.
         11    1    3    3    0    0  0.23101718901E+01 -0.97697817359E+00  0.33523870844E+01  0.41868699453E+01  0.51100000000E-03 0. -1.
        -11    1    3    3    0    0  0.98934582103E+01  0.17312371863E+01  0.19352685770E+02  0.21803764453E+02  0.51100000000E-03 0.  1.
         12    1    3    3    0    0  0.29794921119E+01  0.48357247701E+01  0.19334651004E+02  0.20151683224E+02  0.00000000000E+00 0. -1.
</event>
<event>
 7    1  0.2313935E-008  0.4614232E+02  0.7816164E-02  0.1320468E+00
        -11   -1    0    0    0    0  0.00000000000E+00  0.00000000000E+00  0.45593999997E+02  0.45594000000E+02  0.51100000000E-03 0. -1.
         11   -1    0    0    0    0 -0.00000000000E+00 -0.00000000000E+00 -0.45593999997E+02  0.45594000000E+02  0.51100000000E-03 0.  1.
    9900012    2    1    2    0    0  0.44994171395E+02  0.13147064816E+01 -0.17057539197E+01  0.46142317531E+02  0.99999979035E+01 0.  0.
         12    1    1    2    0    0 -0.44994171395E+02 -0.13147064816E+01  0.17057539197E+01  0.45045682469E+02  0.00000000000E+00 0. -1.
         11    1    3    3    0    0  0.63593597515E+01 -0.47220940975E+00 -0.25343022421E+00  0.63819013871E+01  0.51100000000E-03 0. -1.
        -11    1    3    3    0    0  0.21016393288E+02 -0.37465856786E+00 -0.51214228750E+01  0.21634651104E+02  0.51100000000E-03 0.  1.
        -12    1    3    3    0    0  0.17618418355E+02  0.21615744592E+01  0.36690991795E+01  0.18125765040E+02  0.00000000000E+00 0.  1.
</event>
<event>
 7    1  0.2313935E-008  0.4614232E+02  0.7816164E-02  0.1320468E+00
        -11   -1    0    0    0    0  0.00000000000E+00  0.00000000000E+00  0.45593999997E+02  0.45594000000E+02  0.51100000000E-03 0.  1.
         11   -1    0    0    0    0 -0.00000000000E+00 -0.00000000000E+00 -0.45593999997E+02  0.45594000000E+02  0.51100000000E-03 0. -1.
    9900012    2    1    2    0    0  0.21194591045E+02 -0.29148845212E+02  0.27023088931E+02  0.46142320938E+02  0.10000028969E+02 0.  0.
         12    1    1    2    0    0 -0.21194591045E+02  0.29148845212E+02 -0.27023088931E+02  0.45045679062E+02  0.00000000000E+00 0. -1.
         11    1    3    3    0    0 -0.70077943976E+00 -0.23898791154E+01  0.98530867612E+00  0.26783292288E+01  0.51100000000E-03 0. -1.
        -11    1    3    3    0    0  0.10839301347E+02 -0.15238260623E+02  0.12138447934E+02  0.22294325713E+02  0.51100000000E-03 0.  1.
         12    1    3    3    0    0  0.11056069138E+02 -0.11520705474E+02  0.13899332321E+02  0.21169665996E+02  0.00000000000E+00 0. -1.
</event>
<event>
 7    1  0.2313935E-008  0.4614232E+02  0.7816164E-02  0.1320468E+00
        -11   -1    0    0    0    0  0.00000000000E+00  0.00000000000E+00  0.45593999997E+02  0.45594000000E+02  0.51100000000E-03 0.  1.
         11   -1    0    0    0    0 -0.00000000000E+00 -0.00000000000E+00 -0.45593999997E+02  0.45594000000E+02  0.51100000000E-03 0. -1.
    9900012    2    1    2    0    0 -0.55911012617E+01  0.39200356915E+02  0.21475221098E+02  0.46142317446E+02  0.99999971248E+01 0.  0.
         12    1    1    2    0    0  0.55911012617E+01 -0.39200356915E+02 -0.21475221098E+02  0.45045682554E+02  0.00000000000E+00 0. -1.
         11    1    3    3    0    0 -0.19585627057E+01  0.48930667701E+01  0.53311533086E+01  0.74966169804E+01  0.51100000000E-03 0. -1.
        -11    1    3    3    0    0 -0.58867520466E+00  0.13403411979E+01 -0.55484505905E+00  0.15655370721E+01  0.51100000000E-03 0.  1.
        -12    1    3    3    0    0 -0.30438633513E+01  0.32966948947E+02  0.16698912849E+02  0.37080163393E+02  0.00000000000E+00 0.  1.
</event>
<event>
 7    1  0.2313935E-008  0.4614232E+02  0.7816164E-02  0.1320468E+00
        -11   -1    0    0    0    0  0.00000000000E+00  0.00000000000E+00  0.45593999997E+02  0.45594000000E+02  0.51100000000E-03 0.  1.
         11   -1    0    0    0    0 -0.00000000000E+00 -0.00000000000E+00 -0.45593999997E+02  0.45594000000E+02  0.51100000000E-03 0. -1.
    9900012    2    1    2    0    0 -0.34836855075E+02  0.36870419325E+01  0.28318060840E+02  0.46142319636E+02  0.10000017094E+02 0.  0.
         12    1    1    2    0    0  0.34836855075E+02 -0.36870419325E+01 -0.28318060840E+02  0.45045680364E+02  0.00000000000E+00 0. -1.
         11    1    3    3    0    0 -0.26144853865E+01  0.96832322226E+00  0.23513603270E+01  0.36472015776E+01  0.51100000000E-03 0. -1.
        -11    1    3    3    0    0 -0.69440657051E+01 -0.14138326258E+01  0.10191432279E+02  0.12413068249E+02  0.51100000000E-03 0.  1.
         12    1    3    3    0    0 -0.25278303984E+02  0.41325513360E+01  0.15775268234E+02  0.30082049809E+02  0.00000000000E+00 0. -1.
</event>
<event>
 7    1  0.2313935E-008  0.4614232E+02  0.7816164E-02  0.1320468E+00
        -11   -1    0    0    0    0  0.00000000000E+00  0.00000000000E+00  0.45593999997E+02  0.45594000000E+02  0.51100000000E-03 0.  1.
         11   -1    0    0    0    0 -0.00000000000E+00 -0.00000000000E+00 -0.45593999997E+02  0.45594000000E+02  0.51100000000E-03 0. -1.
    9900012    2    1    2    0    0 -0.15292718660E+02 -0.29396837337E+02  0.30513474198E+02  0.46142318775E+02  0.10000009244E+02 0.  0.
         12    1    1    2    0    0  0.15292718660E+02  0.29396837337E+02 -0.30513474198E+02  0.45045681225E+02  0.00000000000E+00 0. -1.
         11    1    3    3    0    0 -0.35398057249E+01 -0.50529381875E+01  0.35000087353E+01  0.70931283864E+01  0.51100000000E-03 0.  1.
        -11    1    3    3    0    0 -0.48759225977E+00 -0.94990831406E+01  0.80359096288E+01  0.12451753714E+02  0.51100000000E-03 0. -1.
        -12    1    3    3    0    0 -0.11265320675E+02 -0.14844816009E+02  0.18977555834E+02  0.26597436675E+02  0.00000000000E+00 0.  1.
</event>
<event>
 7    1  0.2313935E-008  0.4614232E+02  0.7816164E-02  0.1320468E+00
        -11   -1    0    0    0    0  0.00000000000E+00  0.00000000000E+00  0.45593999997E+02  0.45594000000E+02  0.51100000000E-03 0.  1.
         11   -1    0    0    0    0 -0.00000000000E+00 -0.00000000000E+00 -0.45593999997E+02  0.45594000000E+02  0.51100000000E-03 0. -1.
    9900012    2    1    2    0    0  0.33159691825E+02 -0.17447736559E+02  0.25002494269E+02  0.46142318824E+02  0.10000009688E+02 0.  0.
         12    1    1    2    0    0 -0.33159691825E+02  0.17447736559E+02 -0.25002494269E+02  0.45045681176E+02  0.00000000000E+00 0. -1.
         11    1    3    3    0    0  0.66441007963E+01 -0.53126680662E+01  0.73413511119E+01  0.11236723445E+02  0.51100000000E-03 0.  1.
        -11    1    3    3    0    0  0.11338905077E+02 -0.23405811237E+01  0.99487351494E+01  0.15265202903E+02  0.51100000000E-03 0. -1.
         12    1    3    3    0    0  0.15176685951E+02 -0.97944873690E+01  0.77124080081E+01  0.19640392475E+02  0.00000000000E+00 0. -1.
</event>
<event>
 7    1  0.2313935E-008  0.4614232E+02  0.7816164E-02  0.1320468E+00
        -11   -1    0    0    0    0  0.00000000000E+00  0.00000000000E+00  0.45593999997E+02  0.45594000000E+02  0.51100000000E-03 0.  1.
         11   -1    0    0    0    0 -0.00000000000E+00 -0.00000000000E+00 -0.45593999997E+02  0.45594000000E+02  0.51100000000E-03 0. -1.
    9900012    2    1    2    0    0 -0.78833271344E+00 -0.23023242321E+02  0.38709460003E+02  0.46142318196E+02  0.10000003966E+02 0.  0.
         12    1    1    2    0    0  0.78833271344E+00  0.23023242321E+02 -0.38709460003E+02  0.45045681804E+02  0.00000000000E+00 0. -1.
         11    1    3    3    0    0 -0.35054449492E+00  0.11315180293E-01  0.11915064875E+01  0.12420537215E+01  0.51100000000E-03 0. -1.
        -11    1    3    3    0    0 -0.22006104914E+01 -0.11780168255E+02  0.26351464533E+02  0.28948484140E+02  0.51100000000E-03 0.  1.
         12    1    3    3    0    0  0.17628222729E+01 -0.11254389246E+02  0.11166488982E+02  0.15951780335E+02  0.00000000000E+00 0. -1.
</event>
<event>
 7    1  0.2313935E-008  0.4614232E+02  0.7816164E-02  0.1320468E+00
        -11   -1    0    0    0    0  0.00000000000E+00  0.00000000000E+00  0.45593999997E+02  0.45594000000E+02  0.51100000000E-03 0. -1.
         11   -1    0    0    0    0 -0.00000000000E+00 -0.00000000000E+00 -0.45593999997E+02  0.45594000000E+02  0.51100000000E-03 0.  1.
    9900012    2    1    2    0    0  0.14973100897E+02 -0.36772329327E+02  0.21277112460E+02  0.46142317974E+02  0.10000001941E+02 0.  0.
         12    1    1    2    0    0 -0.14973100897E+02  0.36772329327E+02 -0.21277112460E+02  0.45045682026E+02  0.00000000000E+00 0. -1.
         11    1    3    3    0    0  0.79064241069E+01 -0.14645184368E+02  0.75749709149E+01  0.18285873016E+02  0.51100000000E-03 0. -1.
        -11    1    3    3    0    0  0.21042142055E+01 -0.89702153492E+01  0.17002970138E+01  0.93692844460E+01  0.51100000000E-03 0.  1.
         12    1    3    3    0    0  0.49624625845E+01 -0.13156929609E+02  0.12001844531E+02  0.18487160512E+02  0.00000000000E+00 0. -1.
</event>
<event>
 7    1  0.2313935E-008  0.4614231E+02  0.7816164E-02  0.1320468E+00
        -11   -1    0    0    0    0  0.00000000000E+00  0.00000000000E+00  0.45593999997E+02  0.45594000000E+02  0.51100000000E-03 0. -1.
         11   -1    0    0    0    0 -0.00000000000E+00 -0.00000000000E+00 -0.45593999997E+02  0.45594000000E+02  0.51100000000E-03 0.  1.
    9900012    2    1    2    0    0 -0.27502037372E+02  0.27458991750E+02 -0.22776216911E+02  0.46142308260E+02  0.99999133620E+01 0.  0.
         12    1    1    2    0    0  0.27502037372E+02 -0.27458991750E+02  0.22776216911E+02  0.45045691740E+02  0.00000000000E+00 0. -1.
         11    1    3    3    0    0 -0.76477085119E+01  0.97661967843E+01 -0.67337964393E+01  0.14114179390E+02  0.51100000000E-03 0. -1.
        -11    1    3    3    0    0 -0.96249389241E+01  0.10534460017E+02 -0.12701784830E+02  0.19103655024E+02  0.51100000000E-03 0.  1.
         12    1    3    3    0    0 -0.10229389936E+02  0.71583349485E+01 -0.33406356417E+01  0.12924473846E+02  0.00000000000E+00 0. -1.
</event>
<event>
 7    1  0.2313935E-008  0.4614232E+02  0.7816164E-02  0.1320468E+00
        -11   -1    0    0    0    0  0.00000000000E+00  0.00000000000E+00  0.45593999997E+02  0.45594000000E+02  0.51100000000E-03 0.  1.
         11   -1    0    0    0    0 -0.00000000000E+00 -0.00000000000E+00 -0.45593999997E+02  0.45594000000E+02  0.51100000000E-03 0. -1.
    9900012    2    1    2    0    0  0.83729962222E+01  0.13174542699E+02  0.42254442784E+02  0.46142316788E+02  0.99999911233E+01 0.  0.
         12    1    1    2    0    0 -0.83729962222E+01 -0.13174542699E+02 -0.42254442784E+02  0.45045683212E+02  0.00000000000E+00 0. -1.
         11    1    3    3    0    0  0.19718310736E+01  0.28360357173E+00  0.15018802594E+01  0.24948333298E+01  0.51100000000E-03 0. -1.
        -11    1    3    3    0    0  0.22340313771E+01  0.93214454192E+01  0.19947372792E+02  0.22130926832E+02  0.51100000000E-03 0.  1.
        -12    1    3    3    0    0  0.41671337715E+01  0.35694937083E+01  0.20805189733E+02  0.21516556625E+02  0.00000000000E+00 0.  1.
</event>
<event>
 7    1  0.2313935E-008  0.4614232E+02  0.7816164E-02  0.1320468E+00
        -11   -1    0    0    0    0  0.00000000000E+00  0.00000000000E+00  0.45593999997E+02  0.45594000000E+02  0.51100000000E-03 0.  1.
         11   -1    0    0    0    0 -0.00000000000E+00 -0.00000000000E+00 -0.45593999997E+02  0.45594000000E+02  0.51100000000E-03 0. -1.
    9900012    2    1    2    0    0 -0.30090085034E+02 -0.20187595081E+02  0.26761188362E+02  0.46142318575E+02  0.10000007418E+02 0.  0.
         12    1    1    2    0    0  0.30090085034E+02  0.20187595081E+02 -0.26761188362E+02  0.45045681425E+02  0.00000000000E+00 0. -1.
         11    1    3    3    0    0 -0.25778255680E+01  0.41560898525E+00  0.69882631359E+00  0.27030120173E+01  0.51100000000E-03 0. -1.
        -11    1    3    3    0    0 -0.56891523837E+01 -0.18634250666E+01  0.45994686526E+01  0.75494317648E+01  0.51100000000E-03 0.  1.
         12    1    3    3    0    0 -0.21823107082E+02 -0.18739779000E+02  0.21462893396E+02  0.35889874793E+02  0.00000000000E+00 0. -1.
</event>
<event>
 7    1  0.2313935E-008  0.4614232E+02  0.7816164E-02  0.1320468E+00
        -11   -1    0    0    0    0  0.00000000000E+00  0.00000000000E+00  0.45593999997E+02  0.45594000000E+02  0.51100000000E-03 0.  1.
         11   -1    0    0    0    0 -0.00000000000E+00 -0.00000000000E+00 -0.45593999997E+02  0.45594000000E+02  0.51100000000E-03 0. -1.
    9900012    2    1    2    0    0  0.30550061037E+02  0.31273261971E+02  0.10853124467E+02  0.46142318138E+02  0.10000003440E+02 0.  0.
         12    1    1    2    0    0 -0.30550061037E+02 -0.31273261971E+02 -0.10853124467E+02  0.45045681862E+02  0.00000000000E+00 0. -1.
         11    1    3    3    0    0  0.20582239327E+02  0.16803951050E+02  0.44453647163E+01  0.26939981706E+02  0.51100000000E-03 0.  1.
        -11    1    3    3    0    0 -0.22717889779E-01  0.27392128704E+00 -0.45893245675E+00  0.53494694596E+00  0.51100000000E-03 0. -1.
        -12    1    3    3    0    0  0.99905395997E+01  0.14195389634E+02  0.68666922076E+01  0.18667389486E+02  0.00000000000E+00 0.  1.
</event>
<event>
 7    1  0.2313935E-008  0.4614232E+02  0.7816164E-02  0.1320468E+00
        -11   -1    0    0    0    0  0.00000000000E+00  0.00000000000E+00  0.45593999997E+02  0.45594000000E+02  0.51100000000E-03 0.  1.
         11   -1    0    0    0    0 -0.00000000000E+00 -0.00000000000E+00 -0.45593999997E+02  0.45594000000E+02  0.51100000000E-03 0. -1.
    9900012    2    1    2    0    0  0.21181876898E+02  0.10837953451E+02  0.38248925414E+02  0.46142318307E+02  0.10000004975E+02 0.  0.
         12    1    1    2    0    0 -0.21181876898E+02 -0.10837953451E+02 -0.38248925414E+02  0.45045681693E+02  0.00000000000E+00 0. -1.
         11    1    3    3    0    0  0.12349191726E+02  0.35554098690E+01  0.26932208919E+02  0.29841034720E+02  0.51100000000E-03 0. -1.
        -11    1    3    3    0    0  0.36949738826E+01  0.22131911491E+01  0.57607897319E+01  0.71928954985E+01  0.51100000000E-03 0.  1.
         12    1    3    3    0    0  0.51377112894E+01  0.50693524325E+01  0.55559267623E+01  0.91083880883E+01  0.00000000000E+00 0. -1.
</event>
<event>
 7    1  0.2313935E-008  0.4614232E+02  0.7816164E-02  0.1320468E+00
        -11   -1    0    0    0    0  0.00000000000E+00  0.00000000000E+00  0.45593999997E+02  0.45594000000E+02  0.51100000000E-03 0.  1.
         11   -1    0    0    0    0 -0.00000000000E+00 -0.00000000000E+00 -0.45593999997E+02  0.45594000000E+02  0.51100000000E-03 0. -1.
    9900012    2    1    2    0    0  0.27229810582E+02 -0.16233607901E+02  0.32001889873E+02  0.46142316908E+02  0.99999922194E+01 0.  0.
         12    1    1    2    0    0 -0.27229810582E+02  0.16233607901E+02 -0.32001889873E+02  0.45045683092E+02  0.00000000000E+00 0. -1.
         11    1    3    3    0    0  0.54445969783E+01 -0.57778700388E+01  0.42643771558E+01  0.90117884589E+01  0.51100000000E-03 0. -1.
        -11    1    3    3    0    0  0.19095237879E+02 -0.10631449782E+02  0.23361662813E+02  0.31990985040E+02  0.51100000000E-03 0.  1.
        -12    1    3    3    0    0  0.26899757240E+01  0.17571192009E+00  0.43758499039E+01  0.51395434093E+01  0.00000000000E+00 0.  1.
</event>
<event>
 7    1  0.2313935E-008  0.4614232E+02  0.7816164E-02  0.1320468E+00
        -11   -1    0    0    0    0  0.00000000000E+00  0.00000000000E+00  0.45593999997E+02  0.45594000000E+02  0.51100000000E-03 0. -1.
         11   -1    0    0    0    0 -0.00000000000E+00 -0.00000000000E+00 -0.45593999997E+02  0.45594000000E+02  0.51100000000E-03 0.  1.
    9900012    2    1    2    0    0  0.19598436009E+02  0.93201840495E+01 -0.39473397177E+02  0.46142316418E+02  0.99999877499E+01 0.  0.
         12    1    1    2    0    0 -0.19598436009E+02 -0.93201840495E+01  0.39473397177E+02  0.45045683582E+02  0.00000000000E+00 0. -1.
         11    1    3    3    0    0  0.81295196565E+01  0.16482423509E+01 -0.79251141736E+01  0.11472280838E+02  0.51100000000E-03 0. -1.
        -11    1    3    3    0    0  0.67596498461E+01  0.50186311757E+01 -0.14296089176E+02  0.16590891806E+02  0.51100000000E-03 0.  1.
         12    1    3    3    0    0  0.47092665063E+01  0.26533105229E+01 -0.17252193828E+02  0.18079143775E+02  0.00000000000E+00 0. -1.
</event>
<event>
 7    1  0.2313935E-008  0.4614232E+02  0.7816164E-02  0.1320468E+00
        -11   -1    0    0    0    0  0.00000000000E+00  0.00000000000E+00  0.45593999997E+02  0.45594000000E+02  0.51100000000E-03 0.  1.
         11   -1    0    0    0    0 -0.00000000000E+00 -0.00000000000E+00 -0.45593999997E+02  0.45594000000E+02  0.51100000000E-03 0. -1.
    9900012    2    1    2    0    0 -0.19432931127E+01  0.32816687008E+02  0.30796136667E+02  0.46142319099E+02  0.10000012197E+02 0.  0.
         12    1    1    2    0    0  0.19432931127E+01 -0.32816687008E+02 -0.30796136667E+02  0.45045680901E+02  0.00000000000E+00 0. -1.
         11    1    3    3    0    0  0.31020336865E+01  0.11348386102E+02  0.83432930682E+01  0.14422864472E+02  0.51100000000E-03 0. -1.
        -11    1    3    3    0    0 -0.45208231507E+01  0.10993832231E+02  0.12753158198E+02  0.17434025163E+02  0.51100000000E-03 0.  1.
        -12    1    3    3    0    0 -0.52450364846E+00  0.10474468675E+02  0.96996854000E+01  0.14285429464E+02  0.00000000000E+00 0.  1.
</event>
<event>
 7    1  0.2313935E-008  0.4614232E+02  0.7816164E-02  0.1320468E+00
        -11   -1    0    0    0    0  0.00000000000E+00  0.00000000000E+00  0.45593999997E+02  0.45594000000E+02  0.51100000000E-03 0.  1.
         11   -1    0    0    0    0 -0.00000000000E+00 -0.00000000000E+00 -0.45593999997E+02  0.45594000000E+02  0.51100000000E-03 0. -1.
    9900012    2    1    2    0    0  0.33958991019E+02  0.15993233408E+02  0.24902149574E+02  0.46142316086E+02  0.99999847246E+01 0.  0.
         12    1    1    2    0    0 -0.33958991019E+02 -0.15993233408E+02 -0.24902149574E+02  0.45045683914E+02  0.00000000000E+00 0. -1.
         11    1    3    3    0    0  0.30369526906E+01  0.39288522463E+00 -0.57308459818E+00  0.31154239940E+01  0.51100000000E-03 0. -1.
        -11    1    3    3    0    0  0.24562208987E+02  0.11629090336E+02  0.20073046033E+02  0.33785574283E+02  0.51100000000E-03 0.  1.
         12    1    3    3    0    0  0.63598293412E+01  0.39712578481E+01  0.54021881397E+01  0.92413178087E+01  0.00000000000E+00 0. -1.
</event>
<event>
 7    1  0.2313935E-008  0.4614232E+02  0.7816164E-02  0.1320468E+00
        -11   -1    0    0    0    0  0.00000000000E+00  0.00000000000E+00  0.45593999997E+02  0.45594000000E+02  0.51100000000E-03 0.  1.
         11   -1    0    0    0    0 -0.00000000000E+00 -0.00000000000E+00 -0.45593999997E+02  0.45594000000E+02  0.51100000000E-03 0. -1.
    9900012    2    1    2    0    0  0.49938637896E+01 -0.12546631868E+02  0.42973910423E+02  0.46142316258E+02  0.99999862912E+01 0.  0.
         12    1    1    2    0    0 -0.49938637896E+01  0.12546631868E+02 -0.42973910423E+02  0.45045683742E+02  0.00000000000E+00 0. -1.
         11    1    3    3    0    0 -0.89275963020E+00 -0.49138035422E+01  0.14948943422E+02  0.15761135578E+02  0.51100000000E-03 0. -1.
        -11    1    3    3    0    0  0.18844562612E+01 -0.67089369644E+01  0.22093143876E+02  0.23166096287E+02  0.51100000000E-03 0.  1.
        -12    1    3    3    0    0  0.40021671586E+01 -0.92389136181E+00  0.59318231246E+01  0.72150843928E+01  0.00000000000E+00 0.  1.
</event>
<event>
 7    1  0.2313935E-008  0.4614232E+02  0.7816164E-02  0.1320468E+00
        -11   -1    0    0    0    0  0.00000000000E+00  0.00000000000E+00  0.45593999997E+02  0.45594000000E+02  0.51100000000E-03 0. -1.
         11   -1    0    0    0    0 -0.00000000000E+00 -0.00000000000E+00 -0.45593999997E+02  0.45594000000E+02  0.51100000000E-03 0.  1.
    9900012    2    1    2    0    0 -0.46368145931E+01  0.44132911709E+02  0.77394819666E+01  0.46142317337E+02  0.99999961345E+01 0.  0.
         12    1    1    2    0    0  0.46368145931E+01 -0.44132911709E+02 -0.77394819666E+01  0.45045682663E+02  0.00000000000E+00 0. -1.
         11    1    3    3    0    0  0.62967695308E+00  0.86895180117E+01  0.42897565840E+00  0.87228571419E+01  0.51100000000E-03 0. -1.
        -11    1    3    3    0    0 -0.45150117221E+01  0.31525375308E+02  0.89889472523E+01  0.33091325029E+02  0.51100000000E-03 0.  1.
         12    1    3    3    0    0 -0.75147982400E+00  0.39180183884E+01 -0.16784409441E+01  0.43281351667E+01  0.00000000000E+00 0. -1.
</event>
<event>
 7    1  0.2313935E-008  0.4614231E+02  0.7816164E-02  0.1320468E+00
        -11   -1    0    0    0    0  0.00000000000E+00  0.00000000000E+00  0.45593999997E+02  0.45594000000E+02  0.51100000000E-03 0.  1.
         11   -1    0    0    0    0 -0.00000000000E+00 -0.00000000000E+00 -0.45593999997E+02  0.45594000000E+02  0.51100000000E-03 0. -1.
    9900012    2    1    2    0    0 -0.23369959335E+01 -0.32094011390E+02  0.31521846772E+02  0.46142312737E+02  0.99999541826E+01 0.  0.
         12    1    1    2    0    0  0.23369959335E+01  0.32094011390E+02 -0.31521846772E+02  0.45045687263E+02  0.00000000000E+00 0. -1.
         11    1    3    3    0    0 -0.39365237207E+01 -0.22359190341E+02  0.18221829042E+02  0.29111246377E+02  0.51100000000E-03 0.  1.
        -11    1    3    3    0    0  0.55551240605E+00 -0.76132866979E+01  0.12272719859E+02  0.14453040558E+02  0.51100000000E-03 0. -1.
        -12    1    3    3    0    0  0.10440153812E+01 -0.21215343511E+01  0.10272978716E+01  0.25780258020E+01  0.00000000000E+00 0.  1.
</event>
<event>
 7    1  0.2313935E-008  0.4614232E+02  0.7816164E-02  0.1320468E+00
        -11   -1    0    0    0    0  0.00000000000E+00  0.00000000000E+00  0.45593999997E+02  0.45594000000E+02  0.51100000000E-03 0.  1.
         11   -1    0    0    0    0 -0.00000000000E+00 -0.00000000000E+00 -0.45593999997E+02  0.45594000000E+02  0.51100000000E-03 0. -1.
    9900012    2    1    2    0    0 -0.44138456603E+02  0.57230102749E+01  0.69395440889E+01  0.46142317964E+02  0.10000001849E+02 0.  0.
         12    1    1    2    0    0  0.44138456603E+02 -0.57230102749E+01 -0.69395440889E+01  0.45045682036E+02  0.00000000000E+00 0. -1.
         11    1    3    3    0    0 -0.16232423595E+02  0.20980178353E+01  0.46089732071E+01  0.17003996263E+02  0.51100000000E-03 0. -1.
        -11    1    3    3    0    0 -0.28016555759E+02  0.36551165185E+01  0.30424224078E+01  0.28417311761E+02  0.51100000000E-03 0.  1.
         12    1    3    3    0    0  0.11052275102E+00 -0.30124078824E-01 -0.71185152599E+00  0.72100994007E+00  0.00000000000E+00 0. -1.
</event>
<event>
 7    1  0.2313935E-008  0.4614232E+02  0.7816164E-02  0.1320468E+00
        -11   -1    0    0    0    0  0.00000000000E+00  0.00000000000E+00  0.45593999997E+02  0.45594000000E+02  0.51100000000E-03 0.  1.
         11   -1    0    0    0    0 -0.00000000000E+00 -0.00000000000E+00 -0.45593999997E+02  0.45594000000E+02  0.51100000000E-03 0. -1.
    9900012    2    1    2    0    0  0.17290799343E+02  0.35204007519E+02  0.22154448606E+02  0.46142317850E+02  0.10000000811E+02 0.  0.
         12    1    1    2    0    0 -0.17290799343E+02 -0.35204007519E+02 -0.22154448606E+02  0.45045682150E+02  0.00000000000E+00 0. -1.
         11    1    3    3    0    0  0.41404092222E+01  0.49946122222E+01  0.76713470167E+01  0.10046825623E+02  0.51100000000E-03 0. -1.
        -11    1    3    3    0    0  0.34920177046E+01  0.11227598934E+02  0.48072003413E+01  0.12702847746E+02  0.51100000000E-03 0.  1.
        -12    1    3    3    0    0  0.96583724161E+01  0.18981796363E+02  0.96759012481E+01  0.23392644482E+02  0.00000000000E+00 0.  1.
</event>
<event>
 7    1  0.2313935E-008  0.4614232E+02  0.7816164E-02  0.1320468E+00
        -11   -1    0    0    0    0  0.00000000000E+00  0.00000000000E+00  0.45593999997E+02  0.45594000000E+02  0.51100000000E-03 0.  1.
         11   -1    0    0    0    0 -0.00000000000E+00 -0.00000000000E+00 -0.45593999997E+02  0.45594000000E+02  0.51100000000E-03 0. -1.
    9900012    2    1    2    0    0 -0.15517996136E+02  0.14812361837E+02  0.39609331767E+02  0.46142318406E+02  0.10000005878E+02 0.  0.
         12    1    1    2    0    0  0.15517996136E+02 -0.14812361837E+02 -0.39609331767E+02  0.45045681594E+02  0.00000000000E+00 0. -1.
         11    1    3    3    0    0 -0.96842095627E+00  0.60150801341E+01  0.87860804348E+01  0.10691783660E+02  0.51100000000E-03 0. -1.
        -11    1    3    3    0    0 -0.29969292039E+01  0.35428411253E+01  0.61474302071E+01  0.77022208684E+01  0.51100000000E-03 0.  1.
        -12    1    3    3    0    0 -0.11552645975E+02  0.52544405773E+01  0.24675821125E+02  0.27748313877E+02  0.00000000000E+00 0.  1.
</event>
<event>
 7    1  0.2313935E-008  0.4614232E+02  0.7816164E-02  0.1320468E+00
        -11   -1    0    0    0    0  0.00000000000E+00  0.00000000000E+00  0.45593999997E+02  0.45594000000E+02  0.51100000000E-03 0.  1.
         11   -1    0    0    0    0 -0.00000000000E+00 -0.00000000000E+00 -0.45593999997E+02  0.45594000000E+02  0.51100000000E-03 0. -1.
    9900012    2    1    2    0    0 -0.33738685779E+02 -0.21133682035E+02  0.21075627571E+02  0.46142317499E+02  0.99999976104E+01 0.  0.
         12    1    1    2    0    0  0.33738685779E+02  0.21133682035E+02 -0.21075627571E+02  0.45045682501E+02  0.00000000000E+00 0. -1.
         11    1    3    3    0    0 -0.88275365806E+01 -0.11556367237E+01  0.36495929650E+01  0.96218723433E+01  0.51100000000E-03 0. -1.
        -11    1    3    3    0    0 -0.16772599683E+02 -0.12856914283E+02  0.13155857451E+02  0.24893712671E+02  0.51100000000E-03 0.  1.
         12    1    3    3    0    0 -0.81385495154E+01 -0.71211310286E+01  0.42701771547E+01  0.11626732485E+02  0.00000000000E+00 0. -1.
</event>
<event>
 7    1  0.2313935E-008  0.4614232E+02  0.7816164E-02  0.1320468E+00
        -11   -1    0    0    0    0  0.00000000000E+00  0.00000000000E+00  0.45593999997E+02  0.45594000000E+02  0.51100000000E-03 0.  1.
         11   -1    0    0    0    0 -0.00000000000E+00 -0.00000000000E+00 -0.45593999997E+02  0.45594000000E+02  0.51100000000E-03 0. -1.
    9900012    2    1    2    0    0 -0.96200753656E+01  0.52386919676E+01  0.43693521581E+02  0.46142316836E+02  0.99999915600E+01 0.  0.
         12    1    1    2    0    0  0.96200753656E+01 -0.52386919676E+01 -0.43693521581E+02  0.45045683164E+02  0.00000000000E+00 0. -1.
         11    1    3    3    0    0 -0.49584036932E+01  0.39666300909E+01  0.94202975902E+01  0.11360542611E+02  0.51100000000E-03 0. -1.
        -11    1    3    3    0    0 -0.32702744460E+01  0.24534089470E+01  0.24710895187E+02  0.25046801225E+02  0.51100000000E-03 0.  1.
         12    1    3    3    0    0 -0.13913972264E+01 -0.11813470703E+01  0.95623288044E+01  0.97349729997E+01  0.00000000000E+00 0. -1.
</event>
<event>
 7    1  0.2313935E-008  0.4614232E+02  0.7816164E-02  0.1320468E+00
        -11   -1    0    0    0    0  0.00000000000E+00  0.00000000000E+00  0.45593999997E+02  0.45594000000E+02  0.51100000000E-03 0.  1.
         11   -1    0    0    0    0 -0.00000000000E+00 -0.00000000000E+00 -0.45593999997E+02  0.45594000000E+02  0.51100000000E-03 0. -1.
    9900012    2    1    2    0    0  0.17504907014E+02 -0.36137136303E+02 -0.20415657634E+02  0.46142318005E+02  0.10000002225E+02 0.  0.
         12    1    1    2    0    0 -0.17504907014E+02  0.36137136303E+02  0.20415657634E+02  0.45045681995E+02  0.00000000000E+00 0. -1.
         11    1    3    3    0    0  0.39492989249E+01 -0.14243287288E+02 -0.32779258068E+01  0.15139781789E+02  0.51100000000E-03 0. -1.
        -11    1    3    3    0    0  0.82512647801E+01 -0.12145275428E+02 -0.87641986209E+01  0.17099773783E+02  0.51100000000E-03 0.  1.
         12    1    3    3    0    0  0.53043433089E+01 -0.97485735875E+01 -0.83735332060E+01  0.13902762433E+02  0.00000000000E+00 0. -1.
</event>
<event>
 7    1  0.2313935E-008  0.4614232E+02  0.7816164E-02  0.1320468E+00
        -11   -1    0    0    0    0  0.00000000000E+00  0.00000000000E+00  0.45593999997E+02  0.45594000000E+02  0.51100000000E-03 0.  1.
         11   -1    0    0    0    0 -0.00000000000E+00 -0.00000000000E+00 -0.45593999997E+02  0.45594000000E+02  0.51100000000E-03 0. -1.
    9900012    2    1    2    0    0  0.30979673746E+02  0.29486942957E+01  0.32568055965E+02  0.46142320376E+02  0.10000023846E+02 0.  0.
         12    1    1    2    0    0 -0.30979673746E+02 -0.29486942957E+01 -0.32568055965E+02  0.45045679624E+02  0.00000000000E+00 0. -1.
         11    1    3    3    0    0  0.19365223581E+01 -0.10609410733E+00  0.55772036131E+01  0.59047925625E+01  0.51100000000E-03 0. -1.
        -11    1    3    3    0    0  0.71031037117E+01  0.34425449940E+01  0.68085594821E+01  0.10424091368E+02  0.51100000000E-03 0.  1.
        -12    1    3    3    0    0  0.21940047676E+02 -0.38775659100E+00  0.20182292870E+02  0.29813436445E+02  0.00000000000E+00 0.  1.
</event>
<event>
 7    1  0.2313935E-008  0.4614232E+02  0.7816164E-02  0.1320468E+00
        -11   -1    0    0    0    0  0.00000000000E+00  0.00000000000E+00  0.45593999997E+02  0.45594000000E+02  0.51100000000E-03 0. -1.
         11   -1    0    0    0    0 -0.00000000000E+00 -0.00000000000E+00 -0.45593999997E+02  0.45594000000E+02  0.51100000000E-03 0.  1.
    9900012    2    1    2    0    0 -0.28911378316E+02 -0.10606775402E+02 -0.32874640059E+02  0.46142318303E+02  0.10000004938E+02 0.  0.
         12    1    1    2    0    0  0.28911378316E+02  0.10606775402E+02  0.32874640059E+02  0.45045681697E+02  0.00000000000E+00 0. -1.
         11    1    3    3    0    0 -0.40241996030E+01  0.37593960003E+00 -0.80820408571E+01  0.90363099606E+01  0.51100000000E-03 0. -1.
        -11    1    3    3    0    0 -0.18172602278E+02 -0.98831166682E+01 -0.20080675991E+02  0.28829724542E+02  0.51100000000E-03 0.  1.
         12    1    3    3    0    0 -0.67145764346E+01 -0.10995983339E+01 -0.47119232107E+01  0.82762837998E+01  0.00000000000E+00 0. -1.
</event>
<event>
 7    1  0.2313935E-008  0.4614232E+02  0.7816164E-02  0.1320468E+00
        -11   -1    0    0    0    0  0.00000000000E+00  0.00000000000E+00  0.45593999997E+02  0.45594000000E+02  0.51100000000E-03 0. -1.
         11   -1    0    0    0    0 -0.00000000000E+00 -0.00000000000E+00 -0.45593999997E+02  0.45594000000E+02  0.51100000000E-03 0.  1.
    9900012    2    1    2    0    0 -0.92348782625E+01 -0.22185760978E+02 -0.38100163438E+02  0.46142318513E+02  0.10000006854E+02 0.  0.
         12    1    1    2    0    0  0.92348782625E+01  0.22185760978E+02  0.38100163438E+02  0.45045681487E+02  0.00000000000E+00 0. -1.
         11    1    3    3    0    0  0.10030014530E+01 -0.21498672820E+01 -0.34682855759E+01  0.42020169374E+01  0.51100000000E-03 0. -1.
        -11    1    3    3    0    0 -0.20356503952E+01 -0.29319721648E+00 -0.16550251321E+01  0.26398760555E+01  0.51100000000E-03 0.  1.
        -12    1    3    3    0    0 -0.82022293203E+01 -0.19742696479E+02 -0.32976852729E+02  0.39300425520E+02  0.00000000000E+00 0.  1.
</event>
<event>
 7    1  0.2313935E-008  0.4614232E+02  0.7816164E-02  0.1320468E+00
        -11   -1    0    0    0    0  0.00000000000E+00  0.00000000000E+00  0.45593999997E+02  0.45594000000E+02  0.51100000000E-03 0. -1.
         11   -1    0    0    0    0 -0.00000000000E+00 -0.00000000000E+00 -0.45593999997E+02  0.45594000000E+02  0.51100000000E-03 0.  1.
    9900012    2    1    2    0    0  0.31326303634E+02  0.14836663374E+02 -0.28768900790E+02  0.46142317275E+02  0.99999955683E+01 0.  0.
         12    1    1    2    0    0 -0.31326303634E+02 -0.14836663374E+02  0.28768900790E+02  0.45045682725E+02  0.00000000000E+00 0. -1.
         11    1    3    3    0    0  0.25575766863E+01  0.43155349709E+01 -0.24408305254E+01  0.55787717740E+01  0.51100000000E-03 0. -1.
        -11    1    3    3    0    0  0.21313570052E+01  0.85648135203E+00 -0.34479501466E+01  0.41430186416E+01  0.51100000000E-03 0.  1.
        -12    1    3    3    0    0  0.26637369943E+02  0.96646470509E+01 -0.22880120118E+02  0.36420526860E+02  0.00000000000E+00 0.  1.
</event>
<event>
 7    1  0.2313935E-008  0.4614232E+02  0.7816164E-02  0.1320468E+00
        -11   -1    0    0    0    0  0.00000000000E+00  0.00000000000E+00  0.45593999997E+02  0.45594000000E+02  0.51100000000E-03 0.  1.
         11   -1    0    0    0    0 -0.00000000000E+00 -0.00000000000E+00 -0.45593999997E+02  0.45594000000E+02  0.51100000000E-03 0. -1.
    9900012    2    1    2    0    0 -0.40262268296E+02 -0.95522900898E+01  0.17799353877E+02  0.46142317712E+02  0.99999995561E+01 0.  0.
         12    1    1    2    0    0  0.40262268296E+02  0.95522900898E+01 -0.17799353877E+02  0.45045682288E+02  0.00000000000E+00 0. -1.
         11    1    3    3    0    0  0.25113139413E+00  0.39824349353E+00  0.10162926727E+01  0.11200517465E+01  0.51100000000E-03 0. -1.
        -11    1    3    3    0    0 -0.26713286194E+02 -0.58594405556E+01  0.11868230190E+02  0.29812540835E+02  0.51100000000E-03 0.  1.
        -12    1    3    3    0    0 -0.13800113496E+02 -0.40910930278E+01  0.49148310145E+01  0.15209725131E+02  0.00000000000E+00 0.  1.
</event>
<event>
 7    1  0.2313935E-008  0.4614232E+02  0.7816164E-02  0.1320468E+00
        -11   -1    0    0    0    0  0.00000000000E+00  0.00000000000E+00  0.45593999997E+02  0.45594000000E+02  0.51100000000E-03 0.  1.
         11   -1    0    0    0    0 -0.00000000000E+00 -0.00000000000E+00 -0.45593999997E+02  0.45594000000E+02  0.51100000000E-03 0. -1.
    9900012    2    1    2    0    0 -0.10766358640E+02  0.36356246622E+02  0.24319176345E+02  0.46142317800E+02  0.10000000352E+02 0.  0.
         12    1    1    2    0    0  0.10766358640E+02 -0.36356246622E+02 -0.24319176345E+02  0.45045682200E+02  0.00000000000E+00 0. -1.
         11    1    3    3    0    0  0.32302057505E+00  0.28642118263E+01  0.30903225017E+01  0.42258898593E+01  0.51100000000E-03 0. -1.
        -11    1    3    3    0    0  0.10461511767E+01  0.27175674248E+01  0.28428851351E+01  0.40695947152E+01  0.51100000000E-03 0.  1.
        -12    1    3    3    0    0 -0.12135530392E+02  0.30774467371E+02  0.18385968708E+02  0.37846833225E+02  0.00000000000E+00 0.  1.
</event>
<event>
 7    1  0.2313935E-008  0.4614232E+02  0.7816164E-02  0.1320468E+00
        -11   -1    0    0    0    0  0.00000000000E+00  0.00000000000E+00  0.45593999997E+02  0.45594000000E+02  0.51100000000E-03 0.  1.
         11   -1    0    0    0    0 -0.00000000000E+00 -0.00000000000E+00 -0.45593999997E+02  0.45594000000E+02  0.51100000000E-03 0. -1.
    9900012    2    1    2    0    0  0.34329378450E+02 -0.24209047065E+02  0.16264357353E+02  0.46142317581E+02  0.99999983535E+01 0.  0.
         12    1    1    2    0    0 -0.34329378450E+02  0.24209047065E+02 -0.16264357353E+02  0.45045682419E+02  0.00000000000E+00 0. -1.
         11    1    3    3    0    0  0.22204357255E+02 -0.14925499878E+02  0.68080192732E+01  0.27607121444E+02  0.51100000000E-03 0. -1.
        -11    1    3    3    0    0  0.50088988797E+01 -0.44843341876E+01  0.16258856723E+01  0.69167785546E+01  0.51100000000E-03 0.  1.
         12    1    3    3    0    0  0.71161223152E+01 -0.47992129991E+01  0.78304524072E+01  0.11618417582E+02  0.00000000000E+00 0. -1.
</event>
<event>
 7    1  0.2313935E-008  0.4614232E+02  0.7816164E-02  0.1320468E+00
        -11   -1    0    0    0    0  0.00000000000E+00  0.00000000000E+00  0.45593999997E+02  0.45594000000E+02  0.51100000000E-03 0.  1.
         11   -1    0    0    0    0 -0.00000000000E+00 -0.00000000000E+00 -0.45593999997E+02  0.45594000000E+02  0.51100000000E-03 0. -1.
    9900012    2    1    2    0    0 -0.31858402747E+02 -0.31502172400E+02  0.46656989235E+01  0.46142318320E+02  0.10000005100E+02 0.  0.
         12    1    1    2    0    0  0.31858402747E+02  0.31502172400E+02 -0.46656989235E+01  0.45045681680E+02  0.00000000000E+00 0. -1.
         11    1    3    3    0    0 -0.16156211297E+02 -0.14009978053E+02 -0.87799301405E-01  0.21384816050E+02  0.51100000000E-03 0. -1.
        -11    1    3    3    0    0 -0.41972471878E+01 -0.28669252006E+01 -0.11953892787E+01  0.52215993575E+01  0.51100000000E-03 0.  1.
        -12    1    3    3    0    0 -0.11504944263E+02 -0.14625269146E+02  0.59488875036E+01  0.19535902913E+02  0.00000000000E+00 0.  1.
</event>
<event>
 7    1  0.2313935E-008  0.4614232E+02  0.7816164E-02  0.1320468E+00
        -11   -1    0    0    0    0  0.00000000000E+00  0.00000000000E+00  0.45593999997E+02  0.45594000000E+02  0.51100000000E-03 0.  1.
         11   -1    0    0    0    0 -0.00000000000E+00 -0.00000000000E+00 -0.45593999997E+02  0.45594000000E+02  0.51100000000E-03 0. -1.
    9900012    2    1    2    0    0  0.95716984830E+01  0.34221146066E+02  0.27684097136E+02  0.46142317808E+02  0.10000000428E+02 0.  0.
         12    1    1    2    0    0 -0.95716984830E+01 -0.34221146066E+02 -0.27684097136E+02  0.45045682192E+02  0.00000000000E+00 0. -1.
         11    1    3    3    0    0  0.55400605425E+01  0.19179421493E+02  0.12062221781E+02  0.23324658072E+02  0.51100000000E-03 0. -1.
        -11    1    3    3    0    0 -0.13170527506E+01  0.14275846972E+01  0.25117286116E+01  0.31751231306E+01  0.51100000000E-03 0.  1.
        -12    1    3    3    0    0  0.53486906910E+01  0.13614139876E+02  0.13110146743E+02  0.19642536606E+02  0.00000000000E+00 0.  1.
</event>
<event>
 7    1  0.2313935E-008  0.4614232E+02  0.7816164E-02  0.1320468E+00
        -11   -1    0    0    0    0  0.00000000000E+00  0.00000000000E+00  0.45593999997E+02  0.45594000000E+02  0.51100000000E-03 0. -1.
         11   -1    0    0    0    0 -0.00000000000E+00 -0.00000000000E+00 -0.45593999997E+02  0.45594000000E+02  0.51100000000E-03 0.  1.
    9900012    2    1    2    0    0  0.33281751376E+02 -0.30261787953E+02  0.23796112674E+01  0.46142319468E+02  0.10000015565E+02 0.  0.
         12    1    1    2    0    0 -0.33281751376E+02  0.30261787953E+02 -0.23796112674E+01  0.45045680532E+02  0.00000000000E+00 0. -1.
         11    1    3    3    0    0  0.79149054643E+01 -0.42888066533E+01  0.11363522420E+01  0.90736369608E+01  0.51100000000E-03 0. -1.
        -11    1    3    3    0    0  0.87711641373E+01 -0.14235980721E+02  0.57554450335E+00  0.16731040588E+02  0.51100000000E-03 0.  1.
         12    1    3    3    0    0  0.16595681775E+02 -0.11737000579E+02  0.66771452200E+00  0.20337641919E+02  0.00000000000E+00 0. -1.
</event>
<event>
 7    1  0.2313935E-008  0.4614232E+02  0.7816164E-02  0.1320468E+00
        -11   -1    0    0    0    0  0.00000000000E+00  0.00000000000E+00  0.45593999997E+02  0.45594000000E+02  0.51100000000E-03 0.  1.
         11   -1    0    0    0    0 -0.00000000000E+00 -0.00000000000E+00 -0.45593999997E+02  0.45594000000E+02  0.51100000000E-03 0. -1.
    9900012    2    1    2    0    0  0.26760653509E+02  0.29868041163E+00  0.36233845871E+02  0.46142319043E+02  0.10000011692E+02 0.  0.
         12    1    1    2    0    0 -0.26760653509E+02 -0.29868041163E+00 -0.36233845871E+02  0.45045680957E+02  0.00000000000E+00 0. -1.
         11    1    3    3    0    0  0.39187901933E+01 -0.20558544577E+01  0.10799436847E+02  0.11670959284E+02  0.51100000000E-03 0. -1.
        -11    1    3    3    0    0  0.36405863726E+01  0.16203664900E+00  0.62833864347E+01  0.72636815982E+01  0.51100000000E-03 0.  1.
         12    1    3    3    0    0  0.19201276943E+02  0.21924982203E+01  0.19151022590E+02  0.27207678161E+02  0.00000000000E+00 0. -1.
</event>
<event>
 7    1  0.2313935E-008  0.4614232E+02  0.7816164E-02  0.1320468E+00
        -11   -1    0    0    0    0  0.00000000000E+00  0.00000000000E+00  0.45593999997E+02  0.45594000000E+02  0.51100000000E-03 0.  1.
         11   -1    0    0    0    0 -0.00000000000E+00 -0.00000000000E+00 -0.45593999997E+02  0.45594000000E+02  0.51100000000E-03 0. -1.
    9900012    2    1    2    0    0  0.23829444043E+02  0.35028578928E+02  0.15305874054E+02  0.46142317347E+02  0.99999962248E+01 0.  0.
         12    1    1    2    0    0 -0.23829444043E+02 -0.35028578928E+02 -0.15305874054E+02  0.45045682653E+02  0.00000000000E+00 0. -1.
         11    1    3    3    0    0  0.31731784928E+01  0.38689532464E+01  0.11118483837E+01  0.51258236469E+01  0.51100000000E-03 0. -1.
        -11    1    3    3    0    0  0.80789181793E+01  0.19245146350E+02  0.52636946835E+01  0.21525590792E+02  0.51100000000E-03 0.  1.
         12    1    3    3    0    0  0.12577347371E+02  0.11914479332E+02  0.89303309865E+01  0.19490902908E+02  0.00000000000E+00 0. -1.
</event>
<event>
 7    1  0.2313935E-008  0.4614232E+02  0.7816164E-02  0.1320468E+00
        -11   -1    0    0    0    0  0.00000000000E+00  0.00000000000E+00  0.45593999997E+02  0.45594000000E+02  0.51100000000E-03 0. -1.
         11   -1    0    0    0    0 -0.00000000000E+00 -0.00000000000E+00 -0.45593999997E+02  0.45594000000E+02  0.51100000000E-03 0.  1.
    9900012    2    1    2    0    0  0.29802835369E+02 -0.48997208971E+01 -0.33420012303E+02  0.46142317818E+02  0.10000000522E+02 0.  0.
         12    1    1    2    0    0 -0.29802835369E+02  0.48997208971E+01  0.33420012303E+02  0.45045682182E+02  0.00000000000E+00 0. -1.
         11    1    3    3    0    0  0.31428890260E+01 -0.12162577233E+01 -0.56647418608E+01  0.65913833821E+01  0.51100000000E-03 0. -1.
        -11    1    3    3    0    0  0.24479645512E+02 -0.73582385445E+00 -0.24622967250E+02  0.34728734466E+02  0.51100000000E-03 0.  1.
        -12    1    3    3    0    0  0.21803008312E+01 -0.29476393193E+01 -0.31323031914E+01  0.48221999704E+01  0.00000000000E+00 0.  1.
</event>
<event>
 7    1  0.2313935E-008  0.4614232E+02  0.7816164E-02  0.1320468E+00
        -11   -1    0    0    0    0  0.00000000000E+00  0.00000000000E+00  0.45593999997E+02  0.45594000000E+02  0.51100000000E-03 0.  1.
         11   -1    0    0    0    0 -0.00000000000E+00 -0.00000000000E+00 -0.45593999997E+02  0.45594000000E+02  0.51100000000E-03 0. -1.
    9900012    2    1    2    0    0  0.22112270031E+02 -0.48130925945E+01  0.38948621312E+02  0.46142318205E+02  0.10000004047E+02 0.  0.
         12    1    1    2    0    0 -0.22112270031E+02  0.48130925945E+01 -0.38948621312E+02  0.45045681795E+02  0.00000000000E+00 0. -1.
         11    1    3    3    0    0  0.10500167883E+02 -0.24821813105E+01  0.18334703268E+02  0.21273835898E+02  0.51100000000E-03 0. -1.
        -11    1    3    3    0    0  0.76636857537E+01 -0.31344323106E+01  0.18608963377E+02  0.20367873317E+02  0.51100000000E-03 0.  1.
         12    1    3    3    0    0  0.39484163941E+01  0.80352102658E+00  0.20049546682E+01  0.45006089902E+01  0.00000000000E+00 0. -1.
</event>
<event>
 7    1  0.2313935E-008  0.4614232E+02  0.7816164E-02  0.1320468E+00
        -11   -1    0    0    0    0  0.00000000000E+00  0.00000000000E+00  0.45593999997E+02  0.45594000000E+02  0.51100000000E-03 0. -1.
         11   -1    0    0    0    0 -0.00000000000E+00 -0.00000000000E+00 -0.45593999997E+02  0.45594000000E+02  0.51100000000E-03 0.  1.
    9900012    2    1    2    0    0 -0.15450114186E+02 -0.40527134971E+02 -0.12163829754E+02  0.46142318170E+02  0.10000003725E+02 0.  0.
         12    1    1    2    0    0  0.15450114186E+02  0.40527134971E+02  0.12163829754E+02  0.45045681830E+02  0.00000000000E+00 0. -1.
         11    1    3    3    0    0 -0.19580932721E+01 -0.68232879621E+00 -0.12525451594E+01  0.24225134645E+01  0.51100000000E-03 0. -1.
        -11    1    3    3    0    0 -0.25477234552E+01 -0.32782627793E+01 -0.72430073881E+00  0.42145597013E+01  0.51100000000E-03 0.  1.
         12    1    3    3    0    0 -0.10944297459E+02 -0.36566543395E+02 -0.10186983856E+02  0.39505245004E+02  0.00000000000E+00 0. -1.
</event>
<event>
 7    1  0.2313935E-008  0.4614232E+02  0.7816164E-02  0.1320468E+00
        -11   -1    0    0    0    0  0.00000000000E+00  0.00000000000E+00  0.45593999997E+02  0.45594000000E+02  0.51100000000E-03 0.  1.
         11   -1    0    0    0    0 -0.00000000000E+00 -0.00000000000E+00 -0.45593999997E+02  0.45594000000E+02  0.51100000000E-03 0. -1.
    9900012    2    1    2    0    0  0.20629189503E+02 -0.37162349499E+02  0.14916765136E+02  0.46142316944E+02  0.99999925479E+01 0.  0.
         12    1    1    2    0    0 -0.20629189503E+02  0.37162349499E+02 -0.14916765136E+02  0.45045683056E+02  0.00000000000E+00 0. -1.
         11    1    3    3    0    0  0.22522994749E+01 -0.62841961452E+01  0.44556289083E+01  0.80259954738E+01  0.51100000000E-03 0. -1.
        -11    1    3    3    0    0  0.70537321464E+01 -0.17853453394E+02  0.74799965981E+01  0.20602215527E+02  0.51100000000E-03 0.  1.
         12    1    3    3    0    0  0.11323157882E+02 -0.13024699961E+02  0.29811396297E+01  0.17514105943E+02  0.00000000000E+00 0. -1.
</event>
<event>
 7    1  0.2313935E-008  0.4614231E+02  0.7816164E-02  0.1320468E+00
        -11   -1    0    0    0    0  0.00000000000E+00  0.00000000000E+00  0.45593999997E+02  0.45594000000E+02  0.51100000000E-03 0.  1.
         11   -1    0    0    0    0 -0.00000000000E+00 -0.00000000000E+00 -0.45593999997E+02  0.45594000000E+02  0.51100000000E-03 0. -1.
    9900012    2    1    2    0    0  0.27916494007E+02  0.13120974173E+02  0.32827175722E+02  0.46142311341E+02  0.99999414570E+01 0.  0.
         12    1    1    2    0    0 -0.27916494007E+02 -0.13120974173E+02 -0.32827175722E+02  0.45045688659E+02  0.00000000000E+00 0. -1.
         11    1    3    3    0    0  0.51088650059E+01  0.57175547454E+01  0.83837007324E+01  0.11361222300E+02  0.51100000000E-03 0.  1.
        -11    1    3    3    0    0  0.16941675370E+02  0.65565099309E+01  0.21551319351E+02  0.28186300801E+02  0.51100000000E-03 0. -1.
         12    1    3    3    0    0  0.58659536309E+01  0.84690949619E+00  0.28921556387E+01  0.65947882402E+01  0.00000000000E+00 0. -1.
</event>
<event>
 7    1  0.2313935E-008  0.4614231E+02  0.7816164E-02  0.1320468E+00
        -11   -1    0    0    0    0  0.00000000000E+00  0.00000000000E+00  0.45593999997E+02  0.45594000000E+02  0.51100000000E-03 0.  1.
         11   -1    0    0    0    0 -0.00000000000E+00 -0.00000000000E+00 -0.45593999997E+02  0.45594000000E+02  0.51100000000E-03 0. -1.
    9900012    2    1    2    0    0 -0.34072030568E+02  0.15603010064E+02  0.24995143125E+02  0.46142307976E+02  0.99999107730E+01 0.  0.
         12    1    1    2    0    0  0.34072030568E+02 -0.15603010064E+02 -0.24995143125E+02  0.45045692024E+02  0.00000000000E+00 0. -1.
         11    1    3    3    0    0 -0.24389758939E+02  0.11352325237E+02  0.13694774298E+02  0.30187455553E+02  0.51100000000E-03 0.  1.
        -11    1    3    3    0    0 -0.73120254263E+01  0.46762428460E+01  0.75817254487E+01  0.11524561772E+02  0.51100000000E-03 0. -1.
         12    1    3    3    0    0 -0.23702462027E+01 -0.42555801960E+00  0.37186433777E+01  0.44302906519E+01  0.00000000000E+00 0. -1.
</event>
<event>
 7    1  0.2313935E-008  0.4614232E+02  0.7816164E-02  0.1320468E+00
        -11   -1    0    0    0    0  0.00000000000E+00  0.00000000000E+00  0.45593999997E+02  0.45594000000E+02  0.51100000000E-03 0. -1.
         11   -1    0    0    0    0 -0.00000000000E+00 -0.00000000000E+00 -0.45593999997E+02  0.45594000000E+02  0.51100000000E-03 0.  1.
    9900012    2    1    2    0    0  0.35587315135E+02  0.25380221323E+02 -0.10885811099E+02  0.46142317452E+02  0.99999971805E+01 0.  0.
         12    1    1    2    0    0 -0.35587315135E+02 -0.25380221323E+02  0.10885811099E+02  0.45045682548E+02  0.00000000000E+00 0. -1.
         11    1    3    3    0    0  0.17544703424E+01  0.45531684009E+00 -0.21806084099E+00  0.18256588944E+01  0.51100000000E-03 0. -1.
        -11    1    3    3    0    0  0.28127900735E+02  0.21511315533E+02 -0.12273275115E+02  0.37477310176E+02  0.51100000000E-03 0.  1.
        -12    1    3    3    0    0  0.57049440580E+01  0.34135889496E+01  0.16055248562E+01  0.68393483817E+01  0.00000000000E+00 0.  1.
</event>
<event>
 7    1  0.2313935E-008  0.4614232E+02  0.7816164E-02  0.1320468E+00
        -11   -1    0    0    0    0  0.00000000000E+00  0.00000000000E+00  0.45593999997E+02  0.45594000000E+02  0.51100000000E-03 0. -1.
         11   -1    0    0    0    0 -0.00000000000E+00 -0.00000000000E+00 -0.45593999997E+02  0.45594000000E+02  0.51100000000E-03 0.  1.
    9900012    2    1    2    0    0  0.42245028294E+02  0.91361877691E+01 -0.12688621898E+02  0.46142317985E+02  0.10000002043E+02 0.  0.
         12    1    1    2    0    0 -0.42245028294E+02 -0.91361877691E+01  0.12688621898E+02  0.45045682015E+02  0.00000000000E+00 0. -1.
         11    1    3    3    0    0  0.11609581914E+02 -0.46330187113E+00 -0.15013740144E+01  0.11715424236E+02  0.51100000000E-03 0. -1.
        -11    1    3    3    0    0  0.93438471504E+01  0.44525128120E+01 -0.14360379600E+01  0.10449619859E+02  0.51100000000E-03 0.  1.
        -12    1    3    3    0    0  0.21291599230E+02  0.51469768283E+01 -0.97512099237E+01  0.23977273890E+02  0.00000000000E+00 0.  1.
</event>
<event>
 7    1  0.2313935E-008  0.4614232E+02  0.7816164E-02  0.1320468E+00
        -11   -1    0    0    0    0  0.00000000000E+00  0.00000000000E+00  0.45593999997E+02  0.45594000000E+02  0.51100000000E-03 0. -1.
         11   -1    0    0    0    0 -0.00000000000E+00 -0.00000000000E+00 -0.45593999997E+02  0.45594000000E+02  0.51100000000E-03 0.  1.
    9900012    2    1    2    0    0 -0.19346233683E+02 -0.48507550602E+00 -0.40676793706E+02  0.46142316498E+02  0.99999884820E+01 0.  0.
         12    1    1    2    0    0  0.19346233683E+02  0.48507550602E+00  0.40676793706E+02  0.45045683502E+02  0.00000000000E+00 0. -1.
         11    1    3    3    0    0 -0.69287222393E+01  0.37030910038E+01 -0.13216385720E+02  0.15375074849E+02  0.51100000000E-03 0. -1.
        -11    1    3    3    0    0 -0.82577609013E+01 -0.54823222557E+00 -0.14892692734E+02  0.17037707322E+02  0.51100000000E-03 0.  1.
        -12    1    3    3    0    0 -0.41597505423E+01 -0.36399342842E+01 -0.12567715252E+02  0.13729534326E+02  0.00000000000E+00 0.  1.
</event>
<event>
 7    1  0.2313935E-008  0.4614232E+02  0.7816164E-02  0.1320468E+00
        -11   -1    0    0    0    0  0.00000000000E+00  0.00000000000E+00  0.45593999997E+02  0.45594000000E+02  0.51100000000E-03 0.  1.
         11   -1    0    0    0    0 -0.00000000000E+00 -0.00000000000E+00 -0.45593999997E+02  0.45594000000E+02  0.51100000000E-03 0. -1.
    9900012    2    1    2    0    0  0.29933264828E+01 -0.23030908560E+02  0.38597028910E+02  0.46142318817E+02  0.10000009627E+02 0.  0.
         12    1    1    2    0    0 -0.29933264828E+01  0.23030908560E+02 -0.38597028910E+02  0.45045681183E+02  0.00000000000E+00 0. -1.
         11    1    3    3    0    0 -0.20096919379E+01 -0.33744888316E+01  0.40080642417E+01  0.56116500057E+01  0.51100000000E-03 0. -1.
        -11    1    3    3    0    0  0.54046901661E+01 -0.15995210818E+02  0.31432644111E+02  0.35680086337E+02  0.51100000000E-03 0.  1.
         12    1    3    3    0    0 -0.40167174541E+00 -0.36612089110E+01  0.31563205575E+01  0.48505824746E+01  0.00000000000E+00 0. -1.
</event>
<event>
 7    1  0.2313935E-008  0.4614232E+02  0.7816164E-02  0.1320468E+00
        -11   -1    0    0    0    0  0.00000000000E+00  0.00000000000E+00  0.45593999997E+02  0.45594000000E+02  0.51100000000E-03 0.  1.
         11   -1    0    0    0    0 -0.00000000000E+00 -0.00000000000E+00 -0.45593999997E+02  0.45594000000E+02  0.51100000000E-03 0. -1.
    9900012    2    1    2    0    0 -0.39667716383E+02  0.93865623425E+01  0.19169721298E+02  0.46142317740E+02  0.99999998031E+01 0.  0.
         12    1    1    2    0    0  0.39667716383E+02 -0.93865623425E+01 -0.19169721298E+02  0.45045682260E+02  0.00000000000E+00 0. -1.
         11    1    3    3    0    0 -0.75299079741E+01  0.39262495324E+01  0.22981787731E+01  0.87975323485E+01  0.51100000000E-03 0. -1.
        -11    1    3    3    0    0 -0.19605263611E+02  0.30100067204E+01  0.64351604978E+01  0.20852764628E+02  0.51100000000E-03 0.  1.
        -12    1    3    3    0    0 -0.12532544798E+02  0.24503060897E+01  0.10436382027E+02  0.16492020763E+02  0.00000000000E+00 0.  1.
</event>
<event>
 7    1  0.2313935E-008  0.4614231E+02  0.7816164E-02  0.1320468E+00
        -11   -1    0    0    0    0  0.00000000000E+00  0.00000000000E+00  0.45593999997E+02  0.45594000000E+02  0.51100000000E-03 0.  1.
         11   -1    0    0    0    0 -0.00000000000E+00 -0.00000000000E+00 -0.45593999997E+02  0.45594000000E+02  0.51100000000E-03 0. -1.
    9900012    2    1    2    0    0 -0.43387845731E+01  0.58025242660E+01  0.44459188463E+02  0.46142314544E+02  0.99999706659E+01 0.  0.
         12    1    1    2    0    0  0.43387845731E+01 -0.58025242660E+01 -0.44459188463E+02  0.45045685456E+02  0.00000000000E+00 0. -1.
         11    1    3    3    0    0  0.28395766868E+01  0.31967012359E+01  0.17231401046E+02  0.17753965101E+02  0.51100000000E-03 0. -1.
        -11    1    3    3    0    0 -0.19164944988E+01 -0.30669784208E+00  0.50677980375E+01  0.54267478236E+01  0.51100000000E-03 0.  1.
        -12    1    3    3    0    0 -0.52618667611E+01  0.29125208721E+01  0.22159989379E+02  0.22961601619E+02  0.00000000000E+00 0.  1.
</event>
<event>
 7    1  0.2313935E-008  0.4614232E+02  0.7816164E-02  0.1320468E+00
        -11   -1    0    0    0    0  0.00000000000E+00  0.00000000000E+00  0.45593999997E+02  0.45594000000E+02  0.51100000000E-03 0.  1.
         11   -1    0    0    0    0 -0.00000000000E+00 -0.00000000000E+00 -0.45593999997E+02  0.45594000000E+02  0.51100000000E-03 0. -1.
    9900012    2    1    2    0    0  0.30291032136E+02  0.31623967381E+02  0.10558955914E+02  0.46142317735E+02  0.99999997608E+01 0.  0.
         12    1    1    2    0    0 -0.30291032136E+02 -0.31623967381E+02 -0.10558955914E+02  0.45045682265E+02  0.00000000000E+00 0. -1.
         11    1    3    3    0    0  0.91826354787E+01  0.99276265645E+01 -0.25399913872E+00  0.13525645248E+02  0.51100000000E-03 0. -1.
        -11    1    3    3    0    0  0.17507188184E+02  0.17290524851E+02  0.64255151304E+01  0.25431302222E+02  0.51100000000E-03 0.  1.
         12    1    3    3    0    0  0.36012084731E+01  0.44058159647E+01  0.43874399222E+01  0.71853702656E+01  0.00000000000E+00 0. -1.
</event>
<event>
 7    1  0.2313935E-008  0.4614232E+02  0.7816164E-02  0.1320468E+00
        -11   -1    0    0    0    0  0.00000000000E+00  0.00000000000E+00  0.45593999997E+02  0.45594000000E+02  0.51100000000E-03 0.  1.
         11   -1    0    0    0    0 -0.00000000000E+00 -0.00000000000E+00 -0.45593999997E+02  0.45594000000E+02  0.51100000000E-03 0. -1.
    9900012    2    1    2    0    0  0.39052993249E+02  0.38066993459E+01  0.22124334624E+02  0.46142318473E+02  0.10000006492E+02 0.  0.
         12    1    1    2    0    0 -0.39052993249E+02 -0.38066993459E+01 -0.22124334624E+02  0.45045681527E+02  0.00000000000E+00 0. -1.
         11    1    3    3    0    0  0.18373144180E+01 -0.14033427941E+01  0.27360736944E+01  0.35820657156E+01  0.51100000000E-03 0. -1.
        -11    1    3    3    0    0 -0.16478907302E-01  0.24364343908E+00 -0.74661345548E-01  0.25535907548E+00  0.51100000000E-03 0.  1.
        -12    1    3    3    0    0  0.37232157739E+02  0.49663987009E+01  0.19462922276E+02  0.42304893682E+02  0.00000000000E+00 0.  1.
</event>
<event>
 7    1  0.2313935E-008  0.4614232E+02  0.7816164E-02  0.1320468E+00
        -11   -1    0    0    0    0  0.00000000000E+00  0.00000000000E+00  0.45593999997E+02  0.45594000000E+02  0.51100000000E-03 0. -1.
         11   -1    0    0    0    0 -0.00000000000E+00 -0.00000000000E+00 -0.45593999997E+02  0.45594000000E+02  0.51100000000E-03 0.  1.
    9900012    2    1    2    0    0 -0.13973950525E+02 -0.20040451358E+02 -0.37844716433E+02  0.46142317123E+02  0.99999941846E+01 0.  0.
         12    1    1    2    0    0  0.13973950525E+02  0.20040451358E+02  0.37844716433E+02  0.45045682877E+02  0.00000000000E+00 0. -1.
         11    1    3    3    0    0 -0.24365224778E+01 -0.69906646984E+01 -0.75383571882E+01  0.10565645464E+02  0.51100000000E-03 0. -1.
        -11    1    3    3    0    0 -0.21241709171E+01 -0.69274600026E+01 -0.96759978869E+01  0.12088289355E+02  0.51100000000E-03 0.  1.
        -12    1    3    3    0    0 -0.94132571303E+01 -0.61223266570E+01 -0.20630361358E+02  0.23488382304E+02  0.00000000000E+00 0.  1.
</event>
<event>
 7    1  0.2313935E-008  0.4614232E+02  0.7816164E-02  0.1320468E+00
        -11   -1    0    0    0    0  0.00000000000E+00  0.00000000000E+00  0.45593999997E+02  0.45594000000E+02  0.51100000000E-03 0.  1.
         11   -1    0    0    0    0 -0.00000000000E+00 -0.00000000000E+00 -0.45593999997E+02  0.45594000000E+02  0.51100000000E-03 0. -1.
    9900012    2    1    2    0    0 -0.15716800023E+02  0.27134770191E+02  0.32338830388E+02  0.46142317553E+02  0.99999980979E+01 0.  0.
         12    1    1    2    0    0  0.15716800023E+02 -0.27134770191E+02 -0.32338830388E+02  0.45045682447E+02  0.00000000000E+00 0. -1.
         11    1    3    3    0    0  0.12979856395E+00  0.20424812595E+01  0.34168732066E+00  0.20749283961E+01  0.51100000000E-03 0. -1.
        -11    1    3    3    0    0 -0.80597461170E+01  0.12123054546E+02  0.20121235313E+02  0.24835298866E+02  0.51100000000E-03 0.  1.
         12    1    3    3    0    0 -0.77868524703E+01  0.12969234385E+02  0.11875907754E+02  0.19232090290E+02  0.00000000000E+00 0. -1.
</event>
<event>
 7    1  0.2313935E-008  0.4614232E+02  0.7816164E-02  0.1320468E+00
        -11   -1    0    0    0    0  0.00000000000E+00  0.00000000000E+00  0.45593999997E+02  0.45594000000E+02  0.51100000000E-03 0.  1.
         11   -1    0    0    0    0 -0.00000000000E+00 -0.00000000000E+00 -0.45593999997E+02  0.45594000000E+02  0.51100000000E-03 0. -1.
    9900012    2    1    2    0    0 -0.42324972387E+02 -0.25969722286E+01  0.15197549197E+02  0.46142322583E+02  0.10000043974E+02 0.  0.
         12    1    1    2    0    0  0.42324972387E+02  0.25969722286E+01 -0.15197549197E+02  0.45045677417E+02  0.00000000000E+00 0. -1.
         11    1    3    3    0    0 -0.12288923038E+02 -0.15468585983E+01  0.41990945010E+01  0.13078333069E+02  0.51100000000E-03 0. -1.
        -11    1    3    3    0    0 -0.30099270979E+02 -0.16169187547E+01  0.11541274046E+02  0.32276640882E+02  0.51100000000E-03 0.  1.
         12    1    3    3    0    0  0.63221630120E-01  0.56680512443E+00 -0.54281935013E+00  0.78734863337E+00  0.00000000000E+00 0. -1.
</event>
<event>
 7    1  0.2313935E-008  0.4614232E+02  0.7816164E-02  0.1320468E+00
        -11   -1    0    0    0    0  0.00000000000E+00  0.00000000000E+00  0.45593999997E+02  0.45594000000E+02  0.51100000000E-03 0.  1.
         11   -1    0    0    0    0 -0.00000000000E+00 -0.00000000000E+00 -0.45593999997E+02  0.45594000000E+02  0.51100000000E-03 0. -1.
    9900012    2    1    2    0    0 -0.26478447042E+02 -0.15729260449E+02  0.32872415247E+02  0.46142317896E+02  0.10000001229E+02 0.  0.
         12    1    1    2    0    0  0.26478447042E+02  0.15729260449E+02 -0.32872415247E+02  0.45045682104E+02  0.00000000000E+00 0. -1.
         11    1    3    3    0    0 -0.42460306271E+01 -0.45542786126E+01  0.23540701357E+01  0.66567166255E+01  0.51100000000E-03 0. -1.
        -11    1    3    3    0    0 -0.12250915309E+01  0.68866961904E-01  0.14336535099E+01  0.18870491687E+01  0.51100000000E-03 0.  1.
         12    1    3    3    0    0 -0.21007324884E+02 -0.11243848799E+02  0.29084691601E+02  0.37598552102E+02  0.00000000000E+00 0. -1.
</event>
<event>
 7    1  0.2313935E-008  0.4614231E+02  0.7816164E-02  0.1320468E+00
        -11   -1    0    0    0    0  0.00000000000E+00  0.00000000000E+00  0.45593999997E+02  0.45594000000E+02  0.51100000000E-03 0.  1.
         11   -1    0    0    0    0 -0.00000000000E+00 -0.00000000000E+00 -0.45593999997E+02  0.45594000000E+02  0.51100000000E-03 0. -1.
    9900012    2    1    2    0    0 -0.33048850027E+01 -0.34284656886E+02  0.29030233216E+02  0.46142307607E+02  0.99999074024E+01 0.  0.
         12    1    1    2    0    0  0.33048850027E+01  0.34284656886E+02 -0.29030233216E+02  0.45045692393E+02  0.00000000000E+00 0. -1.
         11    1    3    3    0    0  0.85186406994E+00 -0.14632162507E+02  0.11102442156E+02  0.18387225840E+02  0.51100000000E-03 0. -1.
        -11    1    3    3    0    0 -0.32359396483E+01 -0.19383645085E+02  0.15142150810E+02  0.24808904321E+02  0.51100000000E-03 0.  1.
        -12    1    3    3    0    0 -0.92080942435E+00 -0.26884929423E+00  0.27856402503E+01  0.29461774459E+01  0.00000000000E+00 0.  1.
</event>
<event>
 7    1  0.2313935E-008  0.4614232E+02  0.7816164E-02  0.1320468E+00
        -11   -1    0    0    0    0  0.00000000000E+00  0.00000000000E+00  0.45593999997E+02  0.45594000000E+02  0.51100000000E-03 0. -1.
         11   -1    0    0    0    0 -0.00000000000E+00 -0.00000000000E+00 -0.45593999997E+02  0.45594000000E+02  0.51100000000E-03 0.  1.
    9900012    2    1    2    0    0  0.39462955269E+02  0.10222466251E+02 -0.19164808316E+02  0.46142317270E+02  0.99999955209E+01 0.  0.
         12    1    1    2    0    0 -0.39462955269E+02 -0.10222466251E+02  0.19164808316E+02  0.45045682730E+02  0.00000000000E+00 0. -1.
         11    1    3    3    0    0  0.12742939450E+01 -0.35646484666E+00  0.53157330121E+00  0.14259953299E+01  0.51100000000E-03 0. -1.
        -11    1    3    3    0    0  0.58112606409E+01  0.20165305616E+01 -0.64156315812E+00  0.61845573236E+01  0.51100000000E-03 0.  1.
         12    1    3    3    0    0  0.32377400683E+02  0.85624005360E+01 -0.19054818459E+02  0.38531764616E+02  0.00000000000E+00 0. -1.
</event>
<event>
 7    1  0.2313935E-008  0.4614232E+02  0.7816164E-02  0.1320468E+00
        -11   -1    0    0    0    0  0.00000000000E+00  0.00000000000E+00  0.45593999997E+02  0.45594000000E+02  0.51100000000E-03 0.  1.
         11   -1    0    0    0    0 -0.00000000000E+00 -0.00000000000E+00 -0.45593999997E+02  0.45594000000E+02  0.51100000000E-03 0. -1.
    9900012    2    1    2    0    0  0.30347072799E+02 -0.67331133815E+01  0.32601133269E+02  0.46142317258E+02  0.99999954127E+01 0.  0.
         12    1    1    2    0    0 -0.30347072799E+02  0.67331133815E+01 -0.32601133269E+02  0.45045682742E+02  0.00000000000E+00 0. -1.
         11    1    3    3    0    0  0.10975291799E+02 -0.63385662107E+01  0.14872984211E+02  0.19540729548E+02  0.51100000000E-03 0. -1.
        -11    1    3    3    0    0  0.92311360199E+01 -0.20205147510E+01  0.70804599890E+01  0.11808017022E+02  0.51100000000E-03 0.  1.
         12    1    3    3    0    0  0.10140644979E+02  0.16259675802E+01  0.10647689069E+02  0.14793570688E+02  0.00000000000E+00 0. -1.
</event>
<event>
 7    1  0.2313935E-008  0.4614232E+02  0.7816164E-02  0.1320468E+00
        -11   -1    0    0    0    0  0.00000000000E+00  0.00000000000E+00  0.45593999997E+02  0.45594000000E+02  0.51100000000E-03 0.  1.
         11   -1    0    0    0    0 -0.00000000000E+00 -0.00000000000E+00 -0.45593999997E+02  0.45594000000E+02  0.51100000000E-03 0. -1.
    9900012    2    1    2    0    0  0.14710666499E+02 -0.36010609412E+02  0.22714441526E+02  0.46142317045E+02  0.99999934654E+01 0.  0.
         12    1    1    2    0    0 -0.14710666499E+02  0.36010609412E+02 -0.22714441526E+02  0.45045682955E+02  0.00000000000E+00 0. -1.
         11    1    3    3    0    0  0.89260240617E+01 -0.23496781657E+02  0.93397226329E+01  0.26814232655E+02  0.51100000000E-03 0.  1.
        -11    1    3    3    0    0  0.39061728936E+00 -0.10157595160E+01  0.20078954159E+01  0.22838549698E+01  0.51100000000E-03 0. -1.
        -12    1    3    3    0    0  0.53940251480E+01 -0.11498068240E+02  0.11366823477E+02  0.17044229419E+02  0.00000000000E+00 0.  1.
</event>
<event>
 7    1  0.2313935E-008  0.4614232E+02  0.7816164E-02  0.1320468E+00
        -11   -1    0    0    0    0  0.00000000000E+00  0.00000000000E+00  0.45593999997E+02  0.45594000000E+02  0.51100000000E-03 0. -1.
         11   -1    0    0    0    0 -0.00000000000E+00 -0.00000000000E+00 -0.45593999997E+02  0.45594000000E+02  0.51100000000E-03 0.  1.
    9900012    2    1    2    0    0  0.32193610589E+02 -0.28246539663E+02 -0.13957720653E+02  0.46142317282E+02  0.99999956325E+01 0.  0.
         12    1    1    2    0    0 -0.32193610589E+02  0.28246539663E+02  0.13957720653E+02  0.45045682718E+02  0.00000000000E+00 0. -1.
         11    1    3    3    0    0  0.14497688769E+02 -0.99242785805E+01 -0.41279089607E+01  0.18047546028E+02  0.51100000000E-03 0. -1.
        -11    1    3    3    0    0  0.17229522996E+02 -0.18532144112E+02 -0.85384896598E+01  0.26705853927E+02  0.51100000000E-03 0.  1.
         12    1    3    3    0    0  0.46639882362E+00  0.20988302937E+00 -0.12913220322E+01  0.13889173263E+01  0.00000000000E+00 0. -1.
</event>
<event>
 7    1  0.2313935E-008  0.4614232E+02  0.7816164E-02  0.1320468E+00
        -11   -1    0    0    0    0  0.00000000000E+00  0.00000000000E+00  0.45593999997E+02  0.45594000000E+02  0.51100000000E-03 0.  1.
         11   -1    0    0    0    0 -0.00000000000E+00 -0.00000000000E+00 -0.45593999997E+02  0.45594000000E+02  0.51100000000E-03 0. -1.
    9900012    2    1    2    0    0 -0.14430051135E+02 -0.11056412179E+02  0.41214594783E+02  0.46142318196E+02  0.10000003970E+02 0.  0.
         12    1    1    2    0    0  0.14430051135E+02  0.11056412179E+02 -0.41214594783E+02  0.45045681804E+02  0.00000000000E+00 0. -1.
         11    1    3    3    0    0 -0.17853899524E+01 -0.89915907461E+00  0.11860354447E+01  0.23243890941E+01  0.51100000000E-03 0. -1.
        -11    1    3    3    0    0 -0.80801228437E+01 -0.20688069414E+01  0.22203141289E+02  0.23718090789E+02  0.51100000000E-03 0.  1.
         12    1    3    3    0    0 -0.45645383386E+01 -0.80884461631E+01  0.17825418049E+02  0.20099838313E+02  0.00000000000E+00 0. -1.
</event>
<event>
 7    1  0.2313935E-008  0.4614232E+02  0.7816164E-02  0.1320468E+00
        -11   -1    0    0    0    0  0.00000000000E+00  0.00000000000E+00  0.45593999997E+02  0.45594000000E+02  0.51100000000E-03 0. -1.
         11   -1    0    0    0    0 -0.00000000000E+00 -0.00000000000E+00 -0.45593999997E+02  0.45594000000E+02  0.51100000000E-03 0.  1.
    9900012    2    1    2    0    0 -0.19159640850E+02  0.40708656427E+02 -0.21969133675E+01  0.46142323471E+02  0.10000052070E+02 0.  0.
         12    1    1    2    0    0  0.19159640850E+02 -0.40708656427E+02  0.21969133675E+01  0.45045676529E+02  0.00000000000E+00 0. -1.
         11    1    3    3    0    0 -0.11202890560E+01  0.71064067135E+01  0.17301061764E+01  0.73992791264E+01  0.51100000000E-03 0. -1.
        -11    1    3    3    0    0 -0.74379583469E+01  0.18810096378E+02 -0.55784217446E+00  0.20234973147E+02  0.51100000000E-03 0.  1.
        -12    1    3    3    0    0 -0.10601393447E+02  0.14792153336E+02 -0.33691773694E+01  0.18508071198E+02  0.00000000000E+00 0.  1.
</event>
<event>
 7    1  0.2313935E-008  0.4614232E+02  0.7816164E-02  0.1320468E+00
        -11   -1    0    0    0    0  0.00000000000E+00  0.00000000000E+00  0.45593999997E+02  0.45594000000E+02  0.51100000000E-03 0.  1.
         11   -1    0    0    0    0 -0.00000000000E+00 -0.00000000000E+00 -0.45593999997E+02  0.45594000000E+02  0.51100000000E-03 0. -1.
    9900012    2    1    2    0    0  0.39976737503E+02  0.75988442605E-01  0.20759773288E+02  0.46142317603E+02  0.99999985584E+01 0.  0.
         12    1    1    2    0    0 -0.39976737503E+02 -0.75988442605E-01 -0.20759773288E+02  0.45045682397E+02  0.00000000000E+00 0. -1.
         11    1    3    3    0    0  0.14855793201E+02  0.34242865264E+00  0.69901438578E+01  0.16421752660E+02  0.51100000000E-03 0. -1.
        -11    1    3    3    0    0  0.87333039612E+01 -0.11357116455E+01  0.90880795494E+01  0.12655181910E+02  0.51100000000E-03 0.  1.
         12    1    3    3    0    0  0.16387640341E+02  0.86927143550E+00  0.46815498809E+01  0.17065383033E+02  0.00000000000E+00 0. -1.
</event>
<event>
 7    1  0.2313935E-008  0.4614232E+02  0.7816164E-02  0.1320468E+00
        -11   -1    0    0    0    0  0.00000000000E+00  0.00000000000E+00  0.45593999997E+02  0.45594000000E+02  0.51100000000E-03 0.  1.
         11   -1    0    0    0    0 -0.00000000000E+00 -0.00000000000E+00 -0.45593999997E+02  0.45594000000E+02  0.51100000000E-03 0. -1.
    9900012    2    1    2    0    0 -0.13769802517E+02 -0.38643918338E+02  0.18605202024E+02  0.46142318429E+02  0.10000006088E+02 0.  0.
         12    1    1    2    0    0  0.13769802517E+02  0.38643918338E+02 -0.18605202024E+02  0.45045681571E+02  0.00000000000E+00 0. -1.
         11    1    3    3    0    0 -0.74375436625E+01 -0.15454159432E+02  0.10448917829E+02  0.20083027250E+02  0.51100000000E-03 0. -1.
        -11    1    3    3    0    0 -0.39528195203E+01 -0.12916926859E+02  0.76009497330E+01  0.15499878024E+02  0.51100000000E-03 0.  1.
         12    1    3    3    0    0 -0.23794393342E+01 -0.10272832047E+02  0.55533446205E+00  0.10559413155E+02  0.00000000000E+00 0. -1.
</event>
<event>
 7    1  0.2313935E-008  0.4614232E+02  0.7816164E-02  0.1320468E+00
        -11   -1    0    0    0    0  0.00000000000E+00  0.00000000000E+00  0.45593999997E+02  0.45594000000E+02  0.51100000000E-03 0.  1.
         11   -1    0    0    0    0 -0.00000000000E+00 -0.00000000000E+00 -0.45593999997E+02  0.45594000000E+02  0.51100000000E-03 0. -1.
    9900012    2    1    2    0    0 -0.32147760148E+01  0.30215766422E+02  0.33253363905E+02  0.46142317229E+02  0.99999951509E+01 0.  0.
         12    1    1    2    0    0  0.32147760148E+01 -0.30215766422E+02 -0.33253363905E+02  0.45045682771E+02  0.00000000000E+00 0. -1.
         11    1    3    3    0    0 -0.44183275425E+00  0.13060329679E+02  0.21069446033E+02  0.24792922052E+02  0.51100000000E-03 0. -1.
        -11    1    3    3    0    0 -0.23575983385E+01  0.90314394652E+01  0.56075820986E+01  0.10888991964E+02  0.51100000000E-03 0.  1.
         12    1    3    3    0    0 -0.41534492208E+00  0.81239972775E+01  0.65763357735E+01  0.10460403213E+02  0.00000000000E+00 0. -1.
</event>
<event>
 7    1  0.2313935E-008  0.4614232E+02  0.7816164E-02  0.1320468E+00
        -11   -1    0    0    0    0  0.00000000000E+00  0.00000000000E+00  0.45593999997E+02  0.45594000000E+02  0.51100000000E-03 0.  1.
         11   -1    0    0    0    0 -0.00000000000E+00 -0.00000000000E+00 -0.45593999997E+02  0.45594000000E+02  0.51100000000E-03 0. -1.
    9900012    2    1    2    0    0 -0.44370648415E+02  0.16484165013E+01  0.75922118348E+01  0.46142318761E+02  0.10000009122E+02 0.  0.
         12    1    1    2    0    0  0.44370648415E+02 -0.16484165013E+01 -0.75922118348E+01  0.45045681239E+02  0.00000000000E+00 0. -1.
         11    1    3    3    0    0 -0.19047084937E+02  0.46963007114E+01  0.54174185831E+01  0.20351783935E+02  0.51100000000E-03 0. -1.
        -11    1    3    3    0    0 -0.38854003802E+01 -0.90915692121E+00  0.14108192804E+01  0.42324122821E+01  0.51100000000E-03 0.  1.
         12    1    3    3    0    0 -0.21438163098E+02 -0.21387272889E+01  0.76397397130E+00  0.21558122545E+02  0.00000000000E+00 0. -1.
</event>
<event>
 7    1  0.2313935E-008  0.4614232E+02  0.7816164E-02  0.1320468E+00
        -11   -1    0    0    0    0  0.00000000000E+00  0.00000000000E+00  0.45593999997E+02  0.45594000000E+02  0.51100000000E-03 0.  1.
         11   -1    0    0    0    0 -0.00000000000E+00 -0.00000000000E+00 -0.45593999997E+02  0.45594000000E+02  0.51100000000E-03 0. -1.
    9900012    2    1    2    0    0 -0.43202240186E+01 -0.21441026355E+02  0.39379329412E+02  0.46142317281E+02  0.99999956187E+01 0.  0.
         12    1    1    2    0    0  0.43202240186E+01  0.21441026355E+02 -0.39379329412E+02  0.45045682719E+02  0.00000000000E+00 0. -1.
         11    1    3    3    0    0 -0.44050406843E+01 -0.75934988869E+01  0.18490947001E+02  0.20469018785E+02  0.51100000000E-03 0. -1.
        -11    1    3    3    0    0 -0.70117793473E+00 -0.13362525673E+02  0.16777994631E+02  0.21460425134E+02  0.51100000000E-03 0.  1.
         12    1    3    3    0    0  0.78599460045E+00 -0.48500179491E+00  0.41103877799E+01  0.42128733608E+01  0.00000000000E+00 0. -1.
</event>
<event>
 7    1  0.2313935E-008  0.4614232E+02  0.7816164E-02  0.1320468E+00
        -11   -1    0    0    0    0  0.00000000000E+00  0.00000000000E+00  0.45593999997E+02  0.45594000000E+02  0.51100000000E-03 0.  1.
         11   -1    0    0    0    0 -0.00000000000E+00 -0.00000000000E+00 -0.45593999997E+02  0.45594000000E+02  0.51100000000E-03 0. -1.
    9900012    2    1    2    0    0 -0.38262445898E+02  0.20801636715E+01  0.23680616392E+02  0.46142318302E+02  0.10000004928E+02 0.  0.
         12    1    1    2    0    0  0.38262445898E+02 -0.20801636715E+01 -0.23680616392E+02  0.45045681698E+02  0.00000000000E+00 0. -1.
         11    1    3    3    0    0 -0.26419855187E+02  0.10817648397E+01  0.15822985460E+02  0.30814701563E+02  0.51100000000E-03 0. -1.
        -11    1    3    3    0    0 -0.57865801384E+01 -0.11477081938E+01  0.10960849988E+01  0.60002621928E+01  0.51100000000E-03 0.  1.
         12    1    3    3    0    0 -0.60560105719E+01  0.21461070256E+01  0.67615459337E+01  0.93273545459E+01  0.00000000000E+00 0. -1.
</event>
<event>
 7    1  0.2313935E-008  0.4614232E+02  0.7816164E-02  0.1320468E+00
        -11   -1    0    0    0    0  0.00000000000E+00  0.00000000000E+00  0.45593999997E+02  0.45594000000E+02  0.51100000000E-03 0.  1.
         11   -1    0    0    0    0 -0.00000000000E+00 -0.00000000000E+00 -0.45593999997E+02  0.45594000000E+02  0.51100000000E-03 0. -1.
    9900012    2    1    2    0    0 -0.39516426469E+02  0.20624231100E+02  0.64966662985E+01  0.46142317162E+02  0.99999945388E+01 0.  0.
         12    1    1    2    0    0  0.39516426469E+02 -0.20624231100E+02 -0.64966662985E+01  0.45045682838E+02  0.00000000000E+00 0. -1.
         11    1    3    3    0    0 -0.33647363253E+02  0.14851005063E+02  0.43302252129E+01  0.37033069761E+02  0.51100000000E-03 0. -1.
        -11    1    3    3    0    0 -0.30359077505E+01  0.10902472161E+01  0.16172916686E+01  0.36084633107E+01  0.51100000000E-03 0.  1.
         12    1    3    3    0    0 -0.28331554648E+01  0.46829788210E+01  0.54914941703E+00  0.55007840903E+01  0.00000000000E+00 0. -1.
</event>
<event>
 7    1  0.2313935E-008  0.4614232E+02  0.7816164E-02  0.1320468E+00
        -11   -1    0    0    0    0  0.00000000000E+00  0.00000000000E+00  0.45593999997E+02  0.45594000000E+02  0.51100000000E-03 0.  1.
         11   -1    0    0    0    0 -0.00000000000E+00 -0.00000000000E+00 -0.45593999997E+02  0.45594000000E+02  0.51100000000E-03 0. -1.
    9900012    2    1    2    0    0 -0.48518720389E+01  0.44418017825E+02  0.57107155073E+01  0.46142320502E+02  0.10000024995E+02 0.  0.
         12    1    1    2    0    0  0.48518720389E+01 -0.44418017825E+02 -0.57107155073E+01  0.45045679498E+02  0.00000000000E+00 0. -1.
         11    1    3    3    0    0 -0.51407260250E+01  0.11716346219E+02  0.38159728776E+00  0.12800212870E+02  0.51100000000E-03 0. -1.
        -11    1    3    3    0    0 -0.74115756896E+00  0.30165263012E+02  0.47967155130E+01  0.30553246752E+02  0.51100000000E-03 0.  1.
         12    1    3    3    0    0  0.10300115551E+01  0.25364085949E+01  0.53240270654E+00  0.27888608797E+01  0.00000000000E+00 0. -1.
</event>
<event>
 7    1  0.2313935E-008  0.4614232E+02  0.7816164E-02  0.1320468E+00
        -11   -1    0    0    0    0  0.00000000000E+00  0.00000000000E+00  0.45593999997E+02  0.45594000000E+02  0.51100000000E-03 0. -1.
         11   -1    0    0    0    0 -0.00000000000E+00 -0.00000000000E+00 -0.45593999997E+02  0.45594000000E+02  0.51100000000E-03 0.  1.
    9900012    2    1    2    0    0 -0.36313669382E+02  0.26408761926E+02 -0.36066903225E+01  0.46142317571E+02  0.99999982637E+01 0.  0.
         12    1    1    2    0    0  0.36313669382E+02 -0.26408761926E+02  0.36066903225E+01  0.45045682429E+02  0.00000000000E+00 0. -1.
         11    1    3    3    0    0 -0.91904519191E+01  0.82405663408E+01 -0.37585314186E+01  0.12903406480E+02  0.51100000000E-03 0. -1.
        -11    1    3    3    0    0 -0.90642273634E+00  0.95960473593E+00  0.13069164341E+01  0.18575452223E+01  0.51100000000E-03 0.  1.
        -12    1    3    3    0    0 -0.26216794727E+02  0.17208590849E+02 -0.11550753379E+01  0.31381365869E+02  0.00000000000E+00 0.  1.
</event>
<event>
 7    1  0.2313935E-008  0.4614232E+02  0.7816164E-02  0.1320468E+00
        -11   -1    0    0    0    0  0.00000000000E+00  0.00000000000E+00  0.45593999997E+02  0.45594000000E+02  0.51100000000E-03 0. -1.
         11   -1    0    0    0    0 -0.00000000000E+00 -0.00000000000E+00 -0.45593999997E+02  0.45594000000E+02  0.51100000000E-03 0.  1.
    9900012    2    1    2    0    0  0.44007225272E+02 -0.85434607726E+01  0.44143970322E+01  0.46142317640E+02  0.99999988948E+01 0.  0.
         12    1    1    2    0    0 -0.44007225272E+02  0.85434607726E+01 -0.44143970322E+01  0.45045682360E+02  0.00000000000E+00 0. -1.
         11    1    3    3    0    0  0.19312660349E+02  0.21161010113E+00  0.38787179053E+01  0.19699443683E+02  0.51100000000E-03 0. -1.
        -11    1    3    3    0    0  0.14979920656E+02 -0.42849744003E+01  0.17576094856E+01  0.15679547820E+02  0.51100000000E-03 0.  1.
         12    1    3    3    0    0  0.97146442675E+01 -0.44700964734E+01 -0.12219303587E+01  0.10763326137E+02  0.00000000000E+00 0. -1.
</event>
<event>
 7    1  0.2313935E-008  0.4614232E+02  0.7816164E-02  0.1320468E+00
        -11   -1    0    0    0    0  0.00000000000E+00  0.00000000000E+00  0.45593999997E+02  0.45594000000E+02  0.51100000000E-03 0. -1.
         11   -1    0    0    0    0 -0.00000000000E+00 -0.00000000000E+00 -0.45593999997E+02  0.45594000000E+02  0.51100000000E-03 0.  1.
    9900012    2    1    2    0    0 -0.22413481683E+02 -0.37824832803E+02 -0.97995590082E+01  0.46142317693E+02  0.99999993778E+01 0.  0.
         12    1    1    2    0    0  0.22413481683E+02  0.37824832803E+02  0.97995590082E+01  0.45045682307E+02  0.00000000000E+00 0. -1.
         11    1    3    3    0    0 -0.75388901092E+01 -0.16968034983E+02 -0.22919730220E+01  0.18708346155E+02  0.51100000000E-03 0.  1.
        -11    1    3    3    0    0 -0.13266583046E+02 -0.16573748628E+02 -0.82935795885E+01  0.22791990521E+02  0.51100000000E-03 0. -1.
         12    1    3    3    0    0 -0.16080085285E+01 -0.42830491927E+01  0.78599360226E+00  0.46419810165E+01  0.00000000000E+00 0. -1.
</event>
<event>
 7    1  0.2313935E-008  0.4614232E+02  0.7816164E-02  0.1320468E+00
        -11   -1    0    0    0    0  0.00000000000E+00  0.00000000000E+00  0.45593999997E+02  0.45594000000E+02  0.51100000000E-03 0.  1.
         11   -1    0    0    0    0 -0.00000000000E+00 -0.00000000000E+00 -0.45593999997E+02  0.45594000000E+02  0.51100000000E-03 0. -1.
    9900012    2    1    2    0    0  0.24829438814E+02 -0.11440649384E+02  0.35801172131E+02  0.46142318564E+02  0.10000007318E+02 0.  0.
         12    1    1    2    0    0 -0.24829438814E+02  0.11440649384E+02 -0.35801172131E+02  0.45045681436E+02  0.00000000000E+00 0. -1.
         11    1    3    3    0    0 -0.17125352876E+00 -0.21779789568E+01  0.21413138797E+01  0.30591086119E+01  0.51100000000E-03 0. -1.
        -11    1    3    3    0    0  0.10590359940E+02 -0.55139974998E+01  0.13532861552E+02  0.18047111518E+02  0.51100000000E-03 0.  1.
        -12    1    3    3    0    0  0.14410332403E+02 -0.37486729271E+01  0.20126996699E+02  0.25036098434E+02  0.00000000000E+00 0.  1.
</event>
<event>
 7    1  0.2313935E-008  0.4614232E+02  0.7816164E-02  0.1320468E+00
        -11   -1    0    0    0    0  0.00000000000E+00  0.00000000000E+00  0.45593999997E+02  0.45594000000E+02  0.51100000000E-03 0.  1.
         11   -1    0    0    0    0 -0.00000000000E+00 -0.00000000000E+00 -0.45593999997E+02  0.45594000000E+02  0.51100000000E-03 0. -1.
    9900012    2    1    2    0    0 -0.35280729468E+01 -0.10859788849E+02  0.43574432343E+02  0.46142318003E+02  0.10000002204E+02 0.  0.
         12    1    1    2    0    0  0.35280729468E+01  0.10859788849E+02 -0.43574432343E+02  0.45045681997E+02  0.00000000000E+00 0. -1.
         11    1    3    3    0    0 -0.37622740636E+01 -0.10350708304E+01  0.14154340192E+02  0.14682350775E+02  0.51100000000E-03 0. -1.
        -11    1    3    3    0    0  0.16381762206E+01 -0.20220986546E+01  0.35455728576E+01  0.43981349966E+01  0.51100000000E-03 0.  1.
        -12    1    3    3    0    0 -0.14039751037E+01 -0.78026193638E+01  0.25874519293E+02  0.27061832231E+02  0.00000000000E+00 0.  1.
</event>
<event>
 7    1  0.2313935E-008  0.4614232E+02  0.7816164E-02  0.1320468E+00
        -11   -1    0    0    0    0  0.00000000000E+00  0.00000000000E+00  0.45593999997E+02  0.45594000000E+02  0.51100000000E-03 0.  1.
         11   -1    0    0    0    0 -0.00000000000E+00 -0.00000000000E+00 -0.45593999997E+02  0.45594000000E+02  0.51100000000E-03 0. -1.
    9900012    2    1    2    0    0  0.27563751343E+02  0.79882991501E+00  0.35619027100E+02  0.46142316423E+02  0.99999878005E+01 0.  0.
         12    1    1    2    0    0 -0.27563751343E+02 -0.79882991501E+00 -0.35619027100E+02  0.45045683577E+02  0.00000000000E+00 0. -1.
         11    1    3    3    0    0  0.70821777760E+01 -0.10648760541E+01  0.13158258100E+02  0.14981019977E+02  0.51100000000E-03 0. -1.
        -11    1    3    3    0    0  0.12143034134E+02 -0.14744881994E+01  0.15786963298E+02  0.19971369604E+02  0.51100000000E-03 0.  1.
        -12    1    3    3    0    0  0.83385394330E+01  0.33381941685E+01  0.66738057019E+01  0.11189926842E+02  0.00000000000E+00 0.  1.
</event>
<event>
 7    1  0.2313935E-008  0.4614232E+02  0.7816164E-02  0.1320468E+00
        -11   -1    0    0    0    0  0.00000000000E+00  0.00000000000E+00  0.45593999997E+02  0.45594000000E+02  0.51100000000E-03 0.  1.
         11   -1    0    0    0    0 -0.00000000000E+00 -0.00000000000E+00 -0.45593999997E+02  0.45594000000E+02  0.51100000000E-03 0. -1.
    9900012    2    1    2    0    0 -0.10713341618E+02 -0.38574828773E+02  0.20647527164E+02  0.46142317838E+02  0.10000000697E+02 0.  0.
         12    1    1    2    0    0  0.10713341618E+02  0.38574828773E+02 -0.20647527164E+02  0.45045682162E+02  0.00000000000E+00 0. -1.
         11    1    3    3    0    0 -0.33283965676E+01 -0.56687947341E+01  0.46171549096E+01  0.80331548702E+01  0.51100000000E-03 0. -1.
        -11    1    3    3    0    0 -0.44920283454E+01 -0.28822413166E+02  0.11489219853E+02  0.31351427279E+02  0.51100000000E-03 0.  1.
         12    1    3    3    0    0 -0.28929167047E+01 -0.40836208733E+01  0.45411524015E+01  0.67577356882E+01  0.00000000000E+00 0. -1.
</event>
<event>
 7    1  0.2313935E-008  0.4614232E+02  0.7816164E-02  0.1320468E+00
        -11   -1    0    0    0    0  0.00000000000E+00  0.00000000000E+00  0.45593999997E+02  0.45594000000E+02  0.51100000000E-03 0. -1.
         11   -1    0    0    0    0 -0.00000000000E+00 -0.00000000000E+00 -0.45593999997E+02  0.45594000000E+02  0.51100000000E-03 0.  1.
    9900012    2    1    2    0    0  0.32050661279E+02  0.29174490672E+02  0.12276712502E+02  0.46142318029E+02  0.10000002441E+02 0.  0.
         12    1    1    2    0    0 -0.32050661279E+02 -0.29174490672E+02 -0.12276712502E+02  0.45045681971E+02  0.00000000000E+00 0. -1.
         11    1    3    3    0    0  0.63684321076E+01  0.53743454136E+01  0.12633894436E+01  0.84283254138E+01  0.51100000000E-03 0. -1.
        -11    1    3    3    0    0  0.14598059922E+02  0.11032826428E+02  0.16135992571E+01  0.18369276396E+02  0.51100000000E-03 0.  1.
         12    1    3    3    0    0  0.11084169250E+02  0.12767318830E+02  0.93997238011E+01  0.19344716219E+02  0.00000000000E+00 0. -1.
</event>
<event>
 7    1  0.2313935E-008  0.4614232E+02  0.7816164E-02  0.1320468E+00
        -11   -1    0    0    0    0  0.00000000000E+00  0.00000000000E+00  0.45593999997E+02  0.45594000000E+02  0.51100000000E-03 0.  1.
         11   -1    0    0    0    0 -0.00000000000E+00 -0.00000000000E+00 -0.45593999997E+02  0.45594000000E+02  0.51100000000E-03 0. -1.
    9900012    2    1    2    0    0 -0.10943687912E+02  0.35187125448E+02  0.25907825634E+02  0.46142317282E+02  0.99999956332E+01 0.  0.
         12    1    1    2    0    0  0.10943687912E+02 -0.35187125448E+02 -0.25907825634E+02  0.45045682718E+02  0.00000000000E+00 0. -1.
         11    1    3    3    0    0 -0.27212734206E+01  0.10808685432E+02  0.61319113117E+01  0.12721373605E+02  0.51100000000E-03 0. -1.
        -11    1    3    3    0    0 -0.54844022398E+00  0.77721065580E+01  0.23059806678E+01  0.81255137764E+01  0.51100000000E-03 0.  1.
         12    1    3    3    0    0 -0.76739742670E+01  0.16606333458E+02  0.17469933654E+02  0.25295429901E+02  0.00000000000E+00 0. -1.
</event>
<event>
 7    1  0.2313935E-008  0.4614231E+02  0.7816164E-02  0.1320468E+00
        -11   -1    0    0    0    0  0.00000000000E+00  0.00000000000E+00  0.45593999997E+02  0.45594000000E+02  0.51100000000E-03 0.  1.
         11   -1    0    0    0    0 -0.00000000000E+00 -0.00000000000E+00 -0.45593999997E+02  0.45594000000E+02  0.51100000000E-03 0. -1.
    9900012    2    1    2    0    0 -0.32088351533E+02  0.31415876840E+02 -0.35347168196E+01  0.46142313806E+02  0.99999639298E+01 0.  0.
         12    1    1    2    0    0  0.32088351533E+02 -0.31415876840E+02  0.35347168196E+01  0.45045686194E+02  0.00000000000E+00 0. -1.
         11    1    3    3    0    0 -0.12664282212E+02  0.97362499229E+01  0.29757599873E+01  0.16249115492E+02  0.51100000000E-03 0. -1.
        -11    1    3    3    0    0 -0.47266083887E+01  0.51695526678E+01 -0.70992042757E+00  0.70405318634E+01  0.51100000000E-03 0.  1.
         12    1    3    3    0    0 -0.14697460933E+02  0.16510074249E+02 -0.58005563794E+01  0.22852666451E+02  0.00000000000E+00 0. -1.
</event>
<event>
 7    1  0.2313935E-008  0.4614232E+02  0.7816164E-02  0.1320468E+00
        -11   -1    0    0    0    0  0.00000000000E+00  0.00000000000E+00  0.45593999997E+02  0.45594000000E+02  0.51100000000E-03 0. -1.
         11   -1    0    0    0    0 -0.00000000000E+00 -0.00000000000E+00 -0.45593999997E+02  0.45594000000E+02  0.51100000000E-03 0.  1.
    9900012    2    1    2    0    0  0.39574387875E+02 -0.84066545187E+01 -0.19806806594E+02  0.46142316485E+02  0.99999883632E+01 0.  0.
         12    1    1    2    0    0 -0.39574387875E+02  0.84066545187E+01  0.19806806594E+02  0.45045683515E+02  0.00000000000E+00 0. -1.
         11    1    3    3    0    0 -0.40098127589E-01  0.38973789464E+00 -0.13536526475E+01  0.14092122755E+01  0.51100000000E-03 0. -1.
        -11    1    3    3    0    0  0.18778162234E+02 -0.52275210883E+01 -0.71575900075E+01  0.20764812752E+02  0.51100000000E-03 0.  1.
        -12    1    3    3    0    0  0.20836323768E+02 -0.35688713250E+01 -0.11295563939E+02  0.23968291458E+02  0.00000000000E+00 0.  1.
</event>
<event>
 7    1  0.2313935E-008  0.4614232E+02  0.7816164E-02  0.1320468E+00
        -11   -1    0    0    0    0  0.00000000000E+00  0.00000000000E+00  0.45593999997E+02  0.45594000000E+02  0.51100000000E-03 0.  1.
         11   -1    0    0    0    0 -0.00000000000E+00 -0.00000000000E+00 -0.45593999997E+02  0.45594000000E+02  0.51100000000E-03 0. -1.
    9900012    2    1    2    0    0  0.36267467637E+02 -0.21587796419E+02 -0.15740117202E+02  0.46142318158E+02  0.10000003623E+02 0.  0.
         12    1    1    2    0    0 -0.36267467637E+02  0.21587796419E+02  0.15740117202E+02  0.45045681842E+02  0.00000000000E+00 0. -1.
         11    1    3    3    0    0  0.15484987036E+02 -0.50753905792E+01 -0.61860568891E+01  0.17430195442E+02  0.51100000000E-03 0. -1.
        -11    1    3    3    0    0  0.18923614531E+02 -0.12970290112E+02 -0.70839889836E+01  0.24010716622E+02  0.51100000000E-03 0.  1.
        -12    1    3    3    0    0  0.18588660697E+01 -0.35421157278E+01 -0.24700713296E+01  0.47014060947E+01  0.00000000000E+00 0.  1.
</event>
<event>
 7    1  0.2313935E-008  0.4614231E+02  0.7816164E-02  0.1320468E+00
        -11   -1    0    0    0    0  0.00000000000E+00  0.00000000000E+00  0.45593999997E+02  0.45594000000E+02  0.51100000000E-03 0.  1.
         11   -1    0    0    0    0 -0.00000000000E+00 -0.00000000000E+00 -0.45593999997E+02  0.45594000000E+02  0.51100000000E-03 0. -1.
    9900012    2    1    2    0    0 -0.34286613168E+01 -0.33198188393E+01  0.44792152954E+02  0.46142313394E+02  0.99999601751E+01 0.  0.
         12    1    1    2    0    0  0.34286613168E+01  0.33198188393E+01 -0.44792152954E+02  0.45045686606E+02  0.00000000000E+00 0. -1.
         11    1    3    3    0    0 -0.26371415320E+01  0.75774496605E+00  0.15618796546E+02  0.15857979023E+02  0.51100000000E-03 0. -1.
        -11    1    3    3    0    0 -0.30742602162E+01  0.26292929403E+00  0.86713817820E+01  0.92039703368E+01  0.51100000000E-03 0.  1.
         12    1    3    3    0    0  0.22827404314E+01 -0.43404930994E+01  0.20501974626E+02  0.21080364034E+02  0.00000000000E+00 0. -1.
</event>
<event>
 7    1  0.2313935E-008  0.4614232E+02  0.7816164E-02  0.1320468E+00
        -11   -1    0    0    0    0  0.00000000000E+00  0.00000000000E+00  0.45593999997E+02  0.45594000000E+02  0.51100000000E-03 0. -1.
         11   -1    0    0    0    0 -0.00000000000E+00 -0.00000000000E+00 -0.45593999997E+02  0.45594000000E+02  0.51100000000E-03 0.  1.
    9900012    2    1    2    0    0  0.36805452689E+01  0.28450919973E+02 -0.34729127156E+02  0.46142317256E+02  0.99999953984E+01 0.  0.
         12    1    1    2    0    0 -0.36805452689E+01 -0.28450919973E+02  0.34729127156E+02  0.45045682744E+02  0.00000000000E+00 0. -1.
         11    1    3    3    0    0 -0.28078865057E+01  0.86810602834E+01 -0.75607938855E+01  0.11849499513E+02  0.51100000000E-03 0. -1.
        -11    1    3    3    0    0  0.26496123685E+01  0.11486095862E+02 -0.15773064512E+02  0.19691125113E+02  0.51100000000E-03 0.  1.
         12    1    3    3    0    0  0.38388194061E+01  0.82837638277E+01 -0.11395268759E+02  0.14601692630E+02  0.00000000000E+00 0. -1.
</event>
<event>
 7    1  0.2313935E-008  0.4614232E+02  0.7816164E-02  0.1320468E+00
        -11   -1    0    0    0    0  0.00000000000E+00  0.00000000000E+00  0.45593999997E+02  0.45594000000E+02  0.51100000000E-03 0. -1.
         11   -1    0    0    0    0 -0.00000000000E+00 -0.00000000000E+00 -0.45593999997E+02  0.45594000000E+02  0.51100000000E-03 0.  1.
    9900012    2    1    2    0    0  0.32024929853E+02 -0.29682480206E+02  0.11066518204E+02  0.46142316650E+02  0.99999898681E+01 0.  0.
         12    1    1    2    0    0 -0.32024929853E+02  0.29682480206E+02 -0.11066518204E+02  0.45045683350E+02  0.00000000000E+00 0. -1.
         11    1    3    3    0    0  0.45497065425E+01 -0.23327342576E+01  0.25558256054E+00  0.51192579000E+01  0.51100000000E-03 0. -1.
        -11    1    3    3    0    0  0.21748696634E+02 -0.18220056010E+02  0.51015746371E+01  0.28827110683E+02  0.51100000000E-03 0.  1.
         12    1    3    3    0    0  0.57265266768E+01 -0.91296899388E+01  0.57093610062E+01  0.12195948067E+02  0.00000000000E+00 0. -1.
</event>
<event>
 7    1  0.2313935E-008  0.4614232E+02  0.7816164E-02  0.1320468E+00
        -11   -1    0    0    0    0  0.00000000000E+00  0.00000000000E+00  0.45593999997E+02  0.45594000000E+02  0.51100000000E-03 0.  1.
         11   -1    0    0    0    0 -0.00000000000E+00 -0.00000000000E+00 -0.45593999997E+02  0.45594000000E+02  0.51100000000E-03 0. -1.
    9900012    2    1    2    0    0  0.17049674951E+02  0.91353306945E-01  0.41694289119E+02  0.46142317560E+02  0.99999981618E+01 0.  0.
         12    1    1    2    0    0 -0.17049674951E+02 -0.91353306945E-01 -0.41694289119E+02  0.45045682440E+02  0.00000000000E+00 0. -1.
         11    1    3    3    0    0  0.60133163380E+01  0.59558375668E+00  0.65531431972E+01  0.89139429781E+01  0.51100000000E-03 0. -1.
        -11    1    3    3    0    0  0.11401152985E+02  0.11991367516E+00  0.31124175297E+02  0.33146869489E+02  0.51100000000E-03 0.  1.
        -12    1    3    3    0    0 -0.36479437257E+00 -0.62414412489E+00  0.40169706249E+01  0.40815050930E+01  0.00000000000E+00 0.  1.
</event>
<event>
 7    1  0.2313935E-008  0.4614232E+02  0.7816164E-02  0.1320468E+00
        -11   -1    0    0    0    0  0.00000000000E+00  0.00000000000E+00  0.45593999997E+02  0.45594000000E+02  0.51100000000E-03 0. -1.
         11   -1    0    0    0    0 -0.00000000000E+00 -0.00000000000E+00 -0.45593999997E+02  0.45594000000E+02  0.51100000000E-03 0.  1.
    9900012    2    1    2    0    0  0.41563925155E+02  0.16601124342E+02 -0.50947041368E+01  0.46142320807E+02  0.10000027774E+02 0.  0.
         12    1    1    2    0    0 -0.41563925155E+02 -0.16601124342E+02  0.50947041368E+01  0.45045679193E+02  0.00000000000E+00 0. -1.
         11    1    3    3    0    0  0.16835910504E+02  0.97232574202E+01 -0.14050456279E+01  0.19492659409E+02  0.51100000000E-03 0. -1.
        -11    1    3    3    0    0  0.23143995163E+02  0.54403072975E+01 -0.47771596121E+01  0.24250004326E+02  0.51100000000E-03 0.  1.
         12    1    3    3    0    0  0.15840194884E+01  0.14375596245E+01  0.10875011032E+01  0.23996570720E+01  0.00000000000E+00 0. -1.
</event>
<event>
 7    1  0.2313935E-008  0.4614232E+02  0.7816164E-02  0.1320468E+00
        -11   -1    0    0    0    0  0.00000000000E+00  0.00000000000E+00  0.45593999997E+02  0.45594000000E+02  0.51100000000E-03 0.  1.
         11   -1    0    0    0    0 -0.00000000000E+00 -0.00000000000E+00 -0.45593999997E+02  0.45594000000E+02  0.51100000000E-03 0. -1.
    9900012    2    1    2    0    0  0.39794525856E+02  0.20898475203E+02 -0.29602345172E+01  0.46142317163E+02  0.99999945417E+01 0.  0.
         12    1    1    2    0    0 -0.39794525856E+02 -0.20898475203E+02  0.29602345172E+01  0.45045682837E+02  0.00000000000E+00 0. -1.
         11    1    3    3    0    0  0.25481752595E+02  0.13961367002E+02 -0.54608918780E+01  0.29564519686E+02  0.51100000000E-03 0. -1.
        -11    1    3    3    0    0  0.81723963931E+01  0.36283612048E+01 -0.56337241927E+00  0.89593781359E+01  0.51100000000E-03 0.  1.
         12    1    3    3    0    0  0.61403768678E+01  0.33087469954E+01  0.30640297800E+01  0.76184193408E+01  0.00000000000E+00 0. -1.
</event>
<event>
 7    1  0.2313935E-008  0.4614232E+02  0.7816164E-02  0.1320468E+00
        -11   -1    0    0    0    0  0.00000000000E+00  0.00000000000E+00  0.45593999997E+02  0.45594000000E+02  0.51100000000E-03 0.  1.
         11   -1    0    0    0    0 -0.00000000000E+00 -0.00000000000E+00 -0.45593999997E+02  0.45594000000E+02  0.51100000000E-03 0. -1.
    9900012    2    1    2    0    0 -0.96264666172E+01  0.32956995347E+02  0.29159577981E+02  0.46142318855E+02  0.10000009976E+02 0.  0.
         12    1    1    2    0    0  0.96264666172E+01 -0.32956995347E+02 -0.29159577981E+02  0.45045681145E+02  0.00000000000E+00 0. -1.
         11    1    3    3    0    0 -0.21321505113E+01  0.19611279885E+01  0.27382034339E+01  0.39862071066E+01  0.51100000000E-03 0. -1.
        -11    1    3    3    0    0 -0.11706561424E+01  0.54629793594E+01  0.12010753453E+01  0.57146444798E+01  0.51100000000E-03 0.  1.
        -12    1    3    3    0    0 -0.63236599635E+01  0.25532887999E+02  0.25220299201E+02  0.36441467269E+02  0.00000000000E+00 0.  1.
</event>
<event>
 7    1  0.2313935E-008  0.4614232E+02  0.7816164E-02  0.1320468E+00
        -11   -1    0    0    0    0  0.00000000000E+00  0.00000000000E+00  0.45593999997E+02  0.45594000000E+02  0.51100000000E-03 0.  1.
         11   -1    0    0    0    0 -0.00000000000E+00 -0.00000000000E+00 -0.45593999997E+02  0.45594000000E+02  0.51100000000E-03 0. -1.
    9900012    2    1    2    0    0 -0.20654512722E+02  0.28078440705E+02  0.28532538550E+02  0.46142317806E+02  0.10000000406E+02 0.  0.
         12    1    1    2    0    0  0.20654512722E+02 -0.28078440705E+02 -0.28532538550E+02  0.45045682194E+02  0.00000000000E+00 0. -1.
         11    1    3    3    0    0 -0.50339263154E+01  0.78450534130E+01  0.76420298636E+01  0.12053459997E+02  0.51100000000E-03 0. -1.
        -11    1    3    3    0    0 -0.14196449694E+02  0.13840423259E+02  0.18497950740E+02  0.27115875087E+02  0.51100000000E-03 0.  1.
         12    1    3    3    0    0 -0.14241367134E+01  0.63929640334E+01  0.23925579470E+01  0.69729827219E+01  0.00000000000E+00 0. -1.
</event>
<event>
 7    1  0.2313935E-008  0.4614231E+02  0.7816164E-02  0.1320468E+00
        -11   -1    0    0    0    0  0.00000000000E+00  0.00000000000E+00  0.45593999997E+02  0.45594000000E+02  0.51100000000E-03 0. -1.
         11   -1    0    0    0    0 -0.00000000000E+00 -0.00000000000E+00 -0.45593999997E+02  0.45594000000E+02  0.51100000000E-03 0.  1.
    9900012    2    1    2    0    0 -0.63789869013E+01  0.25027566733E+02 -0.36905872745E+02  0.46142311931E+02  0.99999468408E+01 0.  0.
         12    1    1    2    0    0  0.63789869013E+01 -0.25027566733E+02  0.36905872745E+02  0.45045688069E+02  0.00000000000E+00 0. -1.
         11    1    3    3    0    0 -0.66049508226E+01  0.15166552234E+02 -0.16684282871E+02  0.23494998983E+02  0.51100000000E-03 0. -1.
        -11    1    3    3    0    0 -0.77869238551E+00  0.26386617995E+01 -0.74344974177E+01  0.79272094736E+01  0.51100000000E-03 0.  1.
        -12    1    3    3    0    0  0.10046563069E+01  0.72223526999E+01 -0.12787092457E+02  0.14720103475E+02  0.00000000000E+00 0.  1.
</event>
<event>
 7    1  0.2313935E-008  0.4614232E+02  0.7816164E-02  0.1320468E+00
        -11   -1    0    0    0    0  0.00000000000E+00  0.00000000000E+00  0.45593999997E+02  0.45594000000E+02  0.51100000000E-03 0.  1.
         11   -1    0    0    0    0 -0.00000000000E+00 -0.00000000000E+00 -0.45593999997E+02  0.45594000000E+02  0.51100000000E-03 0. -1.
    9900012    2    1    2    0    0 -0.20021395916E+02  0.17655966685E+02  0.36283936456E+02  0.46142317646E+02  0.99999989469E+01 0.  0.
         12    1    1    2    0    0  0.20021395916E+02 -0.17655966685E+02 -0.36283936456E+02  0.45045682354E+02  0.00000000000E+00 0. -1.
         11    1    3    3    0    0 -0.11071771442E+02  0.94610495785E+01  0.13353745601E+02  0.19759000578E+02  0.51100000000E-03 0. -1.
        -11    1    3    3    0    0 -0.47261443375E+01  0.70480161746E+01  0.12911919728E+02  0.15450846049E+02  0.51100000000E-03 0.  1.
        -12    1    3    3    0    0 -0.42234801366E+01  0.11469009323E+01  0.10018271127E+02  0.10932471019E+02  0.00000000000E+00 0.  1.
</event>
<event>
 7    1  0.2313935E-008  0.4614232E+02  0.7816164E-02  0.1320468E+00
        -11   -1    0    0    0    0  0.00000000000E+00  0.00000000000E+00  0.45593999997E+02  0.45594000000E+02  0.51100000000E-03 0.  1.
         11   -1    0    0    0    0 -0.00000000000E+00 -0.00000000000E+00 -0.45593999997E+02  0.45594000000E+02  0.51100000000E-03 0. -1.
    9900012    2    1    2    0    0  0.12685440715E+02  0.11540935345E+02  0.41653330429E+02  0.46142317292E+02  0.99999957244E+01 0.  0.
         12    1    1    2    0    0 -0.12685440715E+02 -0.11540935345E+02 -0.41653330429E+02  0.45045682708E+02  0.00000000000E+00 0. -1.
         11    1    3    3    0    0  0.54236823866E+01  0.29366335788E+01  0.74486486655E+01  0.96707039356E+01  0.51100000000E-03 0. -1.
        -11    1    3    3    0    0  0.94264348873E+00  0.26243790731E+01  0.30841844330E+01  0.41579004490E+01  0.51100000000E-03 0.  1.
         12    1    3    3    0    0  0.63191148397E+01  0.59799226933E+01  0.31120497331E+02  0.32313712908E+02  0.00000000000E+00 0. -1.
</event>
<event>
 7    1  0.2313935E-008  0.4614232E+02  0.7816164E-02  0.1320468E+00
        -11   -1    0    0    0    0  0.00000000000E+00  0.00000000000E+00  0.45593999997E+02  0.45594000000E+02  0.51100000000E-03 0.  1.
         11   -1    0    0    0    0 -0.00000000000E+00 -0.00000000000E+00 -0.45593999997E+02  0.45594000000E+02  0.51100000000E-03 0. -1.
    9900012    2    1    2    0    0  0.33941928359E+00  0.44390081144E+02  0.76497712781E+01  0.46142317520E+02  0.99999978046E+01 0.  0.
         12    1    1    2    0    0 -0.33941928359E+00 -0.44390081144E+02 -0.76497712781E+01  0.45045682480E+02  0.00000000000E+00 0. -1.
         11    1    3    3    0    0 -0.28472394842E+01  0.67544571186E+01  0.21929608037E+01  0.76510483592E+01  0.51100000000E-03 0. -1.
        -11    1    3    3    0    0 -0.92926842147E+00  0.21490614086E+01  0.74722781244E+00  0.24577132465E+01  0.51100000000E-03 0.  1.
         12    1    3    3    0    0  0.41159271893E+01  0.35486562617E+02  0.47095826620E+01  0.36033555915E+02  0.00000000000E+00 0. -1.
</event>
<event>
 7    1  0.2313935E-008  0.4614232E+02  0.7816164E-02  0.1320468E+00
        -11   -1    0    0    0    0  0.00000000000E+00  0.00000000000E+00  0.45593999997E+02  0.45594000000E+02  0.51100000000E-03 0.  1.
         11   -1    0    0    0    0 -0.00000000000E+00 -0.00000000000E+00 -0.45593999997E+02  0.45594000000E+02  0.51100000000E-03 0. -1.
    9900012    2    1    2    0    0 -0.16615270782E+02 -0.46432287213E+01  0.41611136180E+02  0.46142318183E+02  0.10000003849E+02 0.  0.
         12    1    1    2    0    0  0.16615270782E+02  0.46432287213E+01 -0.41611136180E+02  0.45045681817E+02  0.00000000000E+00 0. -1.
         11    1    3    3    0    0 -0.12115211842E+01 -0.92783589694E+00  0.10357168535E+01  0.18442810776E+01  0.51100000000E-03 0. -1.
        -11    1    3    3    0    0 -0.32776491430E+01 -0.25285301415E+01  0.19672692419E+02  0.20103514018E+02  0.51100000000E-03 0.  1.
        -12    1    3    3    0    0 -0.12126100455E+02 -0.11868626829E+01  0.20902726908E+02  0.24194523088E+02  0.00000000000E+00 0.  1.
</event>
<event>
 7    1  0.2313935E-008  0.4614232E+02  0.7816164E-02  0.1320468E+00
        -11   -1    0    0    0    0  0.00000000000E+00  0.00000000000E+00  0.45593999997E+02  0.45594000000E+02  0.51100000000E-03 0.  1.
         11   -1    0    0    0    0 -0.00000000000E+00 -0.00000000000E+00 -0.45593999997E+02  0.45594000000E+02  0.51100000000E-03 0. -1.
    9900012    2    1    2    0    0 -0.44969898676E+02  0.81504666888E+00  0.24814118544E+01  0.46142317712E+02  0.99999995502E+01 0.  0.
         12    1    1    2    0    0  0.44969898676E+02 -0.81504666888E+00 -0.24814118544E+01  0.45045682288E+02  0.00000000000E+00 0. -1.
         11    1    3    3    0    0 -0.16355941293E+02 -0.37734974481E+01  0.84134702866E-01  0.16785802855E+02  0.51100000000E-03 0. -1.
        -11    1    3    3    0    0 -0.91907132629E+01  0.27845305609E+01  0.21841002556E+01  0.98485082583E+01  0.51100000000E-03 0.  1.
        -12    1    3    3    0    0 -0.19423244120E+02  0.18040135560E+01  0.21317689584E+00  0.19508006599E+02  0.00000000000E+00 0.  1.
</event>
<event>
 7    1  0.2313935E-008  0.4614231E+02  0.7816164E-02  0.1320468E+00
        -11   -1    0    0    0    0  0.00000000000E+00  0.00000000000E+00  0.45593999997E+02  0.45594000000E+02  0.51100000000E-03 0. -1.
         11   -1    0    0    0    0 -0.00000000000E+00 -0.00000000000E+00 -0.45593999997E+02  0.45594000000E+02  0.51100000000E-03 0.  1.
    9900012    2    1    2    0    0 -0.22331988154E+02 -0.29555888708E+02  0.25628997810E+02  0.46142314513E+02  0.99999703833E+01 0.  0.
         12    1    1    2    0    0  0.22331988154E+02  0.29555888708E+02 -0.25628997810E+02  0.45045685487E+02  0.00000000000E+00 0. -1.
         11    1    3    3    0    0 -0.27661795357E+01 -0.74234213713E+01  0.67392499715E+01  0.10400789610E+02  0.51100000000E-03 0. -1.
        -11    1    3    3    0    0 -0.12311606297E+02 -0.18229881601E+02  0.12378019989E+02  0.25241228415E+02  0.51100000000E-03 0.  1.
        -12    1    3    3    0    0 -0.72542023217E+01 -0.39025857358E+01  0.65117278492E+01  0.10500296488E+02  0.00000000000E+00 0.  1.
</event>
<event>
 7    1  0.2313935E-008  0.4614231E+02  0.7816164E-02  0.1320468E+00
        -11   -1    0    0    0    0  0.00000000000E+00  0.00000000000E+00  0.45593999997E+02  0.45594000000E+02  0.51100000000E-03 0. -1.
         11   -1    0    0    0    0 -0.00000000000E+00 -0.00000000000E+00 -0.45593999997E+02  0.45594000000E+02  0.51100000000E-03 0.  1.
    9900012    2    1    2    0    0 -0.44424599997E+02 -0.18647751025E+01  0.72174392474E+01  0.46142313188E+02  0.99999582974E+01 0.  0.
         12    1    1    2    0    0  0.44424599997E+02  0.18647751025E+01 -0.72174392474E+01  0.45045686812E+02  0.00000000000E+00 0. -1.
         11    1    3    3    0    0 -0.40837472983E+01 -0.66929182641E+00 -0.20674301215E+01  0.46259281354E+01  0.51100000000E-03 0. -1.
        -11    1    3    3    0    0 -0.58165236677E+01 -0.74065203180E+00  0.47418515915E+00  0.58826324749E+01  0.51100000000E-03 0.  1.
         12    1    3    3    0    0 -0.34524329031E+02 -0.45483124426E+00  0.88106842098E+01  0.35633752578E+02  0.00000000000E+00 0. -1.
</event>
<event>
 7    1  0.2313935E-008  0.4614232E+02  0.7816164E-02  0.1320468E+00
        -11   -1    0    0    0    0  0.00000000000E+00  0.00000000000E+00  0.45593999997E+02  0.45594000000E+02  0.51100000000E-03 0.  1.
         11   -1    0    0    0    0 -0.00000000000E+00 -0.00000000000E+00 -0.45593999997E+02  0.45594000000E+02  0.51100000000E-03 0. -1.
    9900012    2    1    2    0    0  0.91277354816E+01  0.12298031890E+02  0.42362202771E+02  0.46142319109E+02  0.10000012288E+02 0.  0.
         12    1    1    2    0    0 -0.91277354816E+01 -0.12298031890E+02 -0.42362202771E+02  0.45045680891E+02  0.00000000000E+00 0. -1.
         11    1    3    3    0    0 -0.81533216685E+00 -0.95657718913E+00  0.39907292797E+01  0.41839845729E+01  0.51100000000E-03 0. -1.
        -11    1    3    3    0    0  0.26722565151E+01  0.63547864152E+01  0.13970584751E+02  0.15578880056E+02  0.51100000000E-03 0.  1.
        -12    1    3    3    0    0  0.72708111334E+01  0.68998226637E+01  0.24400888740E+02  0.26379454479E+02  0.00000000000E+00 0.  1.
</event>
<event>
 7    1  0.2523089E-008  0.4614232E+02  0.7816164E-02  0.1320468E+00
        -11   -1    0    0    0    0  0.00000000000E+00  0.00000000000E+00  0.45593999997E+02  0.45594000000E+02  0.51100000000E-03 0.  1.
         11   -1    0    0    0    0 -0.00000000000E+00 -0.00000000000E+00 -0.45593999997E+02  0.45594000000E+02  0.51100000000E-03 0. -1.
    9900012    2    1    2    0    0  0.14156218264E+02 -0.25098789994E+02  0.34623198212E+02  0.46142316198E+02  0.99999857484E+01 0.  0.
         12    1    1    2    0    0 -0.14156218264E+02  0.25098789994E+02 -0.34623198212E+02  0.45045683802E+02  0.00000000000E+00 0. -1.
         11    1    3    3    0    0  0.15175813104E+01 -0.50200359620E+01  0.64393071212E+01  0.83047270006E+01  0.51100000000E-03 0. -1.
        -11    1    3    3    0    0  0.93329776734E+01 -0.18649307218E+02  0.26849128223E+02  0.33996717762E+02  0.51100000000E-03 0.  1.
         12    1    3    3    0    0  0.33056592804E+01 -0.14294468143E+01  0.13347628679E+01  0.38408714359E+01  0.00000000000E+00 0. -1.
</event>
<event>
 7    1  0.2313935E-008  0.4614232E+02  0.7816164E-02  0.1320468E+00
        -11   -1    0    0    0    0  0.00000000000E+00  0.00000000000E+00  0.45593999997E+02  0.45594000000E+02  0.51100000000E-03 0. -1.
         11   -1    0    0    0    0 -0.00000000000E+00 -0.00000000000E+00 -0.45593999997E+02  0.45594000000E+02  0.51100000000E-03 0.  1.
    9900012    2    1    2    0    0 -0.12219669975E+02 -0.17715052971E+02 -0.39572340732E+02  0.46142316665E+02  0.99999900064E+01 0.  0.
         12    1    1    2    0    0  0.12219669975E+02  0.17715052971E+02  0.39572340732E+02  0.45045683335E+02  0.00000000000E+00 0. -1.
         11    1    3    3    0    0 -0.76603287125E+01 -0.67178129315E+01 -0.12206137170E+02  0.15899667652E+02  0.51100000000E-03 0. -1.
        -11    1    3    3    0    0 -0.44975984904E+00 -0.28839750129E+01 -0.12322647624E+02  0.12663618777E+02  0.51100000000E-03 0.  1.
        -12    1    3    3    0    0 -0.41095814134E+01 -0.81132650264E+01 -0.15043555939E+02  0.17579030237E+02  0.00000000000E+00 0.  1.
</event>
<event>
 7    1  0.2313935E-008  0.4614232E+02  0.7816164E-02  0.1320468E+00
        -11   -1    0    0    0    0  0.00000000000E+00  0.00000000000E+00  0.45593999997E+02  0.45594000000E+02  0.51100000000E-03 0.  1.
         11   -1    0    0    0    0 -0.00000000000E+00 -0.00000000000E+00 -0.45593999997E+02  0.45594000000E+02  0.51100000000E-03 0. -1.
    9900012    2    1    2    0    0  0.92937760364E+00 -0.45003687073E+02 -0.17081818970E+01  0.46142317873E+02  0.10000001021E+02 0.  0.
         12    1    1    2    0    0 -0.92937760364E+00  0.45003687073E+02  0.17081818970E+01  0.45045682127E+02  0.00000000000E+00 0. -1.
         11    1    3    3    0    0 -0.14296374465E+00 -0.45952804452E+00 -0.74683132993E+00  0.88846043945E+00  0.51100000000E-03 0. -1.
        -11    1    3    3    0    0  0.33626918170E+01 -0.33653961008E+02  0.15064596502E+01  0.33855076558E+02  0.51100000000E-03 0.  1.
        -12    1    3    3    0    0 -0.22903504687E+01 -0.10890198020E+02 -0.24678102172E+01  0.11398780876E+02  0.00000000000E+00 0.  1.
</event>
<event>
 7    1  0.2313935E-008  0.4614232E+02  0.7816164E-02  0.1320468E+00
        -11   -1    0    0    0    0  0.00000000000E+00  0.00000000000E+00  0.45593999997E+02  0.45594000000E+02  0.51100000000E-03 0.  1.
         11   -1    0    0    0    0 -0.00000000000E+00 -0.00000000000E+00 -0.45593999997E+02  0.45594000000E+02  0.51100000000E-03 0. -1.
    9900012    2    1    2    0    0 -0.18042234904E+02 -0.75173260379E+01  0.40584247249E+02  0.46142317012E+02  0.99999931659E+01 0.  0.
         12    1    1    2    0    0  0.18042234904E+02  0.75173260379E+01 -0.40584247249E+02  0.45045682988E+02  0.00000000000E+00 0. -1.
         11    1    3    3    0    0 -0.10567503996E+01  0.48052742340E-02  0.34531787648E+01  0.36112585535E+01  0.51100000000E-03 0. -1.
        -11    1    3    3    0    0 -0.75568708142E+01 -0.49540748880E+01  0.90099600430E+01  0.12760428470E+02  0.51100000000E-03 0.  1.
        -12    1    3    3    0    0 -0.94286136907E+01 -0.25680564241E+01  0.28121108441E+02  0.29770629988E+02  0.00000000000E+00 0.  1.
</event>
<event>
 7    1  0.2313935E-008  0.4614232E+02  0.7816164E-02  0.1320468E+00
        -11   -1    0    0    0    0  0.00000000000E+00  0.00000000000E+00  0.45593999997E+02  0.45594000000E+02  0.51100000000E-03 0. -1.
         11   -1    0    0    0    0 -0.00000000000E+00 -0.00000000000E+00 -0.45593999997E+02  0.45594000000E+02  0.51100000000E-03 0.  1.
    9900012    2    1    2    0    0 -0.33558802404E+02  0.23397277263E+02 -0.18854379320E+02  0.46142318502E+02  0.10000006754E+02 0.  0.
         12    1    1    2    0    0  0.33558802404E+02 -0.23397277263E+02  0.18854379320E+02  0.45045681498E+02  0.00000000000E+00 0. -1.
         11    1    3    3    0    0 -0.13998983287E+02  0.55514446272E+01 -0.55453456591E+01  0.16048081794E+02  0.51100000000E-03 0. -1.
        -11    1    3    3    0    0 -0.26981118448E+01  0.29028193114E+01 -0.42496964814E+01  0.58108594826E+01  0.51100000000E-03 0.  1.
        -12    1    3    3    0    0 -0.16861707272E+02  0.14943013324E+02 -0.90593371796E+01  0.24283377225E+02  0.00000000000E+00 0.  1.
</event>
<event>
 7    1  0.2313935E-008  0.4614232E+02  0.7816164E-02  0.1320468E+00
        -11   -1    0    0    0    0  0.00000000000E+00  0.00000000000E+00  0.45593999997E+02  0.45594000000E+02  0.51100000000E-03 0.  1.
         11   -1    0    0    0    0 -0.00000000000E+00 -0.00000000000E+00 -0.45593999997E+02  0.45594000000E+02  0.51100000000E-03 0. -1.
    9900012    2    1    2    0    0  0.26825847104E+01 -0.37019497860E+02  0.25523988616E+02  0.46142317883E+02  0.10000001112E+02 0.  0.
         12    1    1    2    0    0 -0.26825847104E+01  0.37019497860E+02 -0.25523988616E+02  0.45045682117E+02  0.00000000000E+00 0. -1.
         11    1    3    3    0    0  0.18040725518E+01 -0.30701778374E+01  0.59781709652E+00  0.36108247351E+01  0.51100000000E-03 0. -1.
        -11    1    3    3    0    0  0.31918171972E+01 -0.24419176083E+02  0.18592080406E+02  0.30856916756E+02  0.51100000000E-03 0.  1.
         12    1    3    3    0    0 -0.23133050385E+01 -0.95301439392E+01  0.63340911140E+01  0.11674576392E+02  0.00000000000E+00 0. -1.
</event>
<event>
 7    1  0.2313935E-008  0.4614232E+02  0.7816164E-02  0.1320468E+00
        -11   -1    0    0    0    0  0.00000000000E+00  0.00000000000E+00  0.45593999997E+02  0.45594000000E+02  0.51100000000E-03 0. -1.
         11   -1    0    0    0    0 -0.00000000000E+00 -0.00000000000E+00 -0.45593999997E+02  0.45594000000E+02  0.51100000000E-03 0.  1.
    9900012    2    1    2    0    0 -0.37279406018E+02 -0.11835241726E+02 -0.22344718273E+02  0.46142317694E+02  0.99999993850E+01 0.  0.
         12    1    1    2    0    0  0.37279406018E+02  0.11835241726E+02  0.22344718273E+02  0.45045682306E+02  0.00000000000E+00 0. -1.
         11    1    3    3    0    0 -0.19278062088E+02 -0.62850686827E+01 -0.89182052496E+01  0.22151301347E+02  0.51100000000E-03 0. -1.
        -11    1    3    3    0    0 -0.50172208500E+01  0.74949958335E+00 -0.15606030043E+01  0.53075169977E+01  0.51100000000E-03 0.  1.
        -12    1    3    3    0    0 -0.12984123079E+02 -0.62996726271E+01 -0.11865910019E+02  0.18683499349E+02  0.00000000000E+00 0.  1.
</event>
<event>
 7    1  0.2313935E-008  0.4614232E+02  0.7816164E-02  0.1320468E+00
        -11   -1    0    0    0    0  0.00000000000E+00  0.00000000000E+00  0.45593999997E+02  0.45594000000E+02  0.51100000000E-03 0.  1.
         11   -1    0    0    0    0 -0.00000000000E+00 -0.00000000000E+00 -0.45593999997E+02  0.45594000000E+02  0.51100000000E-03 0. -1.
    9900012    2    1    2    0    0  0.47689308881E+01 -0.98079462239E+01  0.43705548095E+02  0.46142318240E+02  0.10000004365E+02 0.  0.
         12    1    1    2    0    0 -0.47689308881E+01  0.98079462239E+01 -0.43705548095E+02  0.45045681760E+02  0.00000000000E+00 0. -1.
         11    1    3    3    0    0  0.21174883640E+01  0.71243863353E+00  0.55320265786E+01  0.59661247142E+01  0.51100000000E-03 0. -1.
        -11    1    3    3    0    0 -0.12970356471E+01 -0.40042062234E+01  0.78172892659E+01  0.88783996687E+01  0.51100000000E-03 0.  1.
        -12    1    3    3    0    0  0.39484781712E+01 -0.65161786340E+01  0.30356232251E+02  0.31297793857E+02  0.00000000000E+00 0.  1.
</event>
