<event>
 7    1  0.4520336E-015  0.9000762E+02  0.7816164E-02  0.1186339E+00
        -11   -1    0    0    0    0  0.00000000000E+00  0.00000000000E+00  0.45593999997E+02  0.45594000000E+02  0.51100000000E-03 0. -1.
         11   -1    0    0    0    0 -0.00000000000E+00 -0.00000000000E+00 -0.45593999997E+02  0.45594000000E+02  0.51100000000E-03 0.  1.
    9900012    2    1    2    0    0 -0.97487625023E+00  0.42489535266E+00  0.51223011104E+00  0.90007618938E+02  0.89999878708E+02 0.  0.
         12    1    1    2    0    0  0.97487625023E+00 -0.42489535266E+00 -0.51223011104E+00  0.11803810616E+01  0.00000000000E+00 0. -1.
         11    1    3    3    0    0 -0.25674827661E+02  0.29013764846E+02 -0.46923546649E+01  0.39025805803E+02  0.51100000000E-03 0. -1.
        -11    1    3    3    0    0 -0.84412333976E+01 -0.43418705894E+01 -0.59100330056E+00  0.95108120921E+01  0.51100000000E-03 0.  1.
        -12    1    3    3    0    0  0.33141184809E+02 -0.24246998904E+02  0.57955880765E+01  0.41471001043E+02  0.00000000000E+00 0.  1.
</event>
<event>
 7    1  0.4520336E-015  0.9000780E+02  0.7816164E-02  0.1186339E+00
        -11   -1    0    0    0    0  0.00000000000E+00  0.00000000000E+00  0.45593999997E+02  0.45594000000E+02  0.51100000000E-03 0.  1.
         11   -1    0    0    0    0 -0.00000000000E+00 -0.00000000000E+00 -0.45593999997E+02  0.45594000000E+02  0.51100000000E-03 0. -1.
    9900012    2    1    2    0    0  0.10192892345E+01  0.47485288335E+00 -0.35836988164E+00  0.90007803077E+02  0.90000065278E+02 0.  0.
         12    1    1    2    0    0 -0.10192892345E+01 -0.47485288335E+00  0.35836988164E+00  0.11801969227E+01  0.00000000000E+00 0. -1.
         11    1    3    3    0    0 -0.19292115586E+02  0.37522469835E+02 -0.65159817086E+01  0.42691679332E+02  0.51100000000E-03 0. -1.
        -11    1    3    3    0    0 -0.20922466279E+01 -0.76187948431E+01 -0.41445579167E+01  0.89219331649E+01  0.51100000000E-03 0.  1.
        -12    1    3    3    0    0  0.22403651449E+02 -0.29428822108E+02  0.10302169744E+02  0.38394190581E+02  0.00000000000E+00 0.  1.
</event>
<event>
 7    1  0.4520336E-015  0.9000767E+02  0.7816164E-02  0.1186339E+00
        -11   -1    0    0    0    0  0.00000000000E+00  0.00000000000E+00  0.45593999997E+02  0.45594000000E+02  0.51100000000E-03 0.  1.
         11   -1    0    0    0    0 -0.00000000000E+00 -0.00000000000E+00 -0.45593999997E+02  0.45594000000E+02  0.51100000000E-03 0. -1.
    9900012    2    1    2    0    0 -0.35552921289E+00 -0.83612466077E+00  0.75343391766E+00  0.90007674563E+02  0.89999935067E+02 0.  0.
         12    1    1    2    0    0  0.35552921289E+00  0.83612466077E+00 -0.75343391766E+00  0.11803254373E+01  0.00000000000E+00 0. -1.
         11    1    3    3    0    0  0.51892238685E+01 -0.67787194564E+01  0.39526180623E+01  0.94075645964E+01  0.51100000000E-03 0. -1.
        -11    1    3    3    0    0  0.29083520492E+02  0.14250478185E+02  0.20031972045E+02  0.38081586062E+02  0.51100000000E-03 0.  1.
         12    1    3    3    0    0 -0.34628273574E+02 -0.83078833890E+01 -0.23231156190E+02  0.42518523904E+02  0.00000000000E+00 0. -1.
</event>
<event>
 7    1  0.4520336E-015  0.9000778E+02  0.7816164E-02  0.1186339E+00
        -11   -1    0    0    0    0  0.00000000000E+00  0.00000000000E+00  0.45593999997E+02  0.45594000000E+02  0.51100000000E-03 0. -1.
         11   -1    0    0    0    0 -0.00000000000E+00 -0.00000000000E+00 -0.45593999997E+02  0.45594000000E+02  0.51100000000E-03 0.  1.
    9900012    2    1    2    0    0  0.85772988671E+00 -0.39494843316E+00 -0.70798645121E+00  0.90007775598E+02  0.90000037436E+02 0.  0.
         12    1    1    2    0    0 -0.85772988671E+00  0.39494843316E+00  0.70798645121E+00  0.11802244018E+01  0.00000000000E+00 0. -1.
         11    1    3    3    0    0 -0.23153866723E+02 -0.27547281977E+02  0.11785258191E+02  0.37866166949E+02  0.51100000000E-03 0. -1.
        -11    1    3    3    0    0 -0.34756541320E+01  0.38676067172E+01  0.88537093746E+01  0.10267751619E+02  0.51100000000E-03 0.  1.
        -12    1    3    3    0    0  0.27487250742E+02  0.23284726827E+02 -0.21346954017E+02  0.41873857030E+02  0.00000000000E+00 0.  1.
</event>
<event>
 7    1  0.4520336E-015  0.9000775E+02  0.7816164E-02  0.1186339E+00
        -11   -1    0    0    0    0  0.00000000000E+00  0.00000000000E+00  0.45593999997E+02  0.45594000000E+02  0.51100000000E-03 0. -1.
         11   -1    0    0    0    0 -0.00000000000E+00 -0.00000000000E+00 -0.45593999997E+02  0.45594000000E+02  0.51100000000E-03 0.  1.
    9900012    2    1    2    0    0  0.24878426991E+00  0.78896474494E+00  0.84180610657E+00  0.90007747272E+02  0.90000008736E+02 0.  0.
         12    1    1    2    0    0 -0.24878426991E+00 -0.78896474494E+00 -0.84180610657E+00  0.11802527283E+01  0.00000000000E+00 0. -1.
         11    1    3    3    0    0 -0.14704525983E+02 -0.22376805083E+01 -0.10779762770E+02  0.18369365369E+02  0.51100000000E-03 0. -1.
        -11    1    3    3    0    0  0.33589535387E+02  0.58375428687E+01 -0.16428374966E+02  0.37844752589E+02  0.51100000000E-03 0.  1.
         12    1    3    3    0    0 -0.18636225134E+02 -0.28108976155E+01  0.28049943842E+02  0.33793629314E+02  0.00000000000E+00 0. -1.
</event>
<event>
 7    1  0.4520336E-015  0.9000776E+02  0.7816164E-02  0.1186339E+00
        -11   -1    0    0    0    0  0.00000000000E+00  0.00000000000E+00  0.45593999997E+02  0.45594000000E+02  0.51100000000E-03 0. -1.
         11   -1    0    0    0    0 -0.00000000000E+00 -0.00000000000E+00 -0.45593999997E+02  0.45594000000E+02  0.51100000000E-03 0.  1.
    9900012    2    1    2    0    0  0.51642263397E+00  0.97679207579E+00 -0.41490139389E+00  0.90007763472E+02  0.90000025149E+02 0.  0.
         12    1    1    2    0    0 -0.51642263397E+00 -0.97679207579E+00  0.41490139389E+00  0.11802365283E+01  0.00000000000E+00 0. -1.
         11    1    3    3    0    0  0.32334163717E+01  0.81634765464E+01 -0.64380794988E+01  0.10887892296E+02  0.51100000000E-03 0. -1.
        -11    1    3    3    0    0 -0.33467365557E+02  0.63627552385E+01 -0.17307774502E+02  0.38211363100E+02  0.51100000000E-03 0.  1.
         12    1    3    3    0    0  0.30750371819E+02 -0.13549439709E+02  0.23330952607E+02  0.40908508075E+02  0.00000000000E+00 0. -1.
</event>
<event>
 7    1  0.4520336E-015  0.9000776E+02  0.7816164E-02  0.1186339E+00
        -11   -1    0    0    0    0  0.00000000000E+00  0.00000000000E+00  0.45593999997E+02  0.45594000000E+02  0.51100000000E-03 0. -1.
         11   -1    0    0    0    0 -0.00000000000E+00 -0.00000000000E+00 -0.45593999997E+02  0.45594000000E+02  0.51100000000E-03 0.  1.
    9900012    2    1    2    0    0  0.74931309313E+00 -0.61988548044E-02 -0.91184635568E+00  0.90007757519E+02  0.90000019118E+02 0.  0.
         12    1    1    2    0    0 -0.74931309313E+00  0.61988548044E-02  0.91184635568E+00  0.11802424809E+01  0.00000000000E+00 0. -1.
         11    1    3    3    0    0 -0.15704536628E+02 -0.37264305326E+02  0.35556812610E+01  0.40594381282E+02  0.51100000000E-03 0. -1.
        -11    1    3    3    0    0 -0.44073296928E+00  0.39388588643E+00  0.71943759003E+01  0.72186173536E+01  0.51100000000E-03 0.  1.
        -12    1    3    3    0    0  0.16894582690E+02  0.36864220585E+02 -0.11661903517E+02  0.42194758884E+02  0.00000000000E+00 0.  1.
</event>
<event>
 7    1  0.4520336E-015  0.9000761E+02  0.7816164E-02  0.1186339E+00
        -11   -1    0    0    0    0  0.00000000000E+00  0.00000000000E+00  0.45593999997E+02  0.45594000000E+02  0.51100000000E-03 0.  1.
         11   -1    0    0    0    0 -0.00000000000E+00 -0.00000000000E+00 -0.45593999997E+02  0.45594000000E+02  0.51100000000E-03 0. -1.
    9900012    2    1    2    0    0 -0.11710681198E+01 -0.16657788248E-01  0.14711019752E+00  0.90007610474E+02  0.89999870132E+02 0.  0.
         12    1    1    2    0    0  0.11710681198E+01  0.16657788248E-01 -0.14711019752E+00  0.11803895261E+01  0.00000000000E+00 0. -1.
         11    1    3    3    0    0 -0.13974035246E+02  0.30310803275E+02 -0.67298461363E+01  0.34048631185E+02  0.51100000000E-03 0. -1.
        -11    1    3    3    0    0 -0.35625719069E+01  0.10097970432E+02  0.61334534525E+01  0.12340185450E+02  0.51100000000E-03 0.  1.
        -12    1    3    3    0    0  0.16365539034E+02 -0.40425431495E+02  0.74350288135E+00  0.43618793839E+02  0.00000000000E+00 0.  1.
</event>
<event>
 7    1  0.4520336E-015  0.9000758E+02  0.7816164E-02  0.1186339E+00
        -11   -1    0    0    0    0  0.00000000000E+00  0.00000000000E+00  0.45593999997E+02  0.45594000000E+02  0.51100000000E-03 0. -1.
         11   -1    0    0    0    0 -0.00000000000E+00 -0.00000000000E+00 -0.45593999997E+02  0.45594000000E+02  0.51100000000E-03 0.  1.
    9900012    2    1    2    0    0 -0.84113745227E+00 -0.81366731222E+00 -0.15437066047E+00  0.90007577614E+02  0.89999836838E+02 0.  0.
         12    1    1    2    0    0  0.84113745227E+00  0.81366731222E+00  0.15437066047E+00  0.11804223860E+01  0.00000000000E+00 0. -1.
         11    1    3    3    0    0  0.15732648940E+01 -0.10175377674E+02 -0.78796132738E+00  0.10326391265E+02  0.51100000000E-03 0. -1.
        -11    1    3    3    0    0  0.33196235228E+02 -0.12706337583E+01  0.18953515642E+02  0.38247095300E+02  0.51100000000E-03 0.  1.
         12    1    3    3    0    0 -0.35610637574E+02  0.10632344120E+02 -0.18319924975E+02  0.41434091049E+02  0.00000000000E+00 0. -1.
</event>
<event>
 7    1  0.4520336E-015  0.9000792E+02  0.7816164E-02  0.1186339E+00
        -11   -1    0    0    0    0  0.00000000000E+00  0.00000000000E+00  0.45593999997E+02  0.45594000000E+02  0.51100000000E-03 0. -1.
         11   -1    0    0    0    0 -0.00000000000E+00 -0.00000000000E+00 -0.45593999997E+02  0.45594000000E+02  0.51100000000E-03 0.  1.
    9900012    2    1    2    0    0 -0.79580164503E+00 -0.22520611500E+00 -0.84176465856E+00  0.90007921277E+02  0.90000185037E+02 0.  0.
         12    1    1    2    0    0  0.79580164503E+00  0.22520611500E+00  0.84176465856E+00  0.11800787232E+01  0.00000000000E+00 0. -1.
         11    1    3    3    0    0  0.16121494782E+02  0.71711799052E+01  0.19230932185E+02  0.26098987877E+02  0.51100000000E-03 0. -1.
        -11    1    3    3    0    0  0.31069702599E+01 -0.23104457895E+01  0.19171556242E+02  0.19558629629E+02  0.51100000000E-03 0.  1.
        -12    1    3    3    0    0 -0.20024266687E+02 -0.50859402307E+01 -0.39244253085E+02  0.44350303771E+02  0.00000000000E+00 0.  1.
</event>
<event>
 7    1  0.4520336E-015  0.9000766E+02  0.7816164E-02  0.1186339E+00
        -11   -1    0    0    0    0  0.00000000000E+00  0.00000000000E+00  0.45593999997E+02  0.45594000000E+02  0.51100000000E-03 0.  1.
         11   -1    0    0    0    0 -0.00000000000E+00 -0.00000000000E+00 -0.45593999997E+02  0.45594000000E+02  0.51100000000E-03 0. -1.
    9900012    2    1    2    0    0  0.17821723838E+00  0.10308526962E+01  0.54661605216E+00  0.90007657773E+02  0.89999918055E+02 0.  0.
         12    1    1    2    0    0 -0.17821723838E+00 -0.10308526962E+01 -0.54661605216E+00  0.11803422274E+01  0.00000000000E+00 0. -1.
         11    1    3    3    0    0  0.62050170558E+01  0.79977958529E+01  0.46293454464E+00  0.10133177380E+02  0.51100000000E-03 0. -1.
        -11    1    3    3    0    0 -0.26861050046E+02 -0.19513985918E+02  0.27582512690E+02  0.43163719285E+02  0.51100000000E-03 0.  1.
         12    1    3    3    0    0  0.20834250228E+02  0.12547042761E+02 -0.27498831183E+02  0.36710761107E+02  0.00000000000E+00 0. -1.
</event>
<event>
 7    1  0.4520336E-015  0.9000767E+02  0.7816164E-02  0.1186339E+00
        -11   -1    0    0    0    0  0.00000000000E+00  0.00000000000E+00  0.45593999997E+02  0.45594000000E+02  0.51100000000E-03 0.  1.
         11   -1    0    0    0    0 -0.00000000000E+00 -0.00000000000E+00 -0.45593999997E+02  0.45594000000E+02  0.51100000000E-03 0. -1.
    9900012    2    1    2    0    0  0.34417100447E+00 -0.73360447343E+00  0.85822784355E+00  0.90007667744E+02  0.89999928158E+02 0.  0.
         12    1    1    2    0    0 -0.34417100447E+00  0.73360447343E+00 -0.85822784355E+00  0.11803322563E+01  0.00000000000E+00 0. -1.
         11    1    3    3    0    0 -0.13196961966E+02 -0.33724468945E+02 -0.20028840749E+02  0.41384224926E+02  0.51100000000E-03 0. -1.
        -11    1    3    3    0    0  0.21934634074E+01 -0.19898563034E+01  0.97633642410E+01  0.10202651194E+02  0.51100000000E-03 0.  1.
        -12    1    3    3    0    0  0.11347669563E+02  0.34980720775E+02  0.11123704351E+02  0.38420791623E+02  0.00000000000E+00 0.  1.
</event>
<event>
 7    1  0.7110790E-015  0.9000765E+02  0.7816164E-02  0.1186339E+00
        -11   -1    0    0    0    0  0.00000000000E+00  0.00000000000E+00  0.45593999997E+02  0.45594000000E+02  0.51100000000E-03 0. -1.
         11   -1    0    0    0    0 -0.00000000000E+00 -0.00000000000E+00 -0.45593999997E+02  0.45594000000E+02  0.51100000000E-03 0.  1.
    9900012    2    1    2    0    0  0.33008012002E+00 -0.79583608942E+00 -0.80678901022E+00  0.90007654087E+02  0.89999914321E+02 0.  0.
         12    1    1    2    0    0 -0.33008012002E+00  0.79583608942E+00  0.80678901022E+00  0.11803459128E+01  0.00000000000E+00 0. -1.
         11    1    3    3    0    0 -0.74229047576E+00  0.86302232967E+01 -0.25394619773E+01  0.90266614369E+01  0.51100000000E-03 0. -1.
        -11    1    3    3    0    0 -0.10958800164E+02 -0.14875774024E+02 -0.36293710185E+02  0.40726126173E+02  0.51100000000E-03 0.  1.
         12    1    3    3    0    0  0.12031170760E+02  0.54497146383E+01  0.38026383152E+02  0.40254866477E+02  0.00000000000E+00 0. -1.
</event>
<event>
 7    1  0.4520336E-015  0.9000764E+02  0.7816164E-02  0.1186339E+00
        -11   -1    0    0    0    0  0.00000000000E+00  0.00000000000E+00  0.45593999997E+02  0.45594000000E+02  0.51100000000E-03 0. -1.
         11   -1    0    0    0    0 -0.00000000000E+00 -0.00000000000E+00 -0.45593999997E+02  0.45594000000E+02  0.51100000000E-03 0.  1.
    9900012    2    1    2    0    0 -0.37899312615E+00  0.42902311996E+00 -0.10322580545E+01  0.90007638480E+02  0.89999898508E+02 0.  0.
         12    1    1    2    0    0  0.37899312615E+00 -0.42902311996E+00  0.10322580545E+01  0.11803615201E+01  0.00000000000E+00 0. -1.
         11    1    3    3    0    0 -0.75522308998E-01  0.18481207032E+01 -0.97523100333E+01  0.99261676895E+01  0.51100000000E-03 0. -1.
        -11    1    3    3    0    0 -0.30578672329E+02 -0.26240638466E+02  0.18745854053E+01  0.40337828142E+02  0.51100000000E-03 0.  1.
         12    1    3    3    0    0  0.30275201512E+02  0.24821540882E+02  0.68454665735E+01  0.39743642649E+02  0.00000000000E+00 0. -1.
</event>
<event>
 7    1  0.4520336E-015  0.9000778E+02  0.7816164E-02  0.1186339E+00
        -11   -1    0    0    0    0  0.00000000000E+00  0.00000000000E+00  0.45593999997E+02  0.45594000000E+02  0.51100000000E-03 0.  1.
         11   -1    0    0    0    0 -0.00000000000E+00 -0.00000000000E+00 -0.45593999997E+02  0.45594000000E+02  0.51100000000E-03 0. -1.
    9900012    2    1    2    0    0  0.47035267574E+00  0.10270212292E+01 -0.34192286998E+00  0.90007781591E+02  0.90000043508E+02 0.  0.
         12    1    1    2    0    0 -0.47035267574E+00 -0.10270212292E+01  0.34192286998E+00  0.11802184093E+01  0.00000000000E+00 0. -1.
         11    1    3    3    0    0 -0.52654990929E-01 -0.36346223034E+01 -0.88391914458E+01  0.95574346722E+01  0.51100000000E-03 0. -1.
        -11    1    3    3    0    0  0.31212790948E+02 -0.21585223982E+02  0.12290122651E+02  0.39889940187E+02  0.51100000000E-03 0.  1.
         12    1    3    3    0    0 -0.30689783281E+02  0.26246867515E+02 -0.37928540752E+01  0.40560406731E+02  0.00000000000E+00 0. -1.
</event>
<event>
 7    1  0.4520336E-015  0.9000774E+02  0.7816164E-02  0.1186339E+00
        -11   -1    0    0    0    0  0.00000000000E+00  0.00000000000E+00  0.45593999997E+02  0.45594000000E+02  0.51100000000E-03 0. -1.
         11   -1    0    0    0    0 -0.00000000000E+00 -0.00000000000E+00 -0.45593999997E+02  0.45594000000E+02  0.51100000000E-03 0.  1.
    9900012    2    1    2    0    0  0.10689331632E+01  0.49605031744E+00 -0.65824349697E-01  0.90007738643E+02  0.89999999994E+02 0.  0.
         12    1    1    2    0    0 -0.10689331632E+01 -0.49605031744E+00  0.65824349697E-01  0.11802613566E+01  0.00000000000E+00 0. -1.
         11    1    3    3    0    0  0.83656345638E+01 -0.67166299628E+01  0.11051568506E+02  0.15402406514E+02  0.51100000000E-03 0. -1.
        -11    1    3    3    0    0  0.12238852660E+01  0.39575928767E+02 -0.86601590881E+00  0.39604318158E+02  0.51100000000E-03 0.  1.
         12    1    3    3    0    0 -0.85205866666E+01 -0.32363248487E+02 -0.10251376947E+02  0.35001013972E+02  0.00000000000E+00 0. -1.
</event>
<event>
 7    1  0.4520336E-015  0.9000780E+02  0.7816164E-02  0.1186339E+00
        -11   -1    0    0    0    0  0.00000000000E+00  0.00000000000E+00  0.45593999997E+02  0.45594000000E+02  0.51100000000E-03 0. -1.
         11   -1    0    0    0    0 -0.00000000000E+00 -0.00000000000E+00 -0.45593999997E+02  0.45594000000E+02  0.51100000000E-03 0.  1.
    9900012    2    1    2    0    0  0.80173492571E+00 -0.49664764535E+00  0.70953049689E+00  0.90007800313E+02  0.90000062477E+02 0.  0.
         12    1    1    2    0    0 -0.80173492571E+00  0.49664764535E+00 -0.70953049689E+00  0.11801996868E+01  0.00000000000E+00 0. -1.
         11    1    3    3    0    0 -0.23306614813E+02 -0.26029653147E+02  0.13235507712E+02  0.37362010139E+02  0.51100000000E-03 0. -1.
        -11    1    3    3    0    0 -0.40534459292E+01 -0.54166806385E+01 -0.81212156693E+01  0.10570004600E+02  0.51100000000E-03 0.  1.
        -12    1    3    3    0    0  0.28161795667E+02  0.30949686140E+02 -0.44047615457E+01  0.42075785574E+02  0.00000000000E+00 0.  1.
</event>
<event>
 7    1  0.4520336E-015  0.9000780E+02  0.7816164E-02  0.1186339E+00
        -11   -1    0    0    0    0  0.00000000000E+00  0.00000000000E+00  0.45593999997E+02  0.45594000000E+02  0.51100000000E-03 0.  1.
         11   -1    0    0    0    0 -0.00000000000E+00 -0.00000000000E+00 -0.45593999997E+02  0.45594000000E+02  0.51100000000E-03 0. -1.
    9900012    2    1    2    0    0 -0.36281876435E+00 -0.10029108959E+01 -0.50537368308E+00  0.90007800745E+02  0.90000062915E+02 0.  0.
         12    1    1    2    0    0  0.36281876435E+00  0.10029108959E+01  0.50537368308E+00  0.11801992545E+01  0.00000000000E+00 0. -1.
         11    1    3    3    0    0  0.26678615343E+02  0.22483482768E+02 -0.19835751651E+02  0.40133683582E+02  0.51100000000E-03 0. -1.
        -11    1    3    3    0    0 -0.95197634307E+01  0.58676542894E+01  0.13961106013E+01  0.11269622341E+02  0.51100000000E-03 0.  1.
        -12    1    3    3    0    0 -0.17521670677E+02 -0.29354047953E+02  0.17934267366E+02  0.38604494823E+02  0.00000000000E+00 0.  1.
</event>
<event>
 7    1  0.4520336E-015  0.9000763E+02  0.7816164E-02  0.1186339E+00
        -11   -1    0    0    0    0  0.00000000000E+00  0.00000000000E+00  0.45593999997E+02  0.45594000000E+02  0.51100000000E-03 0. -1.
         11   -1    0    0    0    0 -0.00000000000E+00 -0.00000000000E+00 -0.45593999997E+02  0.45594000000E+02  0.51100000000E-03 0.  1.
    9900012    2    1    2    0    0 -0.11603216717E+01 -0.10376000585E+00  0.19014313951E+00  0.90007632712E+02  0.89999892664E+02 0.  0.
         12    1    1    2    0    0  0.11603216717E+01  0.10376000585E+00 -0.19014313951E+00  0.11803672878E+01  0.00000000000E+00 0. -1.
         11    1    3    3    0    0  0.24553497671E+02  0.13762290127E+02 -0.23115473171E+02  0.36422520198E+02  0.51100000000E-03 0. -1.
        -11    1    3    3    0    0  0.73803040955E+01  0.61211783575E+01  0.44547344511E+01  0.10572718303E+02  0.51100000000E-03 0.  1.
        -12    1    3    3    0    0 -0.33094123438E+02 -0.19987228491E+02  0.18850881860E+02  0.43012394211E+02  0.00000000000E+00 0.  1.
</event>
<event>
 7    1  0.4520336E-015  0.9000772E+02  0.7816164E-02  0.1186339E+00
        -11   -1    0    0    0    0  0.00000000000E+00  0.00000000000E+00  0.45593999997E+02  0.45594000000E+02  0.51100000000E-03 0. -1.
         11   -1    0    0    0    0 -0.00000000000E+00 -0.00000000000E+00 -0.45593999997E+02  0.45594000000E+02  0.51100000000E-03 0.  1.
    9900012    2    1    2    0    0 -0.79346724087E+00 -0.87361692414E+00 -0.16158739483E-01  0.90007721263E+02  0.89999982384E+02 0.  0.
         12    1    1    2    0    0  0.79346724087E+00  0.87361692414E+00  0.16158739483E-01  0.11802787371E+01  0.00000000000E+00 0. -1.
         11    1    3    3    0    0  0.45546366176E+00 -0.41190132329E+01 -0.81636393463E+01  0.91552566757E+01  0.51100000000E-03 0. -1.
        -11    1    3    3    0    0  0.29914604327E+02 -0.23828988070E+02 -0.21500304402E+01  0.38305702651E+02  0.51100000000E-03 0.  1.
         12    1    3    3    0    0 -0.31163535229E+02  0.27074384378E+02  0.10297511047E+02  0.42546761936E+02  0.00000000000E+00 0. -1.
</event>
<event>
 7    1  0.4520336E-015  0.9000765E+02  0.7816164E-02  0.1186339E+00
        -11   -1    0    0    0    0  0.00000000000E+00  0.00000000000E+00  0.45593999997E+02  0.45594000000E+02  0.51100000000E-03 0. -1.
         11   -1    0    0    0    0 -0.00000000000E+00 -0.00000000000E+00 -0.45593999997E+02  0.45594000000E+02  0.51100000000E-03 0.  1.
    9900012    2    1    2    0    0 -0.10035860253E+01  0.46397497962E+00 -0.41323432460E+00  0.90007652467E+02  0.89999912679E+02 0.  0.
         12    1    1    2    0    0  0.10035860253E+01 -0.46397497962E+00  0.41323432460E+00  0.11803475331E+01  0.00000000000E+00 0. -1.
         11    1    3    3    0    0 -0.24636993872E+02 -0.26413136503E+02  0.14846934104E+02  0.39052102370E+02  0.51100000000E-03 0. -1.
        -11    1    3    3    0    0  0.50351013565E+01 -0.55997865512E+01  0.43574445604E+01  0.87004125447E+01  0.51100000000E-03 0.  1.
        -12    1    3    3    0    0  0.18598306490E+02  0.32476898034E+02 -0.19617612989E+02  0.42255137552E+02  0.00000000000E+00 0.  1.
</event>
<event>
 7    1  0.4520336E-015  0.9000764E+02  0.7816164E-02  0.1186339E+00
        -11   -1    0    0    0    0  0.00000000000E+00  0.00000000000E+00  0.45593999997E+02  0.45594000000E+02  0.51100000000E-03 0.  1.
         11   -1    0    0    0    0 -0.00000000000E+00 -0.00000000000E+00 -0.45593999997E+02  0.45594000000E+02  0.51100000000E-03 0. -1.
    9900012    2    1    2    0    0 -0.73131938509E+00 -0.46610123342E+00  0.80073190587E+00  0.90007639891E+02  0.89999899937E+02 0.  0.
         12    1    1    2    0    0  0.73131938509E+00  0.46610123342E+00 -0.80073190587E+00  0.11803601094E+01  0.00000000000E+00 0. -1.
         11    1    3    3    0    0  0.35172060229E+01 -0.76878404695E+01  0.62349654932E+01  0.10504685824E+02  0.51100000000E-03 0. -1.
        -11    1    3    3    0    0 -0.22736516630E+02 -0.25974537047E+02  0.13479717425E+02  0.37058447693E+02  0.51100000000E-03 0.  1.
         12    1    3    3    0    0  0.18487991222E+02  0.33196276283E+02 -0.18913951012E+02  0.42444506374E+02  0.00000000000E+00 0. -1.
</event>
<event>
 7    1  0.4520336E-015  0.9000769E+02  0.7816164E-02  0.1186339E+00
        -11   -1    0    0    0    0  0.00000000000E+00  0.00000000000E+00  0.45593999997E+02  0.45594000000E+02  0.51100000000E-03 0.  1.
         11   -1    0    0    0    0 -0.00000000000E+00 -0.00000000000E+00 -0.45593999997E+02  0.45594000000E+02  0.51100000000E-03 0. -1.
    9900012    2    1    2    0    0 -0.11129345261E+01  0.31657087109E+00  0.23301858684E+00  0.90007687314E+02  0.89999947986E+02 0.  0.
         12    1    1    2    0    0  0.11129345261E+01 -0.31657087109E+00 -0.23301858684E+00  0.11803126864E+01  0.00000000000E+00 0. -1.
         11    1    3    3    0    0 -0.20018256207E+01 -0.12072617662E+01  0.54905738811E+01  0.59675110886E+01  0.51100000000E-03 0. -1.
        -11    1    3    3    0    0  0.34103294464E+02  0.10670940803E+02  0.20343052855E+02  0.41118651129E+02  0.51100000000E-03 0.  1.
         12    1    3    3    0    0 -0.33214403369E+02 -0.91471081652E+01 -0.25600608149E+02  0.42921525096E+02  0.00000000000E+00 0. -1.
</event>
<event>
 7    1  0.4520336E-015  0.9000772E+02  0.7816164E-02  0.1186339E+00
        -11   -1    0    0    0    0  0.00000000000E+00  0.00000000000E+00  0.45593999997E+02  0.45594000000E+02  0.51100000000E-03 0. -1.
         11   -1    0    0    0    0 -0.00000000000E+00 -0.00000000000E+00 -0.45593999997E+02  0.45594000000E+02  0.51100000000E-03 0.  1.
    9900012    2    1    2    0    0  0.97741994973E+00  0.44830922588E+00 -0.48655001240E+00  0.90007719595E+02  0.89999980694E+02 0.  0.
         12    1    1    2    0    0 -0.97741994973E+00 -0.44830922588E+00  0.48655001240E+00  0.11802804051E+01  0.00000000000E+00 0. -1.
         11    1    3    3    0    0  0.62389015108E+01  0.71451884415E+01  0.10276087300E+02  0.13984833942E+02  0.51100000000E-03 0. -1.
        -11    1    3    3    0    0  0.53608062419E+01  0.12882647676E+02 -0.38207590763E+02  0.40675801737E+02  0.51100000000E-03 0.  1.
         12    1    3    3    0    0 -0.10622287803E+02 -0.19579526892E+02  0.27444953451E+02  0.35347083916E+02  0.00000000000E+00 0. -1.
</event>
<event>
 7    1  0.4520336E-015  0.9000781E+02  0.7816164E-02  0.1186339E+00
        -11   -1    0    0    0    0  0.00000000000E+00  0.00000000000E+00  0.45593999997E+02  0.45594000000E+02  0.51100000000E-03 0. -1.
         11   -1    0    0    0    0 -0.00000000000E+00 -0.00000000000E+00 -0.45593999997E+02  0.45594000000E+02  0.51100000000E-03 0.  1.
    9900012    2    1    2    0    0  0.14680859394E+00 -0.11146683058E+01  0.35890061963E+00  0.90007810248E+02  0.90000072544E+02 0.  0.
         12    1    1    2    0    0 -0.14680859394E+00  0.11146683058E+01 -0.35890061963E+00  0.11801897517E+01  0.00000000000E+00 0. -1.
         11    1    3    3    0    0  0.20036051875E+01 -0.86186573010E+01  0.13418393813E+01  0.89496491889E+01  0.51100000000E-03 0. -1.
        -11    1    3    3    0    0 -0.20415058150E+02 -0.15392088675E+02 -0.30192180494E+02  0.39563351176E+02  0.51100000000E-03 0.  1.
         12    1    3    3    0    0  0.18558261556E+02  0.22896077670E+02  0.29209241733E+02  0.41494809883E+02  0.00000000000E+00 0. -1.
</event>
<event>
 7    1  0.4520336E-015  0.9000785E+02  0.7816164E-02  0.1186339E+00
        -11   -1    0    0    0    0  0.00000000000E+00  0.00000000000E+00  0.45593999997E+02  0.45594000000E+02  0.51100000000E-03 0.  1.
         11   -1    0    0    0    0 -0.00000000000E+00 -0.00000000000E+00 -0.45593999997E+02  0.45594000000E+02  0.51100000000E-03 0. -1.
    9900012    2    1    2    0    0 -0.53923144523E+00  0.26634757351E+00  0.10154066944E+01  0.90007846478E+02  0.90000109251E+02 0.  0.
         12    1    1    2    0    0  0.53923144523E+00 -0.26634757351E+00 -0.10154066944E+01  0.11801535224E+01  0.00000000000E+00 0. -1.
         11    1    3    3    0    0  0.13984597048E+01 -0.34829630631E+01 -0.10183520711E+02  0.10853147726E+02  0.51100000000E-03 0. -1.
        -11    1    3    3    0    0 -0.23809645475E+02  0.33530268298E+02  0.25305542173E+01  0.41201721016E+02  0.51100000000E-03 0.  1.
         12    1    3    3    0    0  0.21871954325E+02 -0.29780957661E+02  0.86683731877E+01  0.37952977735E+02  0.00000000000E+00 0. -1.
</event>
<event>
 7    1  0.4520336E-015  0.9000781E+02  0.7816164E-02  0.1186339E+00
        -11   -1    0    0    0    0  0.00000000000E+00  0.00000000000E+00  0.45593999997E+02  0.45594000000E+02  0.51100000000E-03 0.  1.
         11   -1    0    0    0    0 -0.00000000000E+00 -0.00000000000E+00 -0.45593999997E+02  0.45594000000E+02  0.51100000000E-03 0. -1.
    9900012    2    1    2    0    0 -0.33562375886E+00 -0.66134457517E+00  0.91805256563E+00  0.90007813376E+02  0.90000075712E+02 0.  0.
         12    1    1    2    0    0  0.33562375886E+00  0.66134457517E+00 -0.91805256563E+00  0.11801866242E+01  0.00000000000E+00 0. -1.
         11    1    3    3    0    0 -0.19761509443E+02  0.25006244061E+02  0.19469084352E+02  0.37348021946E+02  0.51100000000E-03 0. -1.
        -11    1    3    3    0    0 -0.93915790351E+01 -0.58840648841E+01  0.31436958864E+01  0.11519843767E+02  0.51100000000E-03 0.  1.
        -12    1    3    3    0    0  0.28817464719E+02 -0.19783523752E+02 -0.21694727673E+02  0.41139947663E+02  0.00000000000E+00 0.  1.
</event>
<event>
 7    1  0.4520336E-015  0.9000798E+02  0.7816164E-02  0.1186339E+00
        -11   -1    0    0    0    0  0.00000000000E+00  0.00000000000E+00  0.45593999997E+02  0.45594000000E+02  0.51100000000E-03 0.  1.
         11   -1    0    0    0    0 -0.00000000000E+00 -0.00000000000E+00 -0.45593999997E+02  0.45594000000E+02  0.51100000000E-03 0. -1.
    9900012    2    1    2    0    0 -0.68365797894E+00 -0.78623867140E+00  0.55397445647E+00  0.90007980009E+02  0.90000244545E+02 0.  0.
         12    1    1    2    0    0  0.68365797894E+00  0.78623867140E+00 -0.55397445647E+00  0.11800199909E+01  0.00000000000E+00 0. -1.
         11    1    3    3    0    0 -0.91550741382E+00 -0.80229425721E+01 -0.73943879559E+01  0.10949097444E+02  0.51100000000E-03 0. -1.
        -11    1    3    3    0    0  0.37773366511E+02 -0.43361435589E+01  0.11208253030E+02  0.39639050125E+02  0.51100000000E-03 0.  1.
         12    1    3    3    0    0 -0.37541517077E+02  0.11572847460E+02 -0.32598906180E+01  0.39419832440E+02  0.00000000000E+00 0. -1.
</event>
<event>
 7    1  0.4520336E-015  0.9000772E+02  0.7816164E-02  0.1186339E+00
        -11   -1    0    0    0    0  0.00000000000E+00  0.00000000000E+00  0.45593999997E+02  0.45594000000E+02  0.51100000000E-03 0.  1.
         11   -1    0    0    0    0 -0.00000000000E+00 -0.00000000000E+00 -0.45593999997E+02  0.45594000000E+02  0.51100000000E-03 0. -1.
    9900012    2    1    2    0    0 -0.22205282456E+00 -0.72576937717E+00 -0.90388961787E+00  0.90007718217E+02  0.89999979298E+02 0.  0.
         12    1    1    2    0    0  0.22205282456E+00  0.72576937717E+00  0.90388961787E+00  0.11802817829E+01  0.00000000000E+00 0. -1.
         11    1    3    3    0    0 -0.15098265790E+01  0.74570862008E+01 -0.44851670066E+01  0.88320119023E+01  0.51100000000E-03 0. -1.
        -11    1    3    3    0    0  0.32842838128E+02  0.18738889561E+02 -0.67955988213E+01  0.38418461212E+02  0.51100000000E-03 0.  1.
         12    1    3    3    0    0 -0.31555064373E+02 -0.26921745139E+02  0.10376876210E+02  0.42757245103E+02  0.00000000000E+00 0. -1.
</event>
<event>
 7    1  0.4520336E-015  0.9000777E+02  0.7816164E-02  0.1186339E+00
        -11   -1    0    0    0    0  0.00000000000E+00  0.00000000000E+00  0.45593999997E+02  0.45594000000E+02  0.51100000000E-03 0.  1.
         11   -1    0    0    0    0 -0.00000000000E+00 -0.00000000000E+00 -0.45593999997E+02  0.45594000000E+02  0.51100000000E-03 0. -1.
    9900012    2    1    2    0    0 -0.93519241266E-01  0.11409652774E+01  0.28703838342E+00  0.90007771782E+02  0.90000033570E+02 0.  0.
         12    1    1    2    0    0  0.93519241266E-01 -0.11409652774E+01 -0.28703838342E+00  0.11802282179E+01  0.00000000000E+00 0. -1.
         11    1    3    3    0    0 -0.39342991075E+01 -0.41065480855E+01  0.65004543329E+01  0.86370338334E+01  0.51100000000E-03 0. -1.
        -11    1    3    3    0    0 -0.36013637709E+02 -0.97001233793E+01 -0.10065563309E+02  0.38631464631E+02  0.51100000000E-03 0.  1.
         12    1    3    3    0    0  0.39854417575E+02  0.14947636742E+02  0.38521473596E+01  0.42739273317E+02  0.00000000000E+00 0. -1.
</event>
<event>
 7    1  0.4520336E-015  0.9000767E+02  0.7816164E-02  0.1186339E+00
        -11   -1    0    0    0    0  0.00000000000E+00  0.00000000000E+00  0.45593999997E+02  0.45594000000E+02  0.51100000000E-03 0. -1.
         11   -1    0    0    0    0 -0.00000000000E+00 -0.00000000000E+00 -0.45593999997E+02  0.45594000000E+02  0.51100000000E-03 0.  1.
    9900012    2    1    2    0    0 -0.14852904666E+00 -0.63485930227E+00 -0.98390884588E+00  0.90007667916E+02  0.89999928333E+02 0.  0.
         12    1    1    2    0    0  0.14852904666E+00  0.63485930227E+00  0.98390884588E+00  0.11803320839E+01  0.00000000000E+00 0. -1.
         11    1    3    3    0    0 -0.94852727568E+01  0.74915422000E+01  0.15662481910E+00  0.12087933463E+02  0.51100000000E-03 0. -1.
        -11    1    3    3    0    0 -0.15050700692E+02  0.25700317829E+02 -0.15802900700E+02  0.33715895341E+02  0.51100000000E-03 0.  1.
         12    1    3    3    0    0  0.24387444402E+02 -0.33826719332E+02  0.14662367035E+02  0.44203839112E+02  0.00000000000E+00 0. -1.
</event>
<event>
 7    1  0.4520336E-015  0.9000800E+02  0.7816164E-02  0.1186339E+00
        -11   -1    0    0    0    0  0.00000000000E+00  0.00000000000E+00  0.45593999997E+02  0.45594000000E+02  0.51100000000E-03 0.  1.
         11   -1    0    0    0    0 -0.00000000000E+00 -0.00000000000E+00 -0.45593999997E+02  0.45594000000E+02  0.51100000000E-03 0. -1.
    9900012    2    1    2    0    0 -0.62853069128E+00  0.20293395178E+00  0.97783947555E+00  0.90007998704E+02  0.90000263486E+02 0.  0.
         12    1    1    2    0    0  0.62853069128E+00 -0.20293395178E+00 -0.97783947555E+00  0.11800012960E+01  0.00000000000E+00 0. -1.
         11    1    3    3    0    0 -0.23690088217E+02 -0.44219102957E+01 -0.31874715878E+01  0.24309124743E+02  0.51100000000E-03 0.  1.
        -11    1    3    3    0    0  0.35240425953E+02 -0.16913996853E+02 -0.47962382304E+01  0.39382417553E+02  0.51100000000E-03 0. -1.
         12    1    3    3    0    0 -0.12178868427E+02  0.21538841101E+02  0.89615492938E+01  0.26316456408E+02  0.00000000000E+00 0. -1.
</event>
<event>
 7    1  0.4520336E-015  0.9000772E+02  0.7816164E-02  0.1186339E+00
        -11   -1    0    0    0    0  0.00000000000E+00  0.00000000000E+00  0.45593999997E+02  0.45594000000E+02  0.51100000000E-03 0. -1.
         11   -1    0    0    0    0 -0.00000000000E+00 -0.00000000000E+00 -0.45593999997E+02  0.45594000000E+02  0.51100000000E-03 0.  1.
    9900012    2    1    2    0    0 -0.78058105187E+00  0.13508470213E+00 -0.87492684715E+00  0.90007723912E+02  0.89999985068E+02 0.  0.
         12    1    1    2    0    0  0.78058105187E+00 -0.13508470213E+00  0.87492684715E+00  0.11802760877E+01  0.00000000000E+00 0. -1.
         11    1    3    3    0    0 -0.26255524522E+01 -0.22201539558E+01  0.87416239953E+01  0.93935403125E+01  0.51100000000E-03 0. -1.
        -11    1    3    3    0    0  0.20553487736E+02  0.36045619534E+02 -0.55704443724E+01  0.41866005260E+02  0.51100000000E-03 0.  1.
         12    1    3    3    0    0 -0.18708516336E+02 -0.33690380876E+02 -0.40461064700E+01  0.38748178339E+02  0.00000000000E+00 0. -1.
</event>
<event>
 7    1  0.4520336E-015  0.9000775E+02  0.7816164E-02  0.1186339E+00
        -11   -1    0    0    0    0  0.00000000000E+00  0.00000000000E+00  0.45593999997E+02  0.45594000000E+02  0.51100000000E-03 0. -1.
         11   -1    0    0    0    0 -0.00000000000E+00 -0.00000000000E+00 -0.45593999997E+02  0.45594000000E+02  0.51100000000E-03 0.  1.
    9900012    2    1    2    0    0  0.54497578166E+00  0.63147643648E+00 -0.83500229724E+00  0.90007750057E+02  0.90000011557E+02 0.  0.
         12    1    1    2    0    0 -0.54497578166E+00 -0.63147643648E+00  0.83500229724E+00  0.11802499434E+01  0.00000000000E+00 0. -1.
         11    1    3    3    0    0 -0.71391062893E+01 -0.47295094714E+01 -0.14040621889E+02  0.16446098679E+02  0.51100000000E-03 0. -1.
        -11    1    3    3    0    0 -0.12363889034E+02  0.11205980856E+02 -0.24979002487E+02  0.30039812324E+02  0.51100000000E-03 0.  1.
         12    1    3    3    0    0  0.20047971105E+02 -0.58449949477E+01  0.38184622079E+02  0.43521839054E+02  0.00000000000E+00 0. -1.
</event>
<event>
 7    1  0.4520336E-015  0.9000776E+02  0.7816164E-02  0.1186339E+00
        -11   -1    0    0    0    0  0.00000000000E+00  0.00000000000E+00  0.45593999997E+02  0.45594000000E+02  0.51100000000E-03 0. -1.
         11   -1    0    0    0    0 -0.00000000000E+00 -0.00000000000E+00 -0.45593999997E+02  0.45594000000E+02  0.51100000000E-03 0.  1.
    9900012    2    1    2    0    0 -0.10969541840E+01  0.29904265029E+00  0.31659749417E+00  0.90007758939E+02  0.90000020557E+02 0.  0.
         12    1    1    2    0    0  0.10969541840E+01 -0.29904265029E+00 -0.31659749417E+00  0.11802410609E+01  0.00000000000E+00 0. -1.
         11    1    3    3    0    0 -0.26980513868E+01 -0.22837412376E+01 -0.10406899715E+02  0.10990837878E+02  0.51100000000E-03 0. -1.
        -11    1    3    3    0    0 -0.36252344817E+02  0.10118315819E+02 -0.36874119138E+01  0.37818115059E+02  0.51100000000E-03 0.  1.
         12    1    3    3    0    0  0.37853442020E+02 -0.75355319314E+01  0.14410909123E+02  0.41198806002E+02  0.00000000000E+00 0. -1.
</event>
<event>
 7    1  0.4520336E-015  0.9000769E+02  0.7816164E-02  0.1186339E+00
        -11   -1    0    0    0    0  0.00000000000E+00  0.00000000000E+00  0.45593999997E+02  0.45594000000E+02  0.51100000000E-03 0. -1.
         11   -1    0    0    0    0 -0.00000000000E+00 -0.00000000000E+00 -0.45593999997E+02  0.45594000000E+02  0.51100000000E-03 0.  1.
    9900012    2    1    2    0    0  0.91909635162E+00 -0.38238154828E+00 -0.63418304742E+00  0.90007685682E+02  0.89999946333E+02 0.  0.
         12    1    1    2    0    0 -0.91909635162E+00  0.38238154828E+00  0.63418304742E+00  0.11803143182E+01  0.00000000000E+00 0. -1.
         11    1    3    3    0    0 -0.85864159756E+01 -0.18924858176E+01 -0.56911555690E+01  0.10473647590E+02  0.51100000000E-03 0. -1.
        -11    1    3    3    0    0 -0.23090982934E+02 -0.27260636508E+02 -0.30553946897E+00  0.35727148645E+02  0.51100000000E-03 0.  1.
         12    1    3    3    0    0  0.32596495261E+02  0.28770740777E+02  0.53625119906E+01  0.43806889447E+02  0.00000000000E+00 0. -1.
</event>
<event>
 7    1  0.4520336E-015  0.9000773E+02  0.7816164E-02  0.1186339E+00
        -11   -1    0    0    0    0  0.00000000000E+00  0.00000000000E+00  0.45593999997E+02  0.45594000000E+02  0.51100000000E-03 0. -1.
         11   -1    0    0    0    0 -0.00000000000E+00 -0.00000000000E+00 -0.45593999997E+02  0.45594000000E+02  0.51100000000E-03 0.  1.
    9900012    2    1    2    0    0 -0.25220847773E+00  0.23087769525E+00 -0.11296559042E+01  0.90007730502E+02  0.89999991744E+02 0.  0.
         12    1    1    2    0    0  0.25220847773E+00 -0.23087769525E+00  0.11296559042E+01  0.11802694982E+01  0.00000000000E+00 0. -1.
         11    1    3    3    0    0 -0.20254350755E+02 -0.36363894646E+02 -0.40586489636E+01  0.41821575652E+02  0.51100000000E-03 0. -1.
        -11    1    3    3    0    0  0.42125549294E+01  0.27979318900E+00  0.72112374512E+01  0.83561862773E+01  0.51100000000E-03 0.  1.
        -12    1    3    3    0    0  0.15789587348E+02  0.36314979153E+02 -0.42822443918E+01  0.39829968573E+02  0.00000000000E+00 0.  1.
</event>
<event>
 7    1  0.4520336E-015  0.9000775E+02  0.7816164E-02  0.1186339E+00
        -11   -1    0    0    0    0  0.00000000000E+00  0.00000000000E+00  0.45593999997E+02  0.45594000000E+02  0.51100000000E-03 0.  1.
         11   -1    0    0    0    0 -0.00000000000E+00 -0.00000000000E+00 -0.45593999997E+02  0.45594000000E+02  0.51100000000E-03 0. -1.
    9900012    2    1    2    0    0 -0.87984174058E+00  0.70758568820E+00  0.34379360855E+00  0.90007748739E+02  0.90000010222E+02 0.  0.
         12    1    1    2    0    0  0.87984174058E+00 -0.70758568820E+00 -0.34379360855E+00  0.11802512613E+01  0.00000000000E+00 0. -1.
         11    1    3    3    0    0  0.47856400786E+01 -0.54771600725E+01  0.21394997657E+01  0.75814967473E+01  0.51100000000E-03 0. -1.
        -11    1    3    3    0    0  0.27076177127E+02  0.23832846248E+02  0.17976659207E+02  0.40302409414E+02  0.51100000000E-03 0.  1.
         12    1    3    3    0    0 -0.32741658946E+02 -0.17648100487E+02 -0.19772365364E+02  0.42123842577E+02  0.00000000000E+00 0. -1.
</event>
<event>
 7    1  0.4520336E-015  0.9000762E+02  0.7816164E-02  0.1186339E+00
        -11   -1    0    0    0    0  0.00000000000E+00  0.00000000000E+00  0.45593999997E+02  0.45594000000E+02  0.51100000000E-03 0. -1.
         11   -1    0    0    0    0 -0.00000000000E+00 -0.00000000000E+00 -0.45593999997E+02  0.45594000000E+02  0.51100000000E-03 0.  1.
    9900012    2    1    2    0    0 -0.22909415197E+00  0.38825370047E+00 -0.10909026285E+01  0.90007621412E+02  0.89999881214E+02 0.  0.
         12    1    1    2    0    0  0.22909415197E+00 -0.38825370047E+00  0.10909026285E+01  0.11803785881E+01  0.00000000000E+00 0. -1.
         11    1    3    3    0    0 -0.26085974249E+01  0.78356648468E+01 -0.73399131547E+01  0.11048834757E+02  0.51100000000E-03 0. -1.
        -11    1    3    3    0    0 -0.23008215182E+02 -0.19305713598E+02 -0.23466818629E+02  0.38115352815E+02  0.51100000000E-03 0.  1.
         12    1    3    3    0    0  0.25387718455E+02  0.11858302452E+02  0.29715829155E+02  0.40843433839E+02  0.00000000000E+00 0. -1.
</event>
<event>
 7    1  0.4776961E-015  0.9000773E+02  0.7816164E-02  0.1186339E+00
        -11   -1    0    0    0    0  0.00000000000E+00  0.00000000000E+00  0.45593999997E+02  0.45594000000E+02  0.51100000000E-03 0.  1.
         11   -1    0    0    0    0 -0.00000000000E+00 -0.00000000000E+00 -0.45593999997E+02  0.45594000000E+02  0.51100000000E-03 0. -1.
    9900012    2    1    2    0    0  0.10990842678E+01  0.42067459215E+00 -0.89949525764E-01  0.90007727041E+02  0.89999988238E+02 0.  0.
         12    1    1    2    0    0 -0.10990842678E+01 -0.42067459215E+00  0.89949525764E-01  0.11802729588E+01  0.00000000000E+00 0. -1.
         11    1    3    3    0    0 -0.44728275542E+01  0.28386861634E+02  0.25453825217E+02  0.38389026013E+02  0.51100000000E-03 0. -1.
        -11    1    3    3    0    0 -0.27271578848E+01  0.77296212770E+01 -0.51130965978E+01  0.96606517530E+01  0.51100000000E-03 0.  1.
        -12    1    3    3    0    0  0.82990697068E+01 -0.35695808319E+02 -0.20430678145E+02  0.41958049275E+02  0.00000000000E+00 0.  1.
</event>
<event>
 7    1  0.4520336E-015  0.9000777E+02  0.7816164E-02  0.1186339E+00
        -11   -1    0    0    0    0  0.00000000000E+00  0.00000000000E+00  0.45593999997E+02  0.45594000000E+02  0.51100000000E-03 0.  1.
         11   -1    0    0    0    0 -0.00000000000E+00 -0.00000000000E+00 -0.45593999997E+02  0.45594000000E+02  0.51100000000E-03 0. -1.
    9900012    2    1    2    0    0  0.86824608946E+00 -0.78560515294E+00 -0.14805003823E+00  0.90007768861E+02  0.90000030610E+02 0.  0.
         12    1    1    2    0    0 -0.86824608946E+00  0.78560515294E+00  0.14805003823E+00  0.11802311392E+01  0.00000000000E+00 0. -1.
         11    1    3    3    0    0  0.47573539418E+01 -0.32100176443E+02 -0.22411280578E+02  0.39437535947E+02  0.51100000000E-03 0. -1.
        -11    1    3    3    0    0 -0.15919241278E+02  0.53580371661E+01  0.83279384152E+01  0.18747942918E+02  0.51100000000E-03 0.  1.
        -12    1    3    3    0    0  0.12030133426E+02  0.25956534124E+02  0.13935292124E+02  0.31822289996E+02  0.00000000000E+00 0.  1.
</event>
<event>
 7    1  0.4520336E-015  0.9000808E+02  0.7816164E-02  0.1186338E+00
        -11   -1    0    0    0    0  0.00000000000E+00  0.00000000000E+00  0.45593999997E+02  0.45594000000E+02  0.51100000000E-03 0. -1.
         11   -1    0    0    0    0 -0.00000000000E+00 -0.00000000000E+00 -0.45593999997E+02  0.45594000000E+02  0.51100000000E-03 0.  1.
    9900012    2    1    2    0    0 -0.98731651787E+00  0.43935021750E+00  0.47369115154E+00  0.90008082280E+02  0.90000348165E+02 0.  0.
         12    1    1    2    0    0  0.98731651787E+00 -0.43935021750E+00 -0.47369115154E+00  0.11799177205E+01  0.00000000000E+00 0. -1.
         11    1    3    3    0    0 -0.35713097102E+02  0.97248644482E+01  0.13516018549E+02  0.39404074038E+02  0.51100000000E-03 0. -1.
        -11    1    3    3    0    0  0.74722998527E+00  0.83820019286E+01 -0.86293471751E+01  0.12053295894E+02  0.51100000000E-03 0.  1.
        -12    1    3    3    0    0  0.33978550599E+02 -0.17667516159E+02 -0.44129802223E+01  0.38550712347E+02  0.00000000000E+00 0.  1.
</event>
<event>
 7    1  0.4520336E-015  0.9000773E+02  0.7816164E-02  0.1186339E+00
        -11   -1    0    0    0    0  0.00000000000E+00  0.00000000000E+00  0.45593999997E+02  0.45594000000E+02  0.51100000000E-03 0.  1.
         11   -1    0    0    0    0 -0.00000000000E+00 -0.00000000000E+00 -0.45593999997E+02  0.45594000000E+02  0.51100000000E-03 0. -1.
    9900012    2    1    2    0    0  0.11258057067E+01  0.67935132293E-01  0.34781317769E+00  0.90007734065E+02  0.89999995354E+02 0.  0.
         12    1    1    2    0    0 -0.11258057067E+01 -0.67935132293E-01 -0.34781317769E+00  0.11802659353E+01  0.00000000000E+00 0. -1.
         11    1    3    3    0    0  0.40687981421E+02  0.13312167179E+02  0.63307080287E+01  0.43275899662E+02  0.51100000000E-03 0. -1.
        -11    1    3    3    0    0 -0.12763872675E+02  0.36024733086E+01  0.34473144096E+01  0.13703219932E+02  0.51100000000E-03 0.  1.
        -12    1    3    3    0    0 -0.26798303040E+02 -0.16846705356E+02 -0.94302092607E+01  0.33028614470E+02  0.00000000000E+00 0.  1.
</event>
<event>
 7    1  0.4520336E-015  0.9000785E+02  0.7816164E-02  0.1186339E+00
        -11   -1    0    0    0    0  0.00000000000E+00  0.00000000000E+00  0.45593999997E+02  0.45594000000E+02  0.51100000000E-03 0.  1.
         11   -1    0    0    0    0 -0.00000000000E+00 -0.00000000000E+00 -0.45593999997E+02  0.45594000000E+02  0.51100000000E-03 0. -1.
    9900012    2    1    2    0    0 -0.42002237183E-01  0.85000849506E+00  0.81759771055E+00  0.90007853973E+02  0.90000116845E+02 0.  0.
         12    1    1    2    0    0  0.42002237183E-01 -0.85000849506E+00 -0.81759771055E+00  0.11801460274E+01  0.00000000000E+00 0. -1.
         11    1    3    3    0    0  0.24125409159E+02  0.92869104229E+01 -0.25291794983E+02  0.36165687689E+02  0.51100000000E-03 0. -1.
        -11    1    3    3    0    0  0.26875831184E+01 -0.20264894846E+01 -0.87490815468E+01  0.93742301456E+01  0.51100000000E-03 0.  1.
        -12    1    3    3    0    0 -0.26854994514E+02 -0.64104124433E+01  0.34858474240E+02  0.44467936138E+02  0.00000000000E+00 0.  1.
</event>
<event>
 7    1  0.4520336E-015  0.9000774E+02  0.7816164E-02  0.1186339E+00
        -11   -1    0    0    0    0  0.00000000000E+00  0.00000000000E+00  0.45593999997E+02  0.45594000000E+02  0.51100000000E-03 0.  1.
         11   -1    0    0    0    0 -0.00000000000E+00 -0.00000000000E+00 -0.45593999997E+02  0.45594000000E+02  0.51100000000E-03 0. -1.
    9900012    2    1    2    0    0 -0.10946030749E+01 -0.25137280127E+00  0.36287217994E+00  0.90007737150E+02  0.89999998480E+02 0.  0.
         12    1    1    2    0    0  0.10946030749E+01  0.25137280127E+00 -0.36287217994E+00  0.11802628503E+01  0.00000000000E+00 0. -1.
         11    1    3    3    0    0 -0.83169591420E+01 -0.24844301831E+01  0.40881369296E+01  0.95946373835E+01  0.51100000000E-03 0. -1.
        -11    1    3    3    0    0  0.52970923347E+01 -0.46019316398E+01  0.37718377154E+02  0.38365517557E+02  0.51100000000E-03 0.  1.
         12    1    3    3    0    0  0.19252637324E+01  0.68349890217E+01 -0.41443641904E+02  0.42047582209E+02  0.00000000000E+00 0. -1.
</event>
<event>
 7    1  0.4520336E-015  0.9000774E+02  0.7816164E-02  0.1186339E+00
        -11   -1    0    0    0    0  0.00000000000E+00  0.00000000000E+00  0.45593999997E+02  0.45594000000E+02  0.51100000000E-03 0.  1.
         11   -1    0    0    0    0 -0.00000000000E+00 -0.00000000000E+00 -0.45593999997E+02  0.45594000000E+02  0.51100000000E-03 0. -1.
    9900012    2    1    2    0    0 -0.58706786672E+00  0.49057714895E+00  0.89872134991E+00  0.90007739569E+02  0.90000000932E+02 0.  0.
         12    1    1    2    0    0  0.58706786672E+00 -0.49057714895E+00 -0.89872134991E+00  0.11802604306E+01  0.00000000000E+00 0. -1.
         11    1    3    3    0    0  0.35983132240E+01 -0.39526530141E+02 -0.37423322055E+01  0.39866019285E+02  0.51100000000E-03 0. -1.
        -11    1    3    3    0    0  0.70015939351E+01  0.11185682615E+01  0.65067922361E+01  0.96235054971E+01  0.51100000000E-03 0.  1.
        -12    1    3    3    0    0 -0.11186975026E+02  0.38898539028E+02 -0.18657386806E+01  0.40518214788E+02  0.00000000000E+00 0.  1.
</event>
<event>
 7    1  0.4520336E-015  0.9000781E+02  0.7816164E-02  0.1186339E+00
        -11   -1    0    0    0    0  0.00000000000E+00  0.00000000000E+00  0.45593999997E+02  0.45594000000E+02  0.51100000000E-03 0. -1.
         11   -1    0    0    0    0 -0.00000000000E+00 -0.00000000000E+00 -0.45593999997E+02  0.45594000000E+02  0.51100000000E-03 0.  1.
    9900012    2    1    2    0    0  0.31247861596E+00 -0.58301984300E+00 -0.97739476389E+00  0.90007806987E+02  0.90000069239E+02 0.  0.
         12    1    1    2    0    0 -0.31247861596E+00  0.58301984300E+00  0.97739476389E+00  0.11801930127E+01  0.00000000000E+00 0. -1.
         11    1    3    3    0    0 -0.86069475790E+01 -0.34314256821E+01  0.23205511664E+01  0.95519205826E+01  0.51100000000E-03 0. -1.
        -11    1    3    3    0    0  0.88221910920E+01 -0.38265177065E+02 -0.11380716209E+01  0.39285493999E+02  0.51100000000E-03 0.  1.
         12    1    3    3    0    0  0.97235102991E-01  0.41113582904E+02 -0.21598743094E+01  0.41170392406E+02  0.00000000000E+00 0. -1.
</event>
<event>
 7    1  0.4520336E-015  0.9000780E+02  0.7816164E-02  0.1186339E+00
        -11   -1    0    0    0    0  0.00000000000E+00  0.00000000000E+00  0.45593999997E+02  0.45594000000E+02  0.51100000000E-03 0. -1.
         11   -1    0    0    0    0 -0.00000000000E+00 -0.00000000000E+00 -0.45593999997E+02  0.45594000000E+02  0.51100000000E-03 0.  1.
    9900012    2    1    2    0    0  0.35928838571E+00 -0.38736311764E+00 -0.10553339255E+01  0.90007801702E+02  0.90000063884E+02 0.  0.
         12    1    1    2    0    0 -0.35928838571E+00  0.38736311764E+00  0.10553339255E+01  0.11801982983E+01  0.00000000000E+00 0. -1.
         11    1    3    3    0    0  0.15588198795E+02  0.17866172556E+02  0.29084309585E+02  0.37524513692E+02  0.51100000000E-03 0. -1.
        -11    1    3    3    0    0  0.34605452329E+01 -0.82213453812E+01  0.58787695724E+01  0.10682968929E+02  0.51100000000E-03 0.  1.
        -12    1    3    3    0    0 -0.18689455642E+02 -0.10032190292E+02 -0.36018413083E+02  0.41800319081E+02  0.00000000000E+00 0.  1.
</event>
<event>
 7    1  0.4520336E-015  0.9000773E+02  0.7816164E-02  0.1186339E+00
        -11   -1    0    0    0    0  0.00000000000E+00  0.00000000000E+00  0.45593999997E+02  0.45594000000E+02  0.51100000000E-03 0. -1.
         11   -1    0    0    0    0 -0.00000000000E+00 -0.00000000000E+00 -0.45593999997E+02  0.45594000000E+02  0.51100000000E-03 0.  1.
    9900012    2    1    2    0    0 -0.18807039813E+00  0.10528723878E+01 -0.49912829851E+00  0.90007728930E+02  0.89999990152E+02 0.  0.
         12    1    1    2    0    0  0.18807039813E+00 -0.10528723878E+01  0.49912829851E+00  0.11802710697E+01  0.00000000000E+00 0. -1.
         11    1    3    3    0    0 -0.93542664477E+01 -0.27060123311E+01 -0.43059125815E+01  0.10647332386E+02  0.51100000000E-03 0. -1.
        -11    1    3    3    0    0 -0.12888890640E+02 -0.32773078149E+01 -0.33168759050E+02  0.35735568075E+02  0.51100000000E-03 0.  1.
         12    1    3    3    0    0  0.22055086689E+02  0.70361925339E+01  0.36975543333E+02  0.43624828470E+02  0.00000000000E+00 0. -1.
</event>
<event>
 7    1  0.4520336E-015  0.9000774E+02  0.7816164E-02  0.1186339E+00
        -11   -1    0    0    0    0  0.00000000000E+00  0.00000000000E+00  0.45593999997E+02  0.45594000000E+02  0.51100000000E-03 0. -1.
         11   -1    0    0    0    0 -0.00000000000E+00 -0.00000000000E+00 -0.45593999997E+02  0.45594000000E+02  0.51100000000E-03 0.  1.
    9900012    2    1    2    0    0  0.33615882840E+00 -0.64057473286E+00 -0.93256898107E+00  0.90007735771E+02  0.89999997083E+02 0.  0.
         12    1    1    2    0    0 -0.33615882840E+00  0.64057473286E+00  0.93256898107E+00  0.11802642292E+01  0.00000000000E+00 0. -1.
         11    1    3    3    0    0 -0.37185199145E+01 -0.45297393374E+01 -0.62443076740E+01  0.85637204186E+01  0.51100000000E-03 0. -1.
        -11    1    3    3    0    0 -0.28093384384E+02 -0.12805762427E+02 -0.20414885046E+02  0.37013420933E+02  0.51100000000E-03 0.  1.
         12    1    3    3    0    0  0.32148063127E+02  0.16694927032E+02  0.25726623739E+02  0.44430594419E+02  0.00000000000E+00 0. -1.
</event>
<event>
 7    1  0.4520336E-015  0.9000777E+02  0.7816164E-02  0.1186339E+00
        -11   -1    0    0    0    0  0.00000000000E+00  0.00000000000E+00  0.45593999997E+02  0.45594000000E+02  0.51100000000E-03 0.  1.
         11   -1    0    0    0    0 -0.00000000000E+00 -0.00000000000E+00 -0.45593999997E+02  0.45594000000E+02  0.51100000000E-03 0. -1.
    9900012    2    1    2    0    0 -0.10482512106E+01  0.27391517270E+00 -0.46807015274E+00  0.90007767061E+02  0.90000028786E+02 0.  0.
         12    1    1    2    0    0  0.10482512106E+01 -0.27391517270E+00  0.46807015274E+00  0.11802329390E+01  0.00000000000E+00 0. -1.
         11    1    3    3    0    0  0.56332006875E+01 -0.68496354011E+01  0.30521220082E+01  0.93790140275E+01  0.51100000000E-03 0. -1.
        -11    1    3    3    0    0 -0.42687080479E+02 -0.19942243707E+01  0.33184302300E+01  0.42862288205E+02  0.51100000000E-03 0.  1.
         12    1    3    3    0    0  0.36005628581E+02  0.91177749445E+01 -0.68386223910E+01  0.37766464829E+02  0.00000000000E+00 0. -1.
</event>
<event>
 7    1  0.4520336E-015  0.9000774E+02  0.7816164E-02  0.1186339E+00
        -11   -1    0    0    0    0  0.00000000000E+00  0.00000000000E+00  0.45593999997E+02  0.45594000000E+02  0.51100000000E-03 0.  1.
         11   -1    0    0    0    0 -0.00000000000E+00 -0.00000000000E+00 -0.45593999997E+02  0.45594000000E+02  0.51100000000E-03 0. -1.
    9900012    2    1    2    0    0 -0.81875829914E+00  0.81580039277E+00  0.23899311803E+00  0.90007740222E+02  0.90000001593E+02 0.  0.
         12    1    1    2    0    0  0.81875829914E+00 -0.81580039277E+00 -0.23899311803E+00  0.11802597781E+01  0.00000000000E+00 0. -1.
         11    1    3    3    0    0 -0.12582263608E+02  0.30020342493E+02 -0.10731021738E+02  0.34273738470E+02  0.51100000000E-03 0. -1.
        -11    1    3    3    0    0 -0.39744189810E+01  0.68454506124E+01 -0.86936517548E+01  0.11757371365E+02  0.51100000000E-03 0.  1.
        -12    1    3    3    0    0  0.15737924290E+02 -0.36049992713E+02  0.19663666611E+02  0.43976630386E+02  0.00000000000E+00 0.  1.
</event>
<event>
 7    1  0.4520336E-015  0.9000773E+02  0.7816164E-02  0.1186339E+00
        -11   -1    0    0    0    0  0.00000000000E+00  0.00000000000E+00  0.45593999997E+02  0.45594000000E+02  0.51100000000E-03 0.  1.
         11   -1    0    0    0    0 -0.00000000000E+00 -0.00000000000E+00 -0.45593999997E+02  0.45594000000E+02  0.51100000000E-03 0. -1.
    9900012    2    1    2    0    0 -0.85242273344E+00 -0.80840212446E+00  0.11357020806E+00  0.90007730241E+02  0.89999991480E+02 0.  0.
         12    1    1    2    0    0  0.85242273344E+00  0.80840212446E+00 -0.11357020806E+00  0.11802697588E+01  0.00000000000E+00 0. -1.
         11    1    3    3    0    0  0.93166923292E+01 -0.24075569931E+02 -0.10963502711E+01  0.25838649493E+02  0.51100000000E-03 0. -1.
        -11    1    3    3    0    0  0.17045121235E+02 -0.11077137119E+02 -0.14150479681E+00  0.20328776366E+02  0.51100000000E-03 0.  1.
        -12    1    3    3    0    0 -0.27214236298E+02  0.34344304925E+02  0.13514252759E+01  0.43840304382E+02  0.00000000000E+00 0.  1.
</event>
<event>
 7    1  0.4520336E-015  0.9000782E+02  0.7816164E-02  0.1186339E+00
        -11   -1    0    0    0    0  0.00000000000E+00  0.00000000000E+00  0.45593999997E+02  0.45594000000E+02  0.51100000000E-03 0.  1.
         11   -1    0    0    0    0 -0.00000000000E+00 -0.00000000000E+00 -0.45593999997E+02  0.45594000000E+02  0.51100000000E-03 0. -1.
    9900012    2    1    2    0    0 -0.11189862813E+00 -0.80890136423E+00  0.85204038091E+00  0.90007823941E+02  0.90000086417E+02 0.  0.
         12    1    1    2    0    0  0.11189862813E+00  0.80890136423E+00 -0.85204038091E+00  0.11801760592E+01  0.00000000000E+00 0. -1.
         11    1    3    3    0    0  0.98141042094E+01  0.10980061848E+02 -0.29863631091E+02  0.33297370194E+02  0.51100000000E-03 0. -1.
        -11    1    3    3    0    0  0.65918447002E+01 -0.39782340764E+01 -0.96836410166E+01  0.12371405196E+02  0.51100000000E-03 0.  1.
        -12    1    3    3    0    0 -0.16517847538E+02 -0.78107291356E+01  0.40399312488E+02  0.44339048551E+02  0.00000000000E+00 0.  1.
</event>
<event>
 7    1  0.4520336E-015  0.9000763E+02  0.7816164E-02  0.1186339E+00
        -11   -1    0    0    0    0  0.00000000000E+00  0.00000000000E+00  0.45593999997E+02  0.45594000000E+02  0.51100000000E-03 0.  1.
         11   -1    0    0    0    0 -0.00000000000E+00 -0.00000000000E+00 -0.45593999997E+02  0.45594000000E+02  0.51100000000E-03 0. -1.
    9900012    2    1    2    0    0  0.54203247823E+00 -0.55956560817E+00  0.88677322255E+00  0.90007627336E+02  0.89999887217E+02 0.  0.
         12    1    1    2    0    0 -0.54203247823E+00  0.55956560817E+00 -0.88677322255E+00  0.11803726638E+01  0.00000000000E+00 0. -1.
         11    1    3    3    0    0 -0.31280818754E+02  0.44057781988E+01 -0.14034220538E+02  0.34566744854E+02  0.51100000000E-03 0. -1.
        -11    1    3    3    0    0  0.94289135227E+01  0.11513523209E+01  0.27460069982E+02  0.29056590751E+02  0.51100000000E-03 0.  1.
        -12    1    3    3    0    0  0.22393937709E+02 -0.61166961279E+01 -0.12539076221E+02  0.26384291731E+02  0.00000000000E+00 0.  1.
</event>
<event>
 7    1  0.4520336E-015  0.9000779E+02  0.7816164E-02  0.1186339E+00
        -11   -1    0    0    0    0  0.00000000000E+00  0.00000000000E+00  0.45593999997E+02  0.45594000000E+02  0.51100000000E-03 0.  1.
         11   -1    0    0    0    0 -0.00000000000E+00 -0.00000000000E+00 -0.45593999997E+02  0.45594000000E+02  0.51100000000E-03 0. -1.
    9900012    2    1    2    0    0  0.47069790541E+00 -0.93963081127E+00  0.53706642441E+00  0.90007786916E+02  0.90000048903E+02 0.  0.
         12    1    1    2    0    0 -0.47069790541E+00  0.93963081127E+00 -0.53706642441E+00  0.11802130841E+01  0.00000000000E+00 0. -1.
         11    1    3    3    0    0 -0.34842019178E+02  0.56855607837E+01 -0.92155858189E+01  0.36485872939E+02  0.51100000000E-03 0. -1.
        -11    1    3    3    0    0 -0.33016308979E+01  0.98282300514E+01  0.41846467504E+01  0.11180614528E+02  0.51100000000E-03 0.  1.
        -12    1    3    3    0    0  0.38614347982E+02 -0.16453421646E+02  0.55680054929E+01  0.42341299450E+02  0.00000000000E+00 0.  1.
</event>
<event>
 7    1  0.4520336E-015  0.9000772E+02  0.7816164E-02  0.1186339E+00
        -11   -1    0    0    0    0  0.00000000000E+00  0.00000000000E+00  0.45593999997E+02  0.45594000000E+02  0.51100000000E-03 0. -1.
         11   -1    0    0    0    0 -0.00000000000E+00 -0.00000000000E+00 -0.45593999997E+02  0.45594000000E+02  0.51100000000E-03 0.  1.
    9900012    2    1    2    0    0 -0.80344831416E+00  0.54270925936E+00 -0.67304275215E+00  0.90007724998E+02  0.89999986168E+02 0.  0.
         12    1    1    2    0    0  0.80344831416E+00 -0.54270925936E+00  0.67304275215E+00  0.11802750018E+01  0.00000000000E+00 0. -1.
         11    1    3    3    0    0 -0.18805474639E+02  0.25347411440E+01  0.30322598002E+02  0.35770528916E+02  0.51100000000E-03 0. -1.
        -11    1    3    3    0    0  0.10774536606E+01 -0.12057919127E+02  0.50867291047E+01  0.13131227411E+02  0.51100000000E-03 0.  1.
        -12    1    3    3    0    0  0.16924572664E+02  0.10065887243E+02 -0.36082369858E+02  0.41105968672E+02  0.00000000000E+00 0.  1.
</event>
<event>
 7    1  0.4520336E-015  0.9000771E+02  0.7816164E-02  0.1186339E+00
        -11   -1    0    0    0    0  0.00000000000E+00  0.00000000000E+00  0.45593999997E+02  0.45594000000E+02  0.51100000000E-03 0. -1.
         11   -1    0    0    0    0 -0.00000000000E+00 -0.00000000000E+00 -0.45593999997E+02  0.45594000000E+02  0.51100000000E-03 0.  1.
    9900012    2    1    2    0    0  0.11214179920E+01 -0.12716006362E+00 -0.34544262473E+00  0.90007712492E+02  0.89999973497E+02 0.  0.
         12    1    1    2    0    0 -0.11214179920E+01  0.12716006362E+00  0.34544262473E+00  0.11802875080E+01  0.00000000000E+00 0. -1.
         11    1    3    3    0    0 -0.20777527733E+01  0.80645833860E+01  0.46912538002E+01  0.95583693304E+01  0.51100000000E-03 0. -1.
        -11    1    3    3    0    0  0.12146238530E+01  0.30036569040E+02 -0.23302236736E+02  0.38035049992E+02  0.51100000000E-03 0.  1.
         12    1    3    3    0    0  0.19845469123E+01 -0.38228312489E+02  0.18265540311E+02  0.42414293169E+02  0.00000000000E+00 0. -1.
</event>
<event>
 7    1  0.4520336E-015  0.9000771E+02  0.7816164E-02  0.1186339E+00
        -11   -1    0    0    0    0  0.00000000000E+00  0.00000000000E+00  0.45593999997E+02  0.45594000000E+02  0.51100000000E-03 0.  1.
         11   -1    0    0    0    0 -0.00000000000E+00 -0.00000000000E+00 -0.45593999997E+02  0.45594000000E+02  0.51100000000E-03 0. -1.
    9900012    2    1    2    0    0  0.74745973449E+00 -0.87061452708E+00 -0.27646071776E+00  0.90007705021E+02  0.89999965927E+02 0.  0.
         12    1    1    2    0    0 -0.74745973449E+00  0.87061452708E+00  0.27646071776E+00  0.11802949792E+01  0.00000000000E+00 0. -1.
         11    1    3    3    0    0 -0.36123813895E+01  0.65211720359E+01  0.72348314967E+01  0.10388347851E+02  0.51100000000E-03 0. -1.
        -11    1    3    3    0    0  0.87022491044E+01 -0.16462918269E+02  0.32992955124E+02  0.37885246541E+02  0.51100000000E-03 0.  1.
         12    1    3    3    0    0 -0.43424079804E+01  0.90711317060E+01 -0.40504247339E+02  0.41734110629E+02  0.00000000000E+00 0. -1.
</event>
<event>
 7    1  0.4520336E-015  0.9000787E+02  0.7816164E-02  0.1186339E+00
        -11   -1    0    0    0    0  0.00000000000E+00  0.00000000000E+00  0.45593999997E+02  0.45594000000E+02  0.51100000000E-03 0.  1.
         11   -1    0    0    0    0 -0.00000000000E+00 -0.00000000000E+00 -0.45593999997E+02  0.45594000000E+02  0.51100000000E-03 0. -1.
    9900012    2    1    2    0    0 -0.56894769732E+00 -0.59992369201E+00  0.84208181365E+00  0.90007867931E+02  0.90000130988E+02 0.  0.
         12    1    1    2    0    0  0.56894769732E+00  0.59992369201E+00 -0.84208181365E+00  0.11801320686E+01  0.00000000000E+00 0. -1.
         11    1    3    3    0    0 -0.64292094230E+01  0.69286516232E+01 -0.15508531408E+01  0.95784180764E+01  0.51100000000E-03 0. -1.
        -11    1    3    3    0    0 -0.84817405442E+01  0.34621710957E+02  0.40519664530E+01  0.35875078044E+02  0.51100000000E-03 0.  1.
         12    1    3    3    0    0  0.14342002270E+02 -0.42150286272E+02 -0.16590314986E+01  0.44554371811E+02  0.00000000000E+00 0. -1.
</event>
<event>
 7    1  0.4520336E-015  0.9000798E+02  0.7816164E-02  0.1186339E+00
        -11   -1    0    0    0    0  0.00000000000E+00  0.00000000000E+00  0.45593999997E+02  0.45594000000E+02  0.51100000000E-03 0.  1.
         11   -1    0    0    0    0 -0.00000000000E+00 -0.00000000000E+00 -0.45593999997E+02  0.45594000000E+02  0.51100000000E-03 0. -1.
    9900012    2    1    2    0    0 -0.43418214766E+00  0.67497237480E+00  0.86506961572E+00  0.90007979965E+02  0.90000244500E+02 0.  0.
         12    1    1    2    0    0  0.43418214766E+00 -0.67497237480E+00 -0.86506961572E+00  0.11800200355E+01  0.00000000000E+00 0. -1.
         11    1    3    3    0    0  0.23884221185E+02 -0.25095595362E+02 -0.61651169350E+01  0.35188827705E+02  0.51100000000E-03 0. -1.
        -11    1    3    3    0    0 -0.61590484446E+01 -0.11028617070E+02 -0.20328098166E+01  0.12794396751E+02  0.51100000000E-03 0.  1.
        -12    1    3    3    0    0 -0.18159354888E+02  0.36799184807E+02  0.90629963674E+01  0.42024755508E+02  0.00000000000E+00 0.  1.
</event>
<event>
 7    1  0.4520336E-015  0.9000775E+02  0.7816164E-02  0.1186339E+00
        -11   -1    0    0    0    0  0.00000000000E+00  0.00000000000E+00  0.45593999997E+02  0.45594000000E+02  0.51100000000E-03 0. -1.
         11   -1    0    0    0    0 -0.00000000000E+00 -0.00000000000E+00 -0.45593999997E+02  0.45594000000E+02  0.51100000000E-03 0.  1.
    9900012    2    1    2    0    0 -0.32746893709E+00  0.39367248272E+00 -0.10633808729E+01  0.90007748836E+02  0.90000010321E+02 0.  0.
         12    1    1    2    0    0  0.32746893709E+00 -0.39367248272E+00  0.10633808729E+01  0.11802511636E+01  0.00000000000E+00 0. -1.
         11    1    3    3    0    0 -0.33682218210E+02  0.55502251499E+01 -0.20404607003E+02  0.39769898290E+02  0.51100000000E-03 0. -1.
        -11    1    3    3    0    0  0.53903884262E+00  0.93622102186E+01  0.87437580499E+01  0.12821655437E+02  0.51100000000E-03 0.  1.
        -12    1    3    3    0    0  0.32815710430E+02 -0.14518762886E+02  0.10597468081E+02  0.37416195110E+02  0.00000000000E+00 0.  1.
</event>
<event>
 7    1  0.4520336E-015  0.9000777E+02  0.7816164E-02  0.1186339E+00
        -11   -1    0    0    0    0  0.00000000000E+00  0.00000000000E+00  0.45593999997E+02  0.45594000000E+02  0.51100000000E-03 0.  1.
         11   -1    0    0    0    0 -0.00000000000E+00 -0.00000000000E+00 -0.45593999997E+02  0.45594000000E+02  0.51100000000E-03 0. -1.
    9900012    2    1    2    0    0 -0.42415276131E+00  0.11007094318E+01 -0.38505873884E-01  0.90007767175E+02  0.90000028902E+02 0.  0.
         12    1    1    2    0    0  0.42415276131E+00 -0.11007094318E+01  0.38505873884E-01  0.11802328247E+01  0.00000000000E+00 0. -1.
         11    1    3    3    0    0  0.28796987319E+02 -0.20213371376E+02  0.17497558957E+02  0.39293910861E+02  0.51100000000E-03 0. -1.
        -11    1    3    3    0    0  0.58149739887E+01  0.55645491563E+01 -0.75231218946E+01  0.11017054647E+02  0.51100000000E-03 0.  1.
        -12    1    3    3    0    0 -0.35036114069E+02  0.15749531652E+02 -0.10012942936E+02  0.39696801667E+02  0.00000000000E+00 0.  1.
</event>
<event>
 7    1  0.4520336E-015  0.9000765E+02  0.7816164E-02  0.1186339E+00
        -11   -1    0    0    0    0  0.00000000000E+00  0.00000000000E+00  0.45593999997E+02  0.45594000000E+02  0.51100000000E-03 0.  1.
         11   -1    0    0    0    0 -0.00000000000E+00 -0.00000000000E+00 -0.45593999997E+02  0.45594000000E+02  0.51100000000E-03 0. -1.
    9900012    2    1    2    0    0  0.20936669315E+00 -0.17470156017E+00  0.11484196350E+01  0.90007651448E+02  0.89999911647E+02 0.  0.
         12    1    1    2    0    0 -0.20936669315E+00  0.17470156017E+00 -0.11484196350E+01  0.11803485525E+01  0.00000000000E+00 0. -1.
         11    1    3    3    0    0  0.60823036302E+01  0.71357412065E+01 -0.22009275930E+01  0.96310592640E+01  0.51100000000E-03 0. -1.
        -11    1    3    3    0    0 -0.90715261022E+01 -0.19786383238E+02  0.37787777306E+02  0.43608596188E+02  0.51100000000E-03 0.  1.
         12    1    3    3    0    0  0.31985891651E+01  0.12475940471E+02 -0.34438430078E+02  0.36767995996E+02  0.00000000000E+00 0. -1.
</event>
<event>
 7    1  0.4520336E-015  0.9000775E+02  0.7816164E-02  0.1186339E+00
        -11   -1    0    0    0    0  0.00000000000E+00  0.00000000000E+00  0.45593999997E+02  0.45594000000E+02  0.51100000000E-03 0. -1.
         11   -1    0    0    0    0 -0.00000000000E+00 -0.00000000000E+00 -0.45593999997E+02  0.45594000000E+02  0.51100000000E-03 0.  1.
    9900012    2    1    2    0    0  0.35287698703E+00  0.78349492462E+00  0.80907620256E+00  0.90007749702E+02  0.90000011198E+02 0.  0.
         12    1    1    2    0    0 -0.35287698703E+00 -0.78349492462E+00 -0.80907620256E+00  0.11802502982E+01  0.00000000000E+00 0. -1.
         11    1    3    3    0    0  0.92372322629E+01  0.52441694344E+01 -0.24657668491E+01  0.10904484369E+02  0.51100000000E-03 0. -1.
        -11    1    3    3    0    0 -0.10137349318E+02  0.82397558200E+01 -0.35740780166E+02  0.38053420270E+02  0.51100000000E-03 0.  1.
         12    1    3    3    0    0  0.12529940420E+01 -0.12700430330E+02  0.39015623217E+02  0.41049845063E+02  0.00000000000E+00 0. -1.
</event>
<event>
 7    1  0.4520336E-015  0.9000814E+02  0.7816164E-02  0.1186338E+00
        -11   -1    0    0    0    0  0.00000000000E+00  0.00000000000E+00  0.45593999997E+02  0.45594000000E+02  0.51100000000E-03 0.  1.
         11   -1    0    0    0    0 -0.00000000000E+00 -0.00000000000E+00 -0.45593999997E+02  0.45594000000E+02  0.51100000000E-03 0. -1.
    9900012    2    1    2    0    0  0.10599273031E+00 -0.10040020439E+01  0.61058499471E+00  0.90008140433E+02  0.90000407085E+02 0.  0.
         12    1    1    2    0    0 -0.10599273031E+00  0.10040020439E+01 -0.61058499471E+00  0.11798595674E+01  0.00000000000E+00 0. -1.
         11    1    3    3    0    0 -0.23535136837E+02  0.25623062480E+02 -0.49131472418E+01  0.35136633487E+02  0.51100000000E-03 0. -1.
        -11    1    3    3    0    0 -0.31890665058E+01  0.89214538011E+01 -0.20537770259E+01  0.96943531727E+01  0.51100000000E-03 0.  1.
        -12    1    3    3    0    0  0.26830196073E+02 -0.35548518324E+02  0.75775092624E+01  0.45177153773E+02  0.00000000000E+00 0.  1.
</event>
<event>
 7    1  0.4520336E-015  0.9000772E+02  0.7816164E-02  0.1186339E+00
        -11   -1    0    0    0    0  0.00000000000E+00  0.00000000000E+00  0.45593999997E+02  0.45594000000E+02  0.51100000000E-03 0.  1.
         11   -1    0    0    0    0 -0.00000000000E+00 -0.00000000000E+00 -0.45593999997E+02  0.45594000000E+02  0.51100000000E-03 0. -1.
    9900012    2    1    2    0    0 -0.10736399326E+01  0.30138520227E+00 -0.38668138904E+00  0.90007721117E+02  0.89999982236E+02 0.  0.
         12    1    1    2    0    0  0.10736399326E+01 -0.30138520227E+00  0.38668138904E+00  0.11802788830E+01  0.00000000000E+00 0. -1.
         11    1    3    3    0    0 -0.14158522864E+02 -0.30525296448E+02 -0.20123447108E+02  0.39207277598E+02  0.51100000000E-03 0. -1.
        -11    1    3    3    0    0 -0.53434198544E+01  0.18987224514E+01 -0.57444919678E+01  0.80719558297E+01  0.51100000000E-03 0.  1.
        -12    1    3    3    0    0  0.18428302785E+02  0.28927959198E+02  0.25481257686E+02  0.42728487689E+02  0.00000000000E+00 0.  1.
</event>
<event>
 7    1  0.4520336E-015  0.9000771E+02  0.7816164E-02  0.1186339E+00
        -11   -1    0    0    0    0  0.00000000000E+00  0.00000000000E+00  0.45593999997E+02  0.45594000000E+02  0.51100000000E-03 0.  1.
         11   -1    0    0    0    0 -0.00000000000E+00 -0.00000000000E+00 -0.45593999997E+02  0.45594000000E+02  0.51100000000E-03 0. -1.
    9900012    2    1    2    0    0 -0.87156518464E+00  0.46111499477E+00  0.64872295801E+00  0.90007705805E+02  0.89999966722E+02 0.  0.
         12    1    1    2    0    0  0.87156518464E+00 -0.46111499477E+00 -0.64872295801E+00  0.11802941946E+01  0.00000000000E+00 0. -1.
         11    1    3    3    0    0 -0.35900066006E+02  0.14319522635E+02  0.57769177436E+01  0.39079870095E+02  0.51100000000E-03 0. -1.
        -11    1    3    3    0    0  0.26142859990E+01  0.99933223522E+01 -0.23129553355E+01  0.10585402475E+02  0.51100000000E-03 0.  1.
        -12    1    3    3    0    0  0.32414214823E+02 -0.23851729992E+02 -0.28152394501E+01  0.40342433235E+02  0.00000000000E+00 0.  1.
</event>
<event>
 7    1  0.4520336E-015  0.9000771E+02  0.7816164E-02  0.1186339E+00
        -11   -1    0    0    0    0  0.00000000000E+00  0.00000000000E+00  0.45593999997E+02  0.45594000000E+02  0.51100000000E-03 0. -1.
         11   -1    0    0    0    0 -0.00000000000E+00 -0.00000000000E+00 -0.45593999997E+02  0.45594000000E+02  0.51100000000E-03 0.  1.
    9900012    2    1    2    0    0 -0.11866339336E-01  0.25203663541E+00 -0.11530054743E+01  0.90007709824E+02  0.89999970794E+02 0.  0.
         12    1    1    2    0    0  0.11866339336E-01 -0.25203663541E+00  0.11530054743E+01  0.11802901760E+01  0.00000000000E+00 0. -1.
         11    1    3    3    0    0 -0.38757470441E+01  0.77320584568E+01 -0.26679775433E+01  0.90512014430E+01  0.51100000000E-03 0. -1.
        -11    1    3    3    0    0  0.12460026527E+02 -0.19814928123E+02 -0.34636133757E+02  0.41803652944E+02  0.51100000000E-03 0.  1.
         12    1    3    3    0    0 -0.85961458218E+01  0.12334906302E+02  0.36151105826E+02  0.39152855437E+02  0.00000000000E+00 0. -1.
</event>
<event>
 7    1  0.4520336E-015  0.9000774E+02  0.7816164E-02  0.1186339E+00
        -11   -1    0    0    0    0  0.00000000000E+00  0.00000000000E+00  0.45593999997E+02  0.45594000000E+02  0.51100000000E-03 0. -1.
         11   -1    0    0    0    0 -0.00000000000E+00 -0.00000000000E+00 -0.45593999997E+02  0.45594000000E+02  0.51100000000E-03 0.  1.
    9900012    2    1    2    0    0 -0.53976776897E-01 -0.11783918469E+01 -0.38621153794E-01  0.90007740524E+02  0.90000001899E+02 0.  0.
         12    1    1    2    0    0  0.53976776897E-01  0.11783918469E+01  0.38621153794E-01  0.11802594761E+01  0.00000000000E+00 0. -1.
         11    1    3    3    0    0  0.31123348416E+01  0.44873607323E+01  0.10763994905E+02  0.12070071296E+02  0.51100000000E-03 0. -1.
        -11    1    3    3    0    0 -0.33709204014E+00  0.29120164980E+02 -0.26770939644E+02  0.39557310945E+02  0.51100000000E-03 0.  1.
         12    1    3    3    0    0 -0.28292195783E+01 -0.34785917559E+02  0.15968323585E+02  0.38380358284E+02  0.00000000000E+00 0. -1.
</event>
<event>
 7    1  0.4520336E-015  0.9000793E+02  0.7816164E-02  0.1186339E+00
        -11   -1    0    0    0    0  0.00000000000E+00  0.00000000000E+00  0.45593999997E+02  0.45594000000E+02  0.51100000000E-03 0.  1.
         11   -1    0    0    0    0 -0.00000000000E+00 -0.00000000000E+00 -0.45593999997E+02  0.45594000000E+02  0.51100000000E-03 0. -1.
    9900012    2    1    2    0    0 -0.91562986815E+00  0.70128719118E+00  0.24975517945E+00  0.90007932447E+02  0.90000196355E+02 0.  0.
         12    1    1    2    0    0  0.91562986815E+00 -0.70128719118E+00 -0.24975517945E+00  0.11800675530E+01  0.00000000000E+00 0. -1.
         11    1    3    3    0    0 -0.29993504318E+01 -0.29620409835E+01  0.84750544674E+01  0.94655342315E+01  0.51100000000E-03 0. -1.
        -11    1    3    3    0    0 -0.24165374044E+02 -0.20404024354E+02  0.17930694801E+02  0.36356558264E+02  0.51100000000E-03 0.  1.
         12    1    3    3    0    0  0.26249094607E+02  0.24067352529E+02 -0.26155994089E+02  0.44185839951E+02  0.00000000000E+00 0. -1.
</event>
<event>
 7    1  0.4520336E-015  0.9000764E+02  0.7816164E-02  0.1186339E+00
        -11   -1    0    0    0    0  0.00000000000E+00  0.00000000000E+00  0.45593999997E+02  0.45594000000E+02  0.51100000000E-03 0. -1.
         11   -1    0    0    0    0 -0.00000000000E+00 -0.00000000000E+00 -0.45593999997E+02  0.45594000000E+02  0.51100000000E-03 0.  1.
    9900012    2    1    2    0    0  0.36769752034E-01  0.10846818388E+01 -0.46408239741E+00  0.90007635998E+02  0.89999895993E+02 0.  0.
         12    1    1    2    0    0 -0.36769752034E-01 -0.10846818388E+01  0.46408239741E+00  0.11803640022E+01  0.00000000000E+00 0. -1.
         11    1    3    3    0    0 -0.13006740064E+02  0.14215723542E+02  0.31612070683E+02  0.37021414020E+02  0.51100000000E-03 0. -1.
        -11    1    3    3    0    0  0.32217333695E+01 -0.14814369827E+01  0.87328240409E+01  0.94253083466E+01  0.51100000000E-03 0.  1.
        -12    1    3    3    0    0  0.98217764465E+01 -0.11649604721E+02 -0.40808977121E+02  0.43560913631E+02  0.00000000000E+00 0.  1.
</event>
<event>
 7    1  0.4520336E-015  0.9000770E+02  0.7816164E-02  0.1186339E+00
        -11   -1    0    0    0    0  0.00000000000E+00  0.00000000000E+00  0.45593999997E+02  0.45594000000E+02  0.51100000000E-03 0.  1.
         11   -1    0    0    0    0 -0.00000000000E+00 -0.00000000000E+00 -0.45593999997E+02  0.45594000000E+02  0.51100000000E-03 0. -1.
    9900012    2    1    2    0    0 -0.73475833823E+00  0.24423319047E+00  0.89084226290E+00  0.90007695122E+02  0.89999955898E+02 0.  0.
         12    1    1    2    0    0  0.73475833823E+00 -0.24423319047E+00 -0.89084226290E+00  0.11803048777E+01  0.00000000000E+00 0. -1.
         11    1    3    3    0    0  0.24826475940E+02  0.11531569338E+02 -0.14154130236E+02  0.30816722765E+02  0.51100000000E-03 0. -1.
        -11    1    3    3    0    0  0.11500190182E+02  0.91432741385E+01  0.15591619129E+01  0.14774465213E+02  0.51100000000E-03 0.  1.
        -12    1    3    3    0    0 -0.37061424461E+02 -0.20430610286E+02  0.13485810586E+02  0.44416507144E+02  0.00000000000E+00 0.  1.
</event>
<event>
 7    1  0.4520336E-015  0.9000779E+02  0.7816164E-02  0.1186339E+00
        -11   -1    0    0    0    0  0.00000000000E+00  0.00000000000E+00  0.45593999997E+02  0.45594000000E+02  0.51100000000E-03 0. -1.
         11   -1    0    0    0    0 -0.00000000000E+00 -0.00000000000E+00 -0.45593999997E+02  0.45594000000E+02  0.51100000000E-03 0.  1.
    9900012    2    1    2    0    0  0.25484051465E+00  0.66777967747E+00  0.93916216031E+00  0.90007788600E+02  0.90000050609E+02 0.  0.
         12    1    1    2    0    0 -0.25484051465E+00 -0.66777967747E+00 -0.93916216031E+00  0.11802114001E+01  0.00000000000E+00 0. -1.
         11    1    3    3    0    0  0.44897796695E+01  0.59861941400E+01  0.51796741648E+01  0.91006409926E+01  0.51100000000E-03 0. -1.
        -11    1    3    3    0    0 -0.28401896739E+01  0.37637199853E+02 -0.26174393721E+00  0.37745118894E+02  0.51100000000E-03 0.  1.
         12    1    3    3    0    0 -0.13947494809E+01 -0.42955614315E+02 -0.39787680673E+01  0.43162028713E+02  0.00000000000E+00 0. -1.
</event>
<event>
 7    1  0.4520336E-015  0.9000773E+02  0.7816164E-02  0.1186339E+00
        -11   -1    0    0    0    0  0.00000000000E+00  0.00000000000E+00  0.45593999997E+02  0.45594000000E+02  0.51100000000E-03 0.  1.
         11   -1    0    0    0    0 -0.00000000000E+00 -0.00000000000E+00 -0.45593999997E+02  0.45594000000E+02  0.51100000000E-03 0. -1.
    9900012    2    1    2    0    0 -0.17060000642E+00 -0.84495132063E+00  0.80621639436E+00  0.90007732246E+02  0.89999993512E+02 0.  0.
         12    1    1    2    0    0  0.17060000642E+00  0.84495132063E+00 -0.80621639436E+00  0.11802677539E+01  0.00000000000E+00 0. -1.
         11    1    3    3    0    0 -0.18596608719E+01  0.54577434251E+00 -0.40806418913E+02  0.40852417712E+02  0.51100000000E-03 0. -1.
        -11    1    3    3    0    0  0.89973086964E+01  0.30629678304E+01  0.35553764295E+01  0.10147612405E+02  0.51100000000E-03 0.  1.
        -12    1    3    3    0    0 -0.73082478309E+01 -0.44536934936E+01  0.38057258878E+02  0.39007702129E+02  0.00000000000E+00 0.  1.
</event>
<event>
 7    1  0.4520336E-015  0.9000760E+02  0.7816164E-02  0.1186339E+00
        -11   -1    0    0    0    0  0.00000000000E+00  0.00000000000E+00  0.45593999997E+02  0.45594000000E+02  0.51100000000E-03 0.  1.
         11   -1    0    0    0    0 -0.00000000000E+00 -0.00000000000E+00 -0.45593999997E+02  0.45594000000E+02  0.51100000000E-03 0. -1.
    9900012    2    1    2    0    0  0.83682839389E+00  0.24758890568E+00  0.79483430674E+00  0.90007600236E+02  0.89999859759E+02 0.  0.
         12    1    1    2    0    0 -0.83682839389E+00 -0.24758890568E+00 -0.79483430674E+00  0.11803997637E+01  0.00000000000E+00 0. -1.
         11    1    3    3    0    0  0.51383128141E+01  0.50942310986E+01  0.62562692164E+01  0.95652681003E+01  0.51100000000E-03 0. -1.
        -11    1    3    3    0    0  0.37855918206E+02 -0.17283410695E+01 -0.69324665266E+00  0.37901692538E+02  0.51100000000E-03 0.  1.
         12    1    3    3    0    0 -0.42157402627E+02 -0.31183011234E+01 -0.47681882570E+01  0.42540639598E+02  0.00000000000E+00 0. -1.
</event>
<event>
 7    1  0.4520336E-015  0.9000763E+02  0.7816164E-02  0.1186339E+00
        -11   -1    0    0    0    0  0.00000000000E+00  0.00000000000E+00  0.45593999997E+02  0.45594000000E+02  0.51100000000E-03 0.  1.
         11   -1    0    0    0    0 -0.00000000000E+00 -0.00000000000E+00 -0.45593999997E+02  0.45594000000E+02  0.51100000000E-03 0. -1.
    9900012    2    1    2    0    0  0.60525527567E+00  0.10130746353E+01 -0.24668802552E-01  0.90007634499E+02  0.89999894475E+02 0.  0.
         12    1    1    2    0    0 -0.60525527567E+00 -0.10130746353E+01  0.24668802552E-01  0.11803655007E+01  0.00000000000E+00 0. -1.
         11    1    3    3    0    0 -0.82489151298E+01 -0.31796740378E+01 -0.15491024697E+01  0.89752240377E+01  0.51100000000E-03 0. -1.
        -11    1    3    3    0    0 -0.24855489476E+01 -0.37132430388E+02  0.68804868477E+01  0.37846220943E+02  0.51100000000E-03 0.  1.
         12    1    3    3    0    0  0.11339719353E+02  0.41325179062E+02 -0.53560531806E+01  0.43186189519E+02  0.00000000000E+00 0. -1.
</event>
<event>
 7    1  0.4520336E-015  0.9000783E+02  0.7816164E-02  0.1186339E+00
        -11   -1    0    0    0    0  0.00000000000E+00  0.00000000000E+00  0.45593999997E+02  0.45594000000E+02  0.51100000000E-03 0.  1.
         11   -1    0    0    0    0 -0.00000000000E+00 -0.00000000000E+00 -0.45593999997E+02  0.45594000000E+02  0.51100000000E-03 0. -1.
    9900012    2    1    2    0    0 -0.46856772217E+00  0.10743221911E+01  0.13812325681E+00  0.90007829709E+02  0.90000092262E+02 0.  0.
         12    1    1    2    0    0  0.46856772217E+00 -0.10743221911E+01 -0.13812325681E+00  0.11801702906E+01  0.00000000000E+00 0. -1.
         11    1    3    3    0    0  0.94546578675E+01 -0.10804108262E+01  0.25794273902E+01  0.98595785340E+01  0.51100000000E-03 0. -1.
        -11    1    3    3    0    0  0.29694721823E+01  0.37600201869E+02  0.12270698674E+02  0.39663118786E+02  0.51100000000E-03 0.  1.
         12    1    3    3    0    0 -0.12892697772E+02 -0.35445468852E+02 -0.14712002807E+02  0.40485132389E+02  0.00000000000E+00 0. -1.
</event>
<event>
 7    1  0.4520336E-015  0.9000781E+02  0.7816164E-02  0.1186339E+00
        -11   -1    0    0    0    0  0.00000000000E+00  0.00000000000E+00  0.45593999997E+02  0.45594000000E+02  0.51100000000E-03 0.  1.
         11   -1    0    0    0    0 -0.00000000000E+00 -0.00000000000E+00 -0.45593999997E+02  0.45594000000E+02  0.51100000000E-03 0. -1.
    9900012    2    1    2    0    0 -0.56707502027E+00 -0.38670220564E+00  0.96007650157E+00  0.90007805286E+02  0.90000067516E+02 0.  0.
         12    1    1    2    0    0  0.56707502027E+00  0.38670220564E+00 -0.96007650157E+00  0.11801947142E+01  0.00000000000E+00 0. -1.
         11    1    3    3    0    0 -0.31828102480E+01  0.85418183060E+01 -0.85195453593E+00  0.91552590264E+01  0.51100000000E-03 0. -1.
        -11    1    3    3    0    0 -0.79100467636E+01  0.12177600775E+02  0.36285457225E+02  0.39083208757E+02  0.51100000000E-03 0.  1.
         12    1    3    3    0    0  0.10525781991E+02 -0.21106121287E+02 -0.34473426188E+02  0.41769337503E+02  0.00000000000E+00 0. -1.
</event>
<event>
 7    1  0.4520336E-015  0.9000721E+02  0.7816164E-02  0.1186340E+00
        -11   -1    0    0    0    0  0.00000000000E+00  0.00000000000E+00  0.45593999997E+02  0.45594000000E+02  0.51100000000E-03 0. -1.
         11   -1    0    0    0    0 -0.00000000000E+00 -0.00000000000E+00 -0.45593999997E+02  0.45594000000E+02  0.51100000000E-03 0.  1.
    9900012    2    1    2    0    0  0.86927402220E+00  0.79769621671E+00  0.47983391878E-01  0.90007212557E+02  0.89999466961E+02 0.  0.
         12    1    1    2    0    0 -0.86927402220E+00 -0.79769621671E+00 -0.47983391878E-01  0.11807874431E+01  0.00000000000E+00 0. -1.
         11    1    3    3    0    0  0.91790965409E+00  0.80978654122E+01  0.54482393614E+01  0.98031267852E+01  0.51100000000E-03 0. -1.
        -11    1    3    3    0    0 -0.33388090915E+02  0.14950976770E+02  0.88946293833E+01  0.37648515953E+02  0.51100000000E-03 0.  1.
         12    1    3    3    0    0  0.33339455283E+02 -0.22251145966E+02 -0.14294885353E+02  0.42555569819E+02  0.00000000000E+00 0. -1.
</event>
<event>
 7    1  0.4520336E-015  0.9000762E+02  0.7816164E-02  0.1186339E+00
        -11   -1    0    0    0    0  0.00000000000E+00  0.00000000000E+00  0.45593999997E+02  0.45594000000E+02  0.51100000000E-03 0. -1.
         11   -1    0    0    0    0 -0.00000000000E+00 -0.00000000000E+00 -0.45593999997E+02  0.45594000000E+02  0.51100000000E-03 0.  1.
    9900012    2    1    2    0    0 -0.22789968760E+00  0.73236941405E-01 -0.11558527350E+01  0.90007619781E+02  0.89999879562E+02 0.  0.
         12    1    1    2    0    0  0.22789968760E+00 -0.73236941405E-01  0.11558527350E+01  0.11803802194E+01  0.00000000000E+00 0. -1.
         11    1    3    3    0    0 -0.21103571556E+01  0.40270071849E+01  0.36901912027E+02  0.37180929328E+02  0.51100000000E-03 0. -1.
        -11    1    3    3    0    0  0.88733443337E+01 -0.41057204961E+01  0.37250859488E+01  0.10462764742E+02  0.51100000000E-03 0.  1.
        -12    1    3    3    0    0 -0.69908868656E+01  0.15195025265E+00 -0.41782850711E+02  0.42363925710E+02  0.00000000000E+00 0.  1.
</event>
<event>
 7    1  0.4520336E-015  0.9000782E+02  0.7816164E-02  0.1186339E+00
        -11   -1    0    0    0    0  0.00000000000E+00  0.00000000000E+00  0.45593999997E+02  0.45594000000E+02  0.51100000000E-03 0.  1.
         11   -1    0    0    0    0 -0.00000000000E+00 -0.00000000000E+00 -0.45593999997E+02  0.45594000000E+02  0.51100000000E-03 0. -1.
    9900012    2    1    2    0    0 -0.84504636764E+00 -0.47715543666E+00  0.67160388407E+00  0.90007816772E+02  0.90000079154E+02 0.  0.
         12    1    1    2    0    0  0.84504636764E+00  0.47715543666E+00 -0.67160388407E+00  0.11801832278E+01  0.00000000000E+00 0. -1.
         11    1    3    3    0    0 -0.99625947850E+01 -0.33945964301E+01  0.24315662091E+01  0.10802272643E+02  0.51100000000E-03 0. -1.
        -11    1    3    3    0    0  0.30135050566E+02 -0.60226332420E+01  0.28079979306E+02  0.41627858723E+02  0.51100000000E-03 0.  1.
         12    1    3    3    0    0 -0.21017502149E+02  0.89400742354E+01 -0.29839941631E+02  0.37577685406E+02  0.00000000000E+00 0. -1.
</event>
<event>
 7    1  0.4520336E-015  0.9000718E+02  0.7816164E-02  0.1186340E+00
        -11   -1    0    0    0    0  0.00000000000E+00  0.00000000000E+00  0.45593999997E+02  0.45594000000E+02  0.51100000000E-03 0. -1.
         11   -1    0    0    0    0 -0.00000000000E+00 -0.00000000000E+00 -0.45593999997E+02  0.45594000000E+02  0.51100000000E-03 0.  1.
    9900012    2    1    2    0    0  0.10742089781E+01  0.46294237796E+00 -0.16152343427E+00  0.90007182320E+02  0.89999436325E+02 0.  0.
         12    1    1    2    0    0 -0.10742089781E+01 -0.46294237796E+00  0.16152343427E+00  0.11808176802E+01  0.00000000000E+00 0. -1.
         11    1    3    3    0    0 -0.19571678207E+01  0.83347349339E+01  0.50817867407E+01  0.99560468579E+01  0.51100000000E-03 0. -1.
        -11    1    3    3    0    0  0.38424989180E+02 -0.64351406085E+01 -0.17305968966E+02  0.42630826760E+02  0.51100000000E-03 0.  1.
         12    1    3    3    0    0 -0.35393612381E+02 -0.14366519475E+01  0.12062658791E+02  0.37420308702E+02  0.00000000000E+00 0. -1.
</event>
<event>
 7    1  0.4520336E-015  0.9000770E+02  0.7816164E-02  0.1186339E+00
        -11   -1    0    0    0    0  0.00000000000E+00  0.00000000000E+00  0.45593999997E+02  0.45594000000E+02  0.51100000000E-03 0.  1.
         11   -1    0    0    0    0 -0.00000000000E+00 -0.00000000000E+00 -0.45593999997E+02  0.45594000000E+02  0.51100000000E-03 0. -1.
    9900012    2    1    2    0    0  0.74659341085E+00  0.64331284184E+00  0.64950903480E+00  0.90007697022E+02  0.89999957823E+02 0.  0.
         12    1    1    2    0    0 -0.74659341085E+00 -0.64331284184E+00 -0.64950903480E+00  0.11803029780E+01  0.00000000000E+00 0. -1.
         11    1    3    3    0    0  0.25307727327E+02  0.27259026518E+02 -0.11727924375E+02  0.39001023058E+02  0.51100000000E-03 0. -1.
        -11    1    3    3    0    0  0.16204540608E+01  0.67832643907E+01  0.27064819149E+01  0.74808817511E+01  0.51100000000E-03 0.  1.
        -12    1    3    3    0    0 -0.26181587977E+02 -0.33398978067E+02  0.96709514952E+01  0.43525792213E+02  0.00000000000E+00 0.  1.
</event>
<event>
 7    1  0.4520336E-015  0.9000775E+02  0.7816164E-02  0.1186339E+00
        -11   -1    0    0    0    0  0.00000000000E+00  0.00000000000E+00  0.45593999997E+02  0.45594000000E+02  0.51100000000E-03 0. -1.
         11   -1    0    0    0    0 -0.00000000000E+00 -0.00000000000E+00 -0.45593999997E+02  0.45594000000E+02  0.51100000000E-03 0.  1.
    9900012    2    1    2    0    0 -0.20425580993E+00  0.46245982330E+00 -0.10664876412E+01  0.90007751970E+02  0.90000013496E+02 0.  0.
         12    1    1    2    0    0  0.20425580993E+00 -0.46245982330E+00  0.10664876412E+01  0.11802480303E+01  0.00000000000E+00 0. -1.
         11    1    3    3    0    0 -0.18023208796E+02 -0.32648814026E+02 -0.44162511673E+00  0.37295792600E+02  0.51100000000E-03 0. -1.
        -11    1    3    3    0    0  0.31240283669E+01 -0.82285446403E+01  0.58835775921E+00  0.88212621120E+01  0.51100000000E-03 0.  1.
        -12    1    3    3    0    0  0.14694924619E+02  0.41339818490E+02 -0.12132202837E+01  0.43890697258E+02  0.00000000000E+00 0.  1.
</event>
<event>
 7    1  0.4520336E-015  0.9000776E+02  0.7816164E-02  0.1186339E+00
        -11   -1    0    0    0    0  0.00000000000E+00  0.00000000000E+00  0.45593999997E+02  0.45594000000E+02  0.51100000000E-03 0.  1.
         11   -1    0    0    0    0 -0.00000000000E+00 -0.00000000000E+00 -0.45593999997E+02  0.45594000000E+02  0.51100000000E-03 0. -1.
    9900012    2    1    2    0    0  0.87496427743E+00  0.25077252637E+00  0.75134256985E+00  0.90007760616E+02  0.90000022256E+02 0.  0.
         12    1    1    2    0    0 -0.87496427743E+00 -0.25077252637E+00 -0.75134256985E+00  0.11802393842E+01  0.00000000000E+00 0. -1.
         11    1    3    3    0    0 -0.31087173998E+02  0.24393348166E+02  0.49165987424E+01  0.39819853909E+02  0.51100000000E-03 0. -1.
        -11    1    3    3    0    0 -0.77060463918E+00  0.36668331576E+01  0.50214591911E+01  0.62653451290E+01  0.51100000000E-03 0.  1.
        -12    1    3    3    0    0  0.32732742915E+02 -0.27809408797E+02 -0.91867153637E+01  0.43922561577E+02  0.00000000000E+00 0.  1.
</event>
<event>
 7    1  0.4520336E-015  0.9000761E+02  0.7816164E-02  0.1186339E+00
        -11   -1    0    0    0    0  0.00000000000E+00  0.00000000000E+00  0.45593999997E+02  0.45594000000E+02  0.51100000000E-03 0.  1.
         11   -1    0    0    0    0 -0.00000000000E+00 -0.00000000000E+00 -0.45593999997E+02  0.45594000000E+02  0.51100000000E-03 0. -1.
    9900012    2    1    2    0    0  0.15204565578E+00 -0.11121578113E+01  0.36512241169E+00  0.90007607161E+02  0.89999866776E+02 0.  0.
         12    1    1    2    0    0 -0.15204565578E+00  0.11121578113E+01 -0.36512241169E+00  0.11803928389E+01  0.00000000000E+00 0. -1.
         11    1    3    3    0    0  0.34058072038E+01 -0.87666408478E+01  0.92346878741E+01  0.13180780510E+02  0.51100000000E-03 0. -1.
        -11    1    3    3    0    0 -0.13559093238E+02 -0.30779033707E+02  0.63442474831E+01  0.34226413802E+02  0.51100000000E-03 0.  1.
         12    1    3    3    0    0  0.10305331690E+02  0.38433516744E+02 -0.15213812946E+02  0.42600412849E+02  0.00000000000E+00 0. -1.
</event>
<event>
 7    1  0.4520336E-015  0.9000771E+02  0.7816164E-02  0.1186339E+00
        -11   -1    0    0    0    0  0.00000000000E+00  0.00000000000E+00  0.45593999997E+02  0.45594000000E+02  0.51100000000E-03 0.  1.
         11   -1    0    0    0    0 -0.00000000000E+00 -0.00000000000E+00 -0.45593999997E+02  0.45594000000E+02  0.51100000000E-03 0. -1.
    9900012    2    1    2    0    0 -0.26815860786E+00 -0.94440440180E+00  0.65518294397E+00  0.90007714694E+02  0.89999975728E+02 0.  0.
         12    1    1    2    0    0  0.26815860786E+00  0.94440440180E+00 -0.65518294397E+00  0.11802853058E+01  0.00000000000E+00 0. -1.
         11    1    3    3    0    0 -0.66856533712E+01 -0.21822678453E+02 -0.32235275719E+02  0.39497344934E+02  0.51100000000E-03 0. -1.
        -11    1    3    3    0    0  0.51972687059E+01  0.67496020021E+01 -0.51211471689E+01  0.99395612466E+01  0.51100000000E-03 0.  1.
        -12    1    3    3    0    0  0.12202260574E+01  0.14128672049E+02  0.38011605832E+02  0.40570808514E+02  0.00000000000E+00 0.  1.
</event>
<event>
 7    1  0.4520336E-015  0.9000784E+02  0.7816164E-02  0.1186339E+00
        -11   -1    0    0    0    0  0.00000000000E+00  0.00000000000E+00  0.45593999997E+02  0.45594000000E+02  0.51100000000E-03 0.  1.
         11   -1    0    0    0    0 -0.00000000000E+00 -0.00000000000E+00 -0.45593999997E+02  0.45594000000E+02  0.51100000000E-03 0. -1.
    9900012    2    1    2    0    0  0.33838277961E+00  0.66717440980E+00  0.91277209266E+00  0.90007840057E+02  0.90000102745E+02 0.  0.
         12    1    1    2    0    0 -0.33838277961E+00 -0.66717440980E+00 -0.91277209266E+00  0.11801599433E+01  0.00000000000E+00 0. -1.
         11    1    3    3    0    0  0.34051126957E+02  0.28872783557E+01 -0.19237538212E+02  0.39216049011E+02  0.51100000000E-03 0. -1.
        -11    1    3    3    0    0  0.57759163373E+01 -0.37992694669E+01  0.46950411241E+01  0.83569772906E+01  0.51100000000E-03 0.  1.
        -12    1    3    3    0    0 -0.39488660515E+02  0.15791655210E+01  0.15455269180E+02  0.42434813755E+02  0.00000000000E+00 0.  1.
</event>
<event>
 7    1  0.4520336E-015  0.9000745E+02  0.7816164E-02  0.1186340E+00
        -11   -1    0    0    0    0  0.00000000000E+00  0.00000000000E+00  0.45593999997E+02  0.45594000000E+02  0.51100000000E-03 0. -1.
         11   -1    0    0    0    0 -0.00000000000E+00 -0.00000000000E+00 -0.45593999997E+02  0.45594000000E+02  0.51100000000E-03 0.  1.
    9900012    2    1    2    0    0 -0.19981638901E-01 -0.11578903772E+01 -0.22932333064E+00  0.90007449882E+02  0.89999707420E+02 0.  0.
         12    1    1    2    0    0  0.19981638901E-01  0.11578903772E+01  0.22932333064E+00  0.11805501182E+01  0.00000000000E+00 0. -1.
         11    1    3    3    0    0 -0.36628044636E+01  0.60919339764E+01  0.66806234648E+01  0.97549231802E+01  0.51100000000E-03 0. -1.
        -11    1    3    3    0    0  0.34520181845E+02 -0.20810909131E+02  0.11385800220E+02  0.41885240125E+02  0.51100000000E-03 0.  1.
         12    1    3    3    0    0 -0.30877359020E+02  0.13561084777E+02 -0.18295747016E+02  0.38367286576E+02  0.00000000000E+00 0. -1.
</event>
<event>
 7    1  0.4520336E-015  0.9000773E+02  0.7816164E-02  0.1186339E+00
        -11   -1    0    0    0    0  0.00000000000E+00  0.00000000000E+00  0.45593999997E+02  0.45594000000E+02  0.51100000000E-03 0.  1.
         11   -1    0    0    0    0 -0.00000000000E+00 -0.00000000000E+00 -0.45593999997E+02  0.45594000000E+02  0.51100000000E-03 0. -1.
    9900012    2    1    2    0    0  0.37197950576E+00 -0.28833546393E+00  0.10823712904E+01  0.90007731512E+02  0.89999992768E+02 0.  0.
         12    1    1    2    0    0 -0.37197950576E+00  0.28833546393E+00 -0.10823712904E+01  0.11802684875E+01  0.00000000000E+00 0. -1.
         11    1    3    3    0    0 -0.18565888774E+01 -0.43892751302E+01  0.59399902161E+01  0.76155198416E+01  0.51100000000E-03 0. -1.
        -11    1    3    3    0    0  0.25963660775E+02 -0.20881609686E+02 -0.25735909837E+02  0.42100954376E+02  0.51100000000E-03 0.  1.
         12    1    3    3    0    0 -0.23735092392E+02  0.24982549352E+02  0.20878290912E+02  0.40291257295E+02  0.00000000000E+00 0. -1.
</event>
<event>
 7    1  0.4520336E-015  0.9000775E+02  0.7816164E-02  0.1186339E+00
        -11   -1    0    0    0    0  0.00000000000E+00  0.00000000000E+00  0.45593999997E+02  0.45594000000E+02  0.51100000000E-03 0.  1.
         11   -1    0    0    0    0 -0.00000000000E+00 -0.00000000000E+00 -0.45593999997E+02  0.45594000000E+02  0.51100000000E-03 0. -1.
    9900012    2    1    2    0    0 -0.62930708303E+00  0.69851846087E+00  0.71345994786E+00  0.90007754033E+02  0.90000015586E+02 0.  0.
         12    1    1    2    0    0  0.62930708303E+00 -0.69851846087E+00 -0.71345994786E+00  0.11802459668E+01  0.00000000000E+00 0. -1.
         11    1    3    3    0    0 -0.87986505000E+01 -0.34079718315E+02 -0.15150481880E+02  0.38319453969E+02  0.51100000000E-03 0. -1.
        -11    1    3    3    0    0  0.52911937028E+01 -0.56205901066E+01  0.65645898867E+01  0.10133193208E+02  0.51100000000E-03 0.  1.
        -12    1    3    3    0    0  0.28781497142E+01  0.40398826883E+02  0.92993519411E+01  0.41555106856E+02  0.00000000000E+00 0.  1.
</event>
<event>
 7    1  0.4520336E-015  0.9000783E+02  0.7816164E-02  0.1186339E+00
        -11   -1    0    0    0    0  0.00000000000E+00  0.00000000000E+00  0.45593999997E+02  0.45594000000E+02  0.51100000000E-03 0. -1.
         11   -1    0    0    0    0 -0.00000000000E+00 -0.00000000000E+00 -0.45593999997E+02  0.45594000000E+02  0.51100000000E-03 0.  1.
    9900012    2    1    2    0    0 -0.84209851842E+00 -0.38861969730E+00 -0.72982365641E+00  0.90007831472E+02  0.90000094048E+02 0.  0.
         12    1    1    2    0    0  0.84209851842E+00  0.38861969730E+00  0.72982365641E+00  0.11801685275E+01  0.00000000000E+00 0. -1.
         11    1    3    3    0    0  0.40554785463E+01 -0.58241426125E+01  0.50574861280E+01  0.87146835632E+01  0.51100000000E-03 0. -1.
        -11    1    3    3    0    0  0.12572745450E+02 -0.17823959078E+01 -0.40130439838E+02  0.42091603262E+02  0.51100000000E-03 0.  1.
         12    1    3    3    0    0 -0.17470322514E+02  0.72179188231E+01  0.34343130053E+02  0.39201544648E+02  0.00000000000E+00 0. -1.
</event>
<event>
 7    1  0.4520336E-015  0.9000771E+02  0.7816164E-02  0.1186339E+00
        -11   -1    0    0    0    0  0.00000000000E+00  0.00000000000E+00  0.45593999997E+02  0.45594000000E+02  0.51100000000E-03 0.  1.
         11   -1    0    0    0    0 -0.00000000000E+00 -0.00000000000E+00 -0.45593999997E+02  0.45594000000E+02  0.51100000000E-03 0. -1.
    9900012    2    1    2    0    0 -0.94954514643E+00 -0.63890781909E+00 -0.28853614588E+00  0.90007706692E+02  0.89999967620E+02 0.  0.
         12    1    1    2    0    0  0.94954514643E+00  0.63890781909E+00  0.28853614588E+00  0.11802933084E+01  0.00000000000E+00 0. -1.
         11    1    3    3    0    0  0.75138679214E+00  0.68180837998E+01 -0.61902813218E+01  0.92396121086E+01  0.51100000000E-03 0. -1.
        -11    1    3    3    0    0  0.10926376046E+02  0.17522576807E+02  0.34845246322E+02  0.40504537807E+02  0.51100000000E-03 0.  1.
         12    1    3    3    0    0 -0.12627307984E+02 -0.24979568426E+02 -0.28943501146E+02  0.40263556776E+02  0.00000000000E+00 0. -1.
</event>
<event>
 7    1  0.4520336E-015  0.9000773E+02  0.7816164E-02  0.1186339E+00
        -11   -1    0    0    0    0  0.00000000000E+00  0.00000000000E+00  0.45593999997E+02  0.45594000000E+02  0.51100000000E-03 0. -1.
         11   -1    0    0    0    0 -0.00000000000E+00 -0.00000000000E+00 -0.45593999997E+02  0.45594000000E+02  0.51100000000E-03 0.  1.
    9900012    2    1    2    0    0 -0.60637043836E+00  0.14626764835E+00 -0.10019751074E+01  0.90007731620E+02  0.89999992877E+02 0.  0.
         12    1    1    2    0    0  0.60637043836E+00 -0.14626764835E+00  0.10019751074E+01  0.11802683802E+01  0.00000000000E+00 0. -1.
         11    1    3    3    0    0  0.18325510621E+02 -0.28746939373E+02  0.20831271939E+02  0.39951880477E+02  0.51100000000E-03 0. -1.
        -11    1    3    3    0    0  0.21669431459E+01  0.59629089509E+01 -0.17476581134E+02  0.18592547274E+02  0.51100000000E-03 0.  1.
        -12    1    3    3    0    0 -0.21098824205E+02  0.22930298070E+02 -0.43566659126E+01  0.31463303868E+02  0.00000000000E+00 0.  1.
</event>
<event>
 7    1  0.4520336E-015  0.9000764E+02  0.7816164E-02  0.1186339E+00
        -11   -1    0    0    0    0  0.00000000000E+00  0.00000000000E+00  0.45593999997E+02  0.45594000000E+02  0.51100000000E-03 0. -1.
         11   -1    0    0    0    0 -0.00000000000E+00 -0.00000000000E+00 -0.45593999997E+02  0.45594000000E+02  0.51100000000E-03 0.  1.
    9900012    2    1    2    0    0  0.85946909234E+00 -0.78379283725E+00 -0.20055256398E+00  0.90007644264E+02  0.89999904368E+02 0.  0.
         12    1    1    2    0    0 -0.85946909234E+00  0.78379283725E+00  0.20055256398E+00  0.11803557359E+01  0.00000000000E+00 0. -1.
         11    1    3    3    0    0  0.11546156407E+01  0.10497971434E+00 -0.10593365092E+02  0.10656619644E+02  0.51100000000E-03 0. -1.
        -11    1    3    3    0    0  0.14289994921E+02  0.18612284139E+02 -0.26341903284E+02  0.35277711725E+02  0.51100000000E-03 0.  1.
         12    1    3    3    0    0 -0.14585141469E+02 -0.19501056691E+02  0.36734715811E+02  0.44073312894E+02  0.00000000000E+00 0. -1.
</event>
<event>
 7    1  0.4520336E-015  0.9000792E+02  0.7816164E-02  0.1186339E+00
        -11   -1    0    0    0    0  0.00000000000E+00  0.00000000000E+00  0.45593999997E+02  0.45594000000E+02  0.51100000000E-03 0.  1.
         11   -1    0    0    0    0 -0.00000000000E+00 -0.00000000000E+00 -0.45593999997E+02  0.45594000000E+02  0.51100000000E-03 0. -1.
    9900012    2    1    2    0    0  0.71791905478E+00  0.23101949542E+00 -0.90763479590E+00  0.90007924282E+02  0.90000188083E+02 0.  0.
         12    1    1    2    0    0 -0.71791905478E+00 -0.23101949542E+00  0.90763479590E+00  0.11800757176E+01  0.00000000000E+00 0. -1.
         11    1    3    3    0    0 -0.45137189590E+01 -0.45616743417E+01 -0.58801886675E+01  0.87039732690E+01  0.51100000000E-03 0. -1.
        -11    1    3    3    0    0  0.88437920255E+01 -0.16937838777E+02  0.37460243074E+02  0.42052025531E+02  0.51100000000E-03 0.  1.
         12    1    3    3    0    0 -0.36121540117E+01  0.21730532614E+02 -0.32487689203E+02  0.39251925482E+02  0.00000000000E+00 0. -1.
</event>
<event>
 7    1  0.4520336E-015  0.9000743E+02  0.7816164E-02  0.1186340E+00
        -11   -1    0    0    0    0  0.00000000000E+00  0.00000000000E+00  0.45593999997E+02  0.45594000000E+02  0.51100000000E-03 0. -1.
         11   -1    0    0    0    0 -0.00000000000E+00 -0.00000000000E+00 -0.45593999997E+02  0.45594000000E+02  0.51100000000E-03 0.  1.
    9900012    2    1    2    0    0  0.78141304269E+00 -0.69682608755E+00 -0.54550776374E+00  0.90007427402E+02  0.89999684643E+02 0.  0.
         12    1    1    2    0    0 -0.78141304269E+00  0.69682608755E+00  0.54550776374E+00  0.11805725983E+01  0.00000000000E+00 0. -1.
         11    1    3    3    0    0  0.13426950007E+02 -0.29177408283E+02 -0.14816677838E+02  0.35371430322E+02  0.51100000000E-03 0. -1.
        -11    1    3    3    0    0 -0.10051434119E+01 -0.74096355947E+01 -0.78965400584E+01  0.10875125658E+02  0.51100000000E-03 0.  1.
        -12    1    3    3    0    0 -0.11640393552E+02  0.35890217790E+02  0.22167710133E+02  0.43760871422E+02  0.00000000000E+00 0.  1.
</event>
<event>
 7    1  0.4520336E-015  0.9000780E+02  0.7816164E-02  0.1186339E+00
        -11   -1    0    0    0    0  0.00000000000E+00  0.00000000000E+00  0.45593999997E+02  0.45594000000E+02  0.51100000000E-03 0.  1.
         11   -1    0    0    0    0 -0.00000000000E+00 -0.00000000000E+00 -0.45593999997E+02  0.45594000000E+02  0.51100000000E-03 0. -1.
    9900012    2    1    2    0    0 -0.32369257189E+00  0.44422677238E+00  0.10443922150E+01  0.90007801116E+02  0.90000063291E+02 0.  0.
         12    1    1    2    0    0  0.32369257189E+00 -0.44422677238E+00 -0.10443922150E+01  0.11801988837E+01  0.00000000000E+00 0. -1.
         11    1    3    3    0    0  0.34707670090E+02 -0.18250393098E+02  0.48045220990E+01  0.39506741756E+02  0.51100000000E-03 0. -1.
        -11    1    3    3    0    0  0.35270420855E+01  0.79370324665E+01 -0.57573192137E+01  0.10420327972E+02  0.51100000000E-03 0.  1.
        -12    1    3    3    0    0 -0.38558404748E+02  0.10757587404E+02  0.19971893297E+01  0.40080731389E+02  0.00000000000E+00 0.  1.
</event>
<event>
 7    1  0.4520336E-015  0.9000769E+02  0.7816164E-02  0.1186339E+00
        -11   -1    0    0    0    0  0.00000000000E+00  0.00000000000E+00  0.45593999997E+02  0.45594000000E+02  0.51100000000E-03 0. -1.
         11   -1    0    0    0    0 -0.00000000000E+00 -0.00000000000E+00 -0.45593999997E+02  0.45594000000E+02  0.51100000000E-03 0.  1.
    9900012    2    1    2    0    0 -0.67194876792E+00 -0.64506060531E+00 -0.72492160784E+00  0.90007690859E+02  0.89999951578E+02 0.  0.
         12    1    1    2    0    0  0.67194876792E+00  0.64506060531E+00  0.72492160784E+00  0.11803091412E+01  0.00000000000E+00 0. -1.
         11    1    3    3    0    0 -0.53497444088E+01  0.37317196026E+02  0.10526266102E+02  0.39140709790E+02  0.51100000000E-03 0. -1.
        -11    1    3    3    0    0  0.57663285806E+01  0.14061308169E+01  0.54787749045E+01  0.80774206211E+01  0.51100000000E-03 0.  1.
        -12    1    3    3    0    0 -0.10885329397E+01 -0.39368387449E+02 -0.16729962614E+02  0.42789560448E+02  0.00000000000E+00 0.  1.
</event>
<event>
 7    1  0.4520336E-015  0.9000774E+02  0.7816164E-02  0.1186339E+00
        -11   -1    0    0    0    0  0.00000000000E+00  0.00000000000E+00  0.45593999997E+02  0.45594000000E+02  0.51100000000E-03 0.  1.
         11   -1    0    0    0    0 -0.00000000000E+00 -0.00000000000E+00 -0.45593999997E+02  0.45594000000E+02  0.51100000000E-03 0. -1.
    9900012    2    1    2    0    0  0.22088323322E+00  0.80139463396E+00  0.83784593008E+00  0.90007742162E+02  0.90000003558E+02 0.  0.
         12    1    1    2    0    0 -0.22088323322E+00 -0.80139463396E+00 -0.83784593008E+00  0.11802578382E+01  0.00000000000E+00 0. -1.
         11    1    3    3    0    0 -0.34559479444E+01 -0.35970737859E+02  0.68673500051E+01  0.36783121872E+02  0.51100000000E-03 0. -1.
        -11    1    3    3    0    0  0.86929029601E+01 -0.18555240639E+00  0.94516802518E+01  0.12842711996E+02  0.51100000000E-03 0.  1.
        -12    1    3    3    0    0 -0.50160717825E+01  0.36957684899E+02 -0.15481184327E+02  0.40381908293E+02  0.00000000000E+00 0.  1.
</event>
<event>
 7    1  0.4520336E-015  0.9000774E+02  0.7816164E-02  0.1186339E+00
        -11   -1    0    0    0    0  0.00000000000E+00  0.00000000000E+00  0.45593999997E+02  0.45594000000E+02  0.51100000000E-03 0.  1.
         11   -1    0    0    0    0 -0.00000000000E+00 -0.00000000000E+00 -0.45593999997E+02  0.45594000000E+02  0.51100000000E-03 0. -1.
    9900012    2    1    2    0    0  0.65434611727E+00 -0.97028271698E+00 -0.15297279963E+00  0.90007738135E+02  0.89999999479E+02 0.  0.
         12    1    1    2    0    0 -0.65434611727E+00  0.97028271698E+00  0.15297279963E+00  0.11802618648E+01  0.00000000000E+00 0. -1.
         11    1    3    3    0    0 -0.35479335226E+02  0.27461286432E+01  0.17697538010E+02  0.39743267386E+02  0.51100000000E-03 0. -1.
        -11    1    3    3    0    0  0.21871473843E+01 -0.65551610044E+01  0.56112571942E+01  0.89016828204E+01  0.51100000000E-03 0.  1.
        -12    1    3    3    0    0  0.33946533959E+02  0.28387496442E+01 -0.23461768004E+02  0.41362787929E+02  0.00000000000E+00 0.  1.
</event>
<event>
 7    1  0.4520336E-015  0.9000778E+02  0.7816164E-02  0.1186339E+00
        -11   -1    0    0    0    0  0.00000000000E+00  0.00000000000E+00  0.45593999997E+02  0.45594000000E+02  0.51100000000E-03 0. -1.
         11   -1    0    0    0    0 -0.00000000000E+00 -0.00000000000E+00 -0.45593999997E+02  0.45594000000E+02  0.51100000000E-03 0.  1.
    9900012    2    1    2    0    0  0.79224615412E+00 -0.71243578203E+00 -0.50764113186E+00  0.90007780431E+02  0.90000042333E+02 0.  0.
         12    1    1    2    0    0 -0.79224615412E+00  0.71243578203E+00  0.50764113186E+00  0.11802195690E+01  0.00000000000E+00 0. -1.
         11    1    3    3    0    0  0.89233214368E+01 -0.40418611366E+00  0.33246841424E+01  0.95311361750E+01  0.51100000000E-03 0. -1.
        -11    1    3    3    0    0  0.29995917327E+02 -0.58899140167E+01 -0.22209860611E+02  0.37785235900E+02  0.51100000000E-03 0.  1.
         12    1    3    3    0    0 -0.38126992610E+02  0.55816643484E+01  0.18377535337E+02  0.42691408356E+02  0.00000000000E+00 0. -1.
</event>
<event>
 7    1  0.4520336E-015  0.9000772E+02  0.7816164E-02  0.1186339E+00
        -11   -1    0    0    0    0  0.00000000000E+00  0.00000000000E+00  0.45593999997E+02  0.45594000000E+02  0.51100000000E-03 0. -1.
         11   -1    0    0    0    0 -0.00000000000E+00 -0.00000000000E+00 -0.45593999997E+02  0.45594000000E+02  0.51100000000E-03 0.  1.
    9900012    2    1    2    0    0  0.62493454766E+00  0.33369987356E+00  0.94401713323E+00  0.90007717346E+02  0.89999978415E+02 0.  0.
         12    1    1    2    0    0 -0.62493454766E+00 -0.33369987356E+00 -0.94401713323E+00  0.11802826536E+01  0.00000000000E+00 0. -1.
         11    1    3    3    0    0  0.19041477287E+02 -0.34259719969E+02  0.11926177400E+02  0.40969988739E+02  0.51100000000E-03 0. -1.
        -11    1    3    3    0    0 -0.42085238209E+01 -0.26631705053E+01 -0.75122510281E+01  0.90132161663E+01  0.51100000000E-03 0.  1.
        -12    1    3    3    0    0 -0.14208018919E+02  0.37256590348E+02 -0.34699092389E+01  0.40024512441E+02  0.00000000000E+00 0.  1.
</event>
<event>
 7    1  0.4520336E-015  0.9000762E+02  0.7816164E-02  0.1186339E+00
        -11   -1    0    0    0    0  0.00000000000E+00  0.00000000000E+00  0.45593999997E+02  0.45594000000E+02  0.51100000000E-03 0.  1.
         11   -1    0    0    0    0 -0.00000000000E+00 -0.00000000000E+00 -0.45593999997E+02  0.45594000000E+02  0.51100000000E-03 0. -1.
    9900012    2    1    2    0    0  0.11596929119E+01  0.59714058458E-01 -0.21174363272E+00  0.90007623456E+02  0.89999883286E+02 0.  0.
         12    1    1    2    0    0 -0.11596929119E+01 -0.59714058458E-01  0.21174363272E+00  0.11803765436E+01  0.00000000000E+00 0. -1.
         11    1    3    3    0    0  0.36112465855E+02 -0.14795617747E+02 -0.14123519397E+02  0.41502943210E+02  0.51100000000E-03 0. -1.
        -11    1    3    3    0    0  0.17292517929E+01  0.89858080771E+01  0.11378711301E+01  0.92211609644E+01  0.51100000000E-03 0.  1.
        -12    1    3    3    0    0 -0.36682024736E+02  0.58695237285E+01  0.12773904634E+02  0.39283519282E+02  0.00000000000E+00 0.  1.
</event>
<event>
 7    1  0.4520336E-015  0.9000774E+02  0.7816164E-02  0.1186339E+00
        -11   -1    0    0    0    0  0.00000000000E+00  0.00000000000E+00  0.45593999997E+02  0.45594000000E+02  0.51100000000E-03 0.  1.
         11   -1    0    0    0    0 -0.00000000000E+00 -0.00000000000E+00 -0.45593999997E+02  0.45594000000E+02  0.51100000000E-03 0. -1.
    9900012    2    1    2    0    0 -0.43104808725E+00  0.53573171421E+00  0.95927194264E+00  0.90007740036E+02  0.90000001404E+02 0.  0.
         12    1    1    2    0    0  0.43104808725E+00 -0.53573171421E+00 -0.95927194264E+00  0.11802599642E+01  0.00000000000E+00 0. -1.
         11    1    3    3    0    0 -0.20338928395E+02 -0.19495272259E+01 -0.31746194893E+02  0.37753060208E+02  0.51100000000E-03 0. -1.
        -11    1    3    3    0    0  0.45820645566E+01 -0.30652771499E+01 -0.72467474378E+01  0.91053055025E+01  0.51100000000E-03 0.  1.
        -12    1    3    3    0    0  0.15325815751E+02  0.55505360900E+01  0.39952214273E+02  0.43149374325E+02  0.00000000000E+00 0.  1.
</event>
<event>
 7    1  0.4520336E-015  0.9000774E+02  0.7816164E-02  0.1186339E+00
        -11   -1    0    0    0    0  0.00000000000E+00  0.00000000000E+00  0.45593999997E+02  0.45594000000E+02  0.51100000000E-03 0.  1.
         11   -1    0    0    0    0 -0.00000000000E+00 -0.00000000000E+00 -0.45593999997E+02  0.45594000000E+02  0.51100000000E-03 0. -1.
    9900012    2    1    2    0    0  0.49256910517E+00 -0.52786270103E+00  0.93367872207E+00  0.90007737609E+02  0.89999998946E+02 0.  0.
         12    1    1    2    0    0 -0.49256910517E+00  0.52786270103E+00 -0.93367872207E+00  0.11802623906E+01  0.00000000000E+00 0. -1.
         11    1    3    3    0    0  0.12675434736E+02 -0.34047701368E+02 -0.14638957937E+02  0.39169014589E+02  0.51100000000E-03 0. -1.
        -11    1    3    3    0    0 -0.85737854618E+01 -0.47024442909E+01  0.12340677095E+01  0.98562519664E+01  0.51100000000E-03 0.  1.
        -12    1    3    3    0    0 -0.36090801692E+01  0.38222282957E+02  0.14338568949E+02  0.40982471054E+02  0.00000000000E+00 0.  1.
</event>
<event>
 7    1  0.4520336E-015  0.9000771E+02  0.7816164E-02  0.1186339E+00
        -11   -1    0    0    0    0  0.00000000000E+00  0.00000000000E+00  0.45593999997E+02  0.45594000000E+02  0.51100000000E-03 0.  1.
         11   -1    0    0    0    0 -0.00000000000E+00 -0.00000000000E+00 -0.45593999997E+02  0.45594000000E+02  0.51100000000E-03 0. -1.
    9900012    2    1    2    0    0 -0.11717959698E+01 -0.78663548301E-01  0.11744065623E+00  0.90007709334E+02  0.89999970297E+02 0.  0.
         12    1    1    2    0    0  0.11717959698E+01  0.78663548301E-01 -0.11744065623E+00  0.11802906660E+01  0.00000000000E+00 0. -1.
         11    1    3    3    0    0 -0.37862501405E+02 -0.50560274026E+01 -0.29786474909E+01  0.38314550328E+02  0.51100000000E-03 0. -1.
        -11    1    3    3    0    0  0.15634256075E+01  0.99206043036E+01  0.11469330228E+02  0.15244940981E+02  0.51100000000E-03 0.  1.
         12    1    3    3    0    0  0.35127279828E+02 -0.49432404492E+01 -0.83732420808E+01  0.36448218025E+02  0.00000000000E+00 0. -1.
</event>
<event>
 7    1  0.4520336E-015  0.9000782E+02  0.7816164E-02  0.1186339E+00
        -11   -1    0    0    0    0  0.00000000000E+00  0.00000000000E+00  0.45593999997E+02  0.45594000000E+02  0.51100000000E-03 0.  1.
         11   -1    0    0    0    0 -0.00000000000E+00 -0.00000000000E+00 -0.45593999997E+02  0.45594000000E+02  0.51100000000E-03 0. -1.
    9900012    2    1    2    0    0 -0.36394756542E+00  0.70986506137E+00 -0.86974788860E+00  0.90007818817E+02  0.90000081225E+02 0.  0.
         12    1    1    2    0    0  0.36394756542E+00 -0.70986506137E+00  0.86974788860E+00  0.11801811833E+01  0.00000000000E+00 0. -1.
         11    1    3    3    0    0  0.90412895929E+01  0.39652500703E+01  0.23227147737E+01  0.10142146213E+02  0.51100000000E-03 0. -1.
        -11    1    3    3    0    0 -0.14364613791E+01 -0.41061269441E+02 -0.34191978172E+01  0.41228414757E+02  0.51100000000E-03 0.  1.
         12    1    3    3    0    0 -0.79687757792E+01  0.37805884432E+02  0.22673515489E+00  0.38637257847E+02  0.00000000000E+00 0. -1.
</event>
<event>
 7    1  0.4520336E-015  0.9000767E+02  0.7816164E-02  0.1186339E+00
        -11   -1    0    0    0    0  0.00000000000E+00  0.00000000000E+00  0.45593999997E+02  0.45594000000E+02  0.51100000000E-03 0.  1.
         11   -1    0    0    0    0 -0.00000000000E+00 -0.00000000000E+00 -0.45593999997E+02  0.45594000000E+02  0.51100000000E-03 0. -1.
    9900012    2    1    2    0    0  0.24498186145E+00 -0.76931585860E-01  0.11520595106E+01  0.90007671360E+02  0.89999931822E+02 0.  0.
         12    1    1    2    0    0 -0.24498186145E+00  0.76931585860E-01 -0.11520595106E+01  0.11803286395E+01  0.00000000000E+00 0. -1.
         11    1    3    3    0    0  0.31062338646E+02 -0.14289746639E+01 -0.21367371347E+02  0.37728973075E+02  0.51100000000E-03 0. -1.
        -11    1    3    3    0    0  0.78794375511E+01  0.28124414489E+01  0.52579855097E+01  0.98813852727E+01  0.51100000000E-03 0.  1.
        -12    1    3    3    0    0 -0.38696794335E+02 -0.14603983708E+01  0.17261445348E+02  0.42397313013E+02  0.00000000000E+00 0.  1.
</event>
<event>
 7    1  0.4520336E-015  0.9000778E+02  0.7816164E-02  0.1186339E+00
        -11   -1    0    0    0    0  0.00000000000E+00  0.00000000000E+00  0.45593999997E+02  0.45594000000E+02  0.51100000000E-03 0. -1.
         11   -1    0    0    0    0 -0.00000000000E+00 -0.00000000000E+00 -0.45593999997E+02  0.45594000000E+02  0.51100000000E-03 0.  1.
    9900012    2    1    2    0    0  0.16756589946E+00 -0.18637353353E+00 -0.11533016286E+01  0.90007780499E+02  0.90000042401E+02 0.  0.
         12    1    1    2    0    0 -0.16756589946E+00  0.18637353353E+00  0.11533016286E+01  0.11802195013E+01  0.00000000000E+00 0. -1.
         11    1    3    3    0    0  0.24971133863E+02 -0.27882925298E+02  0.19910289124E+01  0.37483052783E+02  0.51100000000E-03 0. -1.
        -11    1    3    3    0    0  0.77943731714E+01 -0.11444124422E+01  0.32699299605E+01  0.85296175284E+01  0.51100000000E-03 0.  1.
        -12    1    3    3    0    0 -0.32597941135E+02  0.28840964206E+02 -0.64142605015E+01  0.43995110187E+02  0.00000000000E+00 0.  1.
</event>
<event>
 7    1  0.4520336E-015  0.9000774E+02  0.7816164E-02  0.1186339E+00
        -11   -1    0    0    0    0  0.00000000000E+00  0.00000000000E+00  0.45593999997E+02  0.45594000000E+02  0.51100000000E-03 0.  1.
         11   -1    0    0    0    0 -0.00000000000E+00 -0.00000000000E+00 -0.45593999997E+02  0.45594000000E+02  0.51100000000E-03 0. -1.
    9900012    2    1    2    0    0  0.98790916667E+00 -0.46371840191E+00  0.44946546711E+00  0.90007737960E+02  0.89999999301E+02 0.  0.
         12    1    1    2    0    0 -0.98790916667E+00  0.46371840191E+00 -0.44946546711E+00  0.11802620404E+01  0.00000000000E+00 0. -1.
         11    1    3    3    0    0 -0.56103538229E+01  0.68289253428E+01 -0.16170988649E+00  0.88394819816E+01  0.51100000000E-03 0. -1.
        -11    1    3    3    0    0 -0.31702150019E+02  0.16793658592E+02  0.16252179310E+01  0.35912318476E+02  0.51100000000E-03 0.  1.
         12    1    3    3    0    0  0.38300413008E+02 -0.24086302337E+02 -0.10140425774E+01  0.45255937502E+02  0.00000000000E+00 0. -1.
</event>
<event>
 7    1  0.4520336E-015  0.9000779E+02  0.7816164E-02  0.1186339E+00
        -11   -1    0    0    0    0  0.00000000000E+00  0.00000000000E+00  0.45593999997E+02  0.45594000000E+02  0.51100000000E-03 0.  1.
         11   -1    0    0    0    0 -0.00000000000E+00 -0.00000000000E+00 -0.45593999997E+02  0.45594000000E+02  0.51100000000E-03 0. -1.
    9900012    2    1    2    0    0  0.96901040685E+00 -0.97519412549E-01  0.66663744630E+00  0.90007789557E+02  0.90000051579E+02 0.  0.
         12    1    1    2    0    0 -0.96901040685E+00  0.97519412549E-01 -0.66663744630E+00  0.11802104428E+01  0.00000000000E+00 0. -1.
         11    1    3    3    0    0 -0.41146734225E+01  0.91479439529E+01 -0.28072448123E+01  0.10416143223E+02  0.51100000000E-03 0. -1.
        -11    1    3    3    0    0 -0.34548322403E+02  0.84009505374E+01  0.63320943720E+01  0.36114511906E+02  0.51100000000E-03 0.  1.
         12    1    3    3    0    0  0.39632006232E+02 -0.17646413903E+02 -0.28582121134E+01  0.43477134429E+02  0.00000000000E+00 0. -1.
</event>
<event>
 7    1  0.4520336E-015  0.9000777E+02  0.7816164E-02  0.1186339E+00
        -11   -1    0    0    0    0  0.00000000000E+00  0.00000000000E+00  0.45593999997E+02  0.45594000000E+02  0.51100000000E-03 0. -1.
         11   -1    0    0    0    0 -0.00000000000E+00 -0.00000000000E+00 -0.45593999997E+02  0.45594000000E+02  0.51100000000E-03 0.  1.
    9900012    2    1    2    0    0 -0.87673584834E+00 -0.88812760253E-01 -0.78509996919E+00  0.90007773151E+02  0.90000034956E+02 0.  0.
         12    1    1    2    0    0  0.87673584834E+00  0.88812760253E-01  0.78509996919E+00  0.11802268493E+01  0.00000000000E+00 0. -1.
         11    1    3    3    0    0  0.39840669537E+01 -0.71617555179E+01  0.14478796085E+02  0.16637279463E+02  0.51100000000E-03 0. -1.
        -11    1    3    3    0    0  0.24261994879E+02 -0.49940763580E+01 -0.29720662709E+02  0.38689830528E+02  0.51100000000E-03 0.  1.
         12    1    3    3    0    0 -0.29122797681E+02  0.12067019116E+02  0.14456766655E+02  0.34680663160E+02  0.00000000000E+00 0. -1.
</event>
<event>
 7    1  0.4520336E-015  0.9000775E+02  0.7816164E-02  0.1186339E+00
        -11   -1    0    0    0    0  0.00000000000E+00  0.00000000000E+00  0.45593999997E+02  0.45594000000E+02  0.51100000000E-03 0. -1.
         11   -1    0    0    0    0 -0.00000000000E+00 -0.00000000000E+00 -0.45593999997E+02  0.45594000000E+02  0.51100000000E-03 0.  1.
    9900012    2    1    2    0    0 -0.77316943068E+00 -0.88532597354E+00  0.10676076227E+00  0.90007749642E+02  0.90000011137E+02 0.  0.
         12    1    1    2    0    0  0.77316943068E+00  0.88532597354E+00 -0.10676076227E+00  0.11802503583E+01  0.00000000000E+00 0. -1.
         11    1    3    3    0    0  0.25044625383E+02 -0.10554742980E+02  0.30173828533E+02  0.40609060424E+02  0.51100000000E-03 0. -1.
        -11    1    3    3    0    0  0.31659153862E+01  0.95038394566E+01 -0.56522727137E+01  0.11501920350E+02  0.51100000000E-03 0.  1.
        -12    1    3    3    0    0 -0.28983710200E+02  0.16557754959E+00 -0.24414795057E+02  0.37896768867E+02  0.00000000000E+00 0.  1.
</event>
<event>
 7    1  0.4520336E-015  0.9000780E+02  0.7816164E-02  0.1186339E+00
        -11   -1    0    0    0    0  0.00000000000E+00  0.00000000000E+00  0.45593999997E+02  0.45594000000E+02  0.51100000000E-03 0.  1.
         11   -1    0    0    0    0 -0.00000000000E+00 -0.00000000000E+00 -0.45593999997E+02  0.45594000000E+02  0.51100000000E-03 0. -1.
    9900012    2    1    2    0    0  0.25869625560E+00  0.63709790359E-01  0.11497365950E+01  0.90007797929E+02  0.90000060062E+02 0.  0.
         12    1    1    2    0    0 -0.25869625560E+00 -0.63709790359E-01 -0.11497365950E+01  0.11802020708E+01  0.00000000000E+00 0. -1.
         11    1    3    3    0    0 -0.10011629759E+02 -0.31121832752E+02 -0.22781773511E+02  0.39847338792E+02  0.51100000000E-03 0. -1.
        -11    1    3    3    0    0 -0.78639084696E+01  0.57928991627E+01 -0.15312573275E+01  0.98865305538E+01  0.51100000000E-03 0.  1.
        -12    1    3    3    0    0  0.18134234485E+02  0.25392643379E+02  0.25462767434E+02  0.40273928583E+02  0.00000000000E+00 0.  1.
</event>
<event>
 7    1  0.4520336E-015  0.9000773E+02  0.7816164E-02  0.1186339E+00
        -11   -1    0    0    0    0  0.00000000000E+00  0.00000000000E+00  0.45593999997E+02  0.45594000000E+02  0.51100000000E-03 0. -1.
         11   -1    0    0    0    0 -0.00000000000E+00 -0.00000000000E+00 -0.45593999997E+02  0.45594000000E+02  0.51100000000E-03 0.  1.
    9900012    2    1    2    0    0  0.40013443218E+00 -0.10967974219E+01  0.17307964148E+00  0.90007733627E+02  0.89999994911E+02 0.  0.
         12    1    1    2    0    0 -0.40013443218E+00  0.10967974219E+01 -0.17307964148E+00  0.11802663728E+01  0.00000000000E+00 0. -1.
         11    1    3    3    0    0 -0.61433029136E+01 -0.72934316060E+01 -0.51200292989E+01  0.10823539881E+02  0.51100000000E-03 0. -1.
        -11    1    3    3    0    0 -0.30633958868E+02 -0.16766866359E+02  0.62446219601E+01  0.35476225097E+02  0.51100000000E-03 0.  1.
         12    1    3    3    0    0  0.37177396213E+02  0.22963500543E+02 -0.95151301964E+00  0.43707968649E+02  0.00000000000E+00 0. -1.
</event>
<event>
 7    1  0.4520336E-015  0.9000773E+02  0.7816164E-02  0.1186339E+00
        -11   -1    0    0    0    0  0.00000000000E+00  0.00000000000E+00  0.45593999997E+02  0.45594000000E+02  0.51100000000E-03 0. -1.
         11   -1    0    0    0    0 -0.00000000000E+00 -0.00000000000E+00 -0.45593999997E+02  0.45594000000E+02  0.51100000000E-03 0.  1.
    9900012    2    1    2    0    0  0.59488150560E-03 -0.71472664803E+00 -0.93925647158E+00  0.90007730008E+02  0.89999991244E+02 0.  0.
         12    1    1    2    0    0 -0.59488150561E-03  0.71472664803E+00  0.93925647158E+00  0.11802699923E+01  0.00000000000E+00 0. -1.
         11    1    3    3    0    0  0.23903271256E+02 -0.22411795260E+02  0.19600670812E+02  0.38181687235E+02  0.51100000000E-03 0. -1.
        -11    1    3    3    0    0  0.20691656005E+01  0.64808732576E+01  0.78924577909E+01  0.10419887461E+02  0.51100000000E-03 0.  1.
        -12    1    3    3    0    0 -0.25971841975E+02  0.15216195354E+02 -0.28432385075E+02  0.41406155312E+02  0.00000000000E+00 0.  1.
</event>
<event>
 7    1  0.4520336E-015  0.9000781E+02  0.7816164E-02  0.1186339E+00
        -11   -1    0    0    0    0  0.00000000000E+00  0.00000000000E+00  0.45593999997E+02  0.45594000000E+02  0.51100000000E-03 0. -1.
         11   -1    0    0    0    0 -0.00000000000E+00 -0.00000000000E+00 -0.45593999997E+02  0.45594000000E+02  0.51100000000E-03 0.  1.
    9900012    2    1    2    0    0  0.56791590678E+00 -0.97875416602E+00 -0.33520742138E+00  0.90007808401E+02  0.90000070672E+02 0.  0.
         12    1    1    2    0    0 -0.56791590678E+00  0.97875416602E+00  0.33520742138E+00  0.11801915989E+01  0.00000000000E+00 0. -1.
         11    1    3    3    0    0  0.61416009314E+01  0.36435840663E+01 -0.57010893181E+01  0.91376904370E+01  0.51100000000E-03 0. -1.
        -11    1    3    3    0    0  0.11918770079E+02 -0.37570705069E+02  0.15275549986E+02  0.42272418753E+02  0.51100000000E-03 0.  1.
         12    1    3    3    0    0 -0.17492455104E+02  0.32948366837E+02 -0.99096680890E+01  0.38597699211E+02  0.00000000000E+00 0. -1.
</event>
<event>
 7    1  0.7655934E-015  0.9000772E+02  0.7816164E-02  0.1186339E+00
        -11   -1    0    0    0    0  0.00000000000E+00  0.00000000000E+00  0.45593999997E+02  0.45594000000E+02  0.51100000000E-03 0. -1.
         11   -1    0    0    0    0 -0.00000000000E+00 -0.00000000000E+00 -0.45593999997E+02  0.45594000000E+02  0.51100000000E-03 0.  1.
    9900012    2    1    2    0    0  0.10251989584E+01  0.46953464796E+00  0.34866840379E+00  0.90007718107E+02  0.89999979187E+02 0.  0.
         12    1    1    2    0    0 -0.10251989584E+01 -0.46953464796E+00 -0.34866840379E+00  0.11802818925E+01  0.00000000000E+00 0. -1.
         11    1    3    3    0    0  0.51686430990E+01 -0.38365608125E+02 -0.70090559721E+00  0.38718548877E+02  0.51100000000E-03 0. -1.
        -11    1    3    3    0    0 -0.30934877385E+01 -0.21905498172E+01 -0.83652265203E+01  0.91839637351E+01  0.51100000000E-03 0.  1.
        -12    1    3    3    0    0 -0.10499564021E+01  0.41025692590E+02  0.94148005213E+01  0.42105205495E+02  0.00000000000E+00 0.  1.
</event>
<event>
 7    1  0.4520336E-015  0.9000777E+02  0.7816164E-02  0.1186339E+00
        -11   -1    0    0    0    0  0.00000000000E+00  0.00000000000E+00  0.45593999997E+02  0.45594000000E+02  0.51100000000E-03 0. -1.
         11   -1    0    0    0    0 -0.00000000000E+00 -0.00000000000E+00 -0.45593999997E+02  0.45594000000E+02  0.51100000000E-03 0.  1.
    9900012    2    1    2    0    0 -0.10858653848E+01  0.54878446342E-01 -0.45916175658E+00  0.90007769177E+02  0.90000030930E+02 0.  0.
         12    1    1    2    0    0  0.10858653848E+01 -0.54878446342E-01  0.45916175658E+00  0.11802308234E+01  0.00000000000E+00 0. -1.
         11    1    3    3    0    0  0.72646281576E+01 -0.31777672018E+02 -0.21012200212E+02  0.38782828922E+02  0.51100000000E-03 0. -1.
        -11    1    3    3    0    0  0.99664582041E+01  0.56867774957E+01 -0.26291685006E+01  0.11772096444E+02  0.51100000000E-03 0.  1.
        -12    1    3    3    0    0 -0.18316951746E+02  0.26145772969E+02  0.23182206956E+02  0.39452843811E+02  0.00000000000E+00 0.  1.
</event>
<event>
 7    1  0.4520336E-015  0.9000779E+02  0.7816164E-02  0.1186339E+00
        -11   -1    0    0    0    0  0.00000000000E+00  0.00000000000E+00  0.45593999997E+02  0.45594000000E+02  0.51100000000E-03 0. -1.
         11   -1    0    0    0    0 -0.00000000000E+00 -0.00000000000E+00 -0.45593999997E+02  0.45594000000E+02  0.51100000000E-03 0.  1.
    9900012    2    1    2    0    0  0.12479049877E+00 -0.41318542571E+00 -0.10984582667E+01  0.90007785855E+02  0.90000047828E+02 0.  0.
         12    1    1    2    0    0 -0.12479049877E+00  0.41318542571E+00  0.10984582667E+01  0.11802141451E+01  0.00000000000E+00 0. -1.
         11    1    3    3    0    0 -0.60329581315E+01  0.71634086335E+01  0.24367090705E+00  0.93685848899E+01  0.51100000000E-03 0. -1.
        -11    1    3    3    0    0 -0.27966820043E+01  0.35768826929E+02  0.38097550584E+01  0.36079698502E+02  0.51100000000E-03 0.  1.
         12    1    3    3    0    0  0.89544306346E+01 -0.43345420988E+02 -0.51518842321E+01  0.44559502463E+02  0.00000000000E+00 0. -1.
</event>
<event>
 7    1  0.4520336E-015  0.9000772E+02  0.7816164E-02  0.1186339E+00
        -11   -1    0    0    0    0  0.00000000000E+00  0.00000000000E+00  0.45593999997E+02  0.45594000000E+02  0.51100000000E-03 0. -1.
         11   -1    0    0    0    0 -0.00000000000E+00 -0.00000000000E+00 -0.45593999997E+02  0.45594000000E+02  0.51100000000E-03 0.  1.
    9900012    2    1    2    0    0  0.10009673625E+01  0.62500894767E+00 -0.22072726232E-01  0.90007720774E+02  0.89999981888E+02 0.  0.
         12    1    1    2    0    0 -0.10009673625E+01 -0.62500894767E+00  0.22072726232E-01  0.11802792258E+01  0.00000000000E+00 0. -1.
         11    1    3    3    0    0  0.22264426319E+02  0.69701075770E+01  0.31613317052E+02  0.39289806493E+02  0.51100000000E-03 0. -1.
        -11    1    3    3    0    0  0.40877646717E+00  0.10053061297E+02 -0.15583405307E+01  0.10181334152E+02  0.51100000000E-03 0.  1.
        -12    1    3    3    0    0 -0.21672235424E+02 -0.16398159926E+02 -0.30077049247E+02  0.40536580130E+02  0.00000000000E+00 0.  1.
</event>
<event>
 7    1  0.4520336E-015  0.9000774E+02  0.7816164E-02  0.1186339E+00
        -11   -1    0    0    0    0  0.00000000000E+00  0.00000000000E+00  0.45593999997E+02  0.45594000000E+02  0.51100000000E-03 0.  1.
         11   -1    0    0    0    0 -0.00000000000E+00 -0.00000000000E+00 -0.45593999997E+02  0.45594000000E+02  0.51100000000E-03 0. -1.
    9900012    2    1    2    0    0 -0.73178286955E-01  0.97275391269E+00 -0.66439092799E+00  0.90007737088E+02  0.89999998418E+02 0.  0.
         12    1    1    2    0    0  0.73178286955E-01 -0.97275391269E+00  0.66439092799E+00  0.11802629120E+01  0.00000000000E+00 0. -1.
         11    1    3    3    0    0 -0.40233131469E+01  0.72876096357E+01 -0.78192312499E+01  0.11420887902E+02  0.51100000000E-03 0. -1.
        -11    1    3    3    0    0  0.33860820002E+02  0.13476529724E+02  0.18630449258E+02  0.40930008850E+02  0.51100000000E-03 0.  1.
         12    1    3    3    0    0 -0.29910685142E+02 -0.19791385447E+02 -0.11475608936E+02  0.37656840336E+02  0.00000000000E+00 0. -1.
</event>
<event>
 7    1  0.4520336E-015  0.9000763E+02  0.7816164E-02  0.1186339E+00
        -11   -1    0    0    0    0  0.00000000000E+00  0.00000000000E+00  0.45593999997E+02  0.45594000000E+02  0.51100000000E-03 0.  1.
         11   -1    0    0    0    0 -0.00000000000E+00 -0.00000000000E+00 -0.45593999997E+02  0.45594000000E+02  0.51100000000E-03 0. -1.
    9900012    2    1    2    0    0 -0.99994276580E+00  0.52028433206E-01  0.62505279930E+00  0.90007625697E+02  0.89999885556E+02 0.  0.
         12    1    1    2    0    0  0.99994276580E+00 -0.52028433206E-01 -0.62505279930E+00  0.11803743028E+01  0.00000000000E+00 0. -1.
         11    1    3    3    0    0  0.55942307680E+01  0.30601793467E+00  0.83450781089E+01  0.10051337909E+02  0.51100000000E-03 0. -1.
        -11    1    3    3    0    0  0.18937793531E+02 -0.21763702608E+01  0.29293563954E+02  0.34949814030E+02  0.51100000000E-03 0.  1.
         12    1    3    3    0    0 -0.25531967065E+02  0.19223807593E+01 -0.37013589264E+02  0.45006473758E+02  0.00000000000E+00 0. -1.
</event>
<event>
 7    1  0.4520336E-015  0.9000774E+02  0.7816164E-02  0.1186339E+00
        -11   -1    0    0    0    0  0.00000000000E+00  0.00000000000E+00  0.45593999997E+02  0.45594000000E+02  0.51100000000E-03 0.  1.
         11   -1    0    0    0    0 -0.00000000000E+00 -0.00000000000E+00 -0.45593999997E+02  0.45594000000E+02  0.51100000000E-03 0. -1.
    9900012    2    1    2    0    0  0.22710489549E+00  0.94658301471E+00  0.66739471250E+00  0.90007740817E+02  0.90000002196E+02 0.  0.
         12    1    1    2    0    0 -0.22710489549E+00 -0.94658301471E+00 -0.66739471250E+00  0.11802591832E+01  0.00000000000E+00 0. -1.
         11    1    3    3    0    0  0.39274071970E+01  0.25440262912E+02  0.20836518638E+02  0.33117850376E+02  0.51100000000E-03 0. -1.
        -11    1    3    3    0    0 -0.17866542678E+01  0.52364764502E+01  0.11896762753E+02  0.13120433810E+02  0.51100000000E-03 0.  1.
        -12    1    3    3    0    0 -0.19136480338E+01 -0.29730156348E+02 -0.32065886679E+02  0.43769456631E+02  0.00000000000E+00 0.  1.
</event>
<event>
 7    1  0.4520336E-015  0.9000776E+02  0.7816164E-02  0.1186339E+00
        -11   -1    0    0    0    0  0.00000000000E+00  0.00000000000E+00  0.45593999997E+02  0.45594000000E+02  0.51100000000E-03 0. -1.
         11   -1    0    0    0    0 -0.00000000000E+00 -0.00000000000E+00 -0.45593999997E+02  0.45594000000E+02  0.51100000000E-03 0.  1.
    9900012    2    1    2    0    0 -0.44556568733E+00 -0.60182664574E+00  0.91227671007E+00  0.90007757275E+02  0.90000018871E+02 0.  0.
         12    1    1    2    0    0  0.44556568733E+00  0.60182664574E+00 -0.91227671007E+00  0.11802427246E+01  0.00000000000E+00 0. -1.
         11    1    3    3    0    0  0.50369142662E+01 -0.64280433693E+01  0.31427105897E+01  0.87502501104E+01  0.51100000000E-03 0. -1.
        -11    1    3    3    0    0 -0.13884254468E+02 -0.28486055843E+02 -0.24009230173E+02  0.39757653771E+02  0.51100000000E-03 0.  1.
         12    1    3    3    0    0  0.84017745148E+01  0.34312272567E+02  0.21778796294E+02  0.41499853394E+02  0.00000000000E+00 0. -1.
</event>
<event>
 7    1  0.4520336E-015  0.9000776E+02  0.7816164E-02  0.1186339E+00
        -11   -1    0    0    0    0  0.00000000000E+00  0.00000000000E+00  0.45593999997E+02  0.45594000000E+02  0.51100000000E-03 0. -1.
         11   -1    0    0    0    0 -0.00000000000E+00 -0.00000000000E+00 -0.45593999997E+02  0.45594000000E+02  0.51100000000E-03 0.  1.
    9900012    2    1    2    0    0  0.11456290998E+01  0.10383558493E+00  0.26405423605E+00  0.90007757439E+02  0.90000019037E+02 0.  0.
         12    1    1    2    0    0 -0.11456290998E+01 -0.10383558493E+00 -0.26405423605E+00  0.11802425609E+01  0.00000000000E+00 0. -1.
         11    1    3    3    0    0 -0.27799902390E+01  0.18872854606E+01  0.10041164335E+02  0.10588445287E+02  0.51100000000E-03 0. -1.
        -11    1    3    3    0    0  0.30616086833E+02  0.26060265267E+02 -0.37318091645E+01  0.40378318422E+02  0.51100000000E-03 0.  1.
         12    1    3    3    0    0 -0.26690467494E+02 -0.27843715143E+02 -0.60453009346E+01  0.39040993729E+02  0.00000000000E+00 0. -1.
</event>
<event>
 7    1  0.4520336E-015  0.9000782E+02  0.7816164E-02  0.1186339E+00
        -11   -1    0    0    0    0  0.00000000000E+00  0.00000000000E+00  0.45593999997E+02  0.45594000000E+02  0.51100000000E-03 0.  1.
         11   -1    0    0    0    0 -0.00000000000E+00 -0.00000000000E+00 -0.45593999997E+02  0.45594000000E+02  0.51100000000E-03 0. -1.
    9900012    2    1    2    0    0  0.43227124885E-01 -0.50871791587E+00  0.10640318886E+01  0.90007819352E+02  0.90000081767E+02 0.  0.
         12    1    1    2    0    0 -0.43227124885E-01  0.50871791587E+00 -0.10640318886E+01  0.11801806482E+01  0.00000000000E+00 0. -1.
         11    1    3    3    0    0  0.33684677869E+01 -0.86161110088E+01 -0.11200322091E+01  0.93187132458E+01  0.51100000000E-03 0. -1.
        -11    1    3    3    0    0 -0.24835445439E+02  0.18561289401E+02  0.30590417066E+02  0.43555647520E+02  0.51100000000E-03 0.  1.
         12    1    3    3    0    0  0.21510204777E+02 -0.10453896308E+02 -0.28406352968E+02  0.37133458586E+02  0.00000000000E+00 0. -1.
</event>
<event>
 7    1  0.4520336E-015  0.9000771E+02  0.7816164E-02  0.1186339E+00
        -11   -1    0    0    0    0  0.00000000000E+00  0.00000000000E+00  0.45593999997E+02  0.45594000000E+02  0.51100000000E-03 0. -1.
         11   -1    0    0    0    0 -0.00000000000E+00 -0.00000000000E+00 -0.45593999997E+02  0.45594000000E+02  0.51100000000E-03 0.  1.
    9900012    2    1    2    0    0  0.99083349810E+00  0.55260081774E+00  0.32551370785E+00  0.90007712807E+02  0.89999973816E+02 0.  0.
         12    1    1    2    0    0 -0.99083349810E+00 -0.55260081774E+00 -0.32551370785E+00  0.11802871933E+01  0.00000000000E+00 0. -1.
         11    1    3    3    0    0  0.81699118271E+01 -0.39008206157E+02 -0.17569059423E+02  0.43555246023E+02  0.51100000000E-03 0. -1.
        -11    1    3    3    0    0  0.93133256946E+00  0.41941513678E+01  0.76089557856E+01  0.87381058851E+01  0.51100000000E-03 0.  1.
        -12    1    3    3    0    0 -0.81104108985E+01  0.35366655607E+02  0.10285617346E+02  0.37714360898E+02  0.00000000000E+00 0.  1.
</event>
<event>
 7    1  0.4520336E-015  0.9000766E+02  0.7816164E-02  0.1186339E+00
        -11   -1    0    0    0    0  0.00000000000E+00  0.00000000000E+00  0.45593999997E+02  0.45594000000E+02  0.51100000000E-03 0.  1.
         11   -1    0    0    0    0 -0.00000000000E+00 -0.00000000000E+00 -0.45593999997E+02  0.45594000000E+02  0.51100000000E-03 0. -1.
    9900012    2    1    2    0    0  0.28070487394E+00  0.84177389839E+00  0.77834404682E+00  0.90007661922E+02  0.89999922260E+02 0.  0.
         12    1    1    2    0    0 -0.28070487394E+00 -0.84177389839E+00 -0.77834404682E+00  0.11803380776E+01  0.00000000000E+00 0. -1.
         11    1    3    3    0    0 -0.63635820291E+01 -0.34454065170E+02 -0.22523117295E+02  0.41651753816E+02  0.51100000000E-03 0. -1.
        -11    1    3    3    0    0 -0.49701289188E+01  0.19717405243E+01  0.85985814995E+01  0.10125489925E+02  0.51100000000E-03 0.  1.
        -12    1    3    3    0    0  0.11614415822E+02  0.33324098544E+02  0.14702879842E+02  0.38230418181E+02  0.00000000000E+00 0.  1.
</event>
<event>
 7    1  0.4813593E-015  0.9000775E+02  0.7816164E-02  0.1186339E+00
        -11   -1    0    0    0    0  0.00000000000E+00  0.00000000000E+00  0.45593999997E+02  0.45594000000E+02  0.51100000000E-03 0. -1.
         11   -1    0    0    0    0 -0.00000000000E+00 -0.00000000000E+00 -0.45593999997E+02  0.45594000000E+02  0.51100000000E-03 0.  1.
    9900012    2    1    2    0    0 -0.71423374796E+00  0.54689303674E+00 -0.76404122042E+00  0.90007753913E+02  0.90000015464E+02 0.  0.
         12    1    1    2    0    0  0.71423374796E+00 -0.54689303674E+00  0.76404122042E+00  0.11802460874E+01  0.00000000000E+00 0. -1.
         11    1    3    3    0    0 -0.84489679744E+01 -0.66312697776E+00 -0.49807686345E+01  0.98302011003E+01  0.51100000000E-03 0. -1.
        -11    1    3    3    0    0  0.58209080228E+01 -0.30669108678E+02 -0.22548332847E+02  0.38508499215E+02  0.51100000000E-03 0.  1.
         12    1    3    3    0    0  0.19138262036E+01  0.31879128693E+02  0.26765060261E+02  0.41669053598E+02  0.00000000000E+00 0. -1.
</event>
<event>
 7    1  0.4520336E-015  0.9000778E+02  0.7816164E-02  0.1186339E+00
        -11   -1    0    0    0    0  0.00000000000E+00  0.00000000000E+00  0.45593999997E+02  0.45594000000E+02  0.51100000000E-03 0.  1.
         11   -1    0    0    0    0 -0.00000000000E+00 -0.00000000000E+00 -0.45593999997E+02  0.45594000000E+02  0.51100000000E-03 0. -1.
    9900012    2    1    2    0    0 -0.40976865363E+00  0.92659575293E+00  0.60533984003E+00  0.90007776987E+02  0.90000038843E+02 0.  0.
         12    1    1    2    0    0  0.40976865363E+00 -0.92659575293E+00 -0.60533984003E+00  0.11802230131E+01  0.00000000000E+00 0. -1.
         11    1    3    3    0    0 -0.49413055114E+01 -0.92615949387E+01 -0.12416184505E+02  0.16259006085E+02  0.51100000000E-03 0. -1.
        -11    1    3    3    0    0 -0.19556452318E+02 -0.15184950496E+02  0.26490141435E+02  0.36259690323E+02  0.51100000000E-03 0.  1.
         12    1    3    3    0    0  0.24087989176E+02  0.25373141188E+02 -0.13468617090E+02  0.37489080578E+02  0.00000000000E+00 0. -1.
</event>
<event>
 7    1  0.5279835E-015  0.9000771E+02  0.7816164E-02  0.1186339E+00
        -11   -1    0    0    0    0  0.00000000000E+00  0.00000000000E+00  0.45593999997E+02  0.45594000000E+02  0.51100000000E-03 0. -1.
         11   -1    0    0    0    0 -0.00000000000E+00 -0.00000000000E+00 -0.45593999997E+02  0.45594000000E+02  0.51100000000E-03 0.  1.
    9900012    2    1    2    0    0 -0.59027338357E+00 -0.91317294265E+00 -0.45909684223E+00  0.90007713001E+02  0.89999974012E+02 0.  0.
         12    1    1    2    0    0  0.59027338357E+00  0.91317294265E+00  0.45909684223E+00  0.11802869995E+01  0.00000000000E+00 0. -1.
         11    1    3    3    0    0  0.40028570082E+01  0.32657994717E+02  0.22832890305E+02  0.40048824740E+02  0.51100000000E-03 0. -1.
        -11    1    3    3    0    0 -0.10177527429E+02 -0.85201923746E+00 -0.16790899433E+01  0.10350234038E+02  0.51100000000E-03 0.  1.
        -12    1    3    3    0    0  0.55843970372E+01 -0.32719148422E+02 -0.21612897204E+02  0.39608654222E+02  0.00000000000E+00 0.  1.
</event>
<event>
 7    1  0.4520336E-015  0.9000784E+02  0.7816164E-02  0.1186339E+00
        -11   -1    0    0    0    0  0.00000000000E+00  0.00000000000E+00  0.45593999997E+02  0.45594000000E+02  0.51100000000E-03 0.  1.
         11   -1    0    0    0    0 -0.00000000000E+00 -0.00000000000E+00 -0.45593999997E+02  0.45594000000E+02  0.51100000000E-03 0. -1.
    9900012    2    1    2    0    0 -0.29330248541E+00 -0.80313508107E+00  0.81345980602E+00  0.90007843586E+02  0.90000106321E+02 0.  0.
         12    1    1    2    0    0  0.29330248541E+00  0.80313508107E+00 -0.81345980602E+00  0.11801564144E+01  0.00000000000E+00 0. -1.
         11    1    3    3    0    0 -0.74262217006E+01  0.23810365658E+01  0.16414451208E+02  0.18172845474E+02  0.51100000000E-03 0. -1.
        -11    1    3    3    0    0 -0.22804843775E+02  0.31433120583E+01  0.15854279604E+02  0.27951735050E+02  0.51100000000E-03 0.  1.
         12    1    3    3    0    0  0.29937762990E+02 -0.63274837052E+01 -0.31455271006E+02  0.43883263062E+02  0.00000000000E+00 0. -1.
</event>
<event>
 7    1  0.4520336E-015  0.9000761E+02  0.7816164E-02  0.1186339E+00
        -11   -1    0    0    0    0  0.00000000000E+00  0.00000000000E+00  0.45593999997E+02  0.45594000000E+02  0.51100000000E-03 0. -1.
         11   -1    0    0    0    0 -0.00000000000E+00 -0.00000000000E+00 -0.45593999997E+02  0.45594000000E+02  0.51100000000E-03 0.  1.
    9900012    2    1    2    0    0 -0.10127279062E+01  0.44132084117E+00 -0.41585600777E+00  0.90007611032E+02  0.89999870697E+02 0.  0.
         12    1    1    2    0    0  0.10127279062E+01 -0.44132084117E+00  0.41585600777E+00  0.11803889681E+01  0.00000000000E+00 0. -1.
         11    1    3    3    0    0 -0.70590909819E+01  0.23690878669E+02 -0.14992516803E+01  0.24765626450E+02  0.51100000000E-03 0. -1.
        -11    1    3    3    0    0 -0.26357178045E+02 -0.37938751781E+01 -0.45942560794E+01  0.27022241072E+02  0.51100000000E-03 0.  1.
        -12    1    3    3    0    0  0.32403541121E+02 -0.19455682650E+02  0.56776517520E+01  0.38219743510E+02  0.00000000000E+00 0.  1.
</event>
<event>
 7    1  0.4520336E-015  0.9000778E+02  0.7816164E-02  0.1186339E+00
        -11   -1    0    0    0    0  0.00000000000E+00  0.00000000000E+00  0.45593999997E+02  0.45594000000E+02  0.51100000000E-03 0.  1.
         11   -1    0    0    0    0 -0.00000000000E+00 -0.00000000000E+00 -0.45593999997E+02  0.45594000000E+02  0.51100000000E-03 0. -1.
    9900012    2    1    2    0    0  0.69308759681E+00 -0.74261604118E+00 -0.60088532375E+00  0.90007782997E+02  0.90000044933E+02 0.  0.
         12    1    1    2    0    0 -0.69308759681E+00  0.74261604118E+00  0.60088532375E+00  0.11802170028E+01  0.00000000000E+00 0. -1.
         11    1    3    3    0    0  0.18261021488E+01 -0.89708569391E+01  0.13121032397E+01  0.92483803151E+01  0.51100000000E-03 0. -1.
        -11    1    3    3    0    0 -0.38687675505E+02 -0.66711537540E+01  0.56261521870E+01  0.39659729161E+02  0.51100000000E-03 0.  1.
         12    1    3    3    0    0  0.37554660953E+02  0.14899394652E+02 -0.75391407504E+01  0.41099673521E+02  0.00000000000E+00 0. -1.
</event>
<event>
 7    1  0.4520336E-015  0.9000775E+02  0.7816164E-02  0.1186339E+00
        -11   -1    0    0    0    0  0.00000000000E+00  0.00000000000E+00  0.45593999997E+02  0.45594000000E+02  0.51100000000E-03 0.  1.
         11   -1    0    0    0    0 -0.00000000000E+00 -0.00000000000E+00 -0.45593999997E+02  0.45594000000E+02  0.51100000000E-03 0. -1.
    9900012    2    1    2    0    0  0.24996463581E+00  0.21642790401E+00  0.11329949414E+01  0.90007745411E+02  0.90000006851E+02 0.  0.
         12    1    1    2    0    0 -0.24996463581E+00 -0.21642790401E+00 -0.11329949414E+01  0.11802545887E+01  0.00000000000E+00 0. -1.
         11    1    3    3    0    0 -0.18324324668E+02 -0.26912994738E+02 -0.18808619344E+02  0.37601254264E+02  0.51100000000E-03 0. -1.
        -11    1    3    3    0    0 -0.37620108183E+01 -0.63346449863E+01  0.69471036225E+01  0.10126337023E+02  0.51100000000E-03 0.  1.
        -12    1    3    3    0    0  0.22336300122E+02  0.33464067629E+02  0.12994510663E+02  0.42280154124E+02  0.00000000000E+00 0.  1.
</event>
<event>
 7    1  0.4520336E-015  0.9000777E+02  0.7816164E-02  0.1186339E+00
        -11   -1    0    0    0    0  0.00000000000E+00  0.00000000000E+00  0.45593999997E+02  0.45594000000E+02  0.51100000000E-03 0. -1.
         11   -1    0    0    0    0 -0.00000000000E+00 -0.00000000000E+00 -0.45593999997E+02  0.45594000000E+02  0.51100000000E-03 0.  1.
    9900012    2    1    2    0    0  0.66796459968E+00 -0.97194243108E+00  0.45848189014E-01  0.90007766611E+02  0.90000028330E+02 0.  0.
         12    1    1    2    0    0 -0.66796459968E+00  0.97194243108E+00 -0.45848189014E-01  0.11802333889E+01  0.00000000000E+00 0. -1.
         11    1    3    3    0    0 -0.23597100569E+02  0.16595386692E+02  0.21508552202E+02  0.35983994120E+02  0.51100000000E-03 0. -1.
        -11    1    3    3    0    0 -0.82604596737E+01  0.40681418539E+01  0.47708484543E+00  0.92202268072E+01  0.51100000000E-03 0.  1.
        -12    1    3    3    0    0  0.32525524842E+02 -0.21635470977E+02 -0.21939788859E+02  0.44803545684E+02  0.00000000000E+00 0.  1.
</event>
<event>
 7    1  0.4520336E-015  0.9000796E+02  0.7816164E-02  0.1186339E+00
        -11   -1    0    0    0    0  0.00000000000E+00  0.00000000000E+00  0.45593999997E+02  0.45594000000E+02  0.51100000000E-03 0. -1.
         11   -1    0    0    0    0 -0.00000000000E+00 -0.00000000000E+00 -0.45593999997E+02  0.45594000000E+02  0.51100000000E-03 0.  1.
    9900012    2    1    2    0    0  0.18007091227E+00 -0.74613515889E+00 -0.89630257353E+00  0.90007956987E+02  0.90000221219E+02 0.  0.
         12    1    1    2    0    0 -0.18007091227E+00  0.74613515889E+00  0.89630257353E+00  0.11800430128E+01  0.00000000000E+00 0. -1.
         11    1    3    3    0    0 -0.57790196392E+01 -0.65008329570E+01  0.43646362399E+01  0.97318008042E+01  0.51100000000E-03 0. -1.
        -11    1    3    3    0    0 -0.64327796403E+01 -0.29909572689E+02 -0.23277293551E+02  0.38442106962E+02  0.51100000000E-03 0.  1.
         12    1    3    3    0    0  0.12391870192E+02  0.35664270487E+02  0.18016354738E+02  0.41834049221E+02  0.00000000000E+00 0. -1.
</event>
<event>
 7    1  0.4520336E-015  0.9000790E+02  0.7816164E-02  0.1186339E+00
        -11   -1    0    0    0    0  0.00000000000E+00  0.00000000000E+00  0.45593999997E+02  0.45594000000E+02  0.51100000000E-03 0. -1.
         11   -1    0    0    0    0 -0.00000000000E+00 -0.00000000000E+00 -0.45593999997E+02  0.45594000000E+02  0.51100000000E-03 0.  1.
    9900012    2    1    2    0    0  0.81871688812E+00 -0.64244337607E+00 -0.55642412805E+00  0.90007898884E+02  0.90000162349E+02 0.  0.
         12    1    1    2    0    0 -0.81871688812E+00  0.64244337607E+00  0.55642412805E+00  0.11801011163E+01  0.00000000000E+00 0. -1.
         11    1    3    3    0    0  0.59373791980E+01 -0.26734256272E+02 -0.29033546689E+02  0.39911398920E+02  0.51100000000E-03 0. -1.
        -11    1    3    3    0    0 -0.72035517512E+01 -0.57514846152E+01  0.77651901441E+01  0.12052755342E+02  0.51100000000E-03 0.  1.
        -12    1    3    3    0    0  0.20848894413E+01  0.31843297511E+02  0.20711932417E+02  0.38043744621E+02  0.00000000000E+00 0.  1.
</event>
<event>
 7    1  0.4520336E-015  0.9000782E+02  0.7816164E-02  0.1186339E+00
        -11   -1    0    0    0    0  0.00000000000E+00  0.00000000000E+00  0.45593999997E+02  0.45594000000E+02  0.51100000000E-03 0.  1.
         11   -1    0    0    0    0 -0.00000000000E+00 -0.00000000000E+00 -0.45593999997E+02  0.45594000000E+02  0.51100000000E-03 0. -1.
    9900012    2    1    2    0    0 -0.26138665807E+00  0.25131941226E+00  0.11230993661E+01  0.90007815007E+02  0.90000077365E+02 0.  0.
         12    1    1    2    0    0  0.26138665807E+00 -0.25131941226E+00 -0.11230993661E+01  0.11801849932E+01  0.00000000000E+00 0. -1.
         11    1    3    3    0    0  0.33928924988E+02  0.55586465693E+01  0.11600473507E+02  0.36285554817E+02  0.51100000000E-03 0. -1.
        -11    1    3    3    0    0  0.87875527601E+01 -0.22125578777E+01 -0.48180829037E+01  0.10263060898E+02  0.51100000000E-03 0.  1.
        -12    1    3    3    0    0 -0.42977864406E+02 -0.30947692794E+01 -0.56592912368E+01  0.43459199292E+02  0.00000000000E+00 0.  1.
</event>
<event>
 7    1  0.4520336E-015  0.9000775E+02  0.7816164E-02  0.1186339E+00
        -11   -1    0    0    0    0  0.00000000000E+00  0.00000000000E+00  0.45593999997E+02  0.45594000000E+02  0.51100000000E-03 0.  1.
         11   -1    0    0    0    0 -0.00000000000E+00 -0.00000000000E+00 -0.45593999997E+02  0.45594000000E+02  0.51100000000E-03 0. -1.
    9900012    2    1    2    0    0  0.59769698133E+00 -0.18492511817E-01  0.10175446110E+01  0.90007753971E+02  0.90000015523E+02 0.  0.
         12    1    1    2    0    0 -0.59769698133E+00  0.18492511817E-01 -0.10175446110E+01  0.11802460294E+01  0.00000000000E+00 0. -1.
         11    1    3    3    0    0  0.51525197289E+01  0.65018565648E+01 -0.40234779662E+01  0.92201395625E+01  0.51100000000E-03 0. -1.
        -11    1    3    3    0    0 -0.25832759359E+02  0.28448736743E+02  0.95779342873E+01  0.39603016348E+02  0.51100000000E-03 0.  1.
         12    1    3    3    0    0  0.21277936611E+02 -0.34969085820E+02 -0.45369117101E+01  0.41184598060E+02  0.00000000000E+00 0. -1.
</event>
<event>
 7    1  0.4520336E-015  0.9000774E+02  0.7816164E-02  0.1186339E+00
        -11   -1    0    0    0    0  0.00000000000E+00  0.00000000000E+00  0.45593999997E+02  0.45594000000E+02  0.51100000000E-03 0.  1.
         11   -1    0    0    0    0 -0.00000000000E+00 -0.00000000000E+00 -0.45593999997E+02  0.45594000000E+02  0.51100000000E-03 0. -1.
    9900012    2    1    2    0    0  0.68387577798E+00  0.42746388854E+00  0.86174590687E+00  0.90007738392E+02  0.89999999739E+02 0.  0.
         12    1    1    2    0    0 -0.68387577798E+00 -0.42746388854E+00 -0.86174590687E+00  0.11802616082E+01  0.00000000000E+00 0. -1.
         11    1    3    3    0    0  0.10999871465E+02 -0.36796985628E+02 -0.31291297532E+01  0.38533190587E+02  0.51100000000E-03 0. -1.
        -11    1    3    3    0    0  0.43556874513E+01 -0.23815608472E+01 -0.62823019406E+01  0.80069446842E+01  0.51100000000E-03 0.  1.
        -12    1    3    3    0    0 -0.14671683139E+02  0.39606010363E+02  0.10273177601E+02  0.43467603121E+02  0.00000000000E+00 0.  1.
</event>
<event>
 7    1  0.4520336E-015  0.9000776E+02  0.7816164E-02  0.1186339E+00
        -11   -1    0    0    0    0  0.00000000000E+00  0.00000000000E+00  0.45593999997E+02  0.45594000000E+02  0.51100000000E-03 0. -1.
         11   -1    0    0    0    0 -0.00000000000E+00 -0.00000000000E+00 -0.45593999997E+02  0.45594000000E+02  0.51100000000E-03 0.  1.
    9900012    2    1    2    0    0  0.49871068872E+00  0.97031277435E+00  0.45027769106E+00  0.90007758825E+02  0.90000020442E+02 0.  0.
         12    1    1    2    0    0 -0.49871068872E+00 -0.97031277435E+00 -0.45027769106E+00  0.11802411746E+01  0.00000000000E+00 0. -1.
         11    1    3    3    0    0  0.41675955077E+01 -0.55470842042E+01 -0.48225430847E+01  0.84496104969E+01  0.51100000000E-03 0. -1.
        -11    1    3    3    0    0  0.25957122201E+01  0.32151749587E+02 -0.25428699156E+02  0.41074218976E+02  0.51100000000E-03 0.  1.
         12    1    3    3    0    0 -0.62645970390E+01 -0.25634352608E+02  0.30701519932E+02  0.40483929353E+02  0.00000000000E+00 0. -1.
</event>
<event>
 7    1  0.9172229E-015  0.9000776E+02  0.7816164E-02  0.1186339E+00
        -11   -1    0    0    0    0  0.00000000000E+00  0.00000000000E+00  0.45593999997E+02  0.45594000000E+02  0.51100000000E-03 0.  1.
         11   -1    0    0    0    0 -0.00000000000E+00 -0.00000000000E+00 -0.45593999997E+02  0.45594000000E+02  0.51100000000E-03 0. -1.
    9900012    2    1    2    0    0  0.66765284973E+00  0.24591011560E+00 -0.94166863045E+00  0.90007757685E+02  0.90000019286E+02 0.  0.
         12    1    1    2    0    0 -0.66765284973E+00 -0.24591011560E+00  0.94166863045E+00  0.11802423151E+01  0.00000000000E+00 0. -1.
         11    1    3    3    0    0  0.12790799719E+02 -0.15426402034E+02  0.32586597512E+02  0.38255258133E+02  0.51100000000E-03 0. -1.
        -11    1    3    3    0    0 -0.34378641933E+01  0.62611728623E+01  0.65416998971E+01  0.96858161054E+01  0.51100000000E-03 0.  1.
        -12    1    3    3    0    0 -0.86852826755E+01  0.94111392871E+01 -0.40069966039E+02  0.42066683447E+02  0.00000000000E+00 0.  1.
</event>
<event>
 7    1  0.4520336E-015  0.9000774E+02  0.7816164E-02  0.1186339E+00
        -11   -1    0    0    0    0  0.00000000000E+00  0.00000000000E+00  0.45593999997E+02  0.45594000000E+02  0.51100000000E-03 0.  1.
         11   -1    0    0    0    0 -0.00000000000E+00 -0.00000000000E+00 -0.45593999997E+02  0.45594000000E+02  0.51100000000E-03 0. -1.
    9900012    2    1    2    0    0 -0.77337686238E+00  0.75753936204E+00  0.47015129221E+00  0.90007737362E+02  0.89999998696E+02 0.  0.
         12    1    1    2    0    0  0.77337686238E+00 -0.75753936204E+00 -0.47015129221E+00  0.11802626377E+01  0.00000000000E+00 0. -1.
         11    1    3    3    0    0  0.17360981669E+02 -0.28916607290E+02  0.14834865348E+02  0.36846262929E+02  0.51100000000E-03 0. -1.
        -11    1    3    3    0    0 -0.52401321059E+01 -0.44896433413E+01  0.78242395997E+01  0.10432382633E+02  0.51100000000E-03 0.  1.
        -12    1    3    3    0    0 -0.12894226425E+02  0.34163789993E+02 -0.22188953655E+02  0.42729091801E+02  0.00000000000E+00 0.  1.
</event>
<event>
 7    1  0.4520336E-015  0.9000773E+02  0.7816164E-02  0.1186339E+00
        -11   -1    0    0    0    0  0.00000000000E+00  0.00000000000E+00  0.45593999997E+02  0.45594000000E+02  0.51100000000E-03 0.  1.
         11   -1    0    0    0    0 -0.00000000000E+00 -0.00000000000E+00 -0.45593999997E+02  0.45594000000E+02  0.51100000000E-03 0. -1.
    9900012    2    1    2    0    0  0.13054625914E+00 -0.11729237960E+01 -0.15414040442E-01  0.90007733018E+02  0.89999994293E+02 0.  0.
         12    1    1    2    0    0 -0.13054625914E+00  0.11729237960E+01  0.15414040442E-01  0.11802669824E+01  0.00000000000E+00 0. -1.
         11    1    3    3    0    0  0.16525775784E+02  0.27993036288E+02 -0.16053749608E+02  0.36255126846E+02  0.51100000000E-03 0. -1.
        -11    1    3    3    0    0  0.60037423172E+01  0.22481768673E+01 -0.64509192560E+01  0.90947006848E+01  0.51100000000E-03 0.  1.
        -12    1    3    3    0    0 -0.22398971842E+02 -0.31414136951E+02  0.22489254824E+02  0.44657905487E+02  0.00000000000E+00 0.  1.
</event>
<event>
 7    1  0.4520336E-015  0.9000665E+02  0.7816164E-02  0.1186341E+00
        -11   -1    0    0    0    0  0.00000000000E+00  0.00000000000E+00  0.45593999997E+02  0.45594000000E+02  0.51100000000E-03 0. -1.
         11   -1    0    0    0    0 -0.00000000000E+00 -0.00000000000E+00 -0.45593999997E+02  0.45594000000E+02  0.51100000000E-03 0.  1.
    9900012    2    1    2    0    0 -0.97804337805E+00 -0.63618446688E+00  0.18515256914E+00  0.90006652888E+02  0.89998899899E+02 0.  0.
         12    1    1    2    0    0  0.97804337805E+00  0.63618446688E+00 -0.18515256914E+00  0.11813471120E+01  0.00000000000E+00 0. -1.
         11    1    3    3    0    0  0.75165183582E+01  0.16825264453E+02  0.34328634038E+02  0.38962067288E+02  0.51100000000E-03 0. -1.
        -11    1    3    3    0    0  0.61878142579E+01  0.62684122310E+01 -0.31856171174E+01  0.93664397648E+01  0.51100000000E-03 0.  1.
        -12    1    3    3    0    0 -0.14682375994E+02 -0.23729861151E+02 -0.30957864351E+02  0.41678145836E+02  0.00000000000E+00 0.  1.
</event>
<event>
 7    1  0.4520336E-015  0.9000778E+02  0.7816164E-02  0.1186339E+00
        -11   -1    0    0    0    0  0.00000000000E+00  0.00000000000E+00  0.45593999997E+02  0.45594000000E+02  0.51100000000E-03 0.  1.
         11   -1    0    0    0    0 -0.00000000000E+00 -0.00000000000E+00 -0.45593999997E+02  0.45594000000E+02  0.51100000000E-03 0. -1.
    9900012    2    1    2    0    0 -0.11388253277E+01 -0.20254643126E+00  0.23445866881E+00  0.90007780084E+02  0.90000041981E+02 0.  0.
         12    1    1    2    0    0  0.11388253277E+01  0.20254643126E+00 -0.23445866881E+00  0.11802199165E+01  0.00000000000E+00 0. -1.
         11    1    3    3    0    0 -0.90491438837E+01 -0.24868081489E+02 -0.26144682265E+02  0.37200173292E+02  0.51100000000E-03 0. -1.
        -11    1    3    3    0    0 -0.14191408070E+02  0.69555047019E+01  0.30083301154E+01  0.16088043977E+02  0.51100000000E-03 0.  1.
        -12    1    3    3    0    0  0.22101726626E+02  0.17710030355E+02  0.23370810818E+02  0.36719562815E+02  0.00000000000E+00 0.  1.
</event>
<event>
 7    1  0.4520336E-015  0.9000785E+02  0.7816164E-02  0.1186339E+00
        -11   -1    0    0    0    0  0.00000000000E+00  0.00000000000E+00  0.45593999997E+02  0.45594000000E+02  0.51100000000E-03 0.  1.
         11   -1    0    0    0    0 -0.00000000000E+00 -0.00000000000E+00 -0.45593999997E+02  0.45594000000E+02  0.51100000000E-03 0. -1.
    9900012    2    1    2    0    0 -0.56178824539E+00  0.10270326934E+01 -0.14951376964E+00  0.90007848928E+02  0.90000111734E+02 0.  0.
         12    1    1    2    0    0  0.56178824539E+00 -0.10270326934E+01  0.14951376964E+00  0.11801510722E+01  0.00000000000E+00 0. -1.
         11    1    3    3    0    0  0.61297297577E+01 -0.21114252356E+01 -0.70532831046E+01  0.95802143109E+01  0.51100000000E-03 0. -1.
        -11    1    3    3    0    0 -0.35028083210E+02 -0.11102675154E+02  0.24495104760E+02  0.44161591529E+02  0.51100000000E-03 0.  1.
         12    1    3    3    0    0  0.28336565207E+02  0.14241133083E+02 -0.17591335425E+02  0.36266043088E+02  0.00000000000E+00 0. -1.
</event>
<event>
 7    1  0.4520336E-015  0.9000777E+02  0.7816164E-02  0.1186339E+00
        -11   -1    0    0    0    0  0.00000000000E+00  0.00000000000E+00  0.45593999997E+02  0.45594000000E+02  0.51100000000E-03 0.  1.
         11   -1    0    0    0    0 -0.00000000000E+00 -0.00000000000E+00 -0.45593999997E+02  0.45594000000E+02  0.51100000000E-03 0. -1.
    9900012    2    1    2    0    0 -0.19484051283E+00 -0.11529767327E+01  0.16008875830E+00  0.90007768420E+02  0.90000030163E+02 0.  0.
         12    1    1    2    0    0  0.19484051283E+00  0.11529767327E+01 -0.16008875830E+00  0.11802315799E+01  0.00000000000E+00 0. -1.
         11    1    3    3    0    0 -0.41950050627E+01 -0.77796561163E+01  0.15558032146E+01  0.89744994661E+01  0.51100000000E-03 0. -1.
        -11    1    3    3    0    0 -0.32570698235E+02  0.10443861227E+02 -0.20211156400E+02  0.39729277166E+02  0.51100000000E-03 0.  1.
         12    1    3    3    0    0  0.36570862785E+02 -0.38171818436E+01  0.18815441944E+02  0.41303991788E+02  0.00000000000E+00 0. -1.
</event>
<event>
 7    1  0.4520336E-015  0.9000780E+02  0.7816164E-02  0.1186339E+00
        -11   -1    0    0    0    0  0.00000000000E+00  0.00000000000E+00  0.45593999997E+02  0.45594000000E+02  0.51100000000E-03 0. -1.
         11   -1    0    0    0    0 -0.00000000000E+00 -0.00000000000E+00 -0.45593999997E+02  0.45594000000E+02  0.51100000000E-03 0.  1.
    9900012    2    1    2    0    0  0.92211766836E-01 -0.11417801837E+01 -0.28409316679E+00  0.90007799201E+02  0.90000061351E+02 0.  0.
         12    1    1    2    0    0 -0.92211766836E-01  0.11417801837E+01  0.28409316679E+00  0.11802007987E+01  0.00000000000E+00 0. -1.
         11    1    3    3    0    0  0.18123513329E+02 -0.38755815304E+02  0.12936393511E+00  0.42784245822E+02  0.51100000000E-03 0. -1.
        -11    1    3    3    0    0 -0.10403043006E+02  0.17574936910E+01  0.35646405982E+00  0.10556474541E+02  0.51100000000E-03 0.  1.
        -12    1    3    3    0    0 -0.76282585567E+01  0.35856541429E+02 -0.76992116172E+00  0.36667078838E+02  0.00000000000E+00 0.  1.
</event>
<event>
 7    1  0.4520336E-015  0.9000771E+02  0.7816164E-02  0.1186339E+00
        -11   -1    0    0    0    0  0.00000000000E+00  0.00000000000E+00  0.45593999997E+02  0.45594000000E+02  0.51100000000E-03 0. -1.
         11   -1    0    0    0    0 -0.00000000000E+00 -0.00000000000E+00 -0.45593999997E+02  0.45594000000E+02  0.51100000000E-03 0.  1.
    9900012    2    1    2    0    0 -0.90915308496E+00 -0.61657044843E+00  0.43170321317E+00  0.90007709310E+02  0.89999970272E+02 0.  0.
         12    1    1    2    0    0  0.90915308496E+00  0.61657044843E+00 -0.43170321317E+00  0.11802906905E+01  0.00000000000E+00 0. -1.
         11    1    3    3    0    0 -0.11162449877E+02  0.34172917144E+02 -0.48658385280E+01  0.36277609324E+02  0.51100000000E-03 0. -1.
        -11    1    3    3    0    0 -0.68529382658E+01  0.53362923375E+01 -0.32626378989E+01  0.92781240079E+01  0.51100000000E-03 0.  1.
        -12    1    3    3    0    0  0.17106235058E+02 -0.40125779930E+02  0.85601796401E+01  0.44451975978E+02  0.00000000000E+00 0.  1.
</event>
<event>
 7    1  0.4743772E-015  0.9000777E+02  0.7816164E-02  0.1186339E+00
        -11   -1    0    0    0    0  0.00000000000E+00  0.00000000000E+00  0.45593999997E+02  0.45594000000E+02  0.51100000000E-03 0. -1.
         11   -1    0    0    0    0 -0.00000000000E+00 -0.00000000000E+00 -0.45593999997E+02  0.45594000000E+02  0.51100000000E-03 0.  1.
    9900012    2    1    2    0    0  0.43376866697E+00  0.66950696165E+00 -0.86979277623E+00  0.90007773623E+02  0.90000035434E+02 0.  0.
         12    1    1    2    0    0 -0.43376866697E+00 -0.66950696165E+00  0.86979277623E+00  0.11802263773E+01  0.00000000000E+00 0. -1.
         11    1    3    3    0    0  0.24014999673E+02  0.21731093573E+02  0.16981396373E+02  0.36569501777E+02  0.51100000000E-03 0. -1.
        -11    1    3    3    0    0  0.62115612909E+00  0.77162991584E+01  0.52067859122E+01  0.93294012367E+01  0.51100000000E-03 0.  1.
        -12    1    3    3    0    0 -0.24202387135E+02 -0.28777885770E+02 -0.23057975062E+02  0.44108870609E+02  0.00000000000E+00 0.  1.
</event>
<event>
 7    1  0.4520336E-015  0.9000774E+02  0.7816164E-02  0.1186339E+00
        -11   -1    0    0    0    0  0.00000000000E+00  0.00000000000E+00  0.45593999997E+02  0.45594000000E+02  0.51100000000E-03 0.  1.
         11   -1    0    0    0    0 -0.00000000000E+00 -0.00000000000E+00 -0.45593999997E+02  0.45594000000E+02  0.51100000000E-03 0. -1.
    9900012    2    1    2    0    0 -0.32958273866E+00 -0.89986556290E+00  0.68894119725E+00  0.90007736137E+02  0.89999997454E+02 0.  0.
         12    1    1    2    0    0  0.32958273866E+00  0.89986556290E+00 -0.68894119725E+00  0.11802638629E+01  0.00000000000E+00 0. -1.
         11    1    3    3    0    0  0.47798015094E+01 -0.95035221297E+00 -0.39904251381E+02  0.40200733206E+02  0.51100000000E-03 0. -1.
        -11    1    3    3    0    0  0.30157058993E+01 -0.72839844973E+01  0.12495328642E+00  0.78845751827E+01  0.51100000000E-03 0.  1.
        -12    1    3    3    0    0 -0.81250901473E+01  0.73344711473E+01  0.40468239292E+02  0.41922427748E+02  0.00000000000E+00 0.  1.
</event>
<event>
 7    1  0.4520336E-015  0.9000767E+02  0.7816164E-02  0.1186339E+00
        -11   -1    0    0    0    0  0.00000000000E+00  0.00000000000E+00  0.45593999997E+02  0.45594000000E+02  0.51100000000E-03 0. -1.
         11   -1    0    0    0    0 -0.00000000000E+00 -0.00000000000E+00 -0.45593999997E+02  0.45594000000E+02  0.51100000000E-03 0.  1.
    9900012    2    1    2    0    0  0.87440008783E+00 -0.67608081308E+00  0.41414773446E+00  0.90007669908E+02  0.89999930351E+02 0.  0.
         12    1    1    2    0    0 -0.87440008783E+00  0.67608081308E+00 -0.41414773446E+00  0.11803300917E+01  0.00000000000E+00 0. -1.
         11    1    3    3    0    0 -0.61920821483E+01  0.79556045649E+00 -0.45799018913E+01  0.77427578657E+01  0.51100000000E-03 0. -1.
        -11    1    3    3    0    0 -0.25954387317E+02 -0.25029733911E+02 -0.12399969300E+02  0.38129739568E+02  0.51100000000E-03 0.  1.
         12    1    3    3    0    0  0.33020869553E+02  0.23558092642E+02  0.17394018926E+02  0.44135172474E+02  0.00000000000E+00 0. -1.
</event>
<event>
 7    1  0.4520336E-015  0.9000752E+02  0.7816164E-02  0.1186339E+00
        -11   -1    0    0    0    0  0.00000000000E+00  0.00000000000E+00  0.45593999997E+02  0.45594000000E+02  0.51100000000E-03 0.  1.
         11   -1    0    0    0    0 -0.00000000000E+00 -0.00000000000E+00 -0.45593999997E+02  0.45594000000E+02  0.51100000000E-03 0. -1.
    9900012    2    1    2    0    0  0.47513119263E+00  0.30825196671E+00  0.10357418458E+01  0.90007521243E+02  0.89999779723E+02 0.  0.
         12    1    1    2    0    0 -0.47513119263E+00 -0.30825196671E+00 -0.10357418458E+01  0.11804787573E+01  0.00000000000E+00 0. -1.
         11    1    3    3    0    0  0.30235804320E+02 -0.15413077637E+02  0.20512669744E+02  0.39655219649E+02  0.51100000000E-03 0. -1.
        -11    1    3    3    0    0 -0.11725873678E+01  0.61487079956E+01  0.75888186349E+01  0.98372628147E+01  0.51100000000E-03 0.  1.
        -12    1    3    3    0    0 -0.28588085760E+02  0.95726216077E+01 -0.27065746533E+02  0.40515038779E+02  0.00000000000E+00 0.  1.
</event>
<event>
 7    1  0.4520336E-015  0.9000764E+02  0.7816164E-02  0.1186339E+00
        -11   -1    0    0    0    0  0.00000000000E+00  0.00000000000E+00  0.45593999997E+02  0.45594000000E+02  0.51100000000E-03 0.  1.
         11   -1    0    0    0    0 -0.00000000000E+00 -0.00000000000E+00 -0.45593999997E+02  0.45594000000E+02  0.51100000000E-03 0. -1.
    9900012    2    1    2    0    0  0.86669917239E+00  0.12285708931E+00 -0.79182057910E+00  0.90007643635E+02  0.89999903731E+02 0.  0.
         12    1    1    2    0    0 -0.86669917239E+00 -0.12285708931E+00  0.79182057910E+00  0.11803563654E+01  0.00000000000E+00 0. -1.
         11    1    3    3    0    0  0.26902001516E+02  0.22587712101E+02  0.85629774845E+01  0.36155870992E+02  0.51100000000E-03 0. -1.
        -11    1    3    3    0    0 -0.77386555310E+00 -0.24909565426E+01  0.13891444353E+02  0.14134212354E+02  0.51100000000E-03 0.  1.
        -12    1    3    3    0    0 -0.25261436790E+02 -0.19973898469E+02 -0.23246242417E+02  0.39717560289E+02  0.00000000000E+00 0.  1.
</event>
<event>
 7    1  0.4520336E-015  0.9000772E+02  0.7816164E-02  0.1186339E+00
        -11   -1    0    0    0    0  0.00000000000E+00  0.00000000000E+00  0.45593999997E+02  0.45594000000E+02  0.51100000000E-03 0. -1.
         11   -1    0    0    0    0 -0.00000000000E+00 -0.00000000000E+00 -0.45593999997E+02  0.45594000000E+02  0.51100000000E-03 0.  1.
    9900012    2    1    2    0    0 -0.58275103463E+00 -0.10234250622E+01  0.77921536422E-01  0.90007716393E+02  0.89999977450E+02 0.  0.
         12    1    1    2    0    0  0.58275103463E+00  0.10234250622E+01 -0.77921536422E-01  0.11802836067E+01  0.00000000000E+00 0. -1.
         11    1    3    3    0    0  0.20630291454E+01 -0.43149686000E+01  0.90733659022E+01  0.10256754473E+02  0.51100000000E-03 0. -1.
        -11    1    3    3    0    0 -0.59233209214E+01 -0.32464376177E+02 -0.24032275474E+02  0.40823666127E+02  0.51100000000E-03 0.  1.
         12    1    3    3    0    0  0.32775407414E+01  0.35755919715E+02  0.15036831109E+02  0.38927295793E+02  0.00000000000E+00 0. -1.
</event>
<event>
 7    1  0.4520336E-015  0.9000773E+02  0.7816164E-02  0.1186339E+00
        -11   -1    0    0    0    0  0.00000000000E+00  0.00000000000E+00  0.45593999997E+02  0.45594000000E+02  0.51100000000E-03 0.  1.
         11   -1    0    0    0    0 -0.00000000000E+00 -0.00000000000E+00 -0.45593999997E+02  0.45594000000E+02  0.51100000000E-03 0. -1.
    9900012    2    1    2    0    0  0.12293484670E+00 -0.11468051434E+01 -0.25052242967E+00  0.90007730327E+02  0.89999991567E+02 0.  0.
         12    1    1    2    0    0 -0.12293484670E+00  0.11468051434E+01  0.25052242967E+00  0.11802696731E+01  0.00000000000E+00 0. -1.
         11    1    3    3    0    0 -0.36909537015E+02  0.94010770830E+01 -0.21204477421E+02  0.43592706224E+02  0.51100000000E-03 0. -1.
        -11    1    3    3    0    0  0.54744177730E+01 -0.78821456586E+01  0.32498542937E+01  0.10132078924E+02  0.51100000000E-03 0.  1.
        -12    1    3    3    0    0  0.31558054089E+02 -0.26657365678E+01  0.17704100697E+02  0.36282945179E+02  0.00000000000E+00 0.  1.
</event>
<event>
 7    1  0.4520336E-015  0.9000801E+02  0.7816164E-02  0.1186339E+00
        -11   -1    0    0    0    0  0.00000000000E+00  0.00000000000E+00  0.45593999997E+02  0.45594000000E+02  0.51100000000E-03 0.  1.
         11   -1    0    0    0    0 -0.00000000000E+00 -0.00000000000E+00 -0.45593999997E+02  0.45594000000E+02  0.51100000000E-03 0. -1.
    9900012    2    1    2    0    0 -0.72803065718E+00  0.75153631010E+00  0.54546846182E+00  0.90008012159E+02  0.90000277119E+02 0.  0.
         12    1    1    2    0    0  0.72803065718E+00 -0.75153631010E+00 -0.54546846182E+00  0.11799878415E+01  0.00000000000E+00 0. -1.
         11    1    3    3    0    0 -0.42247268178E+00  0.67574905687E+01 -0.40346092527E+01  0.78816390451E+01  0.51100000000E-03 0. -1.
        -11    1    3    3    0    0 -0.19200191480E+02  0.25527157573E+02  0.24554947872E+02  0.40289311137E+02  0.51100000000E-03 0.  1.
         12    1    3    3    0    0  0.18894633505E+02 -0.31533111831E+02 -0.19974870157E+02  0.41837061977E+02  0.00000000000E+00 0. -1.
</event>
<event>
 7    1  0.4520336E-015  0.9000695E+02  0.7816164E-02  0.1186341E+00
        -11   -1    0    0    0    0  0.00000000000E+00  0.00000000000E+00  0.45593999997E+02  0.45594000000E+02  0.51100000000E-03 0. -1.
         11   -1    0    0    0    0 -0.00000000000E+00 -0.00000000000E+00 -0.45593999997E+02  0.45594000000E+02  0.51100000000E-03 0.  1.
    9900012    2    1    2    0    0  0.18864486909E+00  0.85567918407E+00 -0.79190065976E+00  0.90006949447E+02  0.89999200377E+02 0.  0.
         12    1    1    2    0    0 -0.18864486909E+00 -0.85567918407E+00  0.79190065976E+00  0.11810505525E+01  0.00000000000E+00 0. -1.
         11    1    3    3    0    0  0.59946094748E+01  0.13532485459E+01 -0.94817606023E+01  0.11299133098E+02  0.51100000000E-03 0. -1.
        -11    1    3    3    0    0 -0.27958903112E+02 -0.25024453664E+02 -0.12380935500E+02  0.39512164058E+02  0.51100000000E-03 0.  1.
         12    1    3    3    0    0  0.22152938506E+02  0.24526884302E+02  0.21070795442E+02  0.39195652292E+02  0.00000000000E+00 0. -1.
</event>
<event>
 7    1  0.4520336E-015  0.9000772E+02  0.7816164E-02  0.1186339E+00
        -11   -1    0    0    0    0  0.00000000000E+00  0.00000000000E+00  0.45593999997E+02  0.45594000000E+02  0.51100000000E-03 0. -1.
         11   -1    0    0    0    0 -0.00000000000E+00 -0.00000000000E+00 -0.45593999997E+02  0.45594000000E+02  0.51100000000E-03 0.  1.
    9900012    2    1    2    0    0  0.98905859368E+00 -0.13997841297E+00  0.62868141839E+00  0.90007715634E+02  0.89999976681E+02 0.  0.
         12    1    1    2    0    0 -0.98905859368E+00  0.13997841297E+00 -0.62868141839E+00  0.11802843656E+01  0.00000000000E+00 0. -1.
         11    1    3    3    0    0 -0.82688259780E+01  0.20181986008E+02  0.24064209039E+01  0.21942581984E+02  0.51100000000E-03 0. -1.
        -11    1    3    3    0    0 -0.25528921070E+02 -0.18996136240E+02  0.60322270841E+01  0.32387756435E+02  0.51100000000E-03 0.  1.
        -12    1    3    3    0    0  0.34786805642E+02 -0.13258281816E+01 -0.78099665696E+01  0.35677377215E+02  0.00000000000E+00 0.  1.
</event>
<event>
 7    1  0.4520336E-015  0.9000776E+02  0.7816164E-02  0.1186339E+00
        -11   -1    0    0    0    0  0.00000000000E+00  0.00000000000E+00  0.45593999997E+02  0.45594000000E+02  0.51100000000E-03 0. -1.
         11   -1    0    0    0    0 -0.00000000000E+00 -0.00000000000E+00 -0.45593999997E+02  0.45594000000E+02  0.51100000000E-03 0.  1.
    9900012    2    1    2    0    0 -0.10747066853E+01 -0.94240398828E-01 -0.47863309519E+00  0.90007760468E+02  0.90000022107E+02 0.  0.
         12    1    1    2    0    0  0.10747066853E+01  0.94240398828E-01  0.47863309519E+00  0.11802395316E+01  0.00000000000E+00 0. -1.
         11    1    3    3    0    0 -0.22450617108E+02  0.30167795537E+02  0.87437751743E+01  0.38608026376E+02  0.51100000000E-03 0. -1.
        -11    1    3    3    0    0  0.42382788369E+01  0.77546427359E+01 -0.22588949410E+01  0.91214087770E+01  0.51100000000E-03 0.  1.
        -12    1    3    3    0    0  0.17137631585E+02 -0.38016678672E+02 -0.69635133285E+01  0.42278325315E+02  0.00000000000E+00 0.  1.
</event>
<event>
 7    1  0.4520336E-015  0.9000762E+02  0.7816164E-02  0.1186339E+00
        -11   -1    0    0    0    0  0.00000000000E+00  0.00000000000E+00  0.45593999997E+02  0.45594000000E+02  0.51100000000E-03 0.  1.
         11   -1    0    0    0    0 -0.00000000000E+00 -0.00000000000E+00 -0.45593999997E+02  0.45594000000E+02  0.51100000000E-03 0. -1.
    9900012    2    1    2    0    0  0.14321880475E+00  0.52301038716E-01  0.11704928146E+01  0.90007618513E+02  0.89999878278E+02 0.  0.
         12    1    1    2    0    0 -0.14321880475E+00 -0.52301038716E-01 -0.11704928146E+01  0.11803814865E+01  0.00000000000E+00 0. -1.
         11    1    3    3    0    0 -0.87461579603E+01  0.12888850938E+02 -0.23367322398E+02  0.28082904299E+02  0.51100000000E-03 0. -1.
        -11    1    3    3    0    0 -0.19090823464E+02  0.85927605796E+01  0.13827387729E+02  0.25089673705E+02  0.51100000000E-03 0.  1.
        -12    1    3    3    0    0  0.27980200229E+02 -0.21429310479E+02  0.10710427483E+02  0.36835040510E+02  0.00000000000E+00 0.  1.
</event>
<event>
 7    1  0.4520336E-015  0.9000776E+02  0.7816164E-02  0.1186339E+00
        -11   -1    0    0    0    0  0.00000000000E+00  0.00000000000E+00  0.45593999997E+02  0.45594000000E+02  0.51100000000E-03 0. -1.
         11   -1    0    0    0    0 -0.00000000000E+00 -0.00000000000E+00 -0.45593999997E+02  0.45594000000E+02  0.51100000000E-03 0.  1.
    9900012    2    1    2    0    0  0.58637754967E-01  0.21950699861E+00 -0.11581662354E+01  0.90007758187E+02  0.90000019795E+02 0.  0.
         12    1    1    2    0    0 -0.58637754967E-01 -0.21950699861E+00  0.11581662354E+01  0.11802418132E+01  0.00000000000E+00 0. -1.
         11    1    3    3    0    0  0.19748705041E+02  0.19484055230E+02  0.11802430382E+02  0.30148584082E+02  0.51100000000E-03 0. -1.
        -11    1    3    3    0    0  0.97379808215E+01 -0.36460120606E+01  0.13692902754E+02  0.17193523796E+02  0.51100000000E-03 0.  1.
        -12    1    3    3    0    0 -0.29428048108E+02 -0.15618536170E+02 -0.26653499371E+02  0.42665650309E+02  0.00000000000E+00 0.  1.
</event>
<event>
 7    1  0.4520336E-015  0.9000753E+02  0.7816164E-02  0.1186339E+00
        -11   -1    0    0    0    0  0.00000000000E+00  0.00000000000E+00  0.45593999997E+02  0.45594000000E+02  0.51100000000E-03 0. -1.
         11   -1    0    0    0    0 -0.00000000000E+00 -0.00000000000E+00 -0.45593999997E+02  0.45594000000E+02  0.51100000000E-03 0.  1.
    9900012    2    1    2    0    0  0.51667788145E+00 -0.10489613025E+01  0.16200236547E+00  0.90007525259E+02  0.89999783792E+02 0.  0.
         12    1    1    2    0    0 -0.51667788145E+00  0.10489613025E+01 -0.16200236547E+00  0.11804747408E+01  0.00000000000E+00 0. -1.
         11    1    3    3    0    0  0.75981163952E+01 -0.59703109109E+01  0.40933391752E+01  0.10494351385E+02  0.51100000000E-03 0. -1.
        -11    1    3    3    0    0  0.14859092945E+02 -0.32284181793E+02 -0.69577428803E+01  0.36214240617E+02  0.51100000000E-03 0.  1.
         12    1    3    3    0    0 -0.21940531459E+02  0.37205531401E+02  0.30264060705E+01  0.43298933258E+02  0.00000000000E+00 0. -1.
</event>
<event>
 7    1  0.4520336E-015  0.9000775E+02  0.7816164E-02  0.1186339E+00
        -11   -1    0    0    0    0  0.00000000000E+00  0.00000000000E+00  0.45593999997E+02  0.45594000000E+02  0.51100000000E-03 0. -1.
         11   -1    0    0    0    0 -0.00000000000E+00 -0.00000000000E+00 -0.45593999997E+02  0.45594000000E+02  0.51100000000E-03 0.  1.
    9900012    2    1    2    0    0 -0.99309325111E+00 -0.37955479122E+00 -0.51254646826E+00  0.90007745821E+02  0.90000007266E+02 0.  0.
         12    1    1    2    0    0  0.99309325111E+00  0.37955479122E+00  0.51254646826E+00  0.11802541790E+01  0.00000000000E+00 0. -1.
         11    1    3    3    0    0 -0.34801064855E+01 -0.53067703221E+01  0.70664735292E+01  0.94977892586E+01  0.51100000000E-03 0. -1.
        -11    1    3    3    0    0 -0.26863566442E+02  0.11583817309E+02 -0.30813418777E+02  0.42488855037E+02  0.51100000000E-03 0.  1.
         12    1    3    3    0    0  0.29350579676E+02 -0.66566017779E+01  0.23234398779E+02  0.38021101525E+02  0.00000000000E+00 0. -1.
</event>
<event>
 7    1  0.4520336E-015  0.9000772E+02  0.7816164E-02  0.1186339E+00
        -11   -1    0    0    0    0  0.00000000000E+00  0.00000000000E+00  0.45593999997E+02  0.45594000000E+02  0.51100000000E-03 0.  1.
         11   -1    0    0    0    0 -0.00000000000E+00 -0.00000000000E+00 -0.45593999997E+02  0.45594000000E+02  0.51100000000E-03 0. -1.
    9900012    2    1    2    0    0 -0.29154038498E-01 -0.84567856468E-02  0.11798847264E+01  0.90007724844E+02  0.89999986012E+02 0.  0.
         12    1    1    2    0    0  0.29154038498E-01  0.84567856468E-02 -0.11798847264E+01  0.11802751555E+01  0.00000000000E+00 0. -1.
         11    1    3    3    0    0 -0.75240573181E+01  0.50122555523E+00 -0.39754877762E+00  0.75512059220E+01  0.51100000000E-03 0. -1.
        -11    1    3    3    0    0 -0.20771016399E+02  0.27807903030E+02  0.18128050220E+02  0.39157895732E+02  0.51100000000E-03 0.  1.
         12    1    3    3    0    0  0.28265919679E+02 -0.28317585370E+02 -0.16550616716E+02  0.43298623190E+02  0.00000000000E+00 0. -1.
</event>
<event>
 7    1  0.4520336E-015  0.9000776E+02  0.7816164E-02  0.1186339E+00
        -11   -1    0    0    0    0  0.00000000000E+00  0.00000000000E+00  0.45593999997E+02  0.45594000000E+02  0.51100000000E-03 0. -1.
         11   -1    0    0    0    0 -0.00000000000E+00 -0.00000000000E+00 -0.45593999997E+02  0.45594000000E+02  0.51100000000E-03 0.  1.
    9900012    2    1    2    0    0  0.26627288319E+00 -0.20693550929E+00 -0.11310335873E+01  0.90007762512E+02  0.90000024177E+02 0.  0.
         12    1    1    2    0    0 -0.26627288319E+00  0.20693550929E+00  0.11310335873E+01  0.11802374883E+01  0.00000000000E+00 0. -1.
         11    1    3    3    0    0  0.26174228013E+01 -0.62148124544E+00 -0.95181475273E+01  0.98910198500E+01  0.51100000000E-03 0. -1.
        -11    1    3    3    0    0  0.36363612640E+02 -0.79437771662E+01 -0.65382961842E+01  0.37791073511E+02  0.51100000000E-03 0.  1.
         12    1    3    3    0    0 -0.38714762558E+02  0.83583229024E+01  0.14925410124E+02  0.42325669150E+02  0.00000000000E+00 0. -1.
</event>
<event>
 7    1  0.4520336E-015  0.9000769E+02  0.7816164E-02  0.1186339E+00
        -11   -1    0    0    0    0  0.00000000000E+00  0.00000000000E+00  0.45593999997E+02  0.45594000000E+02  0.51100000000E-03 0. -1.
         11   -1    0    0    0    0 -0.00000000000E+00 -0.00000000000E+00 -0.45593999997E+02  0.45594000000E+02  0.51100000000E-03 0.  1.
    9900012    2    1    2    0    0  0.14992123689E+00 -0.77953016464E+00 -0.87348722898E+00  0.90007693432E+02  0.89999954185E+02 0.  0.
         12    1    1    2    0    0 -0.14992123689E+00  0.77953016464E+00  0.87348722898E+00  0.11803065678E+01  0.00000000000E+00 0. -1.
         11    1    3    3    0    0 -0.86903959244E+00 -0.33565744063E+02  0.27910533699E+02  0.43662481559E+02  0.51100000000E-03 0. -1.
        -11    1    3    3    0    0  0.27938068589E+01  0.92426825898E+01 -0.73745863529E+00  0.96838207191E+01  0.51100000000E-03 0.  1.
        -12    1    3    3    0    0 -0.17748460295E+01  0.23543531309E+02 -0.28046562292E+02  0.36661391154E+02  0.00000000000E+00 0.  1.
</event>
<event>
 7    1  0.4520336E-015  0.9000779E+02  0.7816164E-02  0.1186339E+00
        -11   -1    0    0    0    0  0.00000000000E+00  0.00000000000E+00  0.45593999997E+02  0.45594000000E+02  0.51100000000E-03 0.  1.
         11   -1    0    0    0    0 -0.00000000000E+00 -0.00000000000E+00 -0.45593999997E+02  0.45594000000E+02  0.51100000000E-03 0. -1.
    9900012    2    1    2    0    0  0.11025574540E+01  0.21794465840E+00  0.36023965341E+00  0.90007785858E+02  0.90000047831E+02 0.  0.
         12    1    1    2    0    0 -0.11025574540E+01 -0.21794465840E+00 -0.36023965341E+00  0.11802141422E+01  0.00000000000E+00 0. -1.
         11    1    3    3    0    0  0.68167356799E+01  0.27972174657E+01  0.27858229837E+01  0.78773803284E+01  0.51100000000E-03 0. -1.
        -11    1    3    3    0    0 -0.76544246850E+01  0.36039132584E+02  0.14922009066E+02  0.39750165402E+02  0.51100000000E-03 0.  1.
         12    1    3    3    0    0  0.19402464592E+01 -0.38618405391E+02 -0.17347592396E+02  0.42380240127E+02  0.00000000000E+00 0. -1.
</event>
<event>
 7    1  0.4520336E-015  0.9000678E+02  0.7816164E-02  0.1186341E+00
        -11   -1    0    0    0    0  0.00000000000E+00  0.00000000000E+00  0.45593999997E+02  0.45594000000E+02  0.51100000000E-03 0.  1.
         11   -1    0    0    0    0 -0.00000000000E+00 -0.00000000000E+00 -0.45593999997E+02  0.45594000000E+02  0.51100000000E-03 0. -1.
    9900012    2    1    2    0    0  0.28973729209E+00  0.10098853486E+01  0.53987211333E+00  0.90006781132E+02  0.89999029838E+02 0.  0.
         12    1    1    2    0    0 -0.28973729209E+00 -0.10098853486E+01 -0.53987211333E+00  0.11812188682E+01  0.00000000000E+00 0. -1.
         11    1    3    3    0    0  0.25110773380E+00  0.96458678841E+01  0.16374678025E+01  0.97870896285E+01  0.51100000000E-03 0. -1.
        -11    1    3    3    0    0 -0.39192953768E+02  0.29548425949E+01 -0.52973978031E+00  0.39307751708E+02  0.51100000000E-03 0.  1.
         12    1    3    3    0    0  0.39231583326E+02 -0.11590825130E+02 -0.56785590883E+00  0.40911939796E+02  0.00000000000E+00 0. -1.
</event>
<event>
 7    1  0.4520336E-015  0.9000795E+02  0.7816164E-02  0.1186339E+00
        -11   -1    0    0    0    0  0.00000000000E+00  0.00000000000E+00  0.45593999997E+02  0.45594000000E+02  0.51100000000E-03 0.  1.
         11   -1    0    0    0    0 -0.00000000000E+00 -0.00000000000E+00 -0.45593999997E+02  0.45594000000E+02  0.51100000000E-03 0. -1.
    9900012    2    1    2    0    0 -0.11478300039E+01 -0.26890037334E+00  0.51998532402E-01  0.90007947045E+02  0.90000211146E+02 0.  0.
         12    1    1    2    0    0  0.11478300039E+01  0.26890037334E+00 -0.51998532402E-01  0.11800529547E+01  0.00000000000E+00 0. -1.
         11    1    3    3    0    0  0.31477807904E+01 -0.83216416725E+01 -0.84165461863E+01  0.12247305581E+02  0.51100000000E-03 0. -1.
        -11    1    3    3    0    0  0.20752982302E+02  0.57234435564E+01  0.35068446779E+02  0.41148998047E+02  0.51100000000E-03 0.  1.
         12    1    3    3    0    0 -0.25048593096E+02  0.23292977428E+01 -0.26599902060E+02  0.36611643417E+02  0.00000000000E+00 0. -1.
</event>
<event>
 7    1  0.4520336E-015  0.9000754E+02  0.7816164E-02  0.1186339E+00
        -11   -1    0    0    0    0  0.00000000000E+00  0.00000000000E+00  0.45593999997E+02  0.45594000000E+02  0.51100000000E-03 0.  1.
         11   -1    0    0    0    0 -0.00000000000E+00 -0.00000000000E+00 -0.45593999997E+02  0.45594000000E+02  0.51100000000E-03 0. -1.
    9900012    2    1    2    0    0 -0.32020475308E+00 -0.11258953457E+01  0.15272882519E+00  0.90007535046E+02  0.89999793708E+02 0.  0.
         12    1    1    2    0    0  0.32020475308E+00  0.11258953457E+01 -0.15272882519E+00  0.11804649539E+01  0.00000000000E+00 0. -1.
         11    1    3    3    0    0 -0.20305926068E+01 -0.39890596588E+00 -0.79739715229E+01  0.82381220198E+01  0.51100000000E-03 0. -1.
        -11    1    3    3    0    0  0.31566742616E+02  0.24855584099E+02 -0.46073193788E+01  0.40441150978E+02  0.51100000000E-03 0.  1.
         12    1    3    3    0    0 -0.29856354762E+02 -0.25582573479E+02  0.12734019727E+02  0.41328262048E+02  0.00000000000E+00 0. -1.
</event>
<event>
 7    1  0.4520336E-015  0.9000766E+02  0.7816164E-02  0.1186339E+00
        -11   -1    0    0    0    0  0.00000000000E+00  0.00000000000E+00  0.45593999997E+02  0.45594000000E+02  0.51100000000E-03 0.  1.
         11   -1    0    0    0    0 -0.00000000000E+00 -0.00000000000E+00 -0.45593999997E+02  0.45594000000E+02  0.51100000000E-03 0. -1.
    9900012    2    1    2    0    0 -0.11557387731E+01 -0.22607895264E+00 -0.79674058286E-01  0.90007664556E+02  0.89999924928E+02 0.  0.
         12    1    1    2    0    0  0.11557387731E+01  0.22607895264E+00  0.79674058286E-01  0.11803354439E+01  0.00000000000E+00 0. -1.
         11    1    3    3    0    0 -0.34942773705E+02 -0.74591027876E+01 -0.13924873012E+02  0.38347591023E+02  0.51100000000E-03 0. -1.
        -11    1    3    3    0    0 -0.69732682197E+01  0.38535264516E+01 -0.12470769199E+01  0.80642009451E+01  0.51100000000E-03 0.  1.
        -12    1    3    3    0    0  0.40760303152E+02  0.33794973834E+01  0.15092275874E+02  0.43595872588E+02  0.00000000000E+00 0.  1.
</event>
<event>
 7    1  0.4520336E-015  0.9000780E+02  0.7816164E-02  0.1186339E+00
        -11   -1    0    0    0    0  0.00000000000E+00  0.00000000000E+00  0.45593999997E+02  0.45594000000E+02  0.51100000000E-03 0.  1.
         11   -1    0    0    0    0 -0.00000000000E+00 -0.00000000000E+00 -0.45593999997E+02  0.45594000000E+02  0.51100000000E-03 0. -1.
    9900012    2    1    2    0    0 -0.99613233251E+00 -0.55399211267E+00 -0.30607415844E+00  0.90007801595E+02  0.90000063776E+02 0.  0.
         12    1    1    2    0    0  0.99613233251E+00  0.55399211267E+00  0.30607415844E+00  0.11801984050E+01  0.00000000000E+00 0. -1.
         11    1    3    3    0    0  0.34521399965E+02 -0.14260766934E+01 -0.19566439742E+02  0.39706502172E+02  0.51100000000E-03 0. -1.
        -11    1    3    3    0    0  0.27386297197E+01  0.34463182643E+01 -0.35776294168E+01  0.56724452245E+01  0.51100000000E-03 0.  1.
        -12    1    3    3    0    0 -0.38256162018E+02 -0.25742336836E+01  0.22837995001E+02  0.44628854198E+02  0.00000000000E+00 0.  1.
</event>
<event>
 7    1  0.4520336E-015  0.9000770E+02  0.7816164E-02  0.1186339E+00
        -11   -1    0    0    0    0  0.00000000000E+00  0.00000000000E+00  0.45593999997E+02  0.45594000000E+02  0.51100000000E-03 0. -1.
         11   -1    0    0    0    0 -0.00000000000E+00 -0.00000000000E+00 -0.45593999997E+02  0.45594000000E+02  0.51100000000E-03 0.  1.
    9900012    2    1    2    0    0  0.90487945402E-01 -0.11744459045E+01  0.74799471063E-01  0.90007700796E+02  0.89999961646E+02 0.  0.
         12    1    1    2    0    0 -0.90487945402E-01  0.11744459045E+01 -0.74799471063E-01  0.11802992043E+01  0.00000000000E+00 0. -1.
         11    1    3    3    0    0 -0.36824882323E+01 -0.72171400025E+01 -0.46153908426E+01  0.93246802780E+01  0.51100000000E-03 0. -1.
        -11    1    3    3    0    0  0.27973265162E+02  0.18199223699E+02 -0.24094167569E+02  0.41161197968E+02  0.51100000000E-03 0.  1.
         12    1    3    3    0    0 -0.24200288985E+02 -0.12156529601E+02  0.28784357883E+02  0.39521822549E+02  0.00000000000E+00 0. -1.
</event>
<event>
 7    1  0.4520336E-015  0.9000783E+02  0.7816164E-02  0.1186339E+00
        -11   -1    0    0    0    0  0.00000000000E+00  0.00000000000E+00  0.45593999997E+02  0.45594000000E+02  0.51100000000E-03 0.  1.
         11   -1    0    0    0    0 -0.00000000000E+00 -0.00000000000E+00 -0.45593999997E+02  0.45594000000E+02  0.51100000000E-03 0. -1.
    9900012    2    1    2    0    0  0.76673708482E+00 -0.53567973822E+00  0.71969986610E+00  0.90007827794E+02  0.90000090321E+02 0.  0.
         12    1    1    2    0    0 -0.76673708482E+00  0.53567973822E+00 -0.71969986610E+00  0.11801722063E+01  0.00000000000E+00 0. -1.
         11    1    3    3    0    0 -0.87824344024E+01 -0.27318410036E+01  0.26873405464E+01  0.95820618228E+01  0.51100000000E-03 0. -1.
        -11    1    3    3    0    0  0.13704188487E+02 -0.36021582329E+02  0.10615949990E+02  0.39975712252E+02  0.51100000000E-03 0.  1.
         12    1    3    3    0    0 -0.41550169993E+01  0.38217743595E+02 -0.12583590670E+02  0.40450053719E+02  0.00000000000E+00 0. -1.
</event>
<event>
 7    1  0.4520336E-015  0.9000776E+02  0.7816164E-02  0.1186339E+00
        -11   -1    0    0    0    0  0.00000000000E+00  0.00000000000E+00  0.45593999997E+02  0.45594000000E+02  0.51100000000E-03 0.  1.
         11   -1    0    0    0    0 -0.00000000000E+00 -0.00000000000E+00 -0.45593999997E+02  0.45594000000E+02  0.51100000000E-03 0. -1.
    9900012    2    1    2    0    0 -0.72622409303E+00 -0.93027958559E+00 -0.12363595818E-01  0.90007756636E+02  0.90000018223E+02 0.  0.
         12    1    1    2    0    0  0.72622409303E+00  0.93027958559E+00  0.12363595818E-01  0.11802433644E+01  0.00000000000E+00 0. -1.
         11    1    3    3    0    0  0.29806477935E+02  0.11616971361E+01  0.22115832666E+02  0.37133350534E+02  0.51100000000E-03 0. -1.
        -11    1    3    3    0    0  0.17944473469E+01  0.36288556739E+01  0.75833861878E+01  0.85963004320E+01  0.51100000000E-03 0.  1.
        -12    1    3    3    0    0 -0.32327149375E+02 -0.57208323956E+01 -0.29711582450E+02  0.44278105669E+02  0.00000000000E+00 0.  1.
</event>
<event>
 7    1  0.4520336E-015  0.9000787E+02  0.7816164E-02  0.1186339E+00
        -11   -1    0    0    0    0  0.00000000000E+00  0.00000000000E+00  0.45593999997E+02  0.45594000000E+02  0.51100000000E-03 0.  1.
         11   -1    0    0    0    0 -0.00000000000E+00 -0.00000000000E+00 -0.45593999997E+02  0.45594000000E+02  0.51100000000E-03 0. -1.
    9900012    2    1    2    0    0  0.52031308340E+00  0.62561708910E+00  0.85474080456E+00  0.90007871071E+02  0.90000134169E+02 0.  0.
         12    1    1    2    0    0 -0.52031308340E+00 -0.62561708910E+00 -0.85474080456E+00  0.11801289294E+01  0.00000000000E+00 0. -1.
         11    1    3    3    0    0 -0.91479931014E+01  0.53403394719E+01  0.16841853075E+01  0.10725739316E+02  0.51100000000E-03 0. -1.
        -11    1    3    3    0    0 -0.33573404620E+02  0.14506523828E+01 -0.91266452858E+01  0.34822026715E+02  0.51100000000E-03 0.  1.
         12    1    3    3    0    0  0.43241710805E+02 -0.61653747656E+01  0.82972007829E+01  0.44460105040E+02  0.00000000000E+00 0. -1.
</event>
<event>
 7    1  0.4520336E-015  0.9000773E+02  0.7816164E-02  0.1186339E+00
        -11   -1    0    0    0    0  0.00000000000E+00  0.00000000000E+00  0.45593999997E+02  0.45594000000E+02  0.51100000000E-03 0. -1.
         11   -1    0    0    0    0 -0.00000000000E+00 -0.00000000000E+00 -0.45593999997E+02  0.45594000000E+02  0.51100000000E-03 0.  1.
    9900012    2    1    2    0    0  0.15069179322E+00 -0.11244641388E+01 -0.32542240726E+00  0.90007734200E+02  0.89999995491E+02 0.  0.
         12    1    1    2    0    0 -0.15069179322E+00  0.11244641388E+01  0.32542240726E+00  0.11802658002E+01  0.00000000000E+00 0. -1.
         11    1    3    3    0    0 -0.31198729794E+01  0.69298833365E+01 -0.30340791279E+01  0.81830634167E+01  0.51100000000E-03 0. -1.
        -11    1    3    3    0    0 -0.27029802180E+02  0.13256392233E+01 -0.27098947200E+02  0.38297786683E+02  0.51100000000E-03 0.  1.
         12    1    3    3    0    0  0.30300366953E+02 -0.93799866987E+01  0.29807603920E+02  0.43526884100E+02  0.00000000000E+00 0. -1.
</event>
<event>
 7    1  0.4520336E-015  0.9000775E+02  0.7816164E-02  0.1186339E+00
        -11   -1    0    0    0    0  0.00000000000E+00  0.00000000000E+00  0.45593999997E+02  0.45594000000E+02  0.51100000000E-03 0.  1.
         11   -1    0    0    0    0 -0.00000000000E+00 -0.00000000000E+00 -0.45593999997E+02  0.45594000000E+02  0.51100000000E-03 0. -1.
    9900012    2    1    2    0    0 -0.24802184900E+00 -0.11240658961E+01  0.26065393869E+00  0.90007754495E+02  0.90000016054E+02 0.  0.
         12    1    1    2    0    0  0.24802184900E+00  0.11240658961E+01 -0.26065393869E+00  0.11802455051E+01  0.00000000000E+00 0. -1.
         11    1    3    3    0    0 -0.88933781343E+01 -0.25400854655E+01  0.19218022635E+01  0.94465619679E+01  0.51100000000E-03 0. -1.
        -11    1    3    3    0    0  0.13610356878E+02 -0.36775347320E+02 -0.11399188594E+02  0.40836374541E+02  0.51100000000E-03 0.  1.
         12    1    3    3    0    0 -0.49650005928E+01  0.38191366889E+02  0.97380402688E+01  0.39724817986E+02  0.00000000000E+00 0. -1.
</event>
<event>
 7    1  0.4520336E-015  0.9000773E+02  0.7816164E-02  0.1186339E+00
        -11   -1    0    0    0    0  0.00000000000E+00  0.00000000000E+00  0.45593999997E+02  0.45594000000E+02  0.51100000000E-03 0.  1.
         11   -1    0    0    0    0 -0.00000000000E+00 -0.00000000000E+00 -0.45593999997E+02  0.45594000000E+02  0.51100000000E-03 0. -1.
    9900012    2    1    2    0    0  0.43905777411E-02  0.70635403681E+00  0.94556360376E+00  0.90007726374E+02  0.89999987563E+02 0.  0.
         12    1    1    2    0    0 -0.43905777411E-02 -0.70635403681E+00 -0.94556360376E+00  0.11802736256E+01  0.00000000000E+00 0. -1.
         11    1    3    3    0    0 -0.20304636481E+01 -0.72208749474E+01  0.70337623550E+01  0.10282880470E+02  0.51100000000E-03 0. -1.
        -11    1    3    3    0    0 -0.20188882841E+02 -0.27687426306E+02  0.84607711706E+01  0.35295456009E+02  0.51100000000E-03 0.  1.
         12    1    3    3    0    0  0.22223737067E+02  0.35614655290E+02 -0.14548969922E+02  0.44429389895E+02  0.00000000000E+00 0. -1.
</event>
<event>
 7    1  0.4520336E-015  0.9000774E+02  0.7816164E-02  0.1186339E+00
        -11   -1    0    0    0    0  0.00000000000E+00  0.00000000000E+00  0.45593999997E+02  0.45594000000E+02  0.51100000000E-03 0.  1.
         11   -1    0    0    0    0 -0.00000000000E+00 -0.00000000000E+00 -0.45593999997E+02  0.45594000000E+02  0.51100000000E-03 0. -1.
    9900012    2    1    2    0    0 -0.31693568628E+00  0.17922793645E+00  0.11226960076E+01  0.90007738500E+02  0.89999999848E+02 0.  0.
         12    1    1    2    0    0  0.31693568628E+00 -0.17922793645E+00 -0.11226960076E+01  0.11802614998E+01  0.00000000000E+00 0. -1.
         11    1    3    3    0    0  0.10952480355E+02  0.27239545448E+02 -0.23099590441E+02  0.37356936985E+02  0.51100000000E-03 0. -1.
        -11    1    3    3    0    0  0.79761287858E+00  0.87155684391E+01  0.25462356588E+01  0.91148579699E+01  0.51100000000E-03 0.  1.
        -12    1    3    3    0    0 -0.12067028920E+02 -0.35775885951E+02  0.21676050790E+02  0.43535943545E+02  0.00000000000E+00 0.  1.
</event>
<event>
 7    1  0.4520336E-015  0.9000760E+02  0.7816164E-02  0.1186339E+00
        -11   -1    0    0    0    0  0.00000000000E+00  0.00000000000E+00  0.45593999997E+02  0.45594000000E+02  0.51100000000E-03 0.  1.
         11   -1    0    0    0    0 -0.00000000000E+00 -0.00000000000E+00 -0.45593999997E+02  0.45594000000E+02  0.51100000000E-03 0. -1.
    9900012    2    1    2    0    0  0.11471366475E+01 -0.18417162147E+00 -0.20858868300E+00  0.90007597140E+02  0.89999856622E+02 0.  0.
         12    1    1    2    0    0 -0.11471366475E+01  0.18417162147E+00  0.20858868300E+00  0.11804028604E+01  0.00000000000E+00 0. -1.
         11    1    3    3    0    0  0.50136072203E+01 -0.52592641887E+01  0.83914620314E+01  0.11100123984E+02  0.51100000000E-03 0. -1.
        -11    1    3    3    0    0 -0.95504454727E+01 -0.18182205024E+02  0.28271973264E+02  0.34944356636E+02  0.51100000000E-03 0.  1.
         12    1    3    3    0    0  0.56839748999E+01  0.23257297591E+02 -0.36872023978E+02  0.43963116520E+02  0.00000000000E+00 0. -1.
</event>
<event>
 7    1  0.4520336E-015  0.9000770E+02  0.7816164E-02  0.1186339E+00
        -11   -1    0    0    0    0  0.00000000000E+00  0.00000000000E+00  0.45593999997E+02  0.45594000000E+02  0.51100000000E-03 0.  1.
         11   -1    0    0    0    0 -0.00000000000E+00 -0.00000000000E+00 -0.45593999997E+02  0.45594000000E+02  0.51100000000E-03 0. -1.
    9900012    2    1    2    0    0 -0.10341272481E+01 -0.53993919620E+00  0.17932683773E+00  0.90007698507E+02  0.89999959327E+02 0.  0.
         12    1    1    2    0    0  0.10341272481E+01  0.53993919620E+00 -0.17932683773E+00  0.11803014935E+01  0.00000000000E+00 0. -1.
         11    1    3    3    0    0  0.32359567654E+01 -0.38610691469E+02 -0.53942901445E+01  0.39119755601E+02  0.51100000000E-03 0. -1.
        -11    1    3    3    0    0 -0.75202338362E+01 -0.34141104070E+00  0.95203301940E+01  0.12137016343E+02  0.51100000000E-03 0.  1.
        -12    1    3    3    0    0  0.32501498227E+01  0.38412163313E+02 -0.39467132118E+01  0.38750926562E+02  0.00000000000E+00 0.  1.
</event>
<event>
 7    1  0.4520336E-015  0.9000765E+02  0.7816164E-02  0.1186339E+00
        -11   -1    0    0    0    0  0.00000000000E+00  0.00000000000E+00  0.45593999997E+02  0.45594000000E+02  0.51100000000E-03 0.  1.
         11   -1    0    0    0    0 -0.00000000000E+00 -0.00000000000E+00 -0.45593999997E+02  0.45594000000E+02  0.51100000000E-03 0. -1.
    9900012    2    1    2    0    0  0.10534235732E+01 -0.36516897778E+00  0.38752145237E+00  0.90007651542E+02  0.89999911742E+02 0.  0.
         12    1    1    2    0    0 -0.10534235732E+01  0.36516897778E+00 -0.38752145237E+00  0.11803484583E+01  0.00000000000E+00 0. -1.
         11    1    3    3    0    0 -0.72891361890E+01  0.86331918203E+01 -0.10229189237E+02  0.15241385111E+02  0.51100000000E-03 0. -1.
        -11    1    3    3    0    0  0.32711646574E+02 -0.20441554649E+02 -0.11142301521E+02  0.40150465271E+02  0.51100000000E-03 0.  1.
         12    1    3    3    0    0 -0.24369086812E+02  0.11443193851E+02  0.21759012210E+02  0.34615801160E+02  0.00000000000E+00 0. -1.
</event>
<event>
 7    1  0.4520336E-015  0.9000772E+02  0.7816164E-02  0.1186339E+00
        -11   -1    0    0    0    0  0.00000000000E+00  0.00000000000E+00  0.45593999997E+02  0.45594000000E+02  0.51100000000E-03 0. -1.
         11   -1    0    0    0    0 -0.00000000000E+00 -0.00000000000E+00 -0.45593999997E+02  0.45594000000E+02  0.51100000000E-03 0.  1.
    9900012    2    1    2    0    0  0.93403144043E+00  0.71938265035E+00  0.55988412596E-01  0.90007720020E+02  0.89999981124E+02 0.  0.
         12    1    1    2    0    0 -0.93403144043E+00 -0.71938265035E+00 -0.55988412596E-01  0.11802799802E+01  0.00000000000E+00 0. -1.
         11    1    3    3    0    0 -0.13444924612E+02 -0.31697459451E+02 -0.16548150665E+02  0.38201259457E+02  0.51100000000E-03 0. -1.
        -11    1    3    3    0    0  0.32446966243E+01  0.95499392747E+01 -0.10554005105E+02  0.14598507470E+02  0.51100000000E-03 0.  1.
        -12    1    3    3    0    0  0.11134259428E+02  0.22866902826E+02  0.27158144183E+02  0.37207953092E+02  0.00000000000E+00 0.  1.
</event>
<event>
 7    1  0.4520336E-015  0.9000775E+02  0.7816164E-02  0.1186339E+00
        -11   -1    0    0    0    0  0.00000000000E+00  0.00000000000E+00  0.45593999997E+02  0.45594000000E+02  0.51100000000E-03 0. -1.
         11   -1    0    0    0    0 -0.00000000000E+00 -0.00000000000E+00 -0.45593999997E+02  0.45594000000E+02  0.51100000000E-03 0.  1.
    9900012    2    1    2    0    0  0.99021965634E+00 -0.61138061922E+00 -0.19664056620E+00  0.90007750560E+02  0.90000012067E+02 0.  0.
         12    1    1    2    0    0 -0.99021965634E+00  0.61138061922E+00  0.19664056620E+00  0.11802494404E+01  0.00000000000E+00 0. -1.
         11    1    3    3    0    0 -0.11445774980E+02 -0.64769255061E+01 -0.79927792931E+01  0.15389634498E+02  0.51100000000E-03 0. -1.
        -11    1    3    3    0    0 -0.41244456626E+01  0.23050875483E+02 -0.24871931377E+02  0.34160896991E+02  0.51100000000E-03 0.  1.
         12    1    3    3    0    0  0.16560440299E+02 -0.17185330596E+02  0.32668070104E+02  0.40457219070E+02  0.00000000000E+00 0. -1.
</event>
<event>
 7    1  0.4520336E-015  0.9000787E+02  0.7816164E-02  0.1186339E+00
        -11   -1    0    0    0    0  0.00000000000E+00  0.00000000000E+00  0.45593999997E+02  0.45594000000E+02  0.51100000000E-03 0.  1.
         11   -1    0    0    0    0 -0.00000000000E+00 -0.00000000000E+00 -0.45593999997E+02  0.45594000000E+02  0.51100000000E-03 0. -1.
    9900012    2    1    2    0    0 -0.67783060948E+00  0.78300176098E+00  0.56581918477E+00  0.90007873972E+02  0.90000137108E+02 0.  0.
         12    1    1    2    0    0  0.67783060948E+00 -0.78300176098E+00 -0.56581918477E+00  0.11801260283E+01  0.00000000000E+00 0. -1.
         11    1    3    3    0    0  0.90516163877E+01  0.11249938063E+02 -0.20507591361E+02  0.25080952322E+02  0.51100000000E-03 0. -1.
        -11    1    3    3    0    0 -0.94979151751E+01  0.22589306694E+00 -0.20182698776E+02  0.22307011241E+02  0.51100000000E-03 0.  1.
        -12    1    3    3    0    0 -0.23153182216E+00 -0.10692829369E+02  0.41256109322E+02  0.42619910409E+02  0.00000000000E+00 0.  1.
</event>
<event>
 7    1  0.4520336E-015  0.9000777E+02  0.7816164E-02  0.1186339E+00
        -11   -1    0    0    0    0  0.00000000000E+00  0.00000000000E+00  0.45593999997E+02  0.45594000000E+02  0.51100000000E-03 0. -1.
         11   -1    0    0    0    0 -0.00000000000E+00 -0.00000000000E+00 -0.45593999997E+02  0.45594000000E+02  0.51100000000E-03 0.  1.
    9900012    2    1    2    0    0  0.54272033857E+00  0.94712832722E+00  0.44871596795E+00  0.90007769745E+02  0.90000031506E+02 0.  0.
         12    1    1    2    0    0 -0.54272033857E+00 -0.94712832722E+00 -0.44871596795E+00  0.11802302547E+01  0.00000000000E+00 0. -1.
         11    1    3    3    0    0 -0.46127681561E+01  0.23173917620E+02 -0.24081245495E+01  0.23750940025E+02  0.51100000000E-03 0. -1.
        -11    1    3    3    0    0  0.31809268579E+02 -0.23409508493E+02  0.25129109994E+01  0.39574605207E+02  0.51100000000E-03 0.  1.
         12    1    3    3    0    0 -0.26653780084E+02  0.11827191993E+01  0.34392951804E+00  0.26682224513E+02  0.00000000000E+00 0. -1.
</event>
<event>
 7    1  0.4520336E-015  0.9000793E+02  0.7816164E-02  0.1186339E+00
        -11   -1    0    0    0    0  0.00000000000E+00  0.00000000000E+00  0.45593999997E+02  0.45594000000E+02  0.51100000000E-03 0.  1.
         11   -1    0    0    0    0 -0.00000000000E+00 -0.00000000000E+00 -0.45593999997E+02  0.45594000000E+02  0.51100000000E-03 0. -1.
    9900012    2    1    2    0    0  0.54231777576E+00  0.20404545576E-01  0.10478757754E+01  0.90007928580E+02  0.90000192437E+02 0.  0.
         12    1    1    2    0    0 -0.54231777576E+00 -0.20404545576E-01 -0.10478757754E+01  0.11800714199E+01  0.00000000000E+00 0. -1.
         11    1    3    3    0    0  0.46249960156E+01  0.71130872858E+01 -0.34584427791E+02  0.35609959910E+02  0.51100000000E-03 0. -1.
        -11    1    3    3    0    0 -0.95427728523E+01  0.11356895056E+02  0.11092186578E+01  0.14875279672E+02  0.51100000000E-03 0.  1.
        -12    1    3    3    0    0  0.54600946125E+01 -0.18449577796E+02  0.34523084909E+02  0.39522688998E+02  0.00000000000E+00 0.  1.
</event>
<event>
 7    1  0.4520336E-015  0.9000781E+02  0.7816164E-02  0.1186339E+00
        -11   -1    0    0    0    0  0.00000000000E+00  0.00000000000E+00  0.45593999997E+02  0.45594000000E+02  0.51100000000E-03 0. -1.
         11   -1    0    0    0    0 -0.00000000000E+00 -0.00000000000E+00 -0.45593999997E+02  0.45594000000E+02  0.51100000000E-03 0.  1.
    9900012    2    1    2    0    0  0.41472443021E+00  0.10509713760E+01  0.34104854085E+00  0.90007808789E+02  0.90000071065E+02 0.  0.
         12    1    1    2    0    0 -0.41472443021E+00 -0.10509713760E+01 -0.34104854085E+00  0.11801912105E+01  0.00000000000E+00 0. -1.
         11    1    3    3    0    0 -0.16939312527E+02  0.28360169316E+02  0.19600834197E+02  0.38411355274E+02  0.51100000000E-03 0. -1.
        -11    1    3    3    0    0  0.79175127263E+01 -0.41912041270E+01  0.98032956702E+01  0.13279977638E+02  0.51100000000E-03 0.  1.
        -12    1    3    3    0    0  0.94365242308E+01 -0.23117993813E+02 -0.29063081326E+02  0.38316475877E+02  0.00000000000E+00 0.  1.
</event>
<event>
 7    1  0.4520336E-015  0.9000779E+02  0.7816164E-02  0.1186339E+00
        -11   -1    0    0    0    0  0.00000000000E+00  0.00000000000E+00  0.45593999997E+02  0.45594000000E+02  0.51100000000E-03 0.  1.
         11   -1    0    0    0    0 -0.00000000000E+00 -0.00000000000E+00 -0.45593999997E+02  0.45594000000E+02  0.51100000000E-03 0. -1.
    9900012    2    1    2    0    0  0.13631015875E+00  0.63292250311E+00  0.98677675844E+00  0.90007788271E+02  0.90000050276E+02 0.  0.
         12    1    1    2    0    0 -0.13631015875E+00 -0.63292250311E+00 -0.98677675844E+00  0.11802117290E+01  0.00000000000E+00 0. -1.
         11    1    3    3    0    0  0.64266988327E+01 -0.56083708080E+01 -0.34787975892E+01  0.92118572467E+01  0.51100000000E-03 0. -1.
        -11    1    3    3    0    0  0.21343083928E+02  0.30095710232E+02 -0.14518637094E+02  0.39649335798E+02  0.51100000000E-03 0.  1.
         12    1    3    3    0    0 -0.27633472602E+02 -0.23854416921E+02  0.18984211441E+02  0.41146595226E+02  0.00000000000E+00 0. -1.
</event>
<event>
 7    1  0.4520336E-015  0.9000772E+02  0.7816164E-02  0.1186339E+00
        -11   -1    0    0    0    0  0.00000000000E+00  0.00000000000E+00  0.45593999997E+02  0.45594000000E+02  0.51100000000E-03 0.  1.
         11   -1    0    0    0    0 -0.00000000000E+00 -0.00000000000E+00 -0.45593999997E+02  0.45594000000E+02  0.51100000000E-03 0. -1.
    9900012    2    1    2    0    0 -0.35020890897E-01  0.12103339121E+00  0.11735328940E+01  0.90007722491E+02  0.89999983628E+02 0.  0.
         12    1    1    2    0    0  0.35020890897E-01 -0.12103339121E+00 -0.11735328940E+01  0.11802775089E+01  0.00000000000E+00 0. -1.
         11    1    3    3    0    0 -0.41076015311E+01  0.46056872764E+01  0.69195018528E+01  0.92716908802E+01  0.51100000000E-03 0. -1.
        -11    1    3    3    0    0 -0.17579968993E+02 -0.20703525266E+02  0.26974891628E+02  0.38279708030E+02  0.51100000000E-03 0.  1.
         12    1    3    3    0    0  0.21652549634E+02  0.16218871381E+02 -0.32720860587E+02  0.42456323581E+02  0.00000000000E+00 0. -1.
</event>
<event>
 7    1  0.4520336E-015  0.9000770E+02  0.7816164E-02  0.1186339E+00
        -11   -1    0    0    0    0  0.00000000000E+00  0.00000000000E+00  0.45593999997E+02  0.45594000000E+02  0.51100000000E-03 0.  1.
         11   -1    0    0    0    0 -0.00000000000E+00 -0.00000000000E+00 -0.45593999997E+02  0.45594000000E+02  0.51100000000E-03 0. -1.
    9900012    2    1    2    0    0 -0.19945738627E+00  0.10632654942E+01  0.47200830421E+00  0.90007699784E+02  0.89999960621E+02 0.  0.
         12    1    1    2    0    0  0.19945738627E+00 -0.10632654942E+01 -0.47200830421E+00  0.11803002158E+01  0.00000000000E+00 0. -1.
         11    1    3    3    0    0 -0.36813837367E+01 -0.76501402074E+01 -0.60743610632E+01  0.10439113660E+02  0.51100000000E-03 0. -1.
        -11    1    3    3    0    0  0.32197980573E+02 -0.17926669242E+02 -0.81316753104E+01  0.37738568689E+02  0.51100000000E-03 0.  1.
         12    1    3    3    0    0 -0.28716054222E+02  0.26640074944E+02  0.14678044678E+02  0.41830017436E+02  0.00000000000E+00 0. -1.
</event>
<event>
 7    1  0.4520336E-015  0.9000765E+02  0.7816164E-02  0.1186339E+00
        -11   -1    0    0    0    0  0.00000000000E+00  0.00000000000E+00  0.45593999997E+02  0.45594000000E+02  0.51100000000E-03 0. -1.
         11   -1    0    0    0    0 -0.00000000000E+00 -0.00000000000E+00 -0.45593999997E+02  0.45594000000E+02  0.51100000000E-03 0.  1.
    9900012    2    1    2    0    0  0.60595000666E+00  0.69008437115E+00 -0.74151261120E+00  0.90007647170E+02  0.89999907313E+02 0.  0.
         12    1    1    2    0    0 -0.60595000666E+00 -0.69008437115E+00  0.74151261120E+00  0.11803528296E+01  0.00000000000E+00 0. -1.
         11    1    3    3    0    0  0.77377216762E+01  0.27396129319E+01 -0.93435819064E+01  0.12437055072E+02  0.51100000000E-03 0. -1.
        -11    1    3    3    0    0 -0.38940245326E+02  0.11107135443E+02 -0.44929626018E+01  0.40741844300E+02  0.51100000000E-03 0.  1.
         12    1    3    3    0    0  0.31808473656E+02 -0.13156664003E+02  0.13095031897E+02  0.36828747799E+02  0.00000000000E+00 0. -1.
</event>
<event>
 7    1  0.4520336E-015  0.9000792E+02  0.7816164E-02  0.1186339E+00
        -11   -1    0    0    0    0  0.00000000000E+00  0.00000000000E+00  0.45593999997E+02  0.45594000000E+02  0.51100000000E-03 0.  1.
         11   -1    0    0    0    0 -0.00000000000E+00 -0.00000000000E+00 -0.45593999997E+02  0.45594000000E+02  0.51100000000E-03 0. -1.
    9900012    2    1    2    0    0  0.46876146327E+00  0.10755802283E+01  0.12644243838E+00  0.90007916178E+02  0.90000179871E+02 0.  0.
         12    1    1    2    0    0 -0.46876146327E+00 -0.10755802283E+01 -0.12644243838E+00  0.11800838221E+01  0.00000000000E+00 0. -1.
         11    1    3    3    0    0 -0.35577453948E+01  0.16493187052E+02  0.45851002310E+01  0.17484447827E+02  0.51100000000E-03 0. -1.
        -11    1    3    3    0    0  0.15326428364E+02  0.12438734407E+02  0.24036881631E+02  0.31102945179E+02  0.51100000000E-03 0.  1.
         12    1    3    3    0    0 -0.11299921506E+02 -0.27856341231E+02 -0.28495539423E+02  0.41420523172E+02  0.00000000000E+00 0. -1.
</event>
<event>
 7    1  0.4520336E-015  0.9000791E+02  0.7816164E-02  0.1186339E+00
        -11   -1    0    0    0    0  0.00000000000E+00  0.00000000000E+00  0.45593999997E+02  0.45594000000E+02  0.51100000000E-03 0.  1.
         11   -1    0    0    0    0 -0.00000000000E+00 -0.00000000000E+00 -0.45593999997E+02  0.45594000000E+02  0.51100000000E-03 0. -1.
    9900012    2    1    2    0    0 -0.80443209024E+00 -0.62685352243E-01 -0.86114412945E+00  0.90007911167E+02  0.90000174795E+02 0.  0.
         12    1    1    2    0    0  0.80443209024E+00  0.62685352243E-01  0.86114412945E+00  0.11800888326E+01  0.00000000000E+00 0. -1.
         11    1    3    3    0    0 -0.29000450051E+00 -0.31782949816E+01 -0.87411260855E+01  0.93055331446E+01  0.51100000000E-03 0. -1.
        -11    1    3    3    0    0 -0.17974070701E+02  0.36865646687E+02 -0.31512268890E+01  0.41134819246E+02  0.51100000000E-03 0.  1.
         12    1    3    3    0    0  0.17459643111E+02 -0.33750037058E+02  0.11031208845E+02  0.39567558777E+02  0.00000000000E+00 0. -1.
</event>
<event>
 7    1  0.4520336E-015  0.9000757E+02  0.7816164E-02  0.1186339E+00
        -11   -1    0    0    0    0  0.00000000000E+00  0.00000000000E+00  0.45593999997E+02  0.45594000000E+02  0.51100000000E-03 0. -1.
         11   -1    0    0    0    0 -0.00000000000E+00 -0.00000000000E+00 -0.45593999997E+02  0.45594000000E+02  0.51100000000E-03 0.  1.
    9900012    2    1    2    0    0 -0.22295513265E+00  0.71737290227E+00 -0.91053475906E+00  0.90007573628E+02  0.89999832800E+02 0.  0.
         12    1    1    2    0    0  0.22295513265E+00 -0.71737290227E+00  0.91053475906E+00  0.11804263719E+01  0.00000000000E+00 0. -1.
         11    1    3    3    0    0  0.18884038891E+02 -0.14134235307E+02  0.12478723336E+02  0.26685240656E+02  0.51100000000E-03 0. -1.
        -11    1    3    3    0    0  0.19145045366E+02  0.10130463795E+01  0.31153296139E+01  0.19423292818E+02  0.51100000000E-03 0.  1.
        -12    1    3    3    0    0 -0.38252039389E+02  0.13838561830E+02 -0.16504587709E+02  0.43899040154E+02  0.00000000000E+00 0.  1.
</event>
<event>
 7    1  0.4520336E-015  0.9000776E+02  0.7816164E-02  0.1186339E+00
        -11   -1    0    0    0    0  0.00000000000E+00  0.00000000000E+00  0.45593999997E+02  0.45594000000E+02  0.51100000000E-03 0.  1.
         11   -1    0    0    0    0 -0.00000000000E+00 -0.00000000000E+00 -0.45593999997E+02  0.45594000000E+02  0.51100000000E-03 0. -1.
    9900012    2    1    2    0    0 -0.88004996610E+00 -0.78638749508E+00 -0.83034172344E-02  0.90007761811E+02  0.90000023467E+02 0.  0.
         12    1    1    2    0    0  0.88004996610E+00  0.78638749508E+00  0.83034172344E-02  0.11802381887E+01  0.00000000000E+00 0. -1.
         11    1    3    3    0    0 -0.31798560759E+02  0.10366886333E+02  0.16819456436E+02  0.37436812279E+02  0.51100000000E-03 0. -1.
        -11    1    3    3    0    0  0.74928589489E+01  0.77170720996E+01  0.81312552798E+01  0.13483821777E+02  0.51100000000E-03 0.  1.
        -12    1    3    3    0    0  0.23425651844E+02 -0.18870345928E+02 -0.24959015133E+02  0.39087127755E+02  0.00000000000E+00 0.  1.
</event>
<event>
 7    1  0.4520336E-015  0.9000782E+02  0.7816164E-02  0.1186339E+00
        -11   -1    0    0    0    0  0.00000000000E+00  0.00000000000E+00  0.45593999997E+02  0.45594000000E+02  0.51100000000E-03 0.  1.
         11   -1    0    0    0    0 -0.00000000000E+00 -0.00000000000E+00 -0.45593999997E+02  0.45594000000E+02  0.51100000000E-03 0. -1.
    9900012    2    1    2    0    0 -0.10314045670E+01 -0.21570261049E+00  0.53149926903E+00  0.90007824390E+02  0.90000086872E+02 0.  0.
         12    1    1    2    0    0  0.10314045670E+01  0.21570261049E+00 -0.53149926903E+00  0.11801756098E+01  0.00000000000E+00 0. -1.
         11    1    3    3    0    0  0.11473948903E+02  0.15694470866E+02 -0.33654750758E+02  0.38866568771E+02  0.51100000000E-03 0. -1.
        -11    1    3    3    0    0 -0.77782477857E+01  0.38478712586E+01 -0.26505560296E+01  0.90737367917E+01  0.51100000000E-03 0.  1.
        -12    1    3    3    0    0 -0.47271056845E+01 -0.19758044735E+02  0.36836806056E+02  0.42067518828E+02  0.00000000000E+00 0.  1.
</event>
<event>
 7    1  0.4520336E-015  0.9000774E+02  0.7816164E-02  0.1186339E+00
        -11   -1    0    0    0    0  0.00000000000E+00  0.00000000000E+00  0.45593999997E+02  0.45594000000E+02  0.51100000000E-03 0.  1.
         11   -1    0    0    0    0 -0.00000000000E+00 -0.00000000000E+00 -0.45593999997E+02  0.45594000000E+02  0.51100000000E-03 0. -1.
    9900012    2    1    2    0    0  0.10788871904E+01  0.35865080928E+00  0.31683369996E+00  0.90007740890E+02  0.90000002270E+02 0.  0.
         12    1    1    2    0    0 -0.10788871904E+01 -0.35865080928E+00 -0.31683369996E+00  0.11802591097E+01  0.00000000000E+00 0. -1.
         11    1    3    3    0    0  0.24313577258E+02 -0.16559150984E+02 -0.22189174891E+02  0.36847184465E+02  0.51100000000E-03 0. -1.
        -11    1    3    3    0    0 -0.51797978351E+01 -0.31644900109E+01 -0.95063443274E+01  0.11278957637E+02  0.51100000000E-03 0.  1.
        -12    1    3    3    0    0 -0.18054892233E+02  0.20082291804E+02  0.32012352919E+02  0.41881598788E+02  0.00000000000E+00 0.  1.
</event>
<event>
 7    1  0.4520336E-015  0.9000797E+02  0.7816164E-02  0.1186339E+00
        -11   -1    0    0    0    0  0.00000000000E+00  0.00000000000E+00  0.45593999997E+02  0.45594000000E+02  0.51100000000E-03 0.  1.
         11   -1    0    0    0    0 -0.00000000000E+00 -0.00000000000E+00 -0.45593999997E+02  0.45594000000E+02  0.51100000000E-03 0. -1.
    9900012    2    1    2    0    0  0.41358452905E+00  0.11011249700E+01 -0.94506010362E-01  0.90007974683E+02  0.90000239149E+02 0.  0.
         12    1    1    2    0    0 -0.41358452905E+00 -0.11011249700E+01  0.94506010362E-01  0.11800253168E+01  0.00000000000E+00 0. -1.
         11    1    3    3    0    0  0.94336522333E+01  0.12056224309E+01  0.56252855870E+01  0.11049486780E+02  0.51100000000E-03 0. -1.
        -11    1    3    3    0    0 -0.56827062194E+01  0.15139331676E+02  0.33253680955E+02  0.36977017333E+02  0.51100000000E-03 0.  1.
         12    1    3    3    0    0 -0.33373614848E+01 -0.15243829137E+02 -0.38973472552E+02  0.41981470570E+02  0.00000000000E+00 0. -1.
</event>
<event>
 7    1  0.4520336E-015  0.9000824E+02  0.7816164E-02  0.1186338E+00
        -11   -1    0    0    0    0  0.00000000000E+00  0.00000000000E+00  0.45593999997E+02  0.45594000000E+02  0.51100000000E-03 0.  1.
         11   -1    0    0    0    0 -0.00000000000E+00 -0.00000000000E+00 -0.45593999997E+02  0.45594000000E+02  0.51100000000E-03 0. -1.
    9900012    2    1    2    0    0  0.91200909368E+00  0.73262805619E+00 -0.15273073958E+00  0.90008241069E+02  0.90000509050E+02 0.  0.
         12    1    1    2    0    0 -0.91200909368E+00 -0.73262805619E+00  0.15273073958E+00  0.11797589307E+01  0.00000000000E+00 0. -1.
         11    1    3    3    0    0  0.80574514684E+01 -0.53266584131E+01 -0.33904404345E+01  0.10236742676E+02  0.51100000000E-03 0. -1.
        -11    1    3    3    0    0 -0.25395161668E+02 -0.20736999244E+01 -0.31001772055E+02  0.40128846710E+02  0.51100000000E-03 0.  1.
         12    1    3    3    0    0  0.18249719293E+02  0.81329863937E+01  0.34239481750E+02  0.39642651683E+02  0.00000000000E+00 0. -1.
</event>
<event>
 7    1  0.4520336E-015  0.9000777E+02  0.7816164E-02  0.1186339E+00
        -11   -1    0    0    0    0  0.00000000000E+00  0.00000000000E+00  0.45593999997E+02  0.45594000000E+02  0.51100000000E-03 0.  1.
         11   -1    0    0    0    0 -0.00000000000E+00 -0.00000000000E+00 -0.45593999997E+02  0.45594000000E+02  0.51100000000E-03 0. -1.
    9900012    2    1    2    0    0  0.68993099388E+00 -0.21200594316E-01  0.95733167851E+00  0.90007771978E+02  0.90000033768E+02 0.  0.
         12    1    1    2    0    0 -0.68993099388E+00  0.21200594316E-01 -0.95733167851E+00  0.11802280221E+01  0.00000000000E+00 0. -1.
         11    1    3    3    0    0  0.35045504578E+01  0.75705869364E+01 -0.35935250190E+01  0.90834510400E+01  0.51100000000E-03 0. -1.
        -11    1    3    3    0    0 -0.39627662330E+02  0.81538273403E+01 -0.11927864427E+01  0.40475415523E+02  0.51100000000E-03 0.  1.
         12    1    3    3    0    0  0.36813042866E+02 -0.15745614871E+02  0.57436431402E+01  0.40448905415E+02  0.00000000000E+00 0. -1.
</event>
<event>
 7    1  0.4520336E-015  0.9000778E+02  0.7816164E-02  0.1186339E+00
        -11   -1    0    0    0    0  0.00000000000E+00  0.00000000000E+00  0.45593999997E+02  0.45594000000E+02  0.51100000000E-03 0.  1.
         11   -1    0    0    0    0 -0.00000000000E+00 -0.00000000000E+00 -0.45593999997E+02  0.45594000000E+02  0.51100000000E-03 0. -1.
    9900012    2    1    2    0    0 -0.79483017424E+00 -0.43916063681E+00  0.75386100669E+00  0.90007778204E+02  0.90000040076E+02 0.  0.
         12    1    1    2    0    0  0.79483017424E+00  0.43916063681E+00 -0.75386100669E+00  0.11802217962E+01  0.00000000000E+00 0. -1.
         11    1    3    3    0    0  0.13214388514E+02  0.30875688959E+00 -0.37252875122E+02  0.39528370821E+02  0.51100000000E-03 0. -1.
        -11    1    3    3    0    0  0.46833721521E+01 -0.10580842474E+02  0.93295237196E+01  0.14863654170E+02  0.51100000000E-03 0.  1.
        -12    1    3    3    0    0 -0.18692590841E+02  0.98329249478E+01  0.28677212409E+02  0.35615753213E+02  0.00000000000E+00 0.  1.
</event>
<event>
 7    1  0.4520336E-015  0.9000779E+02  0.7816164E-02  0.1186339E+00
        -11   -1    0    0    0    0  0.00000000000E+00  0.00000000000E+00  0.45593999997E+02  0.45594000000E+02  0.51100000000E-03 0.  1.
         11   -1    0    0    0    0 -0.00000000000E+00 -0.00000000000E+00 -0.45593999997E+02  0.45594000000E+02  0.51100000000E-03 0. -1.
    9900012    2    1    2    0    0  0.54820420414E+00 -0.25444485989E+00  0.10137173760E+01  0.90007791139E+02  0.90000053182E+02 0.  0.
         12    1    1    2    0    0 -0.54820420414E+00  0.25444485989E+00 -0.10137173760E+01  0.11802088606E+01  0.00000000000E+00 0. -1.
         11    1    3    3    0    0  0.37744935680E+02  0.12072476644E+02  0.66142357514E+00  0.39634105808E+02  0.51100000000E-03 0. -1.
        -11    1    3    3    0    0  0.36955348621E+01  0.73682026930E-01 -0.61255016305E+01  0.71543118080E+01  0.51100000000E-03 0.  1.
        -12    1    3    3    0    0 -0.40892266338E+02 -0.12400603530E+02  0.64777954314E+01  0.43219373524E+02  0.00000000000E+00 0.  1.
</event>
<event>
 7    1  0.4520336E-015  0.9000776E+02  0.7816164E-02  0.1186339E+00
        -11   -1    0    0    0    0  0.00000000000E+00  0.00000000000E+00  0.45593999997E+02  0.45594000000E+02  0.51100000000E-03 0.  1.
         11   -1    0    0    0    0 -0.00000000000E+00 -0.00000000000E+00 -0.45593999997E+02  0.45594000000E+02  0.51100000000E-03 0. -1.
    9900012    2    1    2    0    0 -0.18816325774E+00 -0.25822756273E+00  0.11361663913E+01  0.90007762331E+02  0.90000023994E+02 0.  0.
         12    1    1    2    0    0  0.18816325774E+00  0.25822756273E+00 -0.11361663913E+01  0.11802376686E+01  0.00000000000E+00 0. -1.
         11    1    3    3    0    0 -0.25080566484E+02  0.14026033926E+02 -0.23005983439E+02  0.36810864118E+02  0.51100000000E-03 0. -1.
        -11    1    3    3    0    0  0.79486353463E+00  0.14496151885E+01 -0.90878060151E+01  0.92369589510E+01  0.51100000000E-03 0.  1.
        -12    1    3    3    0    0  0.24097539691E+02 -0.15733876677E+02  0.33229955846E+02  0.43959939263E+02  0.00000000000E+00 0.  1.
</event>
<event>
 7    1  0.4520336E-015  0.9000772E+02  0.7816164E-02  0.1186339E+00
        -11   -1    0    0    0    0  0.00000000000E+00  0.00000000000E+00  0.45593999997E+02  0.45594000000E+02  0.51100000000E-03 0.  1.
         11   -1    0    0    0    0 -0.00000000000E+00 -0.00000000000E+00 -0.45593999997E+02  0.45594000000E+02  0.51100000000E-03 0. -1.
    9900012    2    1    2    0    0  0.68627842503E+00 -0.95819440511E+00  0.62874018747E-01  0.90007717095E+02  0.89999978160E+02 0.  0.
         12    1    1    2    0    0 -0.68627842503E+00  0.95819440511E+00 -0.62874018747E-01  0.11802829054E+01  0.00000000000E+00 0. -1.
         11    1    3    3    0    0  0.13142170371E+02  0.10547271700E+02 -0.28583193166E+02  0.33180725040E+02  0.51100000000E-03 0. -1.
        -11    1    3    3    0    0  0.63054152155E+01  0.93443345550E+01 -0.55784273571E+01  0.12577507756E+02  0.51100000000E-03 0.  1.
        -12    1    3    3    0    0 -0.18761307161E+02 -0.20849800660E+02  0.34224494542E+02  0.44249484298E+02  0.00000000000E+00 0.  1.
</event>
<event>
 7    1  0.4520336E-015  0.9000780E+02  0.7816164E-02  0.1186339E+00
        -11   -1    0    0    0    0  0.00000000000E+00  0.00000000000E+00  0.45593999997E+02  0.45594000000E+02  0.51100000000E-03 0.  1.
         11   -1    0    0    0    0 -0.00000000000E+00 -0.00000000000E+00 -0.45593999997E+02  0.45594000000E+02  0.51100000000E-03 0. -1.
    9900012    2    1    2    0    0  0.58575068371E+00  0.60446589393E+00  0.82727158642E+00  0.90007804610E+02  0.90000066831E+02 0.  0.
         12    1    1    2    0    0 -0.58575068371E+00 -0.60446589393E+00 -0.82727158642E+00  0.11801953898E+01  0.00000000000E+00 0. -1.
         11    1    3    3    0    0 -0.32483539786E+02  0.17385603410E+02 -0.22462075820E+02  0.43150717414E+02  0.51100000000E-03 0. -1.
        -11    1    3    3    0    0  0.28121900388E+01 -0.10825406590E+01  0.97062331951E+01  0.10163231287E+02  0.51100000000E-03 0.  1.
        -12    1    3    3    0    0  0.30257100431E+02 -0.15698596858E+02  0.13583114211E+02  0.36693855909E+02  0.00000000000E+00 0.  1.
</event>
<event>
 7    1  0.4520336E-015  0.9000798E+02  0.7816164E-02  0.1186339E+00
        -11   -1    0    0    0    0  0.00000000000E+00  0.00000000000E+00  0.45593999997E+02  0.45594000000E+02  0.51100000000E-03 0. -1.
         11   -1    0    0    0    0 -0.00000000000E+00 -0.00000000000E+00 -0.45593999997E+02  0.45594000000E+02  0.51100000000E-03 0.  1.
    9900012    2    1    2    0    0  0.79479356223E+00 -0.14552496075E+00 -0.85997750657E+00  0.90007984902E+02  0.90000249502E+02 0.  0.
         12    1    1    2    0    0 -0.79479356223E+00  0.14552496075E+00  0.85997750657E+00  0.11800150984E+01  0.00000000000E+00 0. -1.
         11    1    3    3    0    0  0.15502148860E+01 -0.53662667592E+01  0.37913977967E+02  0.38323226778E+02  0.51100000000E-03 0. -1.
        -11    1    3    3    0    0 -0.60840714074E+01  0.33833650592E+01  0.43402226656E+01  0.82036953297E+01  0.51100000000E-03 0.  1.
        -12    1    3    3    0    0  0.53286500836E+01  0.18373767393E+01 -0.43114178140E+02  0.43481062794E+02  0.00000000000E+00 0.  1.
</event>
<event>
 7    1  0.4520336E-015  0.9000769E+02  0.7816164E-02  0.1186339E+00
        -11   -1    0    0    0    0  0.00000000000E+00  0.00000000000E+00  0.45593999997E+02  0.45594000000E+02  0.51100000000E-03 0. -1.
         11   -1    0    0    0    0 -0.00000000000E+00 -0.00000000000E+00 -0.45593999997E+02  0.45594000000E+02  0.51100000000E-03 0.  1.
    9900012    2    1    2    0    0 -0.89581028981E+00 -0.18927199601E+00  0.74486331301E+00  0.90007694396E+02  0.89999955162E+02 0.  0.
         12    1    1    2    0    0  0.89581028981E+00  0.18927199601E+00 -0.74486331301E+00  0.11803056040E+01  0.00000000000E+00 0. -1.
         11    1    3    3    0    0  0.40504978212E+01  0.12884162090E+02 -0.27380084474E+01  0.13780597080E+02  0.51100000000E-03 0. -1.
        -11    1    3    3    0    0 -0.26932130516E+01  0.22343228681E+02 -0.22822826388E+02  0.32052373844E+02  0.51100000000E-03 0.  1.
         12    1    3    3    0    0 -0.22530950594E+01 -0.35416662766E+02  0.26305698148E+02  0.44174723473E+02  0.00000000000E+00 0. -1.
</event>
<event>
 7    1  0.4520336E-015  0.9000772E+02  0.7816164E-02  0.1186339E+00
        -11   -1    0    0    0    0  0.00000000000E+00  0.00000000000E+00  0.45593999997E+02  0.45594000000E+02  0.51100000000E-03 0. -1.
         11   -1    0    0    0    0 -0.00000000000E+00 -0.00000000000E+00 -0.45593999997E+02  0.45594000000E+02  0.51100000000E-03 0.  1.
    9900012    2    1    2    0    0  0.76480625160E+00 -0.84168077568E+00 -0.31577495721E+00  0.90007716579E+02  0.89999977638E+02 0.  0.
         12    1    1    2    0    0 -0.76480625160E+00  0.84168077568E+00  0.31577495721E+00  0.11802834212E+01  0.00000000000E+00 0. -1.
         11    1    3    3    0    0  0.27220553274E+02 -0.69842031328E+00  0.31310225823E+02  0.41494295425E+02  0.51100000000E-03 0. -1.
        -11    1    3    3    0    0 -0.43970439103E+01 -0.93674703304E+01 -0.21669424414E+01  0.10572565221E+02  0.51100000000E-03 0.  1.
        -12    1    3    3    0    0 -0.22058703112E+02  0.92242098680E+01 -0.29459058339E+02  0.37940855933E+02  0.00000000000E+00 0.  1.
</event>
<event>
 7    1  0.4520336E-015  0.9000774E+02  0.7816164E-02  0.1186339E+00
        -11   -1    0    0    0    0  0.00000000000E+00  0.00000000000E+00  0.45593999997E+02  0.45594000000E+02  0.51100000000E-03 0. -1.
         11   -1    0    0    0    0 -0.00000000000E+00 -0.00000000000E+00 -0.45593999997E+02  0.45594000000E+02  0.51100000000E-03 0.  1.
    9900012    2    1    2    0    0 -0.97550655305E+00  0.66285432491E+00 -0.44906686606E-01  0.90007743459E+02  0.90000004873E+02 0.  0.
         12    1    1    2    0    0  0.97550655305E+00 -0.66285432491E+00  0.44906686606E-01  0.11802565406E+01  0.00000000000E+00 0. -1.
         11    1    3    3    0    0 -0.99597302937E+01 -0.13887160453E+02  0.32338766416E+02  0.36576567178E+02  0.51100000000E-03 0. -1.
        -11    1    3    3    0    0 -0.11367471562E+01 -0.10702105776E+02  0.47417007606E+00  0.10772748009E+02  0.51100000000E-03 0.  1.
        -12    1    3    3    0    0  0.10120970897E+02  0.25252120554E+02 -0.32857843178E+02  0.42658428273E+02  0.00000000000E+00 0.  1.
</event>
<event>
 7    1  0.4520336E-015  0.9000775E+02  0.7816164E-02  0.1186339E+00
        -11   -1    0    0    0    0  0.00000000000E+00  0.00000000000E+00  0.45593999997E+02  0.45594000000E+02  0.51100000000E-03 0. -1.
         11   -1    0    0    0    0 -0.00000000000E+00 -0.00000000000E+00 -0.45593999997E+02  0.45594000000E+02  0.51100000000E-03 0.  1.
    9900012    2    1    2    0    0  0.11268785060E+00 -0.59675396618E-02 -0.11748427293E+01  0.90007750195E+02  0.90000011698E+02 0.  0.
         12    1    1    2    0    0 -0.11268785060E+00  0.59675396618E-02  0.11748427293E+01  0.11802498048E+01  0.00000000000E+00 0. -1.
         11    1    3    3    0    0  0.73055121568E+01 -0.81194096596E+01  0.39930955495E+02  0.41397784096E+02  0.51100000000E-03 0. -1.
        -11    1    3    3    0    0  0.42944029319E+01 -0.60435317699E+01 -0.87243330377E+01  0.11449024413E+02  0.51100000000E-03 0.  1.
        -12    1    3    3    0    0 -0.11487227238E+02  0.14156973890E+02 -0.32381465187E+02  0.37160941686E+02  0.00000000000E+00 0.  1.
</event>
<event>
 7    1  0.4520336E-015  0.9000768E+02  0.7816164E-02  0.1186339E+00
        -11   -1    0    0    0    0  0.00000000000E+00  0.00000000000E+00  0.45593999997E+02  0.45594000000E+02  0.51100000000E-03 0. -1.
         11   -1    0    0    0    0 -0.00000000000E+00 -0.00000000000E+00 -0.45593999997E+02  0.45594000000E+02  0.51100000000E-03 0.  1.
    9900012    2    1    2    0    0  0.50619182310E+00 -0.28398810176E+00 -0.10277546484E+01  0.90007678425E+02  0.89999938980E+02 0.  0.
         12    1    1    2    0    0 -0.50619182310E+00  0.28398810176E+00  0.10277546484E+01  0.11803215752E+01  0.00000000000E+00 0. -1.
         11    1    3    3    0    0  0.76794875724E+01  0.66000595037E+01 -0.11111021928E+02  0.15032967883E+02  0.51100000000E-03 0. -1.
        -11    1    3    3    0    0 -0.17145086354E+02 -0.16088190635E+02 -0.26813489827E+02  0.35661563355E+02  0.51100000000E-03 0.  1.
         12    1    3    3    0    0  0.99717906043E+01  0.92041430299E+01  0.36896757106E+02  0.39313147187E+02  0.00000000000E+00 0. -1.
</event>
<event>
 7    1  0.4520336E-015  0.9000794E+02  0.7816164E-02  0.1186339E+00
        -11   -1    0    0    0    0  0.00000000000E+00  0.00000000000E+00  0.45593999997E+02  0.45594000000E+02  0.51100000000E-03 0. -1.
         11   -1    0    0    0    0 -0.00000000000E+00 -0.00000000000E+00 -0.45593999997E+02  0.45594000000E+02  0.51100000000E-03 0.  1.
    9900012    2    1    2    0    0 -0.10911599165E+01 -0.39400129586E+00  0.21605190055E+00  0.90007938388E+02  0.90000202374E+02 0.  0.
         12    1    1    2    0    0  0.10911599165E+01  0.39400129586E+00 -0.21605190055E+00  0.11800616121E+01  0.00000000000E+00 0. -1.
         11    1    3    3    0    0 -0.60938142740E+01 -0.18609958801E+02  0.31200026197E+02  0.36836215521E+02  0.51100000000E-03 0. -1.
        -11    1    3    3    0    0  0.13347657125E+01  0.13269061571E+02  0.67441192610E+01  0.14944321307E+02  0.51100000000E-03 0.  1.
        -12    1    3    3    0    0  0.36678886450E+01  0.49468959346E+01 -0.37728093557E+02  0.38227401559E+02  0.00000000000E+00 0.  1.
</event>
<event>
 7    1  0.4520336E-015  0.9000769E+02  0.7816164E-02  0.1186339E+00
        -11   -1    0    0    0    0  0.00000000000E+00  0.00000000000E+00  0.45593999997E+02  0.45594000000E+02  0.51100000000E-03 0. -1.
         11   -1    0    0    0    0 -0.00000000000E+00 -0.00000000000E+00 -0.45593999997E+02  0.45594000000E+02  0.51100000000E-03 0.  1.
    9900012    2    1    2    0    0 -0.77785650280E+00  0.82404164626E+00 -0.33019948023E+00  0.90007687723E+02  0.89999948401E+02 0.  0.
         12    1    1    2    0    0  0.77785650280E+00 -0.82404164626E+00  0.33019948023E+00  0.11803122767E+01  0.00000000000E+00 0. -1.
         11    1    3    3    0    0 -0.13478143537E+02 -0.91236875293E+00 -0.65456369398E+01  0.15011266874E+02  0.51100000000E-03 0. -1.
        -11    1    3    3    0    0 -0.16182063137E+02 -0.46721855734E+01 -0.26176627279E+02  0.31127227653E+02  0.51100000000E-03 0.  1.
         12    1    3    3    0    0  0.28882350171E+02  0.64085959725E+01  0.32392064739E+02  0.43869193197E+02  0.00000000000E+00 0. -1.
</event>
<event>
 7    1  0.4520336E-015  0.9000771E+02  0.7816164E-02  0.1186339E+00
        -11   -1    0    0    0    0  0.00000000000E+00  0.00000000000E+00  0.45593999997E+02  0.45594000000E+02  0.51100000000E-03 0. -1.
         11   -1    0    0    0    0 -0.00000000000E+00 -0.00000000000E+00 -0.45593999997E+02  0.45594000000E+02  0.51100000000E-03 0.  1.
    9900012    2    1    2    0    0  0.48053828669E+00  0.57987439633E+00 -0.90879641441E+00  0.90007710932E+02  0.89999971917E+02 0.  0.
         12    1    1    2    0    0 -0.48053828669E+00 -0.57987439633E+00  0.90879641441E+00  0.11802890677E+01  0.00000000000E+00 0. -1.
         11    1    3    3    0    0 -0.30604292221E+02  0.11768485943E+02  0.13325982242E+02  0.35393527187E+02  0.51100000000E-03 0. -1.
        -11    1    3    3    0    0 -0.50147925745E+01 -0.15526858675E+02 -0.55196608173E+01  0.17224927886E+02  0.51100000000E-03 0.  1.
        -12    1    3    3    0    0  0.36099623082E+02  0.43382471283E+01 -0.87151178390E+01  0.37389255860E+02  0.00000000000E+00 0.  1.
</event>
<event>
 7    1  0.4520336E-015  0.9000770E+02  0.7816164E-02  0.1186339E+00
        -11   -1    0    0    0    0  0.00000000000E+00  0.00000000000E+00  0.45593999997E+02  0.45594000000E+02  0.51100000000E-03 0.  1.
         11   -1    0    0    0    0 -0.00000000000E+00 -0.00000000000E+00 -0.45593999997E+02  0.45594000000E+02  0.51100000000E-03 0. -1.
    9900012    2    1    2    0    0  0.79189736833E+00  0.22100907172E+00  0.84685873471E+00  0.90007696578E+02  0.89999957373E+02 0.  0.
         12    1    1    2    0    0 -0.79189736833E+00 -0.22100907172E+00 -0.84685873471E+00  0.11803034221E+01  0.00000000000E+00 0. -1.
         11    1    3    3    0    0 -0.48370230852E+00  0.58864852774E+01  0.77433344448E+01  0.97387835704E+01  0.51100000000E-03 0. -1.
        -11    1    3    3    0    0  0.33063761775E+02  0.19788538368E+02 -0.87097867826E+01  0.39505176617E+02  0.51100000000E-03 0.  1.
         12    1    3    3    0    0 -0.31788162098E+02 -0.25454014574E+02  0.18133110725E+01  0.40763736391E+02  0.00000000000E+00 0. -1.
</event>
<event>
 7    1  0.4520336E-015  0.9000772E+02  0.7816164E-02  0.1186339E+00
        -11   -1    0    0    0    0  0.00000000000E+00  0.00000000000E+00  0.45593999997E+02  0.45594000000E+02  0.51100000000E-03 0.  1.
         11   -1    0    0    0    0 -0.00000000000E+00 -0.00000000000E+00 -0.45593999997E+02  0.45594000000E+02  0.51100000000E-03 0. -1.
    9900012    2    1    2    0    0 -0.31685470607E+00  0.43403285437E+00  0.10508441225E+01  0.90007722578E+02  0.89999983716E+02 0.  0.
         12    1    1    2    0    0  0.31685470607E+00 -0.43403285437E+00 -0.10508441225E+01  0.11802774221E+01  0.00000000000E+00 0. -1.
         11    1    3    3    0    0  0.29302687548E+02 -0.20049403919E+02 -0.82097592150E+01  0.36442094364E+02  0.51100000000E-03 0. -1.
        -11    1    3    3    0    0  0.62460839067E+01 -0.54475428863E+01  0.32462304471E+01  0.89009718595E+01  0.51100000000E-03 0.  1.
        -12    1    3    3    0    0 -0.35865626161E+02  0.25930979659E+02  0.60143728903E+01  0.44664656354E+02  0.00000000000E+00 0.  1.
</event>
<event>
 7    1  0.4520336E-015  0.9000772E+02  0.7816164E-02  0.1186339E+00
        -11   -1    0    0    0    0  0.00000000000E+00  0.00000000000E+00  0.45593999997E+02  0.45594000000E+02  0.51100000000E-03 0. -1.
         11   -1    0    0    0    0 -0.00000000000E+00 -0.00000000000E+00 -0.45593999997E+02  0.45594000000E+02  0.51100000000E-03 0.  1.
    9900012    2    1    2    0    0 -0.77149501717E-01 -0.94450090319E+00 -0.70358421956E+00  0.90007718357E+02  0.89999979440E+02 0.  0.
         12    1    1    2    0    0  0.77149501717E-01  0.94450090319E+00  0.70358421956E+00  0.11802816426E+01  0.00000000000E+00 0. -1.
         11    1    3    3    0    0 -0.12678269773E+02 -0.35601064080E+02  0.17209496574E+02  0.41525185859E+02  0.51100000000E-03 0. -1.
        -11    1    3    3    0    0  0.61250051642E+01  0.46350966782E+01  0.58463151663E+01  0.96529379343E+01  0.51100000000E-03 0.  1.
        -12    1    3    3    0    0  0.64761151069E+01  0.30021466499E+02 -0.23759395960E+02  0.38829594564E+02  0.00000000000E+00 0.  1.
</event>
<event>
 7    1  0.4520336E-015  0.9000776E+02  0.7816164E-02  0.1186339E+00
        -11   -1    0    0    0    0  0.00000000000E+00  0.00000000000E+00  0.45593999997E+02  0.45594000000E+02  0.51100000000E-03 0. -1.
         11   -1    0    0    0    0 -0.00000000000E+00 -0.00000000000E+00 -0.45593999997E+02  0.45594000000E+02  0.51100000000E-03 0.  1.
    9900012    2    1    2    0    0 -0.87192232942E+00 -0.54636388623E+00 -0.57811419490E+00  0.90007755082E+02  0.90000016649E+02 0.  0.
         12    1    1    2    0    0  0.87192232942E+00  0.54636388623E+00  0.57811419490E+00  0.11802449183E+01  0.00000000000E+00 0. -1.
         11    1    3    3    0    0 -0.13739565637E+02  0.16859965576E+02  0.30794336639E+02  0.37700467801E+02  0.51100000000E-03 0. -1.
        -11    1    3    3    0    0  0.50643906212E+01 -0.22770814067E+01  0.78122704003E+01  0.95846085557E+01  0.51100000000E-03 0.  1.
        -12    1    3    3    0    0  0.78032526866E+01 -0.15129248056E+02 -0.39184721234E+02  0.42722678725E+02  0.00000000000E+00 0.  1.
</event>
<event>
 7    1  0.4520336E-015  0.9000761E+02  0.7816164E-02  0.1186339E+00
        -11   -1    0    0    0    0  0.00000000000E+00  0.00000000000E+00  0.45593999997E+02  0.45594000000E+02  0.51100000000E-03 0.  1.
         11   -1    0    0    0    0 -0.00000000000E+00 -0.00000000000E+00 -0.45593999997E+02  0.45594000000E+02  0.51100000000E-03 0. -1.
    9900012    2    1    2    0    0 -0.85003505727E+00  0.28428245316E+00  0.76807116587E+00  0.90007614712E+02  0.89999874426E+02 0.  0.
         12    1    1    2    0    0  0.85003505727E+00 -0.28428245316E+00 -0.76807116587E+00  0.11803852878E+01  0.00000000000E+00 0. -1.
         11    1    3    3    0    0  0.78990160885E+01 -0.23023588197E+01 -0.38545237351E+01  0.90858497008E+01  0.51100000000E-03 0. -1.
        -11    1    3    3    0    0 -0.37747073975E+02 -0.17584329930E+02  0.14746773644E+02  0.44175984267E+02  0.51100000000E-03 0.  1.
         12    1    3    3    0    0  0.28998022829E+02  0.20170971203E+02 -0.10124178743E+02  0.36745780744E+02  0.00000000000E+00 0. -1.
</event>
<event>
 7    1  0.4520336E-015  0.9000775E+02  0.7816164E-02  0.1186339E+00
        -11   -1    0    0    0    0  0.00000000000E+00  0.00000000000E+00  0.45593999997E+02  0.45594000000E+02  0.51100000000E-03 0. -1.
         11   -1    0    0    0    0 -0.00000000000E+00 -0.00000000000E+00 -0.45593999997E+02  0.45594000000E+02  0.51100000000E-03 0.  1.
    9900012    2    1    2    0    0  0.74239639039E+00 -0.77930074131E+00  0.48428397672E+00  0.90007748749E+02  0.90000010232E+02 0.  0.
         12    1    1    2    0    0 -0.74239639039E+00  0.77930074131E+00 -0.48428397672E+00  0.11802512512E+01  0.00000000000E+00 0. -1.
         11    1    3    3    0    0  0.15361523866E+01 -0.79108342940E+01  0.71660702638E+01  0.10783952275E+02  0.51100000000E-03 0. -1.
        -11    1    3    3    0    0 -0.49354686268E+01 -0.34210789215E+02 -0.13520979766E+02  0.37115412477E+02  0.51100000000E-03 0.  1.
         12    1    3    3    0    0  0.41417126306E+01  0.41342322768E+02  0.68391934784E+01  0.42108383996E+02  0.00000000000E+00 0. -1.
</event>
<event>
 7    1  0.4520336E-015  0.9000773E+02  0.7816164E-02  0.1186339E+00
        -11   -1    0    0    0    0  0.00000000000E+00  0.00000000000E+00  0.45593999997E+02  0.45594000000E+02  0.51100000000E-03 0.  1.
         11   -1    0    0    0    0 -0.00000000000E+00 -0.00000000000E+00 -0.45593999997E+02  0.45594000000E+02  0.51100000000E-03 0. -1.
    9900012    2    1    2    0    0 -0.38160012443E+00 -0.10148365243E+01  0.46639927511E+00  0.90007728798E+02  0.89999990018E+02 0.  0.
         12    1    1    2    0    0  0.38160012443E+00  0.10148365243E+01 -0.46639927511E+00  0.11802712018E+01  0.00000000000E+00 0. -1.
         11    1    3    3    0    0  0.65578700798E+01 -0.85861899582E+01 -0.43631526387E+01  0.11651841880E+02  0.51100000000E-03 0. -1.
        -11    1    3    3    0    0  0.23237267362E+02 -0.17326515953E+02 -0.16951937568E+02  0.33578965695E+02  0.51100000000E-03 0.  1.
         12    1    3    3    0    0 -0.30176737567E+02  0.24897869387E+02  0.21781489482E+02  0.44776921224E+02  0.00000000000E+00 0. -1.
</event>
<event>
 7    1  0.4520336E-015  0.9000787E+02  0.7816164E-02  0.1186339E+00
        -11   -1    0    0    0    0  0.00000000000E+00  0.00000000000E+00  0.45593999997E+02  0.45594000000E+02  0.51100000000E-03 0.  1.
         11   -1    0    0    0    0 -0.00000000000E+00 -0.00000000000E+00 -0.45593999997E+02  0.45594000000E+02  0.51100000000E-03 0. -1.
    9900012    2    1    2    0    0 -0.19931544833E+00 -0.98175334174E+00  0.62380723760E+00  0.90007872150E+02  0.90000135263E+02 0.  0.
         12    1    1    2    0    0  0.19931544833E+00  0.98175334174E+00 -0.62380723760E+00  0.11801278497E+01  0.00000000000E+00 0. -1.
         11    1    3    3    0    0  0.25794593213E+02 -0.85012629858E+01  0.19694234587E+01  0.27230702165E+02  0.51100000000E-03 0. -1.
        -11    1    3    3    0    0 -0.49658014297E+01 -0.24129020180E+02 -0.25067899729E+01  0.24761922278E+02  0.51100000000E-03 0.  1.
         12    1    3    3    0    0 -0.21028107232E+02  0.31648529824E+02  0.11611737518E+01  0.38015247707E+02  0.00000000000E+00 0. -1.
</event>
<event>
 7    1  0.4520336E-015  0.9000776E+02  0.7816164E-02  0.1186339E+00
        -11   -1    0    0    0    0  0.00000000000E+00  0.00000000000E+00  0.45593999997E+02  0.45594000000E+02  0.51100000000E-03 0. -1.
         11   -1    0    0    0    0 -0.00000000000E+00 -0.00000000000E+00 -0.45593999997E+02  0.45594000000E+02  0.51100000000E-03 0.  1.
    9900012    2    1    2    0    0 -0.59282966081E+00  0.10105147944E+01 -0.14274022556E+00  0.90007761919E+02  0.90000023576E+02 0.  0.
         12    1    1    2    0    0  0.59282966081E+00 -0.10105147944E+01  0.14274022556E+00  0.11802380813E+01  0.00000000000E+00 0. -1.
         11    1    3    3    0    0 -0.64019318309E+01  0.23654270296E+02  0.33645450765E+02  0.41623618197E+02  0.51100000000E-03 0. -1.
        -11    1    3    3    0    0  0.14081764650E-01  0.53985582628E+01 -0.90761685784E+01  0.10560372434E+02  0.51100000000E-03 0.  1.
        -12    1    3    3    0    0  0.57950204054E+01 -0.28042313764E+02 -0.24712022412E+02  0.37823771288E+02  0.00000000000E+00 0.  1.
</event>
<event>
 7    1  0.4520336E-015  0.9000763E+02  0.7816164E-02  0.1186339E+00
        -11   -1    0    0    0    0  0.00000000000E+00  0.00000000000E+00  0.45593999997E+02  0.45594000000E+02  0.51100000000E-03 0.  1.
         11   -1    0    0    0    0 -0.00000000000E+00 -0.00000000000E+00 -0.45593999997E+02  0.45594000000E+02  0.51100000000E-03 0. -1.
    9900012    2    1    2    0    0  0.30424953673E-01 -0.55653113513E+00  0.10404946478E+01  0.90007626460E+02  0.89999886329E+02 0.  0.
         12    1    1    2    0    0 -0.30424953673E-01  0.55653113513E+00 -0.10404946478E+01  0.11803735401E+01  0.00000000000E+00 0. -1.
         11    1    3    3    0    0 -0.24119589220E+01  0.10164866323E+02 -0.23460796183E+01  0.10707293918E+02  0.51100000000E-03 0. -1.
        -11    1    3    3    0    0 -0.31877525586E+02  0.46208520986E+01  0.20304076841E+02  0.38076035091E+02  0.51100000000E-03 0.  1.
         12    1    3    3    0    0  0.34319909462E+02 -0.15342249557E+02 -0.16917502575E+02  0.41224297451E+02  0.00000000000E+00 0. -1.
</event>
<event>
 7    1  0.4520336E-015  0.9000766E+02  0.7816164E-02  0.1186339E+00
        -11   -1    0    0    0    0  0.00000000000E+00  0.00000000000E+00  0.45593999997E+02  0.45594000000E+02  0.51100000000E-03 0.  1.
         11   -1    0    0    0    0 -0.00000000000E+00 -0.00000000000E+00 -0.45593999997E+02  0.45594000000E+02  0.51100000000E-03 0. -1.
    9900012    2    1    2    0    0  0.80684199788E+00  0.60612259106E+00  0.61222653013E+00  0.90007661096E+02  0.89999921422E+02 0.  0.
         12    1    1    2    0    0 -0.80684199788E+00 -0.60612259106E+00 -0.61222653013E+00  0.11803389044E+01  0.00000000000E+00 0. -1.
         11    1    3    3    0    0 -0.33355658636E+01 -0.99729358432E+01 -0.50955907953E+01  0.11685482223E+02  0.51100000000E-03 0. -1.
        -11    1    3    3    0    0  0.22358096413E+02 -0.27533899197E+02 -0.13519005727E+01  0.35494051834E+02  0.51100000000E-03 0.  1.
         12    1    3    3    0    0 -0.18215688551E+02  0.38112957631E+02  0.70597178981E+01  0.42828127038E+02  0.00000000000E+00 0. -1.
</event>
<event>
 7    1  0.4520336E-015  0.9000789E+02  0.7816164E-02  0.1186339E+00
        -11   -1    0    0    0    0  0.00000000000E+00  0.00000000000E+00  0.45593999997E+02  0.45594000000E+02  0.51100000000E-03 0.  1.
         11   -1    0    0    0    0 -0.00000000000E+00 -0.00000000000E+00 -0.45593999997E+02  0.45594000000E+02  0.51100000000E-03 0. -1.
    9900012    2    1    2    0    0  0.83554406995E+00  0.82544035871E+00  0.11478278505E+00  0.90007889511E+02  0.90000152852E+02 0.  0.
         12    1    1    2    0    0 -0.83554406995E+00 -0.82544035871E+00 -0.11478278505E+00  0.11801104890E+01  0.00000000000E+00 0. -1.
         11    1    3    3    0    0  0.36586177896E+02 -0.12879754907E+02 -0.15011413024E+01  0.38816103939E+02  0.51100000000E-03 0. -1.
        -11    1    3    3    0    0  0.45721575274E+01  0.58912559840E+01 -0.58093889712E+01  0.94530694489E+01  0.51100000000E-03 0.  1.
        -12    1    3    3    0    0 -0.40322791353E+02  0.78139392817E+01  0.74253130587E+01  0.41738716124E+02  0.00000000000E+00 0.  1.
</event>
<event>
 7    1  0.4520336E-015  0.9000762E+02  0.7816164E-02  0.1186339E+00
        -11   -1    0    0    0    0  0.00000000000E+00  0.00000000000E+00  0.45593999997E+02  0.45594000000E+02  0.51100000000E-03 0. -1.
         11   -1    0    0    0    0 -0.00000000000E+00 -0.00000000000E+00 -0.45593999997E+02  0.45594000000E+02  0.51100000000E-03 0.  1.
    9900012    2    1    2    0    0  0.27279628933E+00  0.11002025640E+01 -0.32929051223E+00  0.90007620511E+02  0.89999880301E+02 0.  0.
         12    1    1    2    0    0 -0.27279628933E+00 -0.11002025640E+01  0.32929051223E+00  0.11803794893E+01  0.00000000000E+00 0. -1.
         11    1    3    3    0    0 -0.48349507780E+01  0.95981819484E+01  0.58120901225E-01  0.10747335672E+02  0.51100000000E-03 0. -1.
        -11    1    3    3    0    0 -0.74591666456E+01 -0.17426524038E+02 -0.35871617566E+02  0.40572106849E+02  0.51100000000E-03 0.  1.
         12    1    3    3    0    0  0.12566913713E+02  0.89285446537E+01  0.35484206153E+02  0.38688177990E+02  0.00000000000E+00 0. -1.
</event>
<event>
 7    1  0.4520336E-015  0.9000656E+02  0.7816164E-02  0.1186341E+00
        -11   -1    0    0    0    0  0.00000000000E+00  0.00000000000E+00  0.45593999997E+02  0.45594000000E+02  0.51100000000E-03 0.  1.
         11   -1    0    0    0    0 -0.00000000000E+00 -0.00000000000E+00 -0.45593999997E+02  0.45594000000E+02  0.51100000000E-03 0. -1.
    9900012    2    1    2    0    0  0.98742552633E+00  0.24608186430E+00 -0.60020191360E+00  0.90006556903E+02  0.89998802646E+02 0.  0.
         12    1    1    2    0    0 -0.98742552633E+00 -0.24608186430E+00  0.60020191360E+00  0.11814430968E+01  0.00000000000E+00 0. -1.
         11    1    3    3    0    0  0.13019790404E+02  0.22696179972E+02 -0.22451982997E+02  0.34477863453E+02  0.51100000000E-03 0. -1.
        -11    1    3    3    0    0 -0.20913775154E+01  0.66661981355E+01 -0.93747181119E+01  0.11691766224E+02  0.51100000000E-03 0.  1.
        -12    1    3    3    0    0 -0.99409873627E+01 -0.29116296243E+02  0.31226499195E+02  0.43836927227E+02  0.00000000000E+00 0.  1.
</event>
<event>
 7    1  0.4520336E-015  0.9000775E+02  0.7816164E-02  0.1186339E+00
        -11   -1    0    0    0    0  0.00000000000E+00  0.00000000000E+00  0.45593999997E+02  0.45594000000E+02  0.51100000000E-03 0. -1.
         11   -1    0    0    0    0 -0.00000000000E+00 -0.00000000000E+00 -0.45593999997E+02  0.45594000000E+02  0.51100000000E-03 0.  1.
    9900012    2    1    2    0    0 -0.86241913266E+00 -0.74597167110E+00  0.30455075126E+00  0.90007749326E+02  0.90000010817E+02 0.  0.
         12    1    1    2    0    0  0.86241913266E+00  0.74597167110E+00 -0.30455075126E+00  0.11802506745E+01  0.00000000000E+00 0. -1.
         11    1    3    3    0    0  0.43512203354E+01  0.70654856796E+01  0.49073057695E-01  0.82979885950E+01  0.51100000000E-03 0. -1.
        -11    1    3    3    0    0  0.18772129432E+02 -0.10494910853E+02 -0.33743837543E+02  0.40014779390E+02  0.51100000000E-03 0.  1.
         12    1    3    3    0    0 -0.23985768900E+02  0.26834535020E+01  0.33999315237E+02  0.41694981341E+02  0.00000000000E+00 0. -1.
</event>
<event>
 7    1  0.4520336E-015  0.9000791E+02  0.7816164E-02  0.1186339E+00
        -11   -1    0    0    0    0  0.00000000000E+00  0.00000000000E+00  0.45593999997E+02  0.45594000000E+02  0.51100000000E-03 0. -1.
         11   -1    0    0    0    0 -0.00000000000E+00 -0.00000000000E+00 -0.45593999997E+02  0.45594000000E+02  0.51100000000E-03 0.  1.
    9900012    2    1    2    0    0  0.59754734034E-01  0.99951950922E+00 -0.62450994645E+00  0.90007905703E+02  0.90000169258E+02 0.  0.
         12    1    1    2    0    0 -0.59754734034E-01 -0.99951950922E+00  0.62450994645E+00  0.11800942974E+01  0.00000000000E+00 0. -1.
         11    1    3    3    0    0 -0.94227571431E-01  0.10116539498E+02 -0.90610724119E+01  0.13581468395E+02  0.51100000000E-03 0. -1.
        -11    1    3    3    0    0 -0.10340686448E+02 -0.96189632894E+01 -0.31824287807E+02  0.34817230586E+02  0.51100000000E-03 0.  1.
         12    1    3    3    0    0  0.10494668753E+02  0.50194330010E+00  0.40260850273E+02  0.41609206721E+02  0.00000000000E+00 0. -1.
</event>
<event>
 7    1  0.4520336E-015  0.9000764E+02  0.7816164E-02  0.1186339E+00
        -11   -1    0    0    0    0  0.00000000000E+00  0.00000000000E+00  0.45593999997E+02  0.45594000000E+02  0.51100000000E-03 0. -1.
         11   -1    0    0    0    0 -0.00000000000E+00 -0.00000000000E+00 -0.45593999997E+02  0.45594000000E+02  0.51100000000E-03 0.  1.
    9900012    2    1    2    0    0 -0.65441295589E+00 -0.61450682594E+00 -0.76640557823E+00  0.90007638841E+02  0.89999898873E+02 0.  0.
         12    1    1    2    0    0  0.65441295589E+00  0.61450682594E+00  0.76640557823E+00  0.11803611593E+01  0.00000000000E+00 0. -1.
         11    1    3    3    0    0  0.86447073971E+01 -0.21457875432E+00  0.57559554751E+01  0.10387879173E+02  0.51100000000E-03 0. -1.
        -11    1    3    3    0    0 -0.37248057106E+02  0.19914287954E+02  0.64224810281E+01  0.42722884801E+02  0.51100000000E-03 0.  1.
         12    1    3    3    0    0  0.27948936753E+02 -0.20314216026E+02 -0.12944842081E+02  0.36896874866E+02  0.00000000000E+00 0. -1.
</event>
<event>
 7    1  0.4520336E-015  0.9000766E+02  0.7816164E-02  0.1186339E+00
        -11   -1    0    0    0    0  0.00000000000E+00  0.00000000000E+00  0.45593999997E+02  0.45594000000E+02  0.51100000000E-03 0. -1.
         11   -1    0    0    0    0 -0.00000000000E+00 -0.00000000000E+00 -0.45593999997E+02  0.45594000000E+02  0.51100000000E-03 0.  1.
    9900012    2    1    2    0    0 -0.42897075405E+00  0.95685345176E+00 -0.54185629675E+00  0.90007664165E+02  0.89999924532E+02 0.  0.
         12    1    1    2    0    0  0.42897075405E+00 -0.95685345176E+00  0.54185629675E+00  0.11803358345E+01  0.00000000000E+00 0. -1.
         11    1    3    3    0    0 -0.73469159510E+01 -0.37237342983E+01  0.45067060610E+01  0.93890239587E+01  0.51100000000E-03 0. -1.
        -11    1    3    3    0    0 -0.17336960802E+02 -0.29990899677E+02  0.94212674300E+01  0.35899645590E+02  0.51100000000E-03 0.  1.
         12    1    3    3    0    0  0.24254905999E+02  0.34671487427E+02 -0.14469829788E+02  0.44718994616E+02  0.00000000000E+00 0. -1.
</event>
<event>
 7    1  0.4520336E-015  0.9000770E+02  0.7816164E-02  0.1186339E+00
        -11   -1    0    0    0    0  0.00000000000E+00  0.00000000000E+00  0.45593999997E+02  0.45594000000E+02  0.51100000000E-03 0.  1.
         11   -1    0    0    0    0 -0.00000000000E+00 -0.00000000000E+00 -0.45593999997E+02  0.45594000000E+02  0.51100000000E-03 0. -1.
    9900012    2    1    2    0    0 -0.90770595431E+00  0.91028591312E-01  0.74892609817E+00  0.90007700629E+02  0.89999961478E+02 0.  0.
         12    1    1    2    0    0  0.90770595431E+00 -0.91028591312E-01 -0.74892609817E+00  0.11802993707E+01  0.00000000000E+00 0. -1.
         11    1    3    3    0    0  0.20142715078E+02 -0.15871770146E+02 -0.23850102157E+02  0.35020985587E+02  0.51100000000E-03 0. -1.
        -11    1    3    3    0    0  0.61731244114E+01  0.64782302036E+01 -0.76198888727E+01  0.11753196938E+02  0.51100000000E-03 0.  1.
        -12    1    3    3    0    0 -0.27223545444E+02  0.94845685340E+01  0.32218917128E+02  0.43233518105E+02  0.00000000000E+00 0.  1.
</event>
<event>
 7    1  0.4520336E-015  0.9000772E+02  0.7816164E-02  0.1186339E+00
        -11   -1    0    0    0    0  0.00000000000E+00  0.00000000000E+00  0.45593999997E+02  0.45594000000E+02  0.51100000000E-03 0.  1.
         11   -1    0    0    0    0 -0.00000000000E+00 -0.00000000000E+00 -0.45593999997E+02  0.45594000000E+02  0.51100000000E-03 0. -1.
    9900012    2    1    2    0    0  0.78174858315E+00 -0.85667666263E+00  0.21914660000E+00  0.90007724192E+02  0.89999985351E+02 0.  0.
         12    1    1    2    0    0 -0.78174858315E+00  0.85667666263E+00 -0.21914660000E+00  0.11802758084E+01  0.00000000000E+00 0. -1.
         11    1    3    3    0    0 -0.25844496624E+02 -0.25018692316E+02 -0.15240740070E+02  0.39066009895E+02  0.51100000000E-03 0. -1.
        -11    1    3    3    0    0  0.13168499713E+01 -0.58621711129E+01 -0.38971036186E+01  0.71614635989E+01  0.51100000000E-03 0.  1.
        -12    1    3    3    0    0  0.25309395236E+02  0.30024186766E+02  0.19356990288E+02  0.43780250698E+02  0.00000000000E+00 0.  1.
</event>
<event>
 7    1  0.4520336E-015  0.9000768E+02  0.7816164E-02  0.1186339E+00
        -11   -1    0    0    0    0  0.00000000000E+00  0.00000000000E+00  0.45593999997E+02  0.45594000000E+02  0.51100000000E-03 0.  1.
         11   -1    0    0    0    0 -0.00000000000E+00 -0.00000000000E+00 -0.45593999997E+02  0.45594000000E+02  0.51100000000E-03 0. -1.
    9900012    2    1    2    0    0  0.38398286012E+00 -0.85368643810E+00  0.71898165145E+00  0.90007678863E+02  0.89999939424E+02 0.  0.
         12    1    1    2    0    0 -0.38398286012E+00  0.85368643810E+00 -0.71898165145E+00  0.11803211371E+01  0.00000000000E+00 0. -1.
         11    1    3    3    0    0  0.94140016611E+01 -0.11842254085E+01  0.13091247857E+00  0.94890966604E+01  0.51100000000E-03 0. -1.
        -11    1    3    3    0    0  0.31991161315E+02  0.16469803100E+02 -0.39772018294E+01  0.36200924727E+02  0.51100000000E-03 0.  1.
         12    1    3    3    0    0 -0.41021180116E+02 -0.16139264130E+02  0.45652710023E+01  0.44317657475E+02  0.00000000000E+00 0. -1.
</event>
<event>
 7    1  0.4520336E-015  0.9000778E+02  0.7816164E-02  0.1186339E+00
        -11   -1    0    0    0    0  0.00000000000E+00  0.00000000000E+00  0.45593999997E+02  0.45594000000E+02  0.51100000000E-03 0.  1.
         11   -1    0    0    0    0 -0.00000000000E+00 -0.00000000000E+00 -0.45593999997E+02  0.45594000000E+02  0.51100000000E-03 0. -1.
    9900012    2    1    2    0    0  0.80190536073E+00 -0.21019250665E+00  0.84004605375E+00  0.90007783719E+02  0.90000045664E+02 0.  0.
         12    1    1    2    0    0 -0.80190536073E+00  0.21019250665E+00 -0.84004605375E+00  0.11802162810E+01  0.00000000000E+00 0. -1.
         11    1    3    3    0    0  0.33685791284E+02  0.17804839859E+02  0.27972365444E+01  0.38204311136E+02  0.51100000000E-03 0. -1.
        -11    1    3    3    0    0  0.43866510316E+01  0.11578996474E+00  0.80477898298E+01  0.91664080203E+01  0.51100000000E-03 0.  1.
        -12    1    3    3    0    0 -0.37270536955E+02 -0.18130822331E+02 -0.10004980320E+02  0.42637064562E+02  0.00000000000E+00 0.  1.
</event>
<event>
 7    1  0.4520336E-015  0.9000773E+02  0.7816164E-02  0.1186339E+00
        -11   -1    0    0    0    0  0.00000000000E+00  0.00000000000E+00  0.45593999997E+02  0.45594000000E+02  0.51100000000E-03 0.  1.
         11   -1    0    0    0    0 -0.00000000000E+00 -0.00000000000E+00 -0.45593999997E+02  0.45594000000E+02  0.51100000000E-03 0. -1.
    9900012    2    1    2    0    0 -0.73422855815E+00  0.90259714088E+00 -0.19817991329E+00  0.90007725264E+02  0.89999986438E+02 0.  0.
         12    1    1    2    0    0  0.73422855815E+00 -0.90259714088E+00  0.19817991329E+00  0.11802747360E+01  0.00000000000E+00 0. -1.
         11    1    3    3    0    0 -0.11019839993E+01 -0.50280462959E+01  0.71120559962E+01  0.87793484407E+01  0.51100000000E-03 0. -1.
        -11    1    3    3    0    0 -0.75969612715E+01  0.11808769447E+02  0.35033670104E+02  0.37742799281E+02  0.51100000000E-03 0.  1.
         12    1    3    3    0    0  0.79647167126E+01 -0.58781260098E+01 -0.42343906013E+02  0.43485577542E+02  0.00000000000E+00 0. -1.
</event>
<event>
 7    1  0.4520336E-015  0.9000788E+02  0.7816164E-02  0.1186339E+00
        -11   -1    0    0    0    0  0.00000000000E+00  0.00000000000E+00  0.45593999997E+02  0.45594000000E+02  0.51100000000E-03 0. -1.
         11   -1    0    0    0    0 -0.00000000000E+00 -0.00000000000E+00 -0.45593999997E+02  0.45594000000E+02  0.51100000000E-03 0.  1.
    9900012    2    1    2    0    0 -0.53975051695E+00 -0.96613579026E+00 -0.40981154515E+00  0.90007875223E+02  0.90000138376E+02 0.  0.
         12    1    1    2    0    0  0.53975051695E+00  0.96613579026E+00  0.40981154515E+00  0.11801247766E+01  0.00000000000E+00 0. -1.
         11    1    3    3    0    0  0.25173517103E+02 -0.24328799834E+02 -0.18302757287E+02  0.39504270519E+02  0.51100000000E-03 0. -1.
        -11    1    3    3    0    0  0.29085932880E+01 -0.43497951913E+01  0.78219639430E+01  0.94108317012E+01  0.51100000000E-03 0.  1.
        -12    1    3    3    0    0 -0.28621860908E+02  0.27712459235E+02  0.10070981799E+02  0.41092773003E+02  0.00000000000E+00 0.  1.
</event>
<event>
 7    1  0.4520336E-015  0.9000775E+02  0.7816164E-02  0.1186339E+00
        -11   -1    0    0    0    0  0.00000000000E+00  0.00000000000E+00  0.45593999997E+02  0.45594000000E+02  0.51100000000E-03 0.  1.
         11   -1    0    0    0    0 -0.00000000000E+00 -0.00000000000E+00 -0.45593999997E+02  0.45594000000E+02  0.51100000000E-03 0. -1.
    9900012    2    1    2    0    0 -0.36819638645E-01 -0.21750649182E+00  0.11594496874E+01  0.90007750731E+02  0.90000012241E+02 0.  0.
         12    1    1    2    0    0  0.36819638645E-01  0.21750649182E+00 -0.11594496874E+01  0.11802492691E+01  0.00000000000E+00 0. -1.
         11    1    3    3    0    0  0.24678798830E+02  0.29748400143E+02  0.12758381441E+01  0.38673481689E+02  0.51100000000E-03 0. -1.
        -11    1    3    3    0    0 -0.74765792878E+00  0.36613763617E+01  0.83791409949E+01  0.91746756517E+01  0.51100000000E-03 0.  1.
        -12    1    3    3    0    0 -0.23967960540E+02 -0.33627282996E+02 -0.84955294517E+01  0.42159593390E+02  0.00000000000E+00 0.  1.
</event>
<event>
 7    1  0.4520336E-015  0.9000773E+02  0.7816164E-02  0.1186339E+00
        -11   -1    0    0    0    0  0.00000000000E+00  0.00000000000E+00  0.45593999997E+02  0.45594000000E+02  0.51100000000E-03 0.  1.
         11   -1    0    0    0    0 -0.00000000000E+00 -0.00000000000E+00 -0.45593999997E+02  0.45594000000E+02  0.51100000000E-03 0. -1.
    9900012    2    1    2    0    0 -0.24744239672E+00  0.10788407943E+01  0.40977051277E+00  0.90007730085E+02  0.89999991322E+02 0.  0.
         12    1    1    2    0    0  0.24744239672E+00 -0.10788407943E+01 -0.40977051277E+00  0.11802699150E+01  0.00000000000E+00 0. -1.
         11    1    3    3    0    0 -0.28848206779E+02  0.31205575380E+02  0.42235917916E+01  0.42706506495E+02  0.51100000000E-03 0. -1.
        -11    1    3    3    0    0 -0.26038624547E+01 -0.83203421858E+01 -0.30116621507E+01  0.92237900530E+01  0.51100000000E-03 0.  1.
        -12    1    3    3    0    0  0.31204626836E+02 -0.21806392400E+02 -0.80215912811E+00  0.38077433537E+02  0.00000000000E+00 0.  1.
</event>
<event>
 7    1  0.4520336E-015  0.9000779E+02  0.7816164E-02  0.1186339E+00
        -11   -1    0    0    0    0  0.00000000000E+00  0.00000000000E+00  0.45593999997E+02  0.45594000000E+02  0.51100000000E-03 0. -1.
         11   -1    0    0    0    0 -0.00000000000E+00 -0.00000000000E+00 -0.45593999997E+02  0.45594000000E+02  0.51100000000E-03 0.  1.
    9900012    2    1    2    0    0 -0.60446499442E+00  0.43705020359E+00 -0.91460286273E+00  0.90007792727E+02  0.90000054791E+02 0.  0.
         12    1    1    2    0    0  0.60446499442E+00 -0.43705020359E+00  0.91460286273E+00  0.11802072727E+01  0.00000000000E+00 0. -1.
         11    1    3    3    0    0  0.41910075681E+01 -0.39974826500E+01  0.64889815324E+01  0.86977752076E+01  0.51100000000E-03 0. -1.
        -11    1    3    3    0    0 -0.26289073060E+02 -0.27631618409E+02 -0.16649024594E+02  0.41615041973E+02  0.51100000000E-03 0.  1.
         12    1    3    3    0    0  0.21493600497E+02  0.32066151263E+02  0.92454401993E+01  0.39694975546E+02  0.00000000000E+00 0. -1.
</event>
<event>
 7    1  0.4520336E-015  0.9000772E+02  0.7816164E-02  0.1186339E+00
        -11   -1    0    0    0    0  0.00000000000E+00  0.00000000000E+00  0.45593999997E+02  0.45594000000E+02  0.51100000000E-03 0. -1.
         11   -1    0    0    0    0 -0.00000000000E+00 -0.00000000000E+00 -0.45593999997E+02  0.45594000000E+02  0.51100000000E-03 0.  1.
    9900012    2    1    2    0    0  0.96801128915E+00  0.66133036663E+00 -0.13661389255E+00  0.90007717379E+02  0.89999978448E+02 0.  0.
         12    1    1    2    0    0 -0.96801128915E+00 -0.66133036663E+00  0.13661389255E+00  0.11802826210E+01  0.00000000000E+00 0. -1.
         11    1    3    3    0    0  0.56661921333E+01  0.30701191513E+02  0.26740780495E+02  0.41106425718E+02  0.51100000000E-03 0. -1.
        -11    1    3    3    0    0 -0.33685374175E+00  0.52601026340E+01 -0.30547224359E+01  0.60920833534E+01  0.51100000000E-03 0.  1.
        -12    1    3    3    0    0 -0.43613271024E+01 -0.35299963780E+02 -0.23822671951E+02  0.42809208307E+02  0.00000000000E+00 0.  1.
</event>
<event>
 7    1  0.4520336E-015  0.9000779E+02  0.7816164E-02  0.1186339E+00
        -11   -1    0    0    0    0  0.00000000000E+00  0.00000000000E+00  0.45593999997E+02  0.45594000000E+02  0.51100000000E-03 0.  1.
         11   -1    0    0    0    0 -0.00000000000E+00 -0.00000000000E+00 -0.45593999997E+02  0.45594000000E+02  0.51100000000E-03 0. -1.
    9900012    2    1    2    0    0 -0.89134308242E+00  0.52432100696E+00  0.56877238569E+00  0.90007785174E+02  0.90000047138E+02 0.  0.
         12    1    1    2    0    0  0.89134308242E+00 -0.52432100696E+00 -0.56877238569E+00  0.11802148261E+01  0.00000000000E+00 0. -1.
         11    1    3    3    0    0 -0.78623283322E+01  0.68319906006E+01 -0.68121619618E+00  0.10438216234E+02  0.51100000000E-03 0. -1.
        -11    1    3    3    0    0 -0.27448592282E+02  0.13453156561E+02  0.19107221921E+02  0.36048558494E+02  0.51100000000E-03 0.  1.
         12    1    3    3    0    0  0.34419577532E+02 -0.19760826154E+02 -0.17857233339E+02  0.43521010446E+02  0.00000000000E+00 0. -1.
</event>
<event>
 7    1  0.4520336E-015  0.9000779E+02  0.7816164E-02  0.1186339E+00
        -11   -1    0    0    0    0  0.00000000000E+00  0.00000000000E+00  0.45593999997E+02  0.45594000000E+02  0.51100000000E-03 0.  1.
         11   -1    0    0    0    0 -0.00000000000E+00 -0.00000000000E+00 -0.45593999997E+02  0.45594000000E+02  0.51100000000E-03 0. -1.
    9900012    2    1    2    0    0  0.98043650133E-01  0.10582143449E+01 -0.51328689388E+00  0.90007790869E+02  0.90000052909E+02 0.  0.
         12    1    1    2    0    0 -0.98043650133E-01 -0.10582143449E+01  0.51328689388E+00  0.11802091308E+01  0.00000000000E+00 0. -1.
         11    1    3    3    0    0 -0.45472722509E+01  0.20528714786E+01 -0.40118644448E+01  0.64021108094E+01  0.51100000000E-03 0. -1.
        -11    1    3    3    0    0 -0.22373840857E+02 -0.30801671343E+02  0.16263714420E+02  0.41398552139E+02  0.51100000000E-03 0.  1.
         12    1    3    3    0    0  0.27019156758E+02  0.29807014209E+02 -0.12765136869E+02  0.42207127920E+02  0.00000000000E+00 0. -1.
</event>
<event>
 7    1  0.4520336E-015  0.9000775E+02  0.7816164E-02  0.1186339E+00
        -11   -1    0    0    0    0  0.00000000000E+00  0.00000000000E+00  0.45593999997E+02  0.45594000000E+02  0.51100000000E-03 0.  1.
         11   -1    0    0    0    0 -0.00000000000E+00 -0.00000000000E+00 -0.45593999997E+02  0.45594000000E+02  0.51100000000E-03 0. -1.
    9900012    2    1    2    0    0 -0.30781301885E-01  0.11648515895E+01 -0.18751724840E+00  0.90007750267E+02  0.90000011770E+02 0.  0.
         12    1    1    2    0    0  0.30781301885E-01 -0.11648515895E+01  0.18751724840E+00  0.11802497331E+01  0.00000000000E+00 0. -1.
         11    1    3    3    0    0 -0.30514098983E+02  0.21787928402E+02 -0.15320057756E+02  0.40503434801E+02  0.51100000000E-03 0. -1.
        -11    1    3    3    0    0  0.84274053357E+00  0.63890456071E+01  0.49585947216E+01  0.81312838624E+01  0.51100000000E-03 0.  1.
        -12    1    3    3    0    0  0.29640577147E+02 -0.27012122419E+02  0.10173945786E+02  0.41373031604E+02  0.00000000000E+00 0.  1.
</event>
<event>
 7    1  0.4520336E-015  0.9000759E+02  0.7816164E-02  0.1186339E+00
        -11   -1    0    0    0    0  0.00000000000E+00  0.00000000000E+00  0.45593999997E+02  0.45594000000E+02  0.51100000000E-03 0.  1.
         11   -1    0    0    0    0 -0.00000000000E+00 -0.00000000000E+00 -0.45593999997E+02  0.45594000000E+02  0.51100000000E-03 0. -1.
    9900012    2    1    2    0    0 -0.10809241925E+01  0.38172997144E+00 -0.28151412828E+00  0.90007591136E+02  0.89999850539E+02 0.  0.
         12    1    1    2    0    0  0.10809241925E+01 -0.38172997144E+00  0.28151412828E+00  0.11804088637E+01  0.00000000000E+00 0. -1.
         11    1    3    3    0    0 -0.61394085074E+01 -0.16003350251E+01 -0.73344499693E+01  0.96978124145E+01  0.51100000000E-03 0. -1.
        -11    1    3    3    0    0 -0.74505035338E+01 -0.36254692990E+02 -0.70515826523E+01  0.37678078307E+02  0.51100000000E-03 0.  1.
         12    1    3    3    0    0  0.12508987849E+02  0.38236757987E+02  0.14104518493E+02  0.42631700415E+02  0.00000000000E+00 0. -1.
</event>
<event>
 7    1  0.4520336E-015  0.9000776E+02  0.7816164E-02  0.1186339E+00
        -11   -1    0    0    0    0  0.00000000000E+00  0.00000000000E+00  0.45593999997E+02  0.45594000000E+02  0.51100000000E-03 0. -1.
         11   -1    0    0    0    0 -0.00000000000E+00 -0.00000000000E+00 -0.45593999997E+02  0.45594000000E+02  0.51100000000E-03 0.  1.
    9900012    2    1    2    0    0  0.36722185003E-01 -0.11166610687E+01 -0.38037376721E+00  0.90007760760E+02  0.90000022402E+02 0.  0.
         12    1    1    2    0    0 -0.36722185003E-01  0.11166610687E+01  0.38037376721E+00  0.11802392401E+01  0.00000000000E+00 0. -1.
         11    1    3    3    0    0 -0.41998008912E+00 -0.92286935514E+01 -0.10323522757E+01  0.92957473837E+01  0.51100000000E-03 0. -1.
        -11    1    3    3    0    0 -0.18269019583E+02 -0.26852271872E+02 -0.17723708751E+02  0.36999073412E+02  0.51100000000E-03 0.  1.
         12    1    3    3    0    0  0.18725721857E+02  0.34964304355E+02  0.18375687259E+02  0.43712939964E+02  0.00000000000E+00 0. -1.
</event>
<event>
 7    1  0.4520336E-015  0.9000817E+02  0.7816164E-02  0.1186338E+00
        -11   -1    0    0    0    0  0.00000000000E+00  0.00000000000E+00  0.45593999997E+02  0.45594000000E+02  0.51100000000E-03 0.  1.
         11   -1    0    0    0    0 -0.00000000000E+00 -0.00000000000E+00 -0.45593999997E+02  0.45594000000E+02  0.51100000000E-03 0. -1.
    9900012    2    1    2    0    0  0.69244855454E+00  0.74349964706E+00  0.59976034890E+00  0.90008174080E+02  0.90000441177E+02 0.  0.
         12    1    1    2    0    0 -0.69244855454E+00 -0.74349964706E+00 -0.59976034890E+00  0.11798259202E+01  0.00000000000E+00 0. -1.
         11    1    3    3    0    0 -0.87702227058E+01  0.40098281629E+02 -0.87440759782E+01  0.41967223650E+02  0.51100000000E-03 0. -1.
        -11    1    3    3    0    0  0.98807873418E+01 -0.36798021865E+01 -0.17293322068E+01  0.10684638167E+02  0.51100000000E-03 0.  1.
        -12    1    3    3    0    0 -0.41811608148E+00 -0.35674979796E+02  0.11073168534E+02  0.37356312262E+02  0.00000000000E+00 0.  1.
</event>
<event>
 7    1  0.4520336E-015  0.9000781E+02  0.7816164E-02  0.1186339E+00
        -11   -1    0    0    0    0  0.00000000000E+00  0.00000000000E+00  0.45593999997E+02  0.45594000000E+02  0.51100000000E-03 0. -1.
         11   -1    0    0    0    0 -0.00000000000E+00 -0.00000000000E+00 -0.45593999997E+02  0.45594000000E+02  0.51100000000E-03 0.  1.
    9900012    2    1    2    0    0  0.46218374345E+00 -0.55519959134E+00 -0.93326445567E+00  0.90007812327E+02  0.90000074650E+02 0.  0.
         12    1    1    2    0    0 -0.46218374345E+00  0.55519959134E+00  0.93326445567E+00  0.11801876729E+01  0.00000000000E+00 0. -1.
         11    1    3    3    0    0 -0.18043747695E+02 -0.14172002569E+02  0.13663386246E+02  0.26704130985E+02  0.51100000000E-03 0. -1.
        -11    1    3    3    0    0 -0.37817960058E+01  0.99023961034E+01  0.19619698799E+02  0.22300045086E+02  0.51100000000E-03 0.  1.
        -12    1    3    3    0    0  0.22287727444E+02  0.37144068747E+01 -0.34216349501E+02  0.41003636256E+02  0.00000000000E+00 0.  1.
</event>
<event>
 7    1  0.4520336E-015  0.9000715E+02  0.7816164E-02  0.1186340E+00
        -11   -1    0    0    0    0  0.00000000000E+00  0.00000000000E+00  0.45593999997E+02  0.45594000000E+02  0.51100000000E-03 0.  1.
         11   -1    0    0    0    0 -0.00000000000E+00 -0.00000000000E+00 -0.45593999997E+02  0.45594000000E+02  0.51100000000E-03 0. -1.
    9900012    2    1    2    0    0  0.87361943664E+00 -0.75714875920E+00  0.24066364485E+00  0.90007151088E+02  0.89999404680E+02 0.  0.
         12    1    1    2    0    0 -0.87361943664E+00  0.75714875920E+00 -0.24066364485E+00  0.11808489123E+01  0.00000000000E+00 0. -1.
         11    1    3    3    0    0 -0.13395804332E+01 -0.16449424658E+01  0.85234596099E+01  0.87834887963E+01  0.51100000000E-03 0. -1.
        -11    1    3    3    0    0 -0.10440286961E+02 -0.30975454884E+02  0.18643051328E+02  0.37630330322E+02  0.51100000000E-03 0.  1.
         12    1    3    3    0    0  0.12653486831E+02  0.31863248590E+02 -0.26925847293E+02  0.43593331969E+02  0.00000000000E+00 0. -1.
</event>
<event>
 7    1  0.4520336E-015  0.9000784E+02  0.7816164E-02  0.1186339E+00
        -11   -1    0    0    0    0  0.00000000000E+00  0.00000000000E+00  0.45593999997E+02  0.45594000000E+02  0.51100000000E-03 0.  1.
         11   -1    0    0    0    0 -0.00000000000E+00 -0.00000000000E+00 -0.45593999997E+02  0.45594000000E+02  0.51100000000E-03 0. -1.
    9900012    2    1    2    0    0 -0.75271000052E+00 -0.37749291156E+00  0.82685839455E+00  0.90007844058E+02  0.90000106799E+02 0.  0.
         12    1    1    2    0    0  0.75271000052E+00  0.37749291156E+00 -0.82685839455E+00  0.11801559422E+01  0.00000000000E+00 0. -1.
         11    1    3    3    0    0  0.36335334105E+01  0.47892685979E+01 -0.37034988279E+02  0.37519728355E+02  0.51100000000E-03 0. -1.
        -11    1    3    3    0    0  0.84907740152E+01 -0.64699141686E+01 -0.17482385255E+01  0.10817086989E+02  0.51100000000E-03 0.  1.
        -12    1    3    3    0    0 -0.12877017426E+02  0.13031526592E+01  0.39610085199E+02  0.41671028714E+02  0.00000000000E+00 0.  1.
</event>
<event>
 7    1  0.4520336E-015  0.9000775E+02  0.7816164E-02  0.1186339E+00
        -11   -1    0    0    0    0  0.00000000000E+00  0.00000000000E+00  0.45593999997E+02  0.45594000000E+02  0.51100000000E-03 0. -1.
         11   -1    0    0    0    0 -0.00000000000E+00 -0.00000000000E+00 -0.45593999997E+02  0.45594000000E+02  0.51100000000E-03 0.  1.
    9900012    2    1    2    0    0  0.24799950993E+00  0.31002052715E+00 -0.11114714957E+01  0.90007751988E+02  0.90000013514E+02 0.  0.
         12    1    1    2    0    0 -0.24799950993E+00 -0.31002052715E+00  0.11114714957E+01  0.11802480120E+01  0.00000000000E+00 0. -1.
         11    1    3    3    0    0  0.10669957155E+02  0.33103659074E+02  0.68571208086E+01  0.35450251562E+02  0.51100000000E-03 0. -1.
        -11    1    3    3    0    0  0.68662266276E+01  0.59594873995E+01  0.47501835677E+01  0.10257914133E+02  0.51100000000E-03 0.  1.
        -12    1    3    3    0    0 -0.17288184273E+02 -0.38753125946E+02 -0.12718775872E+02  0.44299586293E+02  0.00000000000E+00 0.  1.
</event>
<event>
 7    1  0.4520336E-015  0.9000779E+02  0.7816164E-02  0.1186339E+00
        -11   -1    0    0    0    0  0.00000000000E+00  0.00000000000E+00  0.45593999997E+02  0.45594000000E+02  0.51100000000E-03 0.  1.
         11   -1    0    0    0    0 -0.00000000000E+00 -0.00000000000E+00 -0.45593999997E+02  0.45594000000E+02  0.51100000000E-03 0. -1.
    9900012    2    1    2    0    0 -0.10231051551E+01  0.34747450204E-01  0.58731269270E+00  0.90007793347E+02  0.90000055420E+02 0.  0.
         12    1    1    2    0    0  0.10231051551E+01 -0.34747450204E-01 -0.58731269270E+00  0.11802066525E+01  0.00000000000E+00 0. -1.
         11    1    3    3    0    0  0.66161293441E+00 -0.79278816931E+01 -0.82993278708E+01  0.11496429149E+02  0.51100000000E-03 0. -1.
        -11    1    3    3    0    0 -0.13458434814E+02 -0.32755554968E+02  0.11942181330E+01  0.35432781518E+02  0.51100000000E-03 0.  1.
         12    1    3    3    0    0  0.11773716724E+02  0.40718184112E+02  0.76924224305E+01  0.43078582680E+02  0.00000000000E+00 0. -1.
</event>
<event>
 7    1  0.4520336E-015  0.9000774E+02  0.7816164E-02  0.1186339E+00
        -11   -1    0    0    0    0  0.00000000000E+00  0.00000000000E+00  0.45593999997E+02  0.45594000000E+02  0.51100000000E-03 0.  1.
         11   -1    0    0    0    0 -0.00000000000E+00 -0.00000000000E+00 -0.45593999997E+02  0.45594000000E+02  0.51100000000E-03 0. -1.
    9900012    2    1    2    0    0 -0.34581205675E+00  0.80501986704E+00  0.79079786162E+00  0.90007744001E+02  0.90000005422E+02 0.  0.
         12    1    1    2    0    0  0.34581205675E+00 -0.80501986704E+00 -0.79079786162E+00  0.11802559989E+01  0.00000000000E+00 0. -1.
         11    1    3    3    0    0 -0.15460304733E+02  0.25013845178E+02 -0.23824474223E+02  0.37845991139E+02  0.51100000000E-03 0. -1.
        -11    1    3    3    0    0 -0.12400345898E+01 -0.58226963891E+00 -0.83323010462E+01  0.84441674961E+01  0.51100000000E-03 0.  1.
        -12    1    3    3    0    0  0.16354527266E+02 -0.23626555672E+02  0.32947573131E+02  0.43717585366E+02  0.00000000000E+00 0.  1.
</event>
<event>
 7    1  0.4520336E-015  0.9000758E+02  0.7816164E-02  0.1186339E+00
        -11   -1    0    0    0    0  0.00000000000E+00  0.00000000000E+00  0.45593999997E+02  0.45594000000E+02  0.51100000000E-03 0. -1.
         11   -1    0    0    0    0 -0.00000000000E+00 -0.00000000000E+00 -0.45593999997E+02  0.45594000000E+02  0.51100000000E-03 0.  1.
    9900012    2    1    2    0    0  0.42625251818E+00 -0.99342958416E+00 -0.47412420875E+00  0.90007581721E+02  0.89999841000E+02 0.  0.
         12    1    1    2    0    0 -0.42625251818E+00  0.99342958416E+00  0.47412420875E+00  0.11804182789E+01  0.00000000000E+00 0. -1.
         11    1    3    3    0    0  0.30762407693E+01 -0.75558473482E+01  0.54117642156E+01  0.97898559033E+01  0.51100000000E-03 0. -1.
        -11    1    3    3    0    0  0.30416180846E+02 -0.17256694202E+02 -0.15649532831E+02  0.38312470948E+02  0.51100000000E-03 0.  1.
         12    1    3    3    0    0 -0.33066169097E+02  0.23819111966E+02  0.97636444067E+01  0.41905254870E+02  0.00000000000E+00 0. -1.
</event>
<event>
 7    1  0.4520336E-015  0.9000770E+02  0.7816164E-02  0.1186339E+00
        -11   -1    0    0    0    0  0.00000000000E+00  0.00000000000E+00  0.45593999997E+02  0.45594000000E+02  0.51100000000E-03 0.  1.
         11   -1    0    0    0    0 -0.00000000000E+00 -0.00000000000E+00 -0.45593999997E+02  0.45594000000E+02  0.51100000000E-03 0. -1.
    9900012    2    1    2    0    0 -0.30988271805E+00 -0.96882554585E-01  0.11347641882E+01  0.90007702033E+02  0.89999962900E+02 0.  0.
         12    1    1    2    0    0  0.30988271805E+00  0.96882554585E-01 -0.11347641882E+01  0.11802979671E+01  0.00000000000E+00 0. -1.
         11    1    3    3    0    0  0.15564725868E+02  0.30276919642E+02  0.11322448245E+02  0.35876878193E+02  0.51100000000E-03 0. -1.
        -11    1    3    3    0    0  0.95895949115E+01 -0.28181451030E+01  0.76499090405E+01  0.12586635014E+02  0.51100000000E-03 0.  1.
        -12    1    3    3    0    0 -0.25464203498E+02 -0.27555657094E+02 -0.17837593098E+02  0.41544188825E+02  0.00000000000E+00 0.  1.
</event>
<event>
 7    1  0.4520336E-015  0.9000764E+02  0.7816164E-02  0.1186339E+00
        -11   -1    0    0    0    0  0.00000000000E+00  0.00000000000E+00  0.45593999997E+02  0.45594000000E+02  0.51100000000E-03 0.  1.
         11   -1    0    0    0    0 -0.00000000000E+00 -0.00000000000E+00 -0.45593999997E+02  0.45594000000E+02  0.51100000000E-03 0. -1.
    9900012    2    1    2    0    0 -0.34306034660E+00  0.53900804245E+00  0.99248790342E+00  0.90007638907E+02  0.89999898941E+02 0.  0.
         12    1    1    2    0    0  0.34306034660E+00 -0.53900804245E+00 -0.99248790342E+00  0.11803610929E+01  0.00000000000E+00 0. -1.
         11    1    3    3    0    0 -0.59952296246E+01 -0.92113575423E+01 -0.45996793264E+01  0.11914232505E+02  0.51100000000E-03 0. -1.
        -11    1    3    3    0    0 -0.21035659443E+02  0.78436408684E+01 -0.27524244110E+02  0.35519089014E+02  0.51100000000E-03 0.  1.
         12    1    3    3    0    0  0.26687828721E+02  0.19067247163E+01  0.33116411340E+02  0.42574317388E+02  0.00000000000E+00 0. -1.
</event>
<event>
 7    1  0.4520336E-015  0.9000771E+02  0.7816164E-02  0.1186339E+00
        -11   -1    0    0    0    0  0.00000000000E+00  0.00000000000E+00  0.45593999997E+02  0.45594000000E+02  0.51100000000E-03 0. -1.
         11   -1    0    0    0    0 -0.00000000000E+00 -0.00000000000E+00 -0.45593999997E+02  0.45594000000E+02  0.51100000000E-03 0.  1.
    9900012    2    1    2    0    0 -0.63792212938E+00  0.59338601501E+00  0.79626152487E+00  0.90007710196E+02  0.89999971170E+02 0.  0.
         12    1    1    2    0    0  0.63792212938E+00 -0.59338601501E+00 -0.79626152487E+00  0.11802898042E+01  0.00000000000E+00 0. -1.
         11    1    3    3    0    0  0.26025784889E+02  0.27203279475E+02 -0.89859478374E+00  0.37658562985E+02  0.51100000000E-03 0. -1.
        -11    1    3    3    0    0 -0.34593760591E+01  0.87225072982E+01 -0.29197423204E+01  0.98272229935E+01  0.51100000000E-03 0.  1.
        -12    1    3    3    0    0 -0.23204330959E+02 -0.35332400758E+02  0.46145986290E+01  0.42521924217E+02  0.00000000000E+00 0.  1.
</event>
<event>
 7    1  0.4520336E-015  0.9000729E+02  0.7816164E-02  0.1186340E+00
        -11   -1    0    0    0    0  0.00000000000E+00  0.00000000000E+00  0.45593999997E+02  0.45594000000E+02  0.51100000000E-03 0. -1.
         11   -1    0    0    0    0 -0.00000000000E+00 -0.00000000000E+00 -0.45593999997E+02  0.45594000000E+02  0.51100000000E-03 0.  1.
    9900012    2    1    2    0    0 -0.10982097431E+01  0.25072727400E+00 -0.35375536596E+00  0.90007291880E+02  0.89999547332E+02 0.  0.
         12    1    1    2    0    0  0.10982097431E+01 -0.25072727400E+00  0.35375536596E+00  0.11807081200E+01  0.00000000000E+00 0. -1.
         11    1    3    3    0    0  0.23786265245E+02 -0.22188315796E+02 -0.10308753848E+02  0.34122986069E+02  0.51100000000E-03 0. -1.
        -11    1    3    3    0    0  0.11959725975E+02  0.24891260856E+00  0.15822869393E+01  0.12066508820E+02  0.51100000000E-03 0.  1.
        -12    1    3    3    0    0 -0.36844200963E+02  0.22190130461E+02  0.83727115426E+01  0.43817796990E+02  0.00000000000E+00 0.  1.
</event>
<event>
 7    1  0.4520336E-015  0.9000776E+02  0.7816164E-02  0.1186339E+00
        -11   -1    0    0    0    0  0.00000000000E+00  0.00000000000E+00  0.45593999997E+02  0.45594000000E+02  0.51100000000E-03 0.  1.
         11   -1    0    0    0    0 -0.00000000000E+00 -0.00000000000E+00 -0.45593999997E+02  0.45594000000E+02  0.51100000000E-03 0. -1.
    9900012    2    1    2    0    0 -0.87237278002E+00  0.79489383511E+00  0.83448700217E-02  0.90007762688E+02  0.90000024355E+02 0.  0.
         12    1    1    2    0    0  0.87237278002E+00 -0.79489383511E+00 -0.83448700217E-02  0.11802373123E+01  0.00000000000E+00 0. -1.
         11    1    3    3    0    0  0.27493288247E+01 -0.96406449029E+01 -0.15464464975E+01  0.10143586159E+02  0.51100000000E-03 0. -1.
        -11    1    3    3    0    0 -0.18918623844E+02 -0.29990274531E+02 -0.60670206176E+01  0.35974152305E+02  0.51100000000E-03 0.  1.
         12    1    3    3    0    0  0.15296922239E+02  0.40425813269E+02  0.76218119852E+01  0.43890024224E+02  0.00000000000E+00 0. -1.
</event>
<event>
 7    1  0.4520336E-015  0.9000773E+02  0.7816164E-02  0.1186339E+00
        -11   -1    0    0    0    0  0.00000000000E+00  0.00000000000E+00  0.45593999997E+02  0.45594000000E+02  0.51100000000E-03 0.  1.
         11   -1    0    0    0    0 -0.00000000000E+00 -0.00000000000E+00 -0.45593999997E+02  0.45594000000E+02  0.51100000000E-03 0. -1.
    9900012    2    1    2    0    0 -0.27193571911E+00  0.74435796142E+00  0.87465345538E+00  0.90007730337E+02  0.89999991578E+02 0.  0.
         12    1    1    2    0    0  0.27193571911E+00 -0.74435796142E+00 -0.87465345538E+00  0.11802696629E+01  0.00000000000E+00 0. -1.
         11    1    3    3    0    0  0.32940174835E+02 -0.20944169852E+02 -0.42233283703E+01  0.39262575969E+02  0.51100000000E-03 0. -1.
        -11    1    3    3    0    0 -0.29891984142E+01  0.42785723834E+01 -0.11117147923E+02  0.12281387014E+02  0.51100000000E-03 0.  1.
        -12    1    3    3    0    0 -0.30222912140E+02  0.17409955430E+02  0.16215129749E+02  0.38463767354E+02  0.00000000000E+00 0.  1.
</event>
<event>
 7    1  0.4520336E-015  0.9000771E+02  0.7816164E-02  0.1186339E+00
        -11   -1    0    0    0    0  0.00000000000E+00  0.00000000000E+00  0.45593999997E+02  0.45594000000E+02  0.51100000000E-03 0.  1.
         11   -1    0    0    0    0 -0.00000000000E+00 -0.00000000000E+00 -0.45593999997E+02  0.45594000000E+02  0.51100000000E-03 0. -1.
    9900012    2    1    2    0    0  0.87644181281E-01  0.35643926134E+00  0.11217638567E+01  0.90007709951E+02  0.89999970922E+02 0.  0.
         12    1    1    2    0    0 -0.87644181281E-01 -0.35643926134E+00 -0.11217638567E+01  0.11802900490E+01  0.00000000000E+00 0. -1.
         11    1    3    3    0    0 -0.14437908392E+02 -0.16806860643E+02  0.77100085736E+01  0.23459923186E+02  0.51100000000E-03 0. -1.
        -11    1    3    3    0    0 -0.87616822598E+01 -0.49262853211E+01  0.21603567629E+02  0.23827494574E+02  0.51100000000E-03 0.  1.
         12    1    3    3    0    0  0.23287234833E+02  0.22089585225E+02 -0.28191812346E+02  0.42720292192E+02  0.00000000000E+00 0. -1.
</event>
<event>
 7    1  0.4520336E-015  0.9000767E+02  0.7816164E-02  0.1186339E+00
        -11   -1    0    0    0    0  0.00000000000E+00  0.00000000000E+00  0.45593999997E+02  0.45594000000E+02  0.51100000000E-03 0. -1.
         11   -1    0    0    0    0 -0.00000000000E+00 -0.00000000000E+00 -0.45593999997E+02  0.45594000000E+02  0.51100000000E-03 0.  1.
    9900012    2    1    2    0    0 -0.37583800077E+00  0.22512390255E-01 -0.11186665871E+01  0.90007671256E+02  0.89999931717E+02 0.  0.
         12    1    1    2    0    0  0.37583800077E+00 -0.22512390255E-01  0.11186665871E+01  0.11803287439E+01  0.00000000000E+00 0. -1.
         11    1    3    3    0    0  0.41153214869E+01  0.42368596540E-02  0.32742557592E+02  0.33000166164E+02  0.51100000000E-03 0. -1.
        -11    1    3    3    0    0 -0.21260192594E+02  0.97703540864E+01 -0.81017430569E+01  0.24760731995E+02  0.51100000000E-03 0.  1.
        -12    1    3    3    0    0  0.16769033106E+02 -0.97520785558E+01 -0.25759481123E+02  0.32246773097E+02  0.00000000000E+00 0.  1.
</event>
<event>
 7    1  0.4520336E-015  0.9000779E+02  0.7816164E-02  0.1186339E+00
        -11   -1    0    0    0    0  0.00000000000E+00  0.00000000000E+00  0.45593999997E+02  0.45594000000E+02  0.51100000000E-03 0.  1.
         11   -1    0    0    0    0 -0.00000000000E+00 -0.00000000000E+00 -0.45593999997E+02  0.45594000000E+02  0.51100000000E-03 0. -1.
    9900012    2    1    2    0    0 -0.12534470454E+00  0.82579175040E+00  0.83381571916E+00  0.90007791559E+02  0.90000053608E+02 0.  0.
         12    1    1    2    0    0  0.12534470454E+00 -0.82579175040E+00 -0.83381571916E+00  0.11802084407E+01  0.00000000000E+00 0. -1.
         11    1    3    3    0    0 -0.11114397893E+02  0.10991629875E+01 -0.90827337699E+01  0.14395626169E+02  0.51100000000E-03 0. -1.
        -11    1    3    3    0    0 -0.49528570839E+00  0.21055952764E+02  0.34931672970E+02  0.40789952580E+02  0.51100000000E-03 0.  1.
        -12    1    3    3    0    0  0.11484338897E+02 -0.21329324002E+02 -0.25015123480E+02  0.34822212810E+02  0.00000000000E+00 0.  1.
</event>
<event>
 7    1  0.4520336E-015  0.9000776E+02  0.7816164E-02  0.1186339E+00
        -11   -1    0    0    0    0  0.00000000000E+00  0.00000000000E+00  0.45593999997E+02  0.45594000000E+02  0.51100000000E-03 0. -1.
         11   -1    0    0    0    0 -0.00000000000E+00 -0.00000000000E+00 -0.45593999997E+02  0.45594000000E+02  0.51100000000E-03 0.  1.
    9900012    2    1    2    0    0 -0.65467884671E+00 -0.97638161519E+00 -0.10503682811E+00  0.90007763504E+02  0.90000025182E+02 0.  0.
         12    1    1    2    0    0  0.65467884671E+00  0.97638161519E+00  0.10503682811E+00  0.11802364958E+01  0.00000000000E+00 0. -1.
         11    1    3    3    0    0 -0.35752324587E+02 -0.13450635643E+02  0.17038824063E+02  0.41826664202E+02  0.51100000000E-03 0. -1.
        -11    1    3    3    0    0  0.28158252958E+01  0.26292820592E+01  0.60907453247E+01  0.72068838699E+01  0.51100000000E-03 0.  1.
        -12    1    3    3    0    0  0.32281820444E+02  0.98449719687E+01 -0.23234606216E+02  0.40974215432E+02  0.00000000000E+00 0.  1.
</event>
<event>
 7    1  0.4520336E-015  0.9000751E+02  0.7816164E-02  0.1186340E+00
        -11   -1    0    0    0    0  0.00000000000E+00  0.00000000000E+00  0.45593999997E+02  0.45594000000E+02  0.51100000000E-03 0.  1.
         11   -1    0    0    0    0 -0.00000000000E+00 -0.00000000000E+00 -0.45593999997E+02  0.45594000000E+02  0.51100000000E-03 0. -1.
    9900012    2    1    2    0    0  0.27315160778E+00  0.39524727292E+00  0.10782999411E+01  0.90007507319E+02  0.89999765615E+02 0.  0.
         12    1    1    2    0    0 -0.27315160778E+00 -0.39524727292E+00 -0.10782999411E+01  0.11804926812E+01  0.00000000000E+00 0. -1.
         11    1    3    3    0    0 -0.54551658357E+01 -0.52670128999E+01  0.62600950981E+01  0.98330590399E+01  0.51100000000E-03 0. -1.
        -11    1    3    3    0    0  0.18298690864E+02  0.17544392673E+02  0.31014907193E+02  0.40057112603E+02  0.51100000000E-03 0.  1.
         12    1    3    3    0    0 -0.12570373421E+02 -0.11882132500E+02 -0.36196702350E+02  0.40117335676E+02  0.00000000000E+00 0. -1.
</event>
<event>
 7    1  0.4520336E-015  0.9000793E+02  0.7816164E-02  0.1186339E+00
        -11   -1    0    0    0    0  0.00000000000E+00  0.00000000000E+00  0.45593999997E+02  0.45594000000E+02  0.51100000000E-03 0. -1.
         11   -1    0    0    0    0 -0.00000000000E+00 -0.00000000000E+00 -0.45593999997E+02  0.45594000000E+02  0.51100000000E-03 0.  1.
    9900012    2    1    2    0    0  0.90768181255E+00 -0.14532367580E+00  0.73997536587E+00  0.90007928483E+02  0.90000192339E+02 0.  0.
         12    1    1    2    0    0 -0.90768181255E+00  0.14532367580E+00 -0.73997536587E+00  0.11800715172E+01  0.00000000000E+00 0. -1.
         11    1    3    3    0    0  0.61187134808E+00  0.87776264960E+01  0.13607163344E+01  0.89035196779E+01  0.51100000000E-03 0. -1.
        -11    1    3    3    0    0 -0.29793530939E+02  0.19639369525E+02 -0.12729061377E+02  0.37886519040E+02  0.51100000000E-03 0.  1.
         12    1    3    3    0    0  0.30089341404E+02 -0.28562319697E+02  0.12108320408E+02  0.43217889765E+02  0.00000000000E+00 0. -1.
</event>
<event>
 7    1  0.4520336E-015  0.9000867E+02  0.7816164E-02  0.1186337E+00
        -11   -1    0    0    0    0  0.00000000000E+00  0.00000000000E+00  0.45593999997E+02  0.45594000000E+02  0.51100000000E-03 0. -1.
         11   -1    0    0    0    0 -0.00000000000E+00 -0.00000000000E+00 -0.45593999997E+02  0.45594000000E+02  0.51100000000E-03 0.  1.
    9900012    2    1    2    0    0  0.11150192275E+01 -0.10793408402E+00  0.36863801089E+00  0.90008673231E+02  0.90000946913E+02 0.  0.
         12    1    1    2    0    0 -0.11150192275E+01  0.10793408402E+00 -0.36863801089E+00  0.11793267687E+01  0.00000000000E+00 0. -1.
         11    1    3    3    0    0  0.22888545647E+02 -0.27325055488E+02 -0.21508801151E+01  0.35709529047E+02  0.51100000000E-03 0. -1.
        -11    1    3    3    0    0  0.65201630406E+01 -0.31593739888E+01  0.97650278286E+01  0.12159356020E+02  0.51100000000E-03 0.  1.
        -12    1    3    3    0    0 -0.28293689460E+02  0.30376495393E+02 -0.72455097025E+01  0.42139788163E+02  0.00000000000E+00 0.  1.
</event>
<event>
 7    1  0.4520336E-015  0.9000778E+02  0.7816164E-02  0.1186339E+00
        -11   -1    0    0    0    0  0.00000000000E+00  0.00000000000E+00  0.45593999997E+02  0.45594000000E+02  0.51100000000E-03 0.  1.
         11   -1    0    0    0    0 -0.00000000000E+00 -0.00000000000E+00 -0.45593999997E+02  0.45594000000E+02  0.51100000000E-03 0. -1.
    9900012    2    1    2    0    0  0.66259291650E+00  0.49942080513E+00  0.83932918444E+00  0.90007777990E+02  0.90000039859E+02 0.  0.
         12    1    1    2    0    0 -0.66259291650E+00 -0.49942080513E+00 -0.83932918444E+00  0.11802220102E+01  0.00000000000E+00 0. -1.
         11    1    3    3    0    0  0.51350541335E+01  0.77920521986E+01  0.21494628662E+01  0.95762753351E+01  0.51100000000E-03 0. -1.
        -11    1    3    3    0    0  0.93722874951E+01  0.18635296162E+02  0.30608872670E+02  0.37040749484E+02  0.51100000000E-03 0.  1.
         12    1    3    3    0    0 -0.13844748712E+02 -0.25927927555E+02 -0.31919006352E+02  0.43390753171E+02  0.00000000000E+00 0. -1.
</event>
<event>
 7    1  0.4520336E-015  0.9000776E+02  0.7816164E-02  0.1186339E+00
        -11   -1    0    0    0    0  0.00000000000E+00  0.00000000000E+00  0.45593999997E+02  0.45594000000E+02  0.51100000000E-03 0.  1.
         11   -1    0    0    0    0 -0.00000000000E+00 -0.00000000000E+00 -0.45593999997E+02  0.45594000000E+02  0.51100000000E-03 0. -1.
    9900012    2    1    2    0    0  0.54828461821E+00  0.41254229351E+00  0.96028765640E+00  0.90007762927E+02  0.90000024597E+02 0.  0.
         12    1    1    2    0    0 -0.54828461821E+00 -0.41254229351E+00 -0.96028765640E+00  0.11802370734E+01  0.00000000000E+00 0. -1.
         11    1    3    3    0    0  0.90552617917E+01 -0.19069167127E+01  0.28468391729E+01  0.96818691895E+01  0.51100000000E-03 0. -1.
        -11    1    3    3    0    0  0.10375787728E+02 -0.32839245952E+02  0.14259704618E+02  0.37274820210E+02  0.51100000000E-03 0.  1.
         12    1    3    3    0    0 -0.18882764902E+02  0.35158704958E+02 -0.16146256135E+02  0.43051073527E+02  0.00000000000E+00 0. -1.
</event>
<event>
 7    1  0.4520336E-015  0.9000775E+02  0.7816164E-02  0.1186339E+00
        -11   -1    0    0    0    0  0.00000000000E+00  0.00000000000E+00  0.45593999997E+02  0.45594000000E+02  0.51100000000E-03 0. -1.
         11   -1    0    0    0    0 -0.00000000000E+00 -0.00000000000E+00 -0.45593999997E+02  0.45594000000E+02  0.51100000000E-03 0.  1.
    9900012    2    1    2    0    0  0.32025582217E+00  0.63735079236E+00 -0.94032903877E+00  0.90007746415E+02  0.90000007868E+02 0.  0.
         12    1    1    2    0    0 -0.32025582217E+00 -0.63735079236E+00  0.94032903877E+00  0.11802535852E+01  0.00000000000E+00 0. -1.
         11    1    3    3    0    0 -0.13870426066E+02  0.13893866057E+01 -0.67470810091E+01  0.15486840117E+02  0.51100000000E-03 0. -1.
        -11    1    3    3    0    0  0.12196786199E+02 -0.28767920763E+02 -0.19402052213E+02  0.36780354660E+02  0.51100000000E-03 0.  1.
         12    1    3    3    0    0  0.19938956899E+01  0.28015884950E+02  0.25208804183E+02  0.37740551637E+02  0.00000000000E+00 0. -1.
</event>
<event>
 7    1  0.4520336E-015  0.9000756E+02  0.7816164E-02  0.1186339E+00
        -11   -1    0    0    0    0  0.00000000000E+00  0.00000000000E+00  0.45593999997E+02  0.45594000000E+02  0.51100000000E-03 0. -1.
         11   -1    0    0    0    0 -0.00000000000E+00 -0.00000000000E+00 -0.45593999997E+02  0.45594000000E+02  0.51100000000E-03 0.  1.
    9900012    2    1    2    0    0 -0.47156497046E+00 -0.10645422028E+01  0.19444076082E+00  0.90007563287E+02  0.89999822323E+02 0.  0.
         12    1    1    2    0    0  0.47156497046E+00  0.10645422028E+01 -0.19444076082E+00  0.11804367126E+01  0.00000000000E+00 0. -1.
         11    1    3    3    0    0 -0.12180044875E+02 -0.17257185367E+01 -0.12129234481E+01  0.12361342207E+02  0.51100000000E-03 0. -1.
        -11    1    3    3    0    0 -0.12302416303E+02  0.31233491850E+02 -0.13265762932E+02  0.36095164863E+02  0.51100000000E-03 0.  1.
         12    1    3    3    0    0  0.24010896207E+02 -0.30572315516E+02  0.14673127141E+02  0.41551056217E+02  0.00000000000E+00 0. -1.
</event>
<event>
 7    1  0.4520336E-015  0.9000776E+02  0.7816164E-02  0.1186339E+00
        -11   -1    0    0    0    0  0.00000000000E+00  0.00000000000E+00  0.45593999997E+02  0.45594000000E+02  0.51100000000E-03 0. -1.
         11   -1    0    0    0    0 -0.00000000000E+00 -0.00000000000E+00 -0.45593999997E+02  0.45594000000E+02  0.51100000000E-03 0.  1.
    9900012    2    1    2    0    0 -0.24654721248E+00  0.56060921560E+00 -0.10089068192E+01  0.90007762231E+02  0.90000023893E+02 0.  0.
         12    1    1    2    0    0  0.24654721248E+00 -0.56060921560E+00  0.10089068192E+01  0.11802377686E+01  0.00000000000E+00 0. -1.
         11    1    3    3    0    0 -0.56448227636E+01  0.11035628379E+02 -0.12471814327E+02  0.17583949233E+02  0.51100000000E-03 0. -1.
        -11    1    3    3    0    0 -0.29045748942E+02  0.80935406458E+01 -0.38639836168E+01  0.30398870069E+02  0.51100000000E-03 0.  1.
         12    1    3    3    0    0  0.34444024493E+02 -0.18568559810E+02  0.15326891125E+02  0.42024942930E+02  0.00000000000E+00 0. -1.
</event>
<event>
 7    1  0.4520336E-015  0.9000773E+02  0.7816164E-02  0.1186339E+00
        -11   -1    0    0    0    0  0.00000000000E+00  0.00000000000E+00  0.45593999997E+02  0.45594000000E+02  0.51100000000E-03 0.  1.
         11   -1    0    0    0    0 -0.00000000000E+00 -0.00000000000E+00 -0.45593999997E+02  0.45594000000E+02  0.51100000000E-03 0. -1.
    9900012    2    1    2    0    0  0.29204586617E+00  0.14518019927E-01  0.11434736452E+01  0.90007731582E+02  0.89999992839E+02 0.  0.
         12    1    1    2    0    0 -0.29204586617E+00 -0.14518019927E-01 -0.11434736452E+01  0.11802684179E+01  0.00000000000E+00 0. -1.
         11    1    3    3    0    0 -0.78755832659E+01 -0.24235480743E+02 -0.27378327812E+02  0.37402622537E+02  0.51100000000E-03 0. -1.
        -11    1    3    3    0    0  0.67022480769E+01 -0.44717262276E+01 -0.41630987849E+01  0.90690603974E+01  0.51100000000E-03 0.  1.
        -12    1    3    3    0    0  0.14653810552E+01  0.28721724990E+02  0.32684900242E+02  0.43536048648E+02  0.00000000000E+00 0.  1.
</event>
<event>
 7    1  0.4520336E-015  0.9000773E+02  0.7816164E-02  0.1186339E+00
        -11   -1    0    0    0    0  0.00000000000E+00  0.00000000000E+00  0.45593999997E+02  0.45594000000E+02  0.51100000000E-03 0. -1.
         11   -1    0    0    0    0 -0.00000000000E+00 -0.00000000000E+00 -0.45593999997E+02  0.45594000000E+02  0.51100000000E-03 0.  1.
    9900012    2    1    2    0    0 -0.19315067393E+00 -0.75384984411E+00 -0.88738071968E+00  0.90007728289E+02  0.89999989502E+02 0.  0.
         12    1    1    2    0    0  0.19315067393E+00  0.75384984411E+00  0.88738071968E+00  0.11802717111E+01  0.00000000000E+00 0. -1.
         11    1    3    3    0    0  0.83170022904E+01 -0.38085600016E+02 -0.64427969932E+01  0.39511961341E+02  0.51100000000E-03 0. -1.
        -11    1    3    3    0    0 -0.46734912155E+01 -0.32064477594E+01  0.78840994324E+01  0.97098842165E+01  0.51100000000E-03 0.  1.
        -12    1    3    3    0    0 -0.38366617489E+01  0.40538197931E+02 -0.23286831589E+01  0.40785882731E+02  0.00000000000E+00 0.  1.
</event>
<event>
 7    1  0.4520336E-015  0.9000784E+02  0.7816164E-02  0.1186339E+00
        -11   -1    0    0    0    0  0.00000000000E+00  0.00000000000E+00  0.45593999997E+02  0.45594000000E+02  0.51100000000E-03 0. -1.
         11   -1    0    0    0    0 -0.00000000000E+00 -0.00000000000E+00 -0.45593999997E+02  0.45594000000E+02  0.51100000000E-03 0.  1.
    9900012    2    1    2    0    0  0.46494305091E+00 -0.73856990477E+00 -0.79442394291E+00  0.90007844525E+02  0.90000107272E+02 0.  0.
         12    1    1    2    0    0 -0.46494305091E+00  0.73856990477E+00  0.79442394291E+00  0.11801554753E+01  0.00000000000E+00 0. -1.
         11    1    3    3    0    0 -0.44149628440E+01  0.37224303030E+01  0.51820042272E+01  0.77589659328E+01  0.51100000000E-03 0. -1.
        -11    1    3    3    0    0 -0.23753961789E+02 -0.33619391389E+02 -0.29924491118E+01  0.41273101774E+02  0.51100000000E-03 0.  1.
         12    1    3    3    0    0  0.28633867684E+02  0.29158391182E+02 -0.29839790583E+01  0.40975776818E+02  0.00000000000E+00 0. -1.
</event>
<event>
 7    1  0.4520336E-015  0.9000775E+02  0.7816164E-02  0.1186339E+00
        -11   -1    0    0    0    0  0.00000000000E+00  0.00000000000E+00  0.45593999997E+02  0.45594000000E+02  0.51100000000E-03 0.  1.
         11   -1    0    0    0    0 -0.00000000000E+00 -0.00000000000E+00 -0.45593999997E+02  0.45594000000E+02  0.51100000000E-03 0. -1.
    9900012    2    1    2    0    0 -0.84820873983E+00  0.76250589438E+00  0.30351412361E+00  0.90007748277E+02  0.90000009755E+02 0.  0.
         12    1    1    2    0    0  0.84820873983E+00 -0.76250589438E+00 -0.30351412361E+00  0.11802517225E+01  0.00000000000E+00 0. -1.
         11    1    3    3    0    0  0.47534825410E+01  0.15265131970E+01 -0.86350628273E+01  0.99744748785E+01  0.51100000000E-03 0. -1.
        -11    1    3    3    0    0  0.13632548099E+02  0.35739877689E+02  0.51904318525E+01  0.38602147712E+02  0.51100000000E-03 0.  1.
         12    1    3    3    0    0 -0.19234239380E+02 -0.36503884992E+02  0.37481450984E+01  0.41431125687E+02  0.00000000000E+00 0. -1.
</event>
<event>
 7    1  0.4520336E-015  0.9000780E+02  0.7816164E-02  0.1186339E+00
        -11   -1    0    0    0    0  0.00000000000E+00  0.00000000000E+00  0.45593999997E+02  0.45594000000E+02  0.51100000000E-03 0.  1.
         11   -1    0    0    0    0 -0.00000000000E+00 -0.00000000000E+00 -0.45593999997E+02  0.45594000000E+02  0.51100000000E-03 0. -1.
    9900012    2    1    2    0    0  0.65158809057E+00 -0.60250344589E+00  0.77800714624E+00  0.90007799779E+02  0.90000061936E+02 0.  0.
         12    1    1    2    0    0 -0.65158809057E+00  0.60250344589E+00 -0.77800714624E+00  0.11802002210E+01  0.00000000000E+00 0. -1.
         11    1    3    3    0    0  0.94994679687E+01 -0.29250951152E+01 -0.30093978426E+00  0.99441760913E+01  0.51100000000E-03 0. -1.
        -11    1    3    3    0    0  0.16001557570E+02 -0.32956279304E+02 -0.27710643547E+01  0.36740236637E+02  0.51100000000E-03 0.  1.
         12    1    3    3    0    0 -0.24849437449E+02  0.35278870973E+02  0.38500112852E+01  0.43323387051E+02  0.00000000000E+00 0. -1.
</event>
<event>
 7    1  0.4520336E-015  0.9000781E+02  0.7816164E-02  0.1186339E+00
        -11   -1    0    0    0    0  0.00000000000E+00  0.00000000000E+00  0.45593999997E+02  0.45594000000E+02  0.51100000000E-03 0.  1.
         11   -1    0    0    0    0 -0.00000000000E+00 -0.00000000000E+00 -0.45593999997E+02  0.45594000000E+02  0.51100000000E-03 0. -1.
    9900012    2    1    2    0    0 -0.18408880021E+00 -0.11583317624E+01 -0.13122074582E+00  0.90007813556E+02  0.90000075895E+02 0.  0.
         12    1    1    2    0    0  0.18408880021E+00  0.11583317624E+01  0.13122074582E+00  0.11801864439E+01  0.00000000000E+00 0. -1.
         11    1    3    3    0    0  0.30880650218E+02  0.26159428417E+02 -0.17173262038E+01  0.40507770397E+02  0.51100000000E-03 0. -1.
        -11    1    3    3    0    0  0.33212544930E+00 -0.35465869028E+01  0.87733879544E+01  0.94689451594E+01  0.51100000000E-03 0.  1.
        -12    1    3    3    0    0 -0.31396864468E+02 -0.23771173277E+02 -0.71872824964E+01  0.40031097999E+02  0.00000000000E+00 0.  1.
</event>
<event>
 7    1  0.4520336E-015  0.9000781E+02  0.7816164E-02  0.1186339E+00
        -11   -1    0    0    0    0  0.00000000000E+00  0.00000000000E+00  0.45593999997E+02  0.45594000000E+02  0.51100000000E-03 0. -1.
         11   -1    0    0    0    0 -0.00000000000E+00 -0.00000000000E+00 -0.45593999997E+02  0.45594000000E+02  0.51100000000E-03 0.  1.
    9900012    2    1    2    0    0  0.11617392147E+01  0.97825892774E-01 -0.18344387694E+00  0.90007805285E+02  0.90000067515E+02 0.  0.
         12    1    1    2    0    0 -0.11617392147E+01 -0.97825892774E-01  0.18344387694E+00  0.11801947146E+01  0.00000000000E+00 0. -1.
         11    1    3    3    0    0 -0.10122113238E+01 -0.32068874482E+01  0.99627032201E+01  0.10514949100E+02  0.51100000000E-03 0. -1.
        -11    1    3    3    0    0 -0.21456970547E+02  0.32877824850E+02  0.31124755837E+01  0.39383250963E+02  0.51100000000E-03 0.  1.
         12    1    3    3    0    0  0.23630921085E+02 -0.29573111509E+02 -0.13258622681E+02  0.40109605222E+02  0.00000000000E+00 0. -1.
</event>
<event>
 7    1  0.4520336E-015  0.9000778E+02  0.7816164E-02  0.1186339E+00
        -11   -1    0    0    0    0  0.00000000000E+00  0.00000000000E+00  0.45593999997E+02  0.45594000000E+02  0.51100000000E-03 0. -1.
         11   -1    0    0    0    0 -0.00000000000E+00 -0.00000000000E+00 -0.45593999997E+02  0.45594000000E+02  0.51100000000E-03 0.  1.
    9900012    2    1    2    0    0  0.17208194935E-02 -0.11683167807E+01  0.16722331475E+00  0.90007775149E+02  0.90000036981E+02 0.  0.
         12    1    1    2    0    0 -0.17208194935E-02  0.11683167807E+01 -0.16722331475E+00  0.11802248507E+01  0.00000000000E+00 0. -1.
         11    1    3    3    0    0 -0.83697403104E+01  0.24559232556E+02  0.27004412530E+02  0.37449255706E+02  0.51100000000E-03 0. -1.
        -11    1    3    3    0    0 -0.13199378023E+01 -0.63399893884E+01  0.87526669674E+01  0.10887923611E+02  0.51100000000E-03 0.  1.
        -12    1    3    3    0    0  0.96913989322E+01 -0.19387559948E+02 -0.35589856182E+02  0.41670595833E+02  0.00000000000E+00 0.  1.
</event>
<event>
 7    1  0.4520336E-015  0.9000772E+02  0.7816164E-02  0.1186339E+00
        -11   -1    0    0    0    0  0.00000000000E+00  0.00000000000E+00  0.45593999997E+02  0.45594000000E+02  0.51100000000E-03 0.  1.
         11   -1    0    0    0    0 -0.00000000000E+00 -0.00000000000E+00 -0.45593999997E+02  0.45594000000E+02  0.51100000000E-03 0. -1.
    9900012    2    1    2    0    0  0.56719332688E+00  0.13660835222E-01  0.10349764871E+01  0.90007715620E+02  0.89999976666E+02 0.  0.
         12    1    1    2    0    0 -0.56719332688E+00 -0.13660835222E-01 -0.10349764871E+01  0.11802843799E+01  0.00000000000E+00 0. -1.
         11    1    3    3    0    0 -0.27676990951E+02 -0.25037540867E+02 -0.10374032792E+02  0.38736479414E+02  0.51100000000E-03 0. -1.
        -11    1    3    3    0    0 -0.71591960636E+01  0.35563971134E+01  0.48147469762E+01  0.93318721279E+01  0.51100000000E-03 0.  1.
        -12    1    3    3    0    0  0.35403380342E+02  0.21494804589E+02  0.65942623030E+01  0.41939364078E+02  0.00000000000E+00 0.  1.
</event>
<event>
 7    1  0.4520336E-015  0.9000756E+02  0.7816164E-02  0.1186339E+00
        -11   -1    0    0    0    0  0.00000000000E+00  0.00000000000E+00  0.45593999997E+02  0.45594000000E+02  0.51100000000E-03 0.  1.
         11   -1    0    0    0    0 -0.00000000000E+00 -0.00000000000E+00 -0.45593999997E+02  0.45594000000E+02  0.51100000000E-03 0. -1.
    9900012    2    1    2    0    0 -0.30236472362E+00  0.11249693455E+01 -0.19094345371E+00  0.90007559465E+02  0.89999818450E+02 0.  0.
         12    1    1    2    0    0  0.30236472362E+00 -0.11249693455E+01  0.19094345371E+00  0.11804405351E+01  0.00000000000E+00 0. -1.
         11    1    3    3    0    0 -0.71706719766E+01  0.80435938937E+01  0.25051307914E+01  0.11063165002E+02  0.51100000000E-03 0. -1.
        -11    1    3    3    0    0  0.98426305891E+01  0.26388463435E+02  0.23328562821E+02  0.36571166551E+02  0.51100000000E-03 0.  1.
         12    1    3    3    0    0 -0.29743233362E+01 -0.33307087983E+02 -0.26024637066E+02  0.42373227912E+02  0.00000000000E+00 0. -1.
</event>
<event>
 7    1  0.4520336E-015  0.9000685E+02  0.7816164E-02  0.1186341E+00
        -11   -1    0    0    0    0  0.00000000000E+00  0.00000000000E+00  0.45593999997E+02  0.45594000000E+02  0.51100000000E-03 0. -1.
         11   -1    0    0    0    0 -0.00000000000E+00 -0.00000000000E+00 -0.45593999997E+02  0.45594000000E+02  0.51100000000E-03 0.  1.
    9900012    2    1    2    0    0 -0.92579210737E+00  0.57343862485E+00  0.45737259117E+00  0.90006851165E+02  0.89999100796E+02 0.  0.
         12    1    1    2    0    0  0.92579210737E+00 -0.57343862485E+00 -0.45737259117E+00  0.11811488347E+01  0.00000000000E+00 0. -1.
         11    1    3    3    0    0  0.30548837854E+02 -0.18645081816E+02  0.17760644247E+02  0.39953861572E+02  0.51100000000E-03 0. -1.
        -11    1    3    3    0    0 -0.36280725072E+01 -0.72930510297E+01 -0.70972138667E+00  0.81765034181E+01  0.51100000000E-03 0.  1.
        -12    1    3    3    0    0 -0.27846557454E+02  0.26511571471E+02 -0.16593550270E+02  0.41876486176E+02  0.00000000000E+00 0.  1.
</event>
<event>
 7    1  0.4520336E-015  0.9000781E+02  0.7816164E-02  0.1186339E+00
        -11   -1    0    0    0    0  0.00000000000E+00  0.00000000000E+00  0.45593999997E+02  0.45594000000E+02  0.51100000000E-03 0.  1.
         11   -1    0    0    0    0 -0.00000000000E+00 -0.00000000000E+00 -0.45593999997E+02  0.45594000000E+02  0.51100000000E-03 0. -1.
    9900012    2    1    2    0    0 -0.96998624844E-01 -0.11606589960E+01 -0.19056600175E+00  0.90007807880E+02  0.90000070144E+02 0.  0.
         12    1    1    2    0    0  0.96998624844E-01  0.11606589960E+01  0.19056600175E+00  0.11801921196E+01  0.00000000000E+00 0. -1.
         11    1    3    3    0    0  0.96641281869E+01  0.37345390556E+02  0.52412967353E+01  0.38929998216E+02  0.51100000000E-03 0. -1.
        -11    1    3    3    0    0  0.81706057221E+01 -0.33016090345E+01  0.51106701671E+01  0.10187166922E+02  0.51100000000E-03 0.  1.
        -12    1    3    3    0    0 -0.17931732534E+02 -0.35204440517E+02 -0.10542532904E+02  0.40890642742E+02  0.00000000000E+00 0.  1.
</event>
<event>
 7    1  0.4520336E-015  0.9000778E+02  0.7816164E-02  0.1186339E+00
        -11   -1    0    0    0    0  0.00000000000E+00  0.00000000000E+00  0.45593999997E+02  0.45594000000E+02  0.51100000000E-03 0.  1.
         11   -1    0    0    0    0 -0.00000000000E+00 -0.00000000000E+00 -0.45593999997E+02  0.45594000000E+02  0.51100000000E-03 0. -1.
    9900012    2    1    2    0    0 -0.20551504224E+00 -0.11010447284E+01  0.37199900458E+00  0.90007780026E+02  0.90000041923E+02 0.  0.
         12    1    1    2    0    0  0.20551504224E+00  0.11010447284E+01 -0.37199900458E+00  0.11802199735E+01  0.00000000000E+00 0. -1.
         11    1    3    3    0    0  0.35382617364E+02 -0.14028090033E+02 -0.79930286908E+00  0.38070405919E+02  0.51100000000E-03 0. -1.
        -11    1    3    3    0    0  0.59789004689E+01  0.58611734424E+01  0.47435840382E+01  0.96230034151E+01  0.51100000000E-03 0.  1.
        -12    1    3    3    0    0 -0.41567032875E+02  0.70658718624E+01 -0.35722821646E+01  0.42314370692E+02  0.00000000000E+00 0.  1.
</event>
<event>
 7    1  0.4520336E-015  0.9000780E+02  0.7816164E-02  0.1186339E+00
        -11   -1    0    0    0    0  0.00000000000E+00  0.00000000000E+00  0.45593999997E+02  0.45594000000E+02  0.51100000000E-03 0. -1.
         11   -1    0    0    0    0 -0.00000000000E+00 -0.00000000000E+00 -0.45593999997E+02  0.45594000000E+02  0.51100000000E-03 0.  1.
    9900012    2    1    2    0    0 -0.84597082565E+00  0.48452700457E+00 -0.66516397270E+00  0.90007798252E+02  0.90000060389E+02 0.  0.
         12    1    1    2    0    0  0.84597082565E+00 -0.48452700457E+00  0.66516397270E+00  0.11802017483E+01  0.00000000000E+00 0. -1.
         11    1    3    3    0    0  0.11400642064E+02 -0.51266859081E+01  0.35824970327E+02  0.37943195003E+02  0.51100000000E-03 0. -1.
        -11    1    3    3    0    0  0.70925662323E+01  0.30043200827E+01  0.27996431774E+01  0.81956352470E+01  0.51100000000E-03 0.  1.
        -12    1    3    3    0    0 -0.19339179122E+02  0.26068928300E+01 -0.39289777477E+02  0.43868968002E+02  0.00000000000E+00 0.  1.
</event>
<event>
 7    1  0.4520336E-015  0.9000700E+02  0.7816164E-02  0.1186341E+00
        -11   -1    0    0    0    0  0.00000000000E+00  0.00000000000E+00  0.45593999997E+02  0.45594000000E+02  0.51100000000E-03 0.  1.
         11   -1    0    0    0    0 -0.00000000000E+00 -0.00000000000E+00 -0.45593999997E+02  0.45594000000E+02  0.51100000000E-03 0. -1.
    9900012    2    1    2    0    0  0.51902099317E+00 -0.52321465550E+00 -0.92284043258E+00  0.90006995838E+02  0.89999247380E+02 0.  0.
         12    1    1    2    0    0 -0.51902099317E+00  0.52321465550E+00  0.92284043258E+00  0.11810041622E+01  0.00000000000E+00 0. -1.
         11    1    3    3    0    0  0.12308992473E+02 -0.23257419588E+02 -0.30706600543E+02  0.40439018025E+02  0.51100000000E-03 0. -1.
        -11    1    3    3    0    0  0.11404261438E+01 -0.67858760953E+01  0.85450736886E+01  0.10971188212E+02  0.51100000000E-03 0.  1.
        -12    1    3    3    0    0 -0.12930397624E+02  0.29520081028E+02  0.21238686422E+02  0.38596789602E+02  0.00000000000E+00 0.  1.
</event>
<event>
 7    1  0.4520336E-015  0.9000776E+02  0.7816164E-02  0.1186339E+00
        -11   -1    0    0    0    0  0.00000000000E+00  0.00000000000E+00  0.45593999997E+02  0.45594000000E+02  0.51100000000E-03 0. -1.
         11   -1    0    0    0    0 -0.00000000000E+00 -0.00000000000E+00 -0.45593999997E+02  0.45594000000E+02  0.51100000000E-03 0.  1.
    9900012    2    1    2    0    0  0.63586069804E+00  0.81510249169E+00 -0.56943641355E+00  0.90007759038E+02  0.90000020657E+02 0.  0.
         12    1    1    2    0    0 -0.63586069804E+00 -0.81510249169E+00  0.56943641355E+00  0.11802409620E+01  0.00000000000E+00 0. -1.
         11    1    3    3    0    0  0.40352582034E+01  0.11651495252E+02 -0.42688606799E+01  0.13048518006E+02  0.51100000000E-03 0. -1.
        -11    1    3    3    0    0 -0.15016649504E+02  0.21348939590E+02 -0.22023448558E+02  0.34151270410E+02  0.51100000000E-03 0.  1.
         12    1    3    3    0    0  0.11617251998E+02 -0.32185332350E+02  0.25722872824E+02  0.42807970623E+02  0.00000000000E+00 0. -1.
</event>
<event>
 7    1  0.4520336E-015  0.9000775E+02  0.7816164E-02  0.1186339E+00
        -11   -1    0    0    0    0  0.00000000000E+00  0.00000000000E+00  0.45593999997E+02  0.45594000000E+02  0.51100000000E-03 0.  1.
         11   -1    0    0    0    0 -0.00000000000E+00 -0.00000000000E+00 -0.45593999997E+02  0.45594000000E+02  0.51100000000E-03 0. -1.
    9900012    2    1    2    0    0 -0.17833987741E+00  0.11005761703E+01 -0.38720196706E+00  0.90007746476E+02  0.90000007929E+02 0.  0.
         12    1    1    2    0    0  0.17833987741E+00 -0.11005761703E+01  0.38720196706E+00  0.11802535243E+01  0.00000000000E+00 0. -1.
         11    1    3    3    0    0  0.58765889885E+01  0.61985131768E+01 -0.26228274006E+01  0.89350482695E+01  0.51100000000E-03 0. -1.
        -11    1    3    3    0    0  0.14659098471E+02  0.19628138834E+01  0.37082910189E+02  0.39923477236E+02  0.51100000000E-03 0.  1.
         12    1    3    3    0    0 -0.20714027336E+02 -0.70607508900E+01 -0.34847284755E+02  0.41149220970E+02  0.00000000000E+00 0. -1.
</event>
<event>
 7    1  0.4520336E-015  0.9000785E+02  0.7816164E-02  0.1186339E+00
        -11   -1    0    0    0    0  0.00000000000E+00  0.00000000000E+00  0.45593999997E+02  0.45594000000E+02  0.51100000000E-03 0.  1.
         11   -1    0    0    0    0 -0.00000000000E+00 -0.00000000000E+00 -0.45593999997E+02  0.45594000000E+02  0.51100000000E-03 0. -1.
    9900012    2    1    2    0    0 -0.14617766238E+00  0.99016361916E+00  0.62527174149E+00  0.90007848886E+02  0.90000111691E+02 0.  0.
         12    1    1    2    0    0  0.14617766238E+00 -0.99016361916E+00 -0.62527174149E+00  0.11801511142E+01  0.00000000000E+00 0. -1.
         11    1    3    3    0    0 -0.84364293833E+01  0.40965718874E+01  0.35284701942E+01  0.10020246711E+02  0.51100000000E-03 0. -1.
        -11    1    3    3    0    0  0.27116149599E+02 -0.19759183797E+02  0.25439601487E+02  0.42105631897E+02  0.51100000000E-03 0.  1.
         12    1    3    3    0    0 -0.18825897878E+02  0.16652775528E+02 -0.28342799940E+02  0.37881970278E+02  0.00000000000E+00 0. -1.
</event>
<event>
 7    1  0.4520336E-015  0.9000780E+02  0.7816164E-02  0.1186339E+00
        -11   -1    0    0    0    0  0.00000000000E+00  0.00000000000E+00  0.45593999997E+02  0.45594000000E+02  0.51100000000E-03 0.  1.
         11   -1    0    0    0    0 -0.00000000000E+00 -0.00000000000E+00 -0.45593999997E+02  0.45594000000E+02  0.51100000000E-03 0. -1.
    9900012    2    1    2    0    0 -0.66655931078E+00 -0.91340045891E+00 -0.33805214538E+00  0.90007796218E+02  0.90000058328E+02 0.  0.
         12    1    1    2    0    0  0.66655931078E+00  0.91340045891E+00  0.33805214538E+00  0.11802037816E+01  0.00000000000E+00 0. -1.
         11    1    3    3    0    0  0.12314425900E+01 -0.25223993308E+01  0.90206223742E+01  0.94472523791E+01  0.51100000000E-03 0. -1.
        -11    1    3    3    0    0 -0.22028576851E+02 -0.71047493671E+01  0.28555546992E+02  0.36758059332E+02  0.51100000000E-03 0.  1.
         12    1    3    3    0    0  0.20130574950E+02  0.87137482390E+01 -0.37914221511E+02  0.43802484507E+02  0.00000000000E+00 0. -1.
</event>
<event>
 7    1  0.4520336E-015  0.9000806E+02  0.7816164E-02  0.1186338E+00
        -11   -1    0    0    0    0  0.00000000000E+00  0.00000000000E+00  0.45593999997E+02  0.45594000000E+02  0.51100000000E-03 0.  1.
         11   -1    0    0    0    0 -0.00000000000E+00 -0.00000000000E+00 -0.45593999997E+02  0.45594000000E+02  0.51100000000E-03 0. -1.
    9900012    2    1    2    0    0 -0.53389856874E+00  0.10168046654E+01 -0.27075354148E+00  0.90008064879E+02  0.90000330535E+02 0.  0.
         12    1    1    2    0    0  0.53389856874E+00 -0.10168046654E+01  0.27075354148E+00  0.11799351209E+01  0.00000000000E+00 0. -1.
         11    1    3    3    0    0 -0.26266432385E+02 -0.26274487466E+02 -0.20099293869E+02  0.42240451892E+02  0.51100000000E-03 0. -1.
        -11    1    3    3    0    0  0.43030323132E+01  0.71870811752E+01 -0.45990497507E+01  0.95562273821E+01  0.51100000000E-03 0.  1.
        -12    1    3    3    0    0  0.21429501503E+02  0.20104210956E+02  0.24427590078E+02  0.38211385605E+02  0.00000000000E+00 0.  1.
</event>
<event>
 7    1  0.4520336E-015  0.9000776E+02  0.7816164E-02  0.1186339E+00
        -11   -1    0    0    0    0  0.00000000000E+00  0.00000000000E+00  0.45593999997E+02  0.45594000000E+02  0.51100000000E-03 0.  1.
         11   -1    0    0    0    0 -0.00000000000E+00 -0.00000000000E+00 -0.45593999997E+02  0.45594000000E+02  0.51100000000E-03 0. -1.
    9900012    2    1    2    0    0 -0.63707083948E+00  0.42062089484E+00  0.90010113173E+00  0.90007761364E+02  0.90000023014E+02 0.  0.
         12    1    1    2    0    0  0.63707083948E+00 -0.42062089484E+00 -0.90010113173E+00  0.11802386365E+01  0.00000000000E+00 0. -1.
         11    1    3    3    0    0  0.11833568995E+02  0.25464363018E+01  0.20945391242E+00  0.12106261363E+02  0.51100000000E-03 0. -1.
        -11    1    3    3    0    0 -0.84858151395E+01 -0.26392986773E+02  0.29190841026E+02  0.40257968272E+02  0.51100000000E-03 0.  1.
         12    1    3    3    0    0 -0.39848246948E+01  0.24267171366E+02 -0.28500193806E+02  0.37643531728E+02  0.00000000000E+00 0. -1.
</event>
<event>
 7    1  0.4520336E-015  0.9000776E+02  0.7816164E-02  0.1186339E+00
        -11   -1    0    0    0    0  0.00000000000E+00  0.00000000000E+00  0.45593999997E+02  0.45594000000E+02  0.51100000000E-03 0. -1.
         11   -1    0    0    0    0 -0.00000000000E+00 -0.00000000000E+00 -0.45593999997E+02  0.45594000000E+02  0.51100000000E-03 0.  1.
    9900012    2    1    2    0    0 -0.45622433761E+00 -0.32285153198E+00 -0.10395193802E+01  0.90007756678E+02  0.90000018266E+02 0.  0.
         12    1    1    2    0    0  0.45622433761E+00  0.32285153198E+00  0.10395193802E+01  0.11802433222E+01  0.00000000000E+00 0. -1.
         11    1    3    3    0    0  0.68452285428E+00  0.55394814848E+01 -0.73060552096E+01  0.91941758546E+01  0.51100000000E-03 0. -1.
        -11    1    3    3    0    0 -0.20571715932E+02 -0.31382014168E+02 -0.16993502191E+02  0.41192298147E+02  0.51100000000E-03 0.  1.
         12    1    3    3    0    0  0.19430968740E+02  0.25519681151E+02  0.23260038021E+02  0.39621282677E+02  0.00000000000E+00 0. -1.
</event>
<event>
 7    1  0.4520336E-015  0.9000774E+02  0.7816164E-02  0.1186339E+00
        -11   -1    0    0    0    0  0.00000000000E+00  0.00000000000E+00  0.45593999997E+02  0.45594000000E+02  0.51100000000E-03 0. -1.
         11   -1    0    0    0    0 -0.00000000000E+00 -0.00000000000E+00 -0.45593999997E+02  0.45594000000E+02  0.51100000000E-03 0.  1.
    9900012    2    1    2    0    0  0.13096406543E+00  0.56526825249E+00 -0.10277822456E+01  0.90007738958E+02  0.90000000312E+02 0.  0.
         12    1    1    2    0    0 -0.13096406543E+00 -0.56526825249E+00  0.10277822456E+01  0.11802610423E+01  0.00000000000E+00 0. -1.
         11    1    3    3    0    0  0.41112360624E+01  0.15021022779E+02  0.24136989322E+02  0.28725035093E+02  0.51100000000E-03 0. -1.
        -11    1    3    3    0    0 -0.97639338780E+01  0.12381448623E+02  0.84437513917E+01  0.17886632232E+02  0.51100000000E-03 0.  1.
        -12    1    3    3    0    0  0.57836618811E+01 -0.26837203150E+02 -0.33608522959E+02  0.43396071633E+02  0.00000000000E+00 0.  1.
</event>
<event>
 7    1  0.4520336E-015  0.9000777E+02  0.7816164E-02  0.1186339E+00
        -11   -1    0    0    0    0  0.00000000000E+00  0.00000000000E+00  0.45593999997E+02  0.45594000000E+02  0.51100000000E-03 0.  1.
         11   -1    0    0    0    0 -0.00000000000E+00 -0.00000000000E+00 -0.45593999997E+02  0.45594000000E+02  0.51100000000E-03 0. -1.
    9900012    2    1    2    0    0  0.74211651923E+00  0.83446957187E+00 -0.38193430906E+00  0.90007766883E+02  0.90000028606E+02 0.  0.
         12    1    1    2    0    0 -0.74211651923E+00 -0.83446957187E+00  0.38193430906E+00  0.11802331172E+01  0.00000000000E+00 0. -1.
         11    1    3    3    0    0 -0.61528711413E+01  0.73951353275E+01 -0.23878702769E+01  0.99120015392E+01  0.51100000000E-03 0. -1.
        -11    1    3    3    0    0  0.19789184182E+02  0.28483390952E+02  0.18460643299E+02  0.39290084271E+02  0.51100000000E-03 0.  1.
         12    1    3    3    0    0 -0.12894196522E+02 -0.35044056708E+02 -0.16454707331E+02  0.40805681073E+02  0.00000000000E+00 0. -1.
</event>
<event>
 7    1  0.4520336E-015  0.9000802E+02  0.7816164E-02  0.1186338E+00
        -11   -1    0    0    0    0  0.00000000000E+00  0.00000000000E+00  0.45593999997E+02  0.45594000000E+02  0.51100000000E-03 0.  1.
         11   -1    0    0    0    0 -0.00000000000E+00 -0.00000000000E+00 -0.45593999997E+02  0.45594000000E+02  0.51100000000E-03 0. -1.
    9900012    2    1    2    0    0 -0.29079960477E+00 -0.92859534164E+00  0.66744884741E+00  0.90008024711E+02  0.90000289837E+02 0.  0.
         12    1    1    2    0    0  0.29079960477E+00  0.92859534164E+00 -0.66744884741E+00  0.11799752890E+01  0.00000000000E+00 0. -1.
         11    1    3    3    0    0  0.48931121496E+01 -0.33879069886E+02 -0.17729253543E+02  0.38549453359E+02  0.51100000000E-03 0. -1.
        -11    1    3    3    0    0  0.40315430572E+01  0.41582581386E+01  0.20356179811E+02  0.21164085308E+02  0.51100000000E-03 0.  1.
        -12    1    3    3    0    0 -0.92154548116E+01  0.28792216405E+02 -0.19594774206E+01  0.30294486044E+02  0.00000000000E+00 0.  1.
</event>
<event>
 7    1  0.4520336E-015  0.9000775E+02  0.7816164E-02  0.1186339E+00
        -11   -1    0    0    0    0  0.00000000000E+00  0.00000000000E+00  0.45593999997E+02  0.45594000000E+02  0.51100000000E-03 0. -1.
         11   -1    0    0    0    0 -0.00000000000E+00 -0.00000000000E+00 -0.45593999997E+02  0.45594000000E+02  0.51100000000E-03 0.  1.
    9900012    2    1    2    0    0 -0.51762083888E+00 -0.73458655805E+00 -0.76514687194E+00  0.90007746434E+02  0.90000007887E+02 0.  0.
         12    1    1    2    0    0  0.51762083888E+00  0.73458655805E+00  0.76514687194E+00  0.11802535659E+01  0.00000000000E+00 0. -1.
         11    1    3    3    0    0 -0.33408963237E+02  0.22064416610E+02 -0.79672111157E+01  0.40822466341E+02  0.51100000000E-03 0. -1.
        -11    1    3    3    0    0  0.17700575177E+01 -0.14565901934E+01  0.11020350419E+02  0.11256237481E+02  0.51100000000E-03 0.  1.
        -12    1    3    3    0    0  0.31121284880E+02 -0.21342412975E+02 -0.38182861754E+01  0.37929042612E+02  0.00000000000E+00 0.  1.
</event>
<event>
 7    1  0.4520336E-015  0.9000780E+02  0.7816164E-02  0.1186339E+00
        -11   -1    0    0    0    0  0.00000000000E+00  0.00000000000E+00  0.45593999997E+02  0.45594000000E+02  0.51100000000E-03 0. -1.
         11   -1    0    0    0    0 -0.00000000000E+00 -0.00000000000E+00 -0.45593999997E+02  0.45594000000E+02  0.51100000000E-03 0.  1.
    9900012    2    1    2    0    0  0.67270430618E+00 -0.20484797614E+00 -0.94782852082E+00  0.90007799728E+02  0.90000061884E+02 0.  0.
         12    1    1    2    0    0 -0.67270430618E+00  0.20484797614E+00  0.94782852082E+00  0.11802002719E+01  0.00000000000E+00 0. -1.
         11    1    3    3    0    0  0.40393043607E+01 -0.56366291790E+01 -0.79030088671E+01  0.10514043829E+02  0.51100000000E-03 0. -1.
        -11    1    3    3    0    0  0.84609192925E+01  0.95223806598E+01 -0.34190790925E+02  0.36486614985E+02  0.51100000000E-03 0.  1.
         12    1    3    3    0    0 -0.11827519347E+02 -0.40905994569E+01  0.41145971271E+02  0.43007140915E+02  0.00000000000E+00 0. -1.
</event>
<event>
 7    1  0.4520336E-015  0.9000773E+02  0.7816164E-02  0.1186339E+00
        -11   -1    0    0    0    0  0.00000000000E+00  0.00000000000E+00  0.45593999997E+02  0.45594000000E+02  0.51100000000E-03 0.  1.
         11   -1    0    0    0    0 -0.00000000000E+00 -0.00000000000E+00 -0.45593999997E+02  0.45594000000E+02  0.51100000000E-03 0. -1.
    9900012    2    1    2    0    0 -0.26818365585E+00 -0.41575709055E+00  0.10715666175E+01  0.90007732468E+02  0.89999993736E+02 0.  0.
         12    1    1    2    0    0  0.26818365585E+00  0.41575709055E+00 -0.10715666175E+01  0.11802675321E+01  0.00000000000E+00 0. -1.
         11    1    3    3    0    0  0.34491953991E+01 -0.44659516788E+01  0.80808295797E+01  0.98560377565E+01  0.51100000000E-03 0. -1.
        -11    1    3    3    0    0  0.19837581012E+02 -0.27954320997E+02  0.11713096391E+02  0.36223891427E+02  0.51100000000E-03 0.  1.
         12    1    3    3    0    0 -0.23554960067E+02  0.32004515585E+02 -0.18722359353E+02  0.43927803284E+02  0.00000000000E+00 0. -1.
</event>
<event>
 7    1  0.4520336E-015  0.9000769E+02  0.7816164E-02  0.1186339E+00
        -11   -1    0    0    0    0  0.00000000000E+00  0.00000000000E+00  0.45593999997E+02  0.45594000000E+02  0.51100000000E-03 0.  1.
         11   -1    0    0    0    0 -0.00000000000E+00 -0.00000000000E+00 -0.45593999997E+02  0.45594000000E+02  0.51100000000E-03 0. -1.
    9900012    2    1    2    0    0 -0.10478001498E+01 -0.80592742422E-01  0.53735196477E+00  0.90007691787E+02  0.89999952518E+02 0.  0.
         12    1    1    2    0    0  0.10478001498E+01  0.80592742422E-01 -0.53735196477E+00  0.11803082132E+01  0.00000000000E+00 0. -1.
         11    1    3    3    0    0  0.93508162760E+01  0.74993036400E+01 -0.39972705451E+02  0.41731217349E+02  0.51100000000E-03 0. -1.
        -11    1    3    3    0    0 -0.32630667688E+00  0.72932859759E+01  0.63251765720E+01  0.96595214841E+01  0.51100000000E-03 0.  1.
        -12    1    3    3    0    0 -0.10072309749E+02 -0.14873182358E+02  0.34184880844E+02  0.38616952954E+02  0.00000000000E+00 0.  1.
</event>
<event>
 7    1  0.4520336E-015  0.9000774E+02  0.7816164E-02  0.1186339E+00
        -11   -1    0    0    0    0  0.00000000000E+00  0.00000000000E+00  0.45593999997E+02  0.45594000000E+02  0.51100000000E-03 0.  1.
         11   -1    0    0    0    0 -0.00000000000E+00 -0.00000000000E+00 -0.45593999997E+02  0.45594000000E+02  0.51100000000E-03 0. -1.
    9900012    2    1    2    0    0  0.14450789188E+00 -0.30584421498E+00  0.11307471187E+01  0.90007740596E+02  0.90000001972E+02 0.  0.
         12    1    1    2    0    0 -0.14450789188E+00  0.30584421498E+00 -0.11307471187E+01  0.11802594042E+01  0.00000000000E+00 0. -1.
         11    1    3    3    0    0 -0.16196064773E+01 -0.13590816635E+02  0.34175232213E+02  0.36814126623E+02  0.51100000000E-03 0. -1.
        -11    1    3    3    0    0 -0.50334789051E+01  0.38488751318E+01  0.81874545659E+01  0.10352978422E+02  0.51100000000E-03 0.  1.
        -12    1    3    3    0    0  0.67975932743E+01  0.94360972882E+01 -0.41231939660E+02  0.42840635552E+02  0.00000000000E+00 0.  1.
</event>
<event>
 7    1  0.4520336E-015  0.9000778E+02  0.7816164E-02  0.1186339E+00
        -11   -1    0    0    0    0  0.00000000000E+00  0.00000000000E+00  0.45593999997E+02  0.45594000000E+02  0.51100000000E-03 0.  1.
         11   -1    0    0    0    0 -0.00000000000E+00 -0.00000000000E+00 -0.45593999997E+02  0.45594000000E+02  0.51100000000E-03 0. -1.
    9900012    2    1    2    0    0  0.76751311674E+00  0.79066516402E+00  0.42272903209E+00  0.90007776453E+02  0.90000038302E+02 0.  0.
         12    1    1    2    0    0 -0.76751311674E+00 -0.79066516402E+00 -0.42272903209E+00  0.11802235469E+01  0.00000000000E+00 0. -1.
         11    1    3    3    0    0 -0.66992067021E+01  0.29140288368E+02  0.11041745179E+02  0.31874063335E+02  0.51100000000E-03 0. -1.
        -11    1    3    3    0    0  0.99302092363E+01  0.10049783950E+02  0.70534340648E+01  0.15791078028E+02  0.51100000000E-03 0.  1.
        -12    1    3    3    0    0 -0.24634894175E+01 -0.38399407154E+02 -0.17672450212E+02  0.42342635090E+02  0.00000000000E+00 0.  1.
</event>
<event>
 7    1  0.4520336E-015  0.9000772E+02  0.7816164E-02  0.1186339E+00
        -11   -1    0    0    0    0  0.00000000000E+00  0.00000000000E+00  0.45593999997E+02  0.45594000000E+02  0.51100000000E-03 0.  1.
         11   -1    0    0    0    0 -0.00000000000E+00 -0.00000000000E+00 -0.45593999997E+02  0.45594000000E+02  0.51100000000E-03 0. -1.
    9900012    2    1    2    0    0  0.22573921872E+00  0.97676487447E+00 -0.62291376398E+00  0.90007724874E+02  0.89999986043E+02 0.  0.
         12    1    1    2    0    0 -0.22573921872E+00 -0.97676487447E+00  0.62291376398E+00  0.11802751256E+01  0.00000000000E+00 0. -1.
         11    1    3    3    0    0 -0.92112979691E+01 -0.35514568403E+01  0.11932937663E+02  0.15487280507E+02  0.51100000000E-03 0. -1.
        -11    1    3    3    0    0 -0.37489115722E+01  0.31642419001E+01  0.29767799316E+02  0.30169332793E+02  0.51100000000E-03 0.  1.
         12    1    3    3    0    0  0.13185948760E+02  0.13639798147E+01 -0.42323650743E+02  0.44351111574E+02  0.00000000000E+00 0. -1.
</event>
<event>
 7    1  0.4520336E-015  0.9000767E+02  0.7816164E-02  0.1186339E+00
        -11   -1    0    0    0    0  0.00000000000E+00  0.00000000000E+00  0.45593999997E+02  0.45594000000E+02  0.51100000000E-03 0. -1.
         11   -1    0    0    0    0 -0.00000000000E+00 -0.00000000000E+00 -0.45593999997E+02  0.45594000000E+02  0.51100000000E-03 0.  1.
    9900012    2    1    2    0    0  0.10003019019E+01  0.61867967824E+00 -0.99078106821E-01  0.90007667458E+02  0.89999927868E+02 0.  0.
         12    1    1    2    0    0 -0.10003019019E+01 -0.61867967824E+00  0.99078106821E-01  0.11803325423E+01  0.00000000000E+00 0. -1.
         11    1    3    3    0    0  0.66375905939E+00  0.51528750436E+01  0.38624936795E+02  0.38972791021E+02  0.51100000000E-03 0. -1.
        -11    1    3    3    0    0  0.11315064629E+02  0.16364626138E+01 -0.12495956445E+01  0.11500877661E+02  0.51100000000E-03 0.  1.
        -12    1    3    3    0    0 -0.10978521786E+02 -0.61706579792E+01 -0.37474419257E+02  0.39533998776E+02  0.00000000000E+00 0.  1.
</event>
<event>
 7    1  0.4520336E-015  0.9000774E+02  0.7816164E-02  0.1186339E+00
        -11   -1    0    0    0    0  0.00000000000E+00  0.00000000000E+00  0.45593999997E+02  0.45594000000E+02  0.51100000000E-03 0.  1.
         11   -1    0    0    0    0 -0.00000000000E+00 -0.00000000000E+00 -0.45593999997E+02  0.45594000000E+02  0.51100000000E-03 0. -1.
    9900012    2    1    2    0    0 -0.63692086085E+00  0.98841803250E+00 -0.10181626746E+00  0.90007743696E+02  0.90000005113E+02 0.  0.
         12    1    1    2    0    0  0.63692086085E+00 -0.98841803250E+00  0.10181626746E+00  0.11802563036E+01  0.00000000000E+00 0. -1.
         11    1    3    3    0    0  0.79304399127E+01  0.26688894627E+01  0.24215771388E+01  0.87108486540E+01  0.51100000000E-03 0. -1.
        -11    1    3    3    0    0 -0.11745541417E+02  0.34435316858E+02  0.16955406334E+02  0.40140186777E+02  0.51100000000E-03 0.  1.
         12    1    3    3    0    0  0.31781806433E+01 -0.36115788288E+02 -0.19478799741E+02  0.41156708265E+02  0.00000000000E+00 0. -1.
</event>
<event>
 7    1  0.4520336E-015  0.9000771E+02  0.7816164E-02  0.1186339E+00
        -11   -1    0    0    0    0  0.00000000000E+00  0.00000000000E+00  0.45593999997E+02  0.45594000000E+02  0.51100000000E-03 0. -1.
         11   -1    0    0    0    0 -0.00000000000E+00 -0.00000000000E+00 -0.45593999997E+02  0.45594000000E+02  0.51100000000E-03 0.  1.
    9900012    2    1    2    0    0 -0.52645558685E+00  0.86174258621E+00 -0.61100197580E+00  0.90007712245E+02  0.89999973247E+02 0.  0.
         12    1    1    2    0    0  0.52645558685E+00 -0.86174258621E+00  0.61100197580E+00  0.11802877549E+01  0.00000000000E+00 0. -1.
         11    1    3    3    0    0  0.29502051579E+02 -0.33598439220E+01  0.20926183476E+02  0.36325813875E+02  0.51100000000E-03 0. -1.
        -11    1    3    3    0    0  0.51291524525E+01 -0.65727996196E+01  0.36553600998E+01  0.91033816486E+01  0.51100000000E-03 0.  1.
        -12    1    3    3    0    0 -0.35157659618E+02  0.10794386128E+02 -0.25192545552E+02  0.44578516721E+02  0.00000000000E+00 0.  1.
</event>
<event>
 7    1  0.4520336E-015  0.9000772E+02  0.7816164E-02  0.1186339E+00
        -11   -1    0    0    0    0  0.00000000000E+00  0.00000000000E+00  0.45593999997E+02  0.45594000000E+02  0.51100000000E-03 0.  1.
         11   -1    0    0    0    0 -0.00000000000E+00 -0.00000000000E+00 -0.45593999997E+02  0.45594000000E+02  0.51100000000E-03 0. -1.
    9900012    2    1    2    0    0  0.78895095938E-01 -0.99818238201E+00 -0.62487370506E+00  0.90007720520E+02  0.89999981631E+02 0.  0.
         12    1    1    2    0    0 -0.78895095938E-01  0.99818238201E+00  0.62487370506E+00  0.11802794801E+01  0.00000000000E+00 0. -1.
         11    1    3    3    0    0  0.41603081495E+00  0.24263153375E+02 -0.35606871548E+02  0.43089708690E+02  0.51100000000E-03 0. -1.
        -11    1    3    3    0    0 -0.74902265914E+01 -0.51708503006E+01  0.58694111982E+01  0.10830105045E+02  0.51100000000E-03 0.  1.
        -12    1    3    3    0    0  0.71530908724E+01 -0.20090485456E+02  0.29112586645E+02  0.36087906784E+02  0.00000000000E+00 0.  1.
</event>
<event>
 7    1  0.4520336E-015  0.9000778E+02  0.7816164E-02  0.1186339E+00
        -11   -1    0    0    0    0  0.00000000000E+00  0.00000000000E+00  0.45593999997E+02  0.45594000000E+02  0.51100000000E-03 0. -1.
         11   -1    0    0    0    0 -0.00000000000E+00 -0.00000000000E+00 -0.45593999997E+02  0.45594000000E+02  0.51100000000E-03 0.  1.
    9900012    2    1    2    0    0  0.10857849537E+01 -0.33379902077E+00  0.32027996877E+00  0.90007775441E+02  0.90000037277E+02 0.  0.
         12    1    1    2    0    0 -0.10857849537E+01  0.33379902077E+00 -0.32027996877E+00  0.11802245593E+01  0.00000000000E+00 0. -1.
         11    1    3    3    0    0  0.86549830771E+01  0.37276811381E+00  0.97989759617E+01  0.13079282025E+02  0.51100000000E-03 0. -1.
        -11    1    3    3    0    0  0.31428744213E+02  0.60450604372E+01 -0.17601275032E+02  0.36525519867E+02  0.51100000000E-03 0.  1.
         12    1    3    3    0    0 -0.38997942337E+02 -0.67516275718E+01  0.81225790393E+01  0.40402973549E+02  0.00000000000E+00 0. -1.
</event>
<event>
 7    1  0.4520336E-015  0.9000765E+02  0.7816164E-02  0.1186339E+00
        -11   -1    0    0    0    0  0.00000000000E+00  0.00000000000E+00  0.45593999997E+02  0.45594000000E+02  0.51100000000E-03 0. -1.
         11   -1    0    0    0    0 -0.00000000000E+00 -0.00000000000E+00 -0.45593999997E+02  0.45594000000E+02  0.51100000000E-03 0.  1.
    9900012    2    1    2    0    0 -0.85243202625E-01  0.54019447908E-01 -0.11760280472E+01  0.90007649852E+02  0.89999910030E+02 0.  0.
         12    1    1    2    0    0  0.85243202625E-01 -0.54019447908E-01  0.11760280472E+01  0.11803501481E+01  0.00000000000E+00 0. -1.
         11    1    3    3    0    0 -0.30806106953E+02  0.25991525655E+02  0.92919776047E+01  0.41363226174E+02  0.51100000000E-03 0. -1.
        -11    1    3    3    0    0  0.82409672600E+00 -0.54342711357E+01  0.65887432261E+01  0.85803249211E+01  0.51100000000E-03 0.  1.
        -12    1    3    3    0    0  0.29896767024E+02 -0.20503235072E+02 -0.17056748878E+02  0.40064098757E+02  0.00000000000E+00 0.  1.
</event>
<event>
 7    1  0.4520336E-015  0.9000770E+02  0.7816164E-02  0.1186339E+00
        -11   -1    0    0    0    0  0.00000000000E+00  0.00000000000E+00  0.45593999997E+02  0.45594000000E+02  0.51100000000E-03 0.  1.
         11   -1    0    0    0    0 -0.00000000000E+00 -0.00000000000E+00 -0.45593999997E+02  0.45594000000E+02  0.51100000000E-03 0. -1.
    9900012    2    1    2    0    0 -0.31436756147E+00 -0.89774385187E+00  0.69880804912E+00  0.90007701870E+02  0.89999962734E+02 0.  0.
         12    1    1    2    0    0  0.31436756147E+00  0.89774385187E+00 -0.69880804912E+00  0.11802981305E+01  0.00000000000E+00 0. -1.
         11    1    3    3    0    0  0.72366027438E+01  0.63471073754E+01 -0.41249476930E+02  0.42357685708E+02  0.51100000000E-03 0. -1.
        -11    1    3    3    0    0  0.52168532574E+01  0.29387616627E+01  0.81536319093E+01  0.10116006702E+02  0.51100000000E-03 0.  1.
        -12    1    3    3    0    0 -0.12767823563E+02 -0.10183612890E+02  0.33794653070E+02  0.37534009460E+02  0.00000000000E+00 0.  1.
</event>
<event>
 7    1  0.4520336E-015  0.9000777E+02  0.7816164E-02  0.1186339E+00
        -11   -1    0    0    0    0  0.00000000000E+00  0.00000000000E+00  0.45593999997E+02  0.45594000000E+02  0.51100000000E-03 0.  1.
         11   -1    0    0    0    0 -0.00000000000E+00 -0.00000000000E+00 -0.45593999997E+02  0.45594000000E+02  0.51100000000E-03 0. -1.
    9900012    2    1    2    0    0  0.27133932845E+00  0.85775192410E+00  0.76392252727E+00  0.90007770776E+02  0.90000032550E+02 0.  0.
         12    1    1    2    0    0 -0.27133932845E+00 -0.85775192410E+00 -0.76392252727E+00  0.11802292244E+01  0.00000000000E+00 0. -1.
         11    1    3    3    0    0 -0.29434908412E+01 -0.78512168565E+01  0.27923733946E+01  0.88375954816E+01  0.51100000000E-03 0. -1.
        -11    1    3    3    0    0  0.90256545871E+01  0.20988136469E+02  0.34961568985E+02  0.41764525848E+02  0.51100000000E-03 0.  1.
         12    1    3    3    0    0 -0.58108244175E+01 -0.12279167688E+02 -0.36990019853E+02  0.39405649446E+02  0.00000000000E+00 0. -1.
</event>
<event>
 7    1  0.4520336E-015  0.9000778E+02  0.7816164E-02  0.1186339E+00
        -11   -1    0    0    0    0  0.00000000000E+00  0.00000000000E+00  0.45593999997E+02  0.45594000000E+02  0.51100000000E-03 0.  1.
         11   -1    0    0    0    0 -0.00000000000E+00 -0.00000000000E+00 -0.45593999997E+02  0.45594000000E+02  0.51100000000E-03 0. -1.
    9900012    2    1    2    0    0  0.11610617544E+01  0.18315545017E+00 -0.10631936976E+00  0.90007782171E+02  0.90000044095E+02 0.  0.
         12    1    1    2    0    0 -0.11610617544E+01 -0.18315545017E+00  0.10631936976E+00  0.11802178294E+01  0.00000000000E+00 0. -1.
         11    1    3    3    0    0 -0.29198818926E+01  0.91614938091E+01 -0.89448610645E+00  0.96570588036E+01  0.51100000000E-03 0. -1.
        -11    1    3    3    0    0  0.90213416721E+01  0.28050140840E+02  0.22562452107E+02  0.37111443680E+02  0.51100000000E-03 0.  1.
         12    1    3    3    0    0 -0.49403980251E+01 -0.37028479199E+02 -0.21774285370E+02  0.43239279687E+02  0.00000000000E+00 0. -1.
</event>
<event>
 7    1  0.4520336E-015  0.9000773E+02  0.7816164E-02  0.1186339E+00
        -11   -1    0    0    0    0  0.00000000000E+00  0.00000000000E+00  0.45593999997E+02  0.45594000000E+02  0.51100000000E-03 0. -1.
         11   -1    0    0    0    0 -0.00000000000E+00 -0.00000000000E+00 -0.45593999997E+02  0.45594000000E+02  0.51100000000E-03 0.  1.
    9900012    2    1    2    0    0 -0.48777892689E+00 -0.46036168708E+00 -0.97117232944E+00  0.90007730176E+02  0.89999991414E+02 0.  0.
         12    1    1    2    0    0  0.48777892689E+00  0.46036168708E+00  0.97117232944E+00  0.11802698242E+01  0.00000000000E+00 0. -1.
         11    1    3    3    0    0  0.16175248961E+02 -0.36952365598E+01 -0.11778004961E+02  0.20347354946E+02  0.51100000000E-03 0. -1.
        -11    1    3    3    0    0 -0.18094152191E+02  0.16694931814E+02 -0.22721982152E+02  0.33502351633E+02  0.51100000000E-03 0.  1.
         12    1    3    3    0    0  0.14311243027E+01 -0.13460056941E+02  0.33528814784E+02  0.36158023597E+02  0.00000000000E+00 0. -1.
</event>
<event>
 7    1  0.4520336E-015  0.9000778E+02  0.7816164E-02  0.1186339E+00
        -11   -1    0    0    0    0  0.00000000000E+00  0.00000000000E+00  0.45593999997E+02  0.45594000000E+02  0.51100000000E-03 0. -1.
         11   -1    0    0    0    0 -0.00000000000E+00 -0.00000000000E+00 -0.45593999997E+02  0.45594000000E+02  0.51100000000E-03 0.  1.
    9900012    2    1    2    0    0 -0.38395378253E+00 -0.10857511408E+01 -0.25815224822E+00  0.90007780262E+02  0.90000042161E+02 0.  0.
         12    1    1    2    0    0  0.38395378253E+00  0.10857511408E+01  0.25815224822E+00  0.11802197381E+01  0.00000000000E+00 0. -1.
         11    1    3    3    0    0 -0.10917473170E+01  0.21425438562E+02  0.32045428619E+02  0.38563594560E+02  0.51100000000E-03 0. -1.
        -11    1    3    3    0    0 -0.60256987235E+01  0.50544503465E+01  0.72713480011E+00  0.78984326730E+01  0.51100000000E-03 0.  1.
        -12    1    3    3    0    0  0.67334922579E+01 -0.27565640049E+02 -0.33030715668E+02  0.43545753028E+02  0.00000000000E+00 0.  1.
</event>
<event>
 7    1  0.4520336E-015  0.9000722E+02  0.7816164E-02  0.1186340E+00
        -11   -1    0    0    0    0  0.00000000000E+00  0.00000000000E+00  0.45593999997E+02  0.45594000000E+02  0.51100000000E-03 0.  1.
         11   -1    0    0    0    0 -0.00000000000E+00 -0.00000000000E+00 -0.45593999997E+02  0.45594000000E+02  0.51100000000E-03 0. -1.
    9900012    2    1    2    0    0 -0.92696017995E+00 -0.37592430982E+00  0.62743216974E+00  0.90007218314E+02  0.89999472794E+02 0.  0.
         12    1    1    2    0    0  0.92696017995E+00  0.37592430982E+00 -0.62743216974E+00  0.11807816858E+01  0.00000000000E+00 0. -1.
         11    1    3    3    0    0  0.20099646005E+02 -0.33363156200E+02 -0.93801535464E+01  0.40063490137E+02  0.51100000000E-03 0. -1.
        -11    1    3    3    0    0  0.53450929823E+01  0.61419381856E+01 -0.48592974956E+01  0.94818877908E+01  0.51100000000E-03 0.  1.
        -12    1    3    3    0    0 -0.26371699167E+02  0.26845293704E+02  0.14866883212E+02  0.40461840387E+02  0.00000000000E+00 0.  1.
</event>
<event>
 7    1  0.4520336E-015  0.9000779E+02  0.7816164E-02  0.1186339E+00
        -11   -1    0    0    0    0  0.00000000000E+00  0.00000000000E+00  0.45593999997E+02  0.45594000000E+02  0.51100000000E-03 0. -1.
         11   -1    0    0    0    0 -0.00000000000E+00 -0.00000000000E+00 -0.45593999997E+02  0.45594000000E+02  0.51100000000E-03 0.  1.
    9900012    2    1    2    0    0 -0.89243458457E+00 -0.13425473035E+00 -0.76054185686E+00  0.90007793350E+02  0.90000055422E+02 0.  0.
         12    1    1    2    0    0  0.89243458457E+00  0.13425473035E+00  0.76054185686E+00  0.11802066499E+01  0.00000000000E+00 0. -1.
         11    1    3    3    0    0 -0.31023877567E+01  0.82419941392E+01 -0.34795835308E+01  0.94690431931E+01  0.51100000000E-03 0. -1.
        -11    1    3    3    0    0  0.14653925820E+02  0.18325315511E+02 -0.28964472734E+02  0.37275936092E+02  0.51100000000E-03 0.  1.
         12    1    3    3    0    0 -0.12443972648E+02 -0.26701564380E+02  0.31683514408E+02  0.43262814065E+02  0.00000000000E+00 0. -1.
</event>
<event>
 7    1  0.4520336E-015  0.9000785E+02  0.7816164E-02  0.1186339E+00
        -11   -1    0    0    0    0  0.00000000000E+00  0.00000000000E+00  0.45593999997E+02  0.45594000000E+02  0.51100000000E-03 0.  1.
         11   -1    0    0    0    0 -0.00000000000E+00 -0.00000000000E+00 -0.45593999997E+02  0.45594000000E+02  0.51100000000E-03 0. -1.
    9900012    2    1    2    0    0  0.51697587735E+00 -0.10051656101E+01  0.33932215979E+00  0.90007846836E+02  0.90000109615E+02 0.  0.
         12    1    1    2    0    0 -0.51697587735E+00  0.10051656101E+01 -0.33932215979E+00  0.11801531636E+01  0.00000000000E+00 0. -1.
         11    1    3    3    0    0  0.43360601451E+01  0.79522397114E+01  0.28783948803E+00  0.90621402462E+01  0.51100000000E-03 0. -1.
        -11    1    3    3    0    0 -0.39018534209E+01  0.35837893428E+02  0.20287399726E+01  0.36106714772E+02  0.51100000000E-03 0.  1.
         12    1    3    3    0    0  0.82769153168E-01 -0.44795298750E+02 -0.19772573009E+01  0.44838991818E+02  0.00000000000E+00 0. -1.
</event>
<event>
 7    1  0.4520336E-015  0.9000772E+02  0.7816164E-02  0.1186339E+00
        -11   -1    0    0    0    0  0.00000000000E+00  0.00000000000E+00  0.45593999997E+02  0.45594000000E+02  0.51100000000E-03 0.  1.
         11   -1    0    0    0    0 -0.00000000000E+00 -0.00000000000E+00 -0.45593999997E+02  0.45594000000E+02  0.51100000000E-03 0. -1.
    9900012    2    1    2    0    0 -0.52800650817E+00 -0.78876269483E+00  0.70152012553E+00  0.90007717005E+02  0.89999978070E+02 0.  0.
         12    1    1    2    0    0  0.52800650817E+00  0.78876269483E+00 -0.70152012553E+00  0.11802829949E+01  0.00000000000E+00 0. -1.
         11    1    3    3    0    0 -0.33294857925E+02 -0.27708635386E+02  0.27348949516E+01  0.43402715236E+02  0.51100000000E-03 0. -1.
        -11    1    3    3    0    0  0.70022159131E+01  0.96736214880E+00 -0.66990430188E+01  0.97387881612E+01  0.51100000000E-03 0.  1.
        -12    1    3    3    0    0  0.25764635504E+02  0.25952510543E+02  0.46656681927E+01  0.36866213608E+02  0.00000000000E+00 0.  1.
</event>
<event>
 7    1  0.4520336E-015  0.9000776E+02  0.7816164E-02  0.1186339E+00
        -11   -1    0    0    0    0  0.00000000000E+00  0.00000000000E+00  0.45593999997E+02  0.45594000000E+02  0.51100000000E-03 0.  1.
         11   -1    0    0    0    0 -0.00000000000E+00 -0.00000000000E+00 -0.45593999997E+02  0.45594000000E+02  0.51100000000E-03 0. -1.
    9900012    2    1    2    0    0  0.72745507501E+00 -0.32789125614E+00  0.86963166544E+00  0.90007761551E+02  0.90000023204E+02 0.  0.
         12    1    1    2    0    0 -0.72745507501E+00  0.32789125614E+00 -0.86963166544E+00  0.11802384486E+01  0.00000000000E+00 0. -1.
         11    1    3    3    0    0  0.71961618806E+01  0.34589321177E+02  0.96685866484E+01  0.36629052040E+02  0.51100000000E-03 0. -1.
        -11    1    3    3    0    0 -0.48284173314E+01  0.81339726809E+01 -0.29039418243E+01  0.98948473399E+01  0.51100000000E-03 0.  1.
        -12    1    3    3    0    0 -0.16402894742E+01 -0.43051185114E+02 -0.58950131586E+01  0.43483862172E+02  0.00000000000E+00 0.  1.
</event>
<event>
 7    1  0.4520336E-015  0.9000773E+02  0.7816164E-02  0.1186339E+00
        -11   -1    0    0    0    0  0.00000000000E+00  0.00000000000E+00  0.45593999997E+02  0.45594000000E+02  0.51100000000E-03 0.  1.
         11   -1    0    0    0    0 -0.00000000000E+00 -0.00000000000E+00 -0.45593999997E+02  0.45594000000E+02  0.51100000000E-03 0. -1.
    9900012    2    1    2    0    0  0.66543033634E+00  0.24761249235E+00  0.94283276413E+00  0.90007727531E+02  0.89999988735E+02 0.  0.
         12    1    1    2    0    0 -0.66543033634E+00 -0.24761249235E+00 -0.94283276413E+00  0.11802724685E+01  0.00000000000E+00 0. -1.
         11    1    3    3    0    0  0.52701940974E+01  0.91201391111E+01  0.79162342753E+01  0.13176442942E+02  0.51100000000E-03 0. -1.
        -11    1    3    3    0    0  0.13276955799E+02  0.29577273345E+02 -0.11000437539E+02  0.34235979322E+02  0.51100000000E-03 0.  1.
         12    1    3    3    0    0 -0.17881719560E+02 -0.38449799964E+02  0.40270360278E+01  0.42595305268E+02  0.00000000000E+00 0. -1.
</event>
<event>
 7    1  0.6778764E-015  0.9000764E+02  0.7816164E-02  0.1186339E+00
        -11   -1    0    0    0    0  0.00000000000E+00  0.00000000000E+00  0.45593999997E+02  0.45594000000E+02  0.51100000000E-03 0. -1.
         11   -1    0    0    0    0 -0.00000000000E+00 -0.00000000000E+00 -0.45593999997E+02  0.45594000000E+02  0.51100000000E-03 0.  1.
    9900012    2    1    2    0    0 -0.10757666362E+01  0.84589669362E-01 -0.47835139485E+00  0.90007640172E+02  0.89999900222E+02 0.  0.
         12    1    1    2    0    0  0.10757666362E+01 -0.84589669362E-01  0.47835139485E+00  0.11803598284E+01  0.00000000000E+00 0. -1.
         11    1    3    3    0    0  0.37894351181E+00  0.30045766777E+01  0.41527188313E+02  0.41637464484E+02  0.51100000000E-03 0. -1.
        -11    1    3    3    0    0 -0.40963006791E+01 -0.78490632665E+01 -0.35966850277E+01  0.95563390932E+01  0.51100000000E-03 0.  1.
        -12    1    3    3    0    0  0.26415905311E+01  0.49290762581E+01 -0.38408854680E+02  0.38813836594E+02  0.00000000000E+00 0.  1.
</event>
<event>
 7    1  0.4520336E-015  0.9000776E+02  0.7816164E-02  0.1186339E+00
        -11   -1    0    0    0    0  0.00000000000E+00  0.00000000000E+00  0.45593999997E+02  0.45594000000E+02  0.51100000000E-03 0.  1.
         11   -1    0    0    0    0 -0.00000000000E+00 -0.00000000000E+00 -0.45593999997E+02  0.45594000000E+02  0.51100000000E-03 0. -1.
    9900012    2    1    2    0    0 -0.92655010881E+00 -0.71839969327E+00  0.13555911741E+00  0.90007758712E+02  0.90000020327E+02 0.  0.
         12    1    1    2    0    0  0.92655010881E+00  0.71839969327E+00 -0.13555911741E+00  0.11802412879E+01  0.00000000000E+00 0. -1.
         11    1    3    3    0    0  0.48246352874E+01  0.25469473931E+02 -0.23951782293E+02  0.35293895836E+02  0.51100000000E-03 0. -1.
        -11    1    3    3    0    0 -0.53174533111E+00  0.18588381916E+01 -0.10044952277E+02  0.10229325443E+02  0.51100000000E-03 0.  1.
        -12    1    3    3    0    0 -0.52194400651E+01 -0.28046711816E+02  0.34132293687E+02  0.44484537433E+02  0.00000000000E+00 0.  1.
</event>
<event>
 7    1  0.4520336E-015  0.9000709E+02  0.7816164E-02  0.1186340E+00
        -11   -1    0    0    0    0  0.00000000000E+00  0.00000000000E+00  0.45593999997E+02  0.45594000000E+02  0.51100000000E-03 0.  1.
         11   -1    0    0    0    0 -0.00000000000E+00 -0.00000000000E+00 -0.45593999997E+02  0.45594000000E+02  0.51100000000E-03 0. -1.
    9900012    2    1    2    0    0 -0.87075794556E+00  0.70452089841E+00  0.37414077662E+00  0.90007089158E+02  0.89999341932E+02 0.  0.
         12    1    1    2    0    0  0.87075794556E+00 -0.70452089841E+00 -0.37414077662E+00  0.11809108420E+01  0.00000000000E+00 0. -1.
         11    1    3    3    0    0  0.27357305580E+02 -0.31707363191E+02 -0.85445148999E+01  0.42740938036E+02  0.51100000000E-03 0. -1.
        -11    1    3    3    0    0  0.20140987367E+01  0.61106798251E+00  0.18766382340E+01  0.28198881402E+01  0.51100000000E-03 0.  1.
        -12    1    3    3    0    0 -0.30242162262E+02  0.31800816106E+02  0.70420174425E+01  0.44446262981E+02  0.00000000000E+00 0.  1.
</event>
<event>
 7    1  0.4520336E-015  0.9000777E+02  0.7816164E-02  0.1186339E+00
        -11   -1    0    0    0    0  0.00000000000E+00  0.00000000000E+00  0.45593999997E+02  0.45594000000E+02  0.51100000000E-03 0.  1.
         11   -1    0    0    0    0 -0.00000000000E+00 -0.00000000000E+00 -0.45593999997E+02  0.45594000000E+02  0.51100000000E-03 0. -1.
    9900012    2    1    2    0    0 -0.84021920893E+00  0.65572299553E+00 -0.50695138640E+00  0.90007770923E+02  0.90000032699E+02 0.  0.
         12    1    1    2    0    0  0.84021920893E+00 -0.65572299553E+00  0.50695138640E+00  0.11802290770E+01  0.00000000000E+00 0. -1.
         11    1    3    3    0    0  0.81232701020E+01 -0.49485042662E+01  0.81240671860E+00  0.95464766569E+01  0.51100000000E-03 0. -1.
        -11    1    3    3    0    0  0.20686562818E+02  0.72499266720E+01  0.30095726114E+02  0.37232352176E+02  0.51100000000E-03 0.  1.
         12    1    3    3    0    0 -0.29650052129E+02 -0.16456994102E+01 -0.31415084219E+02  0.43228942090E+02  0.00000000000E+00 0. -1.
</event>
<event>
 7    1  0.4520336E-015  0.9000773E+02  0.7816164E-02  0.1186339E+00
        -11   -1    0    0    0    0  0.00000000000E+00  0.00000000000E+00  0.45593999997E+02  0.45594000000E+02  0.51100000000E-03 0. -1.
         11   -1    0    0    0    0 -0.00000000000E+00 -0.00000000000E+00 -0.45593999997E+02  0.45594000000E+02  0.51100000000E-03 0.  1.
    9900012    2    1    2    0    0 -0.10811611883E+01 -0.89386343834E-01 -0.46491701001E+00  0.90007725769E+02  0.89999986949E+02 0.  0.
         12    1    1    2    0    0  0.10811611883E+01  0.89386343834E-01  0.46491701001E+00  0.11802742307E+01  0.00000000000E+00 0. -1.
         11    1    3    3    0    0 -0.10040632031E+02  0.39956381170E+01 -0.26328388464E+02  0.28459856903E+02  0.51100000000E-03 0. -1.
        -11    1    3    3    0    0 -0.19332129679E+02 -0.18073905147E+00 -0.45142054895E+01  0.19853008739E+02  0.51100000000E-03 0.  1.
         12    1    3    3    0    0  0.28291600521E+02 -0.39042854094E+01  0.30377676944E+02  0.41694860128E+02  0.00000000000E+00 0. -1.
</event>
<event>
 7    1  0.4520336E-015  0.9000771E+02  0.7816164E-02  0.1186339E+00
        -11   -1    0    0    0    0  0.00000000000E+00  0.00000000000E+00  0.45593999997E+02  0.45594000000E+02  0.51100000000E-03 0. -1.
         11   -1    0    0    0    0 -0.00000000000E+00 -0.00000000000E+00 -0.45593999997E+02  0.45594000000E+02  0.51100000000E-03 0.  1.
    9900012    2    1    2    0    0  0.42957144709E-01  0.60986530190E+00 -0.10096076442E+01  0.90007708257E+02  0.89999969206E+02 0.  0.
         12    1    1    2    0    0 -0.42957144709E-01 -0.60986530190E+00  0.10096076442E+01  0.11802917428E+01  0.00000000000E+00 0. -1.
         11    1    3    3    0    0  0.99641123348E+01  0.52560863312E+01 -0.59177866845E+01  0.12725178885E+02  0.51100000000E-03 0. -1.
        -11    1    3    3    0    0  0.13690828455E+02  0.46498196275E+01 -0.30480472370E+02  0.33736016399E+02  0.51100000000E-03 0.  1.
         12    1    3    3    0    0 -0.23611983645E+02 -0.92960406568E+01  0.35388651410E+02  0.43546512973E+02  0.00000000000E+00 0. -1.
</event>
<event>
 7    1  0.4520336E-015  0.9000774E+02  0.7816164E-02  0.1186339E+00
        -11   -1    0    0    0    0  0.00000000000E+00  0.00000000000E+00  0.45593999997E+02  0.45594000000E+02  0.51100000000E-03 0.  1.
         11   -1    0    0    0    0 -0.00000000000E+00 -0.00000000000E+00 -0.45593999997E+02  0.45594000000E+02  0.51100000000E-03 0. -1.
    9900012    2    1    2    0    0 -0.26239831849E+00 -0.21056295496E+00  0.11312920723E+01  0.90007740966E+02  0.90000002346E+02 0.  0.
         12    1    1    2    0    0  0.26239831849E+00  0.21056295496E+00 -0.11312920723E+01  0.11802590345E+01  0.00000000000E+00 0. -1.
         11    1    3    3    0    0  0.65760296704E+01  0.72572636082E+00  0.18764424938E+01  0.68769093109E+01  0.51100000000E-03 0. -1.
        -11    1    3    3    0    0  0.34643233266E+02  0.15961291876E+02 -0.31635846406E+01  0.38274334972E+02  0.51100000000E-03 0.  1.
         12    1    3    3    0    0 -0.41481661255E+02 -0.16897581191E+02  0.24184342192E+01  0.44856496683E+02  0.00000000000E+00 0. -1.
</event>
<event>
 7    1  0.4520336E-015  0.9000775E+02  0.7816164E-02  0.1186339E+00
        -11   -1    0    0    0    0  0.00000000000E+00  0.00000000000E+00  0.45593999997E+02  0.45594000000E+02  0.51100000000E-03 0. -1.
         11   -1    0    0    0    0 -0.00000000000E+00 -0.00000000000E+00 -0.45593999997E+02  0.45594000000E+02  0.51100000000E-03 0.  1.
    9900012    2    1    2    0    0  0.82640993245E+00  0.81372921301E+00 -0.21880189421E+00  0.90007753044E+02  0.90000014584E+02 0.  0.
         12    1    1    2    0    0 -0.82640993245E+00 -0.81372921301E+00  0.21880189421E+00  0.11802469561E+01  0.00000000000E+00 0. -1.
         11    1    3    3    0    0  0.20547694111E+02  0.21617726757E+02  0.22512095439E+02  0.37367476296E+02  0.51100000000E-03 0. -1.
        -11    1    3    3    0    0  0.48896650061E+01 -0.18179199537E+00  0.72260302520E+01  0.87268199056E+01  0.51100000000E-03 0.  1.
        -12    1    3    3    0    0 -0.24610949185E+02 -0.20622205549E+02 -0.29956927585E+02  0.43913456842E+02  0.00000000000E+00 0.  1.
</event>
<event>
 7    1  0.4520336E-015  0.9000776E+02  0.7816164E-02  0.1186339E+00
        -11   -1    0    0    0    0  0.00000000000E+00  0.00000000000E+00  0.45593999997E+02  0.45594000000E+02  0.51100000000E-03 0.  1.
         11   -1    0    0    0    0 -0.00000000000E+00 -0.00000000000E+00 -0.45593999997E+02  0.45594000000E+02  0.51100000000E-03 0. -1.
    9900012    2    1    2    0    0  0.38773741025E+00 -0.70890115866E+00  0.86028718135E+00  0.90007756302E+02  0.90000017885E+02 0.  0.
         12    1    1    2    0    0 -0.38773741025E+00  0.70890115866E+00 -0.86028718135E+00  0.11802436979E+01  0.00000000000E+00 0. -1.
         11    1    3    3    0    0  0.54754482117E+01  0.80064620567E+01  0.18565895683E+00  0.97014657292E+01  0.51100000000E-03 0. -1.
        -11    1    3    3    0    0  0.34729202393E+02 -0.18113380032E+02  0.33226188379E+01  0.39309691315E+02  0.51100000000E-03 0.  1.
         12    1    3    3    0    0 -0.39816913195E+02  0.93980168170E+01 -0.26479906133E+01  0.40996599258E+02  0.00000000000E+00 0. -1.
</event>
<event>
 7    1  0.4520336E-015  0.9000774E+02  0.7816164E-02  0.1186339E+00
        -11   -1    0    0    0    0  0.00000000000E+00  0.00000000000E+00  0.45593999997E+02  0.45594000000E+02  0.51100000000E-03 0. -1.
         11   -1    0    0    0    0 -0.00000000000E+00 -0.00000000000E+00 -0.45593999997E+02  0.45594000000E+02  0.51100000000E-03 0.  1.
    9900012    2    1    2    0    0  0.62510174701E-01 -0.22938976637E+00 -0.11560615331E+01  0.90007743479E+02  0.90000004893E+02 0.  0.
         12    1    1    2    0    0 -0.62510174701E-01  0.22938976637E+00  0.11560615331E+01  0.11802565209E+01  0.00000000000E+00 0. -1.
         11    1    3    3    0    0 -0.36861707943E+01  0.18149348903E+01 -0.89018241764E+01  0.98043009801E+01  0.51100000000E-03 0. -1.
        -11    1    3    3    0    0  0.32840981704E+02  0.19692125197E+02  0.18221747764E+02  0.42406862250E+02  0.51100000000E-03 0.  1.
         12    1    3    3    0    0 -0.29092300735E+02 -0.21736449853E+02 -0.10475985121E+02  0.37796580249E+02  0.00000000000E+00 0. -1.
</event>
<event>
 7    1  0.4520336E-015  0.9000780E+02  0.7816164E-02  0.1186339E+00
        -11   -1    0    0    0    0  0.00000000000E+00  0.00000000000E+00  0.45593999997E+02  0.45594000000E+02  0.51100000000E-03 0. -1.
         11   -1    0    0    0    0 -0.00000000000E+00 -0.00000000000E+00 -0.45593999997E+02  0.45594000000E+02  0.51100000000E-03 0.  1.
    9900012    2    1    2    0    0  0.39295598095E+00  0.11049990574E+01 -0.13203037274E+00  0.90007801144E+02  0.90000063319E+02 0.  0.
         12    1    1    2    0    0 -0.39295598095E+00 -0.11049990574E+01  0.13203037274E+00  0.11801988558E+01  0.00000000000E+00 0. -1.
         11    1    3    3    0    0  0.22876656383E+01  0.69392051455E+01  0.57076650983E+01  0.92716462001E+01  0.51100000000E-03 0. -1.
        -11    1    3    3    0    0 -0.35081287659E+02  0.16654651639E+02  0.51362403048E+01  0.39172121844E+02  0.51100000000E-03 0.  1.
         12    1    3    3    0    0  0.33186578002E+02 -0.22488857727E+02 -0.10975935776E+02  0.41564033100E+02  0.00000000000E+00 0. -1.
</event>
<event>
 7    1  0.4520336E-015  0.9000774E+02  0.7816164E-02  0.1186339E+00
        -11   -1    0    0    0    0  0.00000000000E+00  0.00000000000E+00  0.45593999997E+02  0.45594000000E+02  0.51100000000E-03 0. -1.
         11   -1    0    0    0    0 -0.00000000000E+00 -0.00000000000E+00 -0.45593999997E+02  0.45594000000E+02  0.51100000000E-03 0.  1.
    9900012    2    1    2    0    0 -0.36565331866E+00 -0.10962719963E+01 -0.23980632454E+00  0.90007736592E+02  0.89999997915E+02 0.  0.
         12    1    1    2    0    0  0.36565331866E+00  0.10962719963E+01  0.23980632454E+00  0.11802634082E+01  0.00000000000E+00 0. -1.
         11    1    3    3    0    0  0.82864087012E+01 -0.18858194712E+02  0.35047907372E+02  0.40652821408E+02  0.51100000000E-03 0. -1.
        -11    1    3    3    0    0 -0.25180796143E+01 -0.77001288341E+01 -0.61129236725E+01  0.10148918420E+02  0.51100000000E-03 0.  1.
        -12    1    3    3    0    0 -0.61339824056E+01  0.25462051550E+02 -0.29174790024E+02  0.39205996764E+02  0.00000000000E+00 0.  1.
</event>
<event>
 7    1  0.4520336E-015  0.9000797E+02  0.7816164E-02  0.1186339E+00
        -11   -1    0    0    0    0  0.00000000000E+00  0.00000000000E+00  0.45593999997E+02  0.45594000000E+02  0.51100000000E-03 0. -1.
         11   -1    0    0    0    0 -0.00000000000E+00 -0.00000000000E+00 -0.45593999997E+02  0.45594000000E+02  0.51100000000E-03 0.  1.
    9900012    2    1    2    0    0  0.54321496085E+00 -0.70204133054E+00 -0.77751310064E+00  0.90007969854E+02  0.90000234256E+02 0.  0.
         12    1    1    2    0    0 -0.54321496085E+00  0.70204133054E+00  0.77751310064E+00  0.11800301459E+01  0.00000000000E+00 0. -1.
         11    1    3    3    0    0  0.49902974364E+00 -0.88776081993E+01 -0.32644938812E+01  0.94719522057E+01  0.51100000000E-03 0. -1.
        -11    1    3    3    0    0 -0.15832804949E+02 -0.32816786622E+02  0.31394901728E+01  0.36571513444E+02  0.51100000000E-03 0.  1.
         12    1    3    3    0    0  0.15876990166E+02  0.40992353491E+02 -0.65250939223E+00  0.43964504205E+02  0.00000000000E+00 0. -1.
</event>
<event>
 7    1  0.4520336E-015  0.9000767E+02  0.7816164E-02  0.1186339E+00
        -11   -1    0    0    0    0  0.00000000000E+00  0.00000000000E+00  0.45593999997E+02  0.45594000000E+02  0.51100000000E-03 0.  1.
         11   -1    0    0    0    0 -0.00000000000E+00 -0.00000000000E+00 -0.45593999997E+02  0.45594000000E+02  0.51100000000E-03 0. -1.
    9900012    2    1    2    0    0  0.10185385988E+01  0.54896240778E+00 -0.23325313428E+00  0.90007666307E+02  0.89999926702E+02 0.  0.
         12    1    1    2    0    0 -0.10185385988E+01 -0.54896240778E+00  0.23325313428E+00  0.11803336931E+01  0.00000000000E+00 0. -1.
         11    1    3    3    0    0 -0.23970526445E+02  0.30083669082E+02 -0.13466138142E+02  0.40754756289E+02  0.51100000000E-03 0. -1.
        -11    1    3    3    0    0  0.28523438810E+01  0.39113053667E+01  0.72255605731E+01  0.86972927480E+01  0.51100000000E-03 0.  1.
        -12    1    3    3    0    0  0.22136721163E+02 -0.33446012041E+02  0.60073244343E+01  0.40555617270E+02  0.00000000000E+00 0.  1.
</event>
<event>
 7    1  0.5140670E-015  0.9000774E+02  0.7816164E-02  0.1186339E+00
        -11   -1    0    0    0    0  0.00000000000E+00  0.00000000000E+00  0.45593999997E+02  0.45594000000E+02  0.51100000000E-03 0.  1.
         11   -1    0    0    0    0 -0.00000000000E+00 -0.00000000000E+00 -0.45593999997E+02  0.45594000000E+02  0.51100000000E-03 0. -1.
    9900012    2    1    2    0    0 -0.77950705124E+00  0.73991721260E+00 -0.48774561924E+00  0.90007743878E+02  0.90000005297E+02 0.  0.
         12    1    1    2    0    0  0.77950705124E+00 -0.73991721260E+00  0.48774561924E+00  0.11802561220E+01  0.00000000000E+00 0. -1.
         11    1    3    3    0    0  0.36380471304E+02  0.76245335573E+01  0.19992114277E+01  0.37224575899E+02  0.51100000000E-03 0. -1.
        -11    1    3    3    0    0  0.37979897951E+01  0.75793744099E+01 -0.38812187922E+01  0.93239209833E+01  0.51100000000E-03 0.  1.
        -12    1    3    3    0    0 -0.40957968151E+02 -0.14463990755E+02  0.13942617453E+01  0.43459246995E+02  0.00000000000E+00 0.  1.
</event>
<event>
 7    1  0.4520336E-015  0.9000763E+02  0.7816164E-02  0.1186339E+00
        -11   -1    0    0    0    0  0.00000000000E+00  0.00000000000E+00  0.45593999997E+02  0.45594000000E+02  0.51100000000E-03 0. -1.
         11   -1    0    0    0    0 -0.00000000000E+00 -0.00000000000E+00 -0.45593999997E+02  0.45594000000E+02  0.51100000000E-03 0.  1.
    9900012    2    1    2    0    0 -0.56588302859E+00 -0.10010481026E+01 -0.26636892631E+00  0.90007630011E+02  0.89999889927E+02 0.  0.
         12    1    1    2    0    0  0.56588302859E+00  0.10010481026E+01  0.26636892631E+00  0.11803699889E+01  0.00000000000E+00 0. -1.
         11    1    3    3    0    0 -0.15652517250E+02  0.34057282296E+02 -0.96473669538E+01  0.38703636303E+02  0.51100000000E-03 0. -1.
        -11    1    3    3    0    0 -0.88109433732E+01 -0.18716879070E+01 -0.11329538553E+01  0.90785198929E+01  0.51100000000E-03 0.  1.
        -12    1    3    3    0    0  0.23897577595E+02 -0.33186642491E+02  0.10513951883E+02  0.42225473816E+02  0.00000000000E+00 0.  1.
</event>
<event>
 7    1  0.4520336E-015  0.9000774E+02  0.7816164E-02  0.1186339E+00
        -11   -1    0    0    0    0  0.00000000000E+00  0.00000000000E+00  0.45593999997E+02  0.45594000000E+02  0.51100000000E-03 0. -1.
         11   -1    0    0    0    0 -0.00000000000E+00 -0.00000000000E+00 -0.45593999997E+02  0.45594000000E+02  0.51100000000E-03 0.  1.
    9900012    2    1    2    0    0  0.15608554108E+00 -0.78390989053E+00 -0.86841520494E+00  0.90007736309E+02  0.89999997628E+02 0.  0.
         12    1    1    2    0    0 -0.15608554108E+00  0.78390989053E+00  0.86841520494E+00  0.11802636912E+01  0.00000000000E+00 0. -1.
         11    1    3    3    0    0  0.18034377571E+02 -0.53174366166E+01  0.36821123274E+02  0.41343790658E+02  0.51100000000E-03 0. -1.
        -11    1    3    3    0    0  0.12537179358E+01 -0.76655169296E+01 -0.67142797867E+01  0.10267108248E+02  0.51100000000E-03 0.  1.
        -12    1    3    3    0    0 -0.19132009966E+02  0.12199043656E+02 -0.30975258692E+02  0.38396837403E+02  0.00000000000E+00 0.  1.
</event>
<event>
 7    1  0.4520336E-015  0.9000779E+02  0.7816164E-02  0.1186339E+00
        -11   -1    0    0    0    0  0.00000000000E+00  0.00000000000E+00  0.45593999997E+02  0.45594000000E+02  0.51100000000E-03 0.  1.
         11   -1    0    0    0    0 -0.00000000000E+00 -0.00000000000E+00 -0.45593999997E+02  0.45594000000E+02  0.51100000000E-03 0. -1.
    9900012    2    1    2    0    0  0.11002037122E+01  0.23704229548E+00  0.35533039151E+00  0.90007789449E+02  0.90000051469E+02 0.  0.
         12    1    1    2    0    0 -0.11002037122E+01 -0.23704229548E+00 -0.35533039151E+00  0.11802105512E+01  0.00000000000E+00 0. -1.
         11    1    3    3    0    0 -0.15403740018E+02 -0.27264780736E+02 -0.49127797440E+01  0.31698247273E+02  0.51100000000E-03 0. -1.
        -11    1    3    3    0    0 -0.80934129480E+01 -0.13965389985E+01 -0.13631488140E+02  0.15914494133E+02  0.51100000000E-03 0.  1.
        -12    1    3    3    0    0  0.24597356678E+02  0.28898362030E+02  0.18899598276E+02  0.42395048043E+02  0.00000000000E+00 0.  1.
</event>
<event>
 7    1  0.4520336E-015  0.9000782E+02  0.7816164E-02  0.1186339E+00
        -11   -1    0    0    0    0  0.00000000000E+00  0.00000000000E+00  0.45593999997E+02  0.45594000000E+02  0.51100000000E-03 0.  1.
         11   -1    0    0    0    0 -0.00000000000E+00 -0.00000000000E+00 -0.45593999997E+02  0.45594000000E+02  0.51100000000E-03 0. -1.
    9900012    2    1    2    0    0 -0.43722368972E-01  0.91149403732E-01  0.11758429976E+01  0.90007819245E+02  0.90000081659E+02 0.  0.
         12    1    1    2    0    0  0.43722368972E-01 -0.91149403732E-01 -0.11758429976E+01  0.11801807550E+01  0.00000000000E+00 0. -1.
         11    1    3    3    0    0  0.60154914704E+01  0.41387563121E+01 -0.42577412906E+01  0.84524435875E+01  0.51100000000E-03 0. -1.
        -11    1    3    3    0    0  0.29660836476E+02  0.18623489888E+02  0.15129973843E+02  0.38151221538E+02  0.51100000000E-03 0.  1.
         12    1    3    3    0    0 -0.35720050315E+02 -0.22671096797E+02 -0.96963895553E+01  0.43404154120E+02  0.00000000000E+00 0. -1.
</event>
<event>
 7    1  0.4520336E-015  0.9000747E+02  0.7816164E-02  0.1186340E+00
        -11   -1    0    0    0    0  0.00000000000E+00  0.00000000000E+00  0.45593999997E+02  0.45594000000E+02  0.51100000000E-03 0.  1.
         11   -1    0    0    0    0 -0.00000000000E+00 -0.00000000000E+00 -0.45593999997E+02  0.45594000000E+02  0.51100000000E-03 0. -1.
    9900012    2    1    2    0    0  0.77717795602E+00  0.65358087013E+00 -0.60206758735E+00  0.90007466685E+02  0.89999724444E+02 0.  0.
         12    1    1    2    0    0 -0.77717795602E+00 -0.65358087013E+00  0.60206758735E+00  0.11805333154E+01  0.00000000000E+00 0. -1.
         11    1    3    3    0    0 -0.24234724686E+02  0.22366483217E+01 -0.29561467127E+02  0.38291053985E+02  0.51100000000E-03 0. -1.
        -11    1    3    3    0    0 -0.35493954585E+01  0.48261424986E+01 -0.43271402386E+01  0.73901287163E+01  0.51100000000E-03 0.  1.
        -12    1    3    3    0    0  0.28561298101E+02 -0.64092099502E+01  0.33286539778E+02  0.44326283983E+02  0.00000000000E+00 0.  1.
</event>
<event>
 7    1  0.4520336E-015  0.9000772E+02  0.7816164E-02  0.1186339E+00
        -11   -1    0    0    0    0  0.00000000000E+00  0.00000000000E+00  0.45593999997E+02  0.45594000000E+02  0.51100000000E-03 0.  1.
         11   -1    0    0    0    0 -0.00000000000E+00 -0.00000000000E+00 -0.45593999997E+02  0.45594000000E+02  0.51100000000E-03 0. -1.
    9900012    2    1    2    0    0  0.10745981069E+01  0.71581169770E-01  0.48287901080E+00  0.90007721603E+02  0.89999982728E+02 0.  0.
         12    1    1    2    0    0 -0.10745981069E+01 -0.71581169770E-01 -0.48287901080E+00  0.11802783969E+01  0.00000000000E+00 0. -1.
         11    1    3    3    0    0  0.21522479504E+02 -0.16164127469E+02 -0.34781916352E+02  0.43980425716E+02  0.51100000000E-03 0. -1.
        -11    1    3    3    0    0 -0.24227653016E+01  0.95986415434E+01  0.82893808470E+01  0.12911914896E+02  0.51100000000E-03 0.  1.
        -12    1    3    3    0    0 -0.18025116095E+02  0.66370670954E+01  0.26975414516E+02  0.33115380991E+02  0.00000000000E+00 0.  1.
</event>
<event>
 7    1  0.4520336E-015  0.9000782E+02  0.7816164E-02  0.1186339E+00
        -11   -1    0    0    0    0  0.00000000000E+00  0.00000000000E+00  0.45593999997E+02  0.45594000000E+02  0.51100000000E-03 0.  1.
         11   -1    0    0    0    0 -0.00000000000E+00 -0.00000000000E+00 -0.45593999997E+02  0.45594000000E+02  0.51100000000E-03 0. -1.
    9900012    2    1    2    0    0 -0.10024768742E+01  0.61498342991E+00  0.98329138152E-01  0.90007816488E+02  0.90000078866E+02 0.  0.
         12    1    1    2    0    0  0.10024768742E+01 -0.61498342991E+00 -0.98329138152E-01  0.11801835119E+01  0.00000000000E+00 0. -1.
         11    1    3    3    0    0 -0.30108312940E+01  0.10007042760E+02 -0.41200949781E+02  0.42505579316E+02  0.51100000000E-03 0. -1.
        -11    1    3    3    0    0  0.83851598471E+01 -0.10886715905E+01  0.52254868227E+01  0.99399106781E+01  0.51100000000E-03 0.  1.
        -12    1    3    3    0    0 -0.63768054274E+01 -0.83033877398E+01  0.36073792096E+02  0.37562326494E+02  0.00000000000E+00 0.  1.
</event>
<event>
 7    1  0.4520336E-015  0.9000773E+02  0.7816164E-02  0.1186339E+00
        -11   -1    0    0    0    0  0.00000000000E+00  0.00000000000E+00  0.45593999997E+02  0.45594000000E+02  0.51100000000E-03 0.  1.
         11   -1    0    0    0    0 -0.00000000000E+00 -0.00000000000E+00 -0.45593999997E+02  0.45594000000E+02  0.51100000000E-03 0. -1.
    9900012    2    1    2    0    0  0.14924339899E+00  0.27218473279E+00  0.11387141486E+01  0.90007733914E+02  0.89999995202E+02 0.  0.
         12    1    1    2    0    0 -0.14924339899E+00 -0.27218473279E+00 -0.11387141486E+01  0.11802660857E+01  0.00000000000E+00 0. -1.
         11    1    3    3    0    0  0.49755824648E+00  0.81366330714E+01  0.22792864170E+02  0.24206755653E+02  0.51100000000E-03 0. -1.
        -11    1    3    3    0    0 -0.63709961925E+01  0.23395623026E+02  0.44246759919E+01  0.24647972070E+02  0.51100000000E-03 0.  1.
         12    1    3    3    0    0  0.60226813451E+01 -0.31260071365E+02 -0.26078826013E+02  0.41153006191E+02  0.00000000000E+00 0. -1.
</event>
<event>
 7    1  0.4520336E-015  0.9000784E+02  0.7816164E-02  0.1186339E+00
        -11   -1    0    0    0    0  0.00000000000E+00  0.00000000000E+00  0.45593999997E+02  0.45594000000E+02  0.51100000000E-03 0. -1.
         11   -1    0    0    0    0 -0.00000000000E+00 -0.00000000000E+00 -0.45593999997E+02  0.45594000000E+02  0.51100000000E-03 0.  1.
    9900012    2    1    2    0    0  0.73291605970E+00  0.80928662010E+00 -0.44795596658E+00  0.90007840972E+02  0.90000103672E+02 0.  0.
         12    1    1    2    0    0 -0.73291605970E+00 -0.80928662010E+00  0.44795596658E+00  0.11801590283E+01  0.00000000000E+00 0. -1.
         11    1    3    3    0    0 -0.18923715784E+01  0.11368659592E+02  0.40940054718E+02  0.42531348106E+02  0.51100000000E-03 0. -1.
        -11    1    3    3    0    0 -0.19278113233E+01  0.54758382527E+01 -0.59447216777E+01  0.83090900316E+01  0.51100000000E-03 0.  1.
        -12    1    3    3    0    0  0.45530989614E+01 -0.16035211224E+02 -0.35443289007E+02  0.39167402834E+02  0.00000000000E+00 0.  1.
</event>
<event>
 7    1  0.4520336E-015  0.9000778E+02  0.7816164E-02  0.1186339E+00
        -11   -1    0    0    0    0  0.00000000000E+00  0.00000000000E+00  0.45593999997E+02  0.45594000000E+02  0.51100000000E-03 0.  1.
         11   -1    0    0    0    0 -0.00000000000E+00 -0.00000000000E+00 -0.45593999997E+02  0.45594000000E+02  0.51100000000E-03 0. -1.
    9900012    2    1    2    0    0  0.10451800987E+01 -0.33571994389E+00 -0.43336569593E+00  0.90007781738E+02  0.90000043657E+02 0.  0.
         12    1    1    2    0    0 -0.10451800987E+01  0.33571994389E+00  0.43336569593E+00  0.11802182620E+01  0.00000000000E+00 0. -1.
         11    1    3    3    0    0 -0.63395497553E+01 -0.50667580782E+01  0.31324753605E+01  0.86990994171E+01  0.51100000000E-03 0. -1.
        -11    1    3    3    0    0  0.33484429838E+01 -0.37495228908E+02 -0.85350100984E+01  0.38599879001E+02  0.51100000000E-03 0.  1.
         12    1    3    3    0    0  0.40362868702E+01  0.42226267042E+02  0.49691690420E+01  0.42708803320E+02  0.00000000000E+00 0. -1.
</event>
<event>
 7    1  0.4520336E-015  0.9000781E+02  0.7816164E-02  0.1186339E+00
        -11   -1    0    0    0    0  0.00000000000E+00  0.00000000000E+00  0.45593999997E+02  0.45594000000E+02  0.51100000000E-03 0. -1.
         11   -1    0    0    0    0 -0.00000000000E+00 -0.00000000000E+00 -0.45593999997E+02  0.45594000000E+02  0.51100000000E-03 0.  1.
    9900012    2    1    2    0    0  0.86254839717E+00  0.73312325689E+00 -0.33375470932E+00  0.90007808637E+02  0.90000070911E+02 0.  0.
         12    1    1    2    0    0 -0.86254839717E+00 -0.73312325689E+00  0.33375470932E+00  0.11801913630E+01  0.00000000000E+00 0. -1.
         11    1    3    3    0    0 -0.37217540116E+01  0.28534339753E+01  0.78820810271E+01  0.91717359291E+01  0.51100000000E-03 0. -1.
        -11    1    3    3    0    0 -0.36813324007E+02 -0.99282946434E+01 -0.13482865538E+01  0.38152453864E+02  0.51100000000E-03 0.  1.
         12    1    3    3    0    0  0.41397626416E+02  0.78079839250E+01 -0.68675491826E+01  0.42683618844E+02  0.00000000000E+00 0. -1.
</event>
<event>
 7    1  0.4520336E-015  0.9000772E+02  0.7816164E-02  0.1186339E+00
        -11   -1    0    0    0    0  0.00000000000E+00  0.00000000000E+00  0.45593999997E+02  0.45594000000E+02  0.51100000000E-03 0. -1.
         11   -1    0    0    0    0 -0.00000000000E+00 -0.00000000000E+00 -0.45593999997E+02  0.45594000000E+02  0.51100000000E-03 0.  1.
    9900012    2    1    2    0    0 -0.98834805249E+00  0.24732038355E+00 -0.59586616448E+00  0.90007722181E+02  0.89999983313E+02 0.  0.
         12    1    1    2    0    0  0.98834805249E+00 -0.24732038355E+00  0.59586616448E+00  0.11802778194E+01  0.00000000000E+00 0. -1.
         11    1    3    3    0    0 -0.27984841156E+02 -0.23399250885E+02 -0.18319865462E+00  0.36478895796E+02  0.51100000000E-03 0. -1.
        -11    1    3    3    0    0 -0.26038187028E+01 -0.82569111462E+01 -0.46065701716E+01  0.98069843744E+01  0.51100000000E-03 0.  1.
        -12    1    3    3    0    0  0.29600311806E+02  0.31903482415E+02  0.41939026618E+01  0.43721842010E+02  0.00000000000E+00 0.  1.
</event>
<event>
 7    1  0.4520336E-015  0.9000773E+02  0.7816164E-02  0.1186339E+00
        -11   -1    0    0    0    0  0.00000000000E+00  0.00000000000E+00  0.45593999997E+02  0.45594000000E+02  0.51100000000E-03 0. -1.
         11   -1    0    0    0    0 -0.00000000000E+00 -0.00000000000E+00 -0.45593999997E+02  0.45594000000E+02  0.51100000000E-03 0.  1.
    9900012    2    1    2    0    0  0.49124070179E+00  0.10715927666E+01  0.58428187607E-01  0.90007727854E+02  0.89999989062E+02 0.  0.
         12    1    1    2    0    0 -0.49124070179E+00 -0.10715927666E+01 -0.58428187607E-01  0.11802721456E+01  0.00000000000E+00 0. -1.
         11    1    3    3    0    0 -0.19153703620E+02  0.99865746440E+00  0.31023545664E+02  0.36473580369E+02  0.51100000000E-03 0. -1.
        -11    1    3    3    0    0 -0.82889552141E+01  0.72201048203E+01  0.30839658981E+00  0.10996899603E+02  0.51100000000E-03 0.  1.
        -12    1    3    3    0    0  0.27933899536E+02 -0.71471695181E+01 -0.31273514066E+02  0.42537247883E+02  0.00000000000E+00 0.  1.
</event>
<event>
 7    1  0.4520336E-015  0.9000768E+02  0.7816164E-02  0.1186339E+00
        -11   -1    0    0    0    0  0.00000000000E+00  0.00000000000E+00  0.45593999997E+02  0.45594000000E+02  0.51100000000E-03 0. -1.
         11   -1    0    0    0    0 -0.00000000000E+00 -0.00000000000E+00 -0.45593999997E+02  0.45594000000E+02  0.51100000000E-03 0.  1.
    9900012    2    1    2    0    0  0.69721628863E+00  0.51983710687E+00  0.79800180989E+00  0.90007683068E+02  0.89999943685E+02 0.  0.
         12    1    1    2    0    0 -0.69721628863E+00 -0.51983710687E+00 -0.79800180989E+00  0.11803169318E+01  0.00000000000E+00 0. -1.
         11    1    3    3    0    0 -0.80968112053E+01 -0.20076301465E+02  0.15269249526E+02  0.26490870381E+02  0.51100000000E-03 0. -1.
        -11    1    3    3    0    0  0.64854324907E+01 -0.14525193115E+02  0.11623606498E+02  0.19701530344E+02  0.51100000000E-03 0.  1.
        -12    1    3    3    0    0  0.23085950033E+01  0.35121331687E+02 -0.26094854214E+02  0.43815282343E+02  0.00000000000E+00 0.  1.
</event>
<event>
 7    1  0.4520336E-015  0.9000772E+02  0.7816164E-02  0.1186339E+00
        -11   -1    0    0    0    0  0.00000000000E+00  0.00000000000E+00  0.45593999997E+02  0.45594000000E+02  0.51100000000E-03 0.  1.
         11   -1    0    0    0    0 -0.00000000000E+00 -0.00000000000E+00 -0.45593999997E+02  0.45594000000E+02  0.51100000000E-03 0. -1.
    9900012    2    1    2    0    0 -0.73905355837E+00  0.86793256795E+00  0.30586009321E+00  0.90007721431E+02  0.89999982554E+02 0.  0.
         12    1    1    2    0    0  0.73905355837E+00 -0.86793256795E+00 -0.30586009321E+00  0.11802785693E+01  0.00000000000E+00 0. -1.
         11    1    3    3    0    0 -0.25006979471E+01 -0.25760986980E+02 -0.27044599464E+02  0.37433838981E+02  0.51100000000E-03 0. -1.
        -11    1    3    3    0    0  0.30781296056E+01 -0.75075559577E+01 -0.10064870532E+01  0.81762641087E+01  0.51100000000E-03 0.  1.
        -12    1    3    3    0    0 -0.13164852169E+01  0.34136475506E+02  0.28356946610E+02  0.44397618341E+02  0.00000000000E+00 0.  1.
</event>
<event>
 7    1  0.4520336E-015  0.9000832E+02  0.7816164E-02  0.1186338E+00
        -11   -1    0    0    0    0  0.00000000000E+00  0.00000000000E+00  0.45593999997E+02  0.45594000000E+02  0.51100000000E-03 0.  1.
         11   -1    0    0    0    0 -0.00000000000E+00 -0.00000000000E+00 -0.45593999997E+02  0.45594000000E+02  0.51100000000E-03 0. -1.
    9900012    2    1    2    0    0 -0.41440131421E+00  0.54492751323E+00  0.96071208790E+00  0.90008321162E+02  0.90000590200E+02 0.  0.
         12    1    1    2    0    0  0.41440131421E+00 -0.54492751323E+00 -0.96071208790E+00  0.11796788375E+01  0.00000000000E+00 0. -1.
         11    1    3    3    0    0  0.39880898731E+01  0.12654123218E+01  0.82690319394E+01  0.92673091379E+01  0.51100000000E-03 0. -1.
        -11    1    3    3    0    0 -0.17795575558E+02 -0.22758907263E+02  0.25827792820E+02  0.38752099962E+02  0.51100000000E-03 0.  1.
         12    1    3    3    0    0  0.13393084371E+02  0.22038422455E+02 -0.33136112671E+02  0.41988912063E+02  0.00000000000E+00 0. -1.
</event>
<event>
 7    1  0.4520336E-015  0.9000776E+02  0.7816164E-02  0.1186339E+00
        -11   -1    0    0    0    0  0.00000000000E+00  0.00000000000E+00  0.45593999997E+02  0.45594000000E+02  0.51100000000E-03 0.  1.
         11   -1    0    0    0    0 -0.00000000000E+00 -0.00000000000E+00 -0.45593999997E+02  0.45594000000E+02  0.51100000000E-03 0. -1.
    9900012    2    1    2    0    0 -0.32336796740E+00  0.11209818867E+01  0.17834005406E+00  0.90007757479E+02  0.90000019078E+02 0.  0.
         12    1    1    2    0    0  0.32336796740E+00 -0.11209818867E+01 -0.17834005406E+00  0.11802425207E+01  0.00000000000E+00 0. -1.
         11    1    3    3    0    0 -0.20155020794E+02  0.38622327693E+02  0.56641803247E+01  0.43931674208E+02  0.51100000000E-03 0. -1.
        -11    1    3    3    0    0  0.66989042161E+01 -0.44259544995E+01  0.43808668486E+01  0.91463864742E+01  0.51100000000E-03 0.  1.
        -12    1    3    3    0    0  0.13132748610E+02 -0.33075391307E+02 -0.98667071193E+01  0.36929696798E+02  0.00000000000E+00 0.  1.
</event>
<event>
 7    1  0.4520336E-015  0.9000773E+02  0.7816164E-02  0.1186339E+00
        -11   -1    0    0    0    0  0.00000000000E+00  0.00000000000E+00  0.45593999997E+02  0.45594000000E+02  0.51100000000E-03 0. -1.
         11   -1    0    0    0    0 -0.00000000000E+00 -0.00000000000E+00 -0.45593999997E+02  0.45594000000E+02  0.51100000000E-03 0.  1.
    9900012    2    1    2    0    0 -0.90334204322E+00 -0.63789435637E+00 -0.41242126598E+00  0.90007734200E+02  0.89999995492E+02 0.  0.
         12    1    1    2    0    0  0.90334204322E+00  0.63789435637E+00  0.41242126598E+00  0.11802657995E+01  0.00000000000E+00 0. -1.
         11    1    3    3    0    0  0.27970755677E+01 -0.84522900409E+01  0.19356210848E+01  0.91110629409E+01  0.51100000000E-03 0. -1.
        -11    1    3    3    0    0 -0.19591469421E+02 -0.28621890587E+02  0.14665571072E+02  0.37657897843E+02  0.51100000000E-03 0.  1.
         12    1    3    3    0    0  0.15891051810E+02  0.36436286272E+02 -0.17013613422E+02  0.43238773417E+02  0.00000000000E+00 0. -1.
</event>
<event>
 7    1  0.4520336E-015  0.9000765E+02  0.7816164E-02  0.1186339E+00
        -11   -1    0    0    0    0  0.00000000000E+00  0.00000000000E+00  0.45593999997E+02  0.45594000000E+02  0.51100000000E-03 0.  1.
         11   -1    0    0    0    0 -0.00000000000E+00 -0.00000000000E+00 -0.45593999997E+02  0.45594000000E+02  0.51100000000E-03 0. -1.
    9900012    2    1    2    0    0  0.62035911871E+00 -0.10029951438E+01 -0.48692485870E-01  0.90007654435E+02  0.89999914674E+02 0.  0.
         12    1    1    2    0    0 -0.62035911871E+00  0.10029951438E+01  0.48692485870E-01  0.11803455650E+01  0.00000000000E+00 0. -1.
         11    1    3    3    0    0  0.23765792773E+01 -0.46633237680E+01 -0.25039531842E+01  0.58021116360E+01  0.51100000000E-03 0. -1.
        -11    1    3    3    0    0  0.36969354017E+02 -0.16322879956E+02 -0.15665613815E+01  0.40442844377E+02  0.51100000000E-03 0.  1.
         12    1    3    3    0    0 -0.38725574175E+02  0.19983208580E+02  0.40218220798E+01  0.43762698422E+02  0.00000000000E+00 0. -1.
</event>
<event>
 7    1  0.4520336E-015  0.9000777E+02  0.7816164E-02  0.1186339E+00
        -11   -1    0    0    0    0  0.00000000000E+00  0.00000000000E+00  0.45593999997E+02  0.45594000000E+02  0.51100000000E-03 0.  1.
         11   -1    0    0    0    0 -0.00000000000E+00 -0.00000000000E+00 -0.45593999997E+02  0.45594000000E+02  0.51100000000E-03 0. -1.
    9900012    2    1    2    0    0 -0.71207456315E+00 -0.15214975499E+00  0.92883825971E+00  0.90007771105E+02  0.90000032884E+02 0.  0.
         12    1    1    2    0    0  0.71207456315E+00  0.15214975499E+00 -0.92883825971E+00  0.11802288948E+01  0.00000000000E+00 0. -1.
         11    1    3    3    0    0  0.25371236932E+02  0.18453888698E+02 -0.25849394945E+02  0.40650177008E+02  0.51100000000E-03 0. -1.
        -11    1    3    3    0    0  0.11044048570E-01 -0.71965364459E+01 -0.33160723461E+01  0.79237992689E+01  0.51100000000E-03 0.  1.
        -12    1    3    3    0    0 -0.26094355543E+02 -0.11409502008E+02  0.30094305551E+02  0.41433794828E+02  0.00000000000E+00 0.  1.
</event>
<event>
 7    1  0.4520336E-015  0.9000752E+02  0.7816164E-02  0.1186339E+00
        -11   -1    0    0    0    0  0.00000000000E+00  0.00000000000E+00  0.45593999997E+02  0.45594000000E+02  0.51100000000E-03 0. -1.
         11   -1    0    0    0    0 -0.00000000000E+00 -0.00000000000E+00 -0.45593999997E+02  0.45594000000E+02  0.51100000000E-03 0.  1.
    9900012    2    1    2    0    0  0.70485737887E+00 -0.56026802739E+00 -0.76341474706E+00  0.90007522866E+02  0.89999781368E+02 0.  0.
         12    1    1    2    0    0 -0.70485737887E+00  0.56026802739E+00  0.76341474706E+00  0.11804771337E+01  0.00000000000E+00 0. -1.
         11    1    3    3    0    0  0.51487409004E+00  0.25121929180E+01 -0.98025865720E+01  0.10132468226E+02  0.51100000000E-03 0. -1.
        -11    1    3    3    0    0 -0.44191516640E+01  0.27424890499E+02 -0.22509817539E+02  0.35753956512E+02  0.51100000000E-03 0.  1.
         12    1    3    3    0    0  0.46091349528E+01 -0.30497351445E+02  0.31548989364E+02  0.44121098129E+02  0.00000000000E+00 0. -1.
</event>
<event>
 7    1  0.4520336E-015  0.9000747E+02  0.7816164E-02  0.1186340E+00
        -11   -1    0    0    0    0  0.00000000000E+00  0.00000000000E+00  0.45593999997E+02  0.45594000000E+02  0.51100000000E-03 0.  1.
         11   -1    0    0    0    0 -0.00000000000E+00 -0.00000000000E+00 -0.45593999997E+02  0.45594000000E+02  0.51100000000E-03 0. -1.
    9900012    2    1    2    0    0  0.87696681765E-01  0.89129888673E+00  0.76911746008E+00  0.90007472118E+02  0.89999729949E+02 0.  0.
         12    1    1    2    0    0 -0.87696681765E-01 -0.89129888673E+00 -0.76911746008E+00  0.11805278823E+01  0.00000000000E+00 0. -1.
         11    1    3    3    0    0  0.11249218520E+02  0.87701575102E+01  0.14375260427E+00  0.14264685245E+02  0.51100000000E-03 0. -1.
        -11    1    3    3    0    0  0.33309657709E+01 -0.17941037641E+02  0.33662224699E+02  0.38289966525E+02  0.51100000000E-03 0.  1.
         12    1    3    3    0    0 -0.14492487609E+02  0.10062179018E+02 -0.33036859843E+02  0.37452820347E+02  0.00000000000E+00 0. -1.
</event>
<event>
 7    1  0.4520336E-015  0.9000794E+02  0.7816164E-02  0.1186339E+00
        -11   -1    0    0    0    0  0.00000000000E+00  0.00000000000E+00  0.45593999997E+02  0.45594000000E+02  0.51100000000E-03 0. -1.
         11   -1    0    0    0    0 -0.00000000000E+00 -0.00000000000E+00 -0.45593999997E+02  0.45594000000E+02  0.51100000000E-03 0.  1.
    9900012    2    1    2    0    0 -0.10564152935E+01 -0.38141248184E-01  0.52446727786E+00  0.90007943242E+02  0.90000207292E+02 0.  0.
         12    1    1    2    0    0  0.10564152935E+01  0.38141248184E-01 -0.52446727786E+00  0.11800567582E+01  0.00000000000E+00 0. -1.
         11    1    3    3    0    0 -0.20702403400E+01 -0.36199632300E+02 -0.11708375499E+02  0.38102300860E+02  0.51100000000E-03 0. -1.
        -11    1    3    3    0    0 -0.55335763768E+01 -0.56490171143E+01  0.37150644142E+01  0.87369082482E+01  0.51100000000E-03 0.  1.
        -12    1    3    3    0    0  0.65474014233E+01  0.41810508166E+02  0.85177783631E+01  0.43168734134E+02  0.00000000000E+00 0.  1.
</event>
<event>
 7    1  0.4520336E-015  0.9000781E+02  0.7816164E-02  0.1186339E+00
        -11   -1    0    0    0    0  0.00000000000E+00  0.00000000000E+00  0.45593999997E+02  0.45594000000E+02  0.51100000000E-03 0.  1.
         11   -1    0    0    0    0 -0.00000000000E+00 -0.00000000000E+00 -0.45593999997E+02  0.45594000000E+02  0.51100000000E-03 0. -1.
    9900012    2    1    2    0    0 -0.69683389816E+00 -0.19083150921E+00  0.93319049371E+00  0.90007814149E+02  0.90000076495E+02 0.  0.
         12    1    1    2    0    0  0.69683389816E+00  0.19083150921E+00 -0.93319049371E+00  0.11801858515E+01  0.00000000000E+00 0. -1.
         11    1    3    3    0    0  0.93221667715E+01 -0.25330517186E+02 -0.28143699134E+02  0.38994944486E+02  0.51100000000E-03 0. -1.
        -11    1    3    3    0    0  0.42175113783E+00  0.39658150312E+01 -0.69070906988E+01  0.79758049792E+01  0.51100000000E-03 0.  1.
        -12    1    3    3    0    0 -0.10440751808E+02  0.21173870646E+02  0.35983980327E+02  0.43037064684E+02  0.00000000000E+00 0.  1.
</event>
<event>
 7    1  0.4520336E-015  0.9000755E+02  0.7816164E-02  0.1186339E+00
        -11   -1    0    0    0    0  0.00000000000E+00  0.00000000000E+00  0.45593999997E+02  0.45594000000E+02  0.51100000000E-03 0.  1.
         11   -1    0    0    0    0 -0.00000000000E+00 -0.00000000000E+00 -0.45593999997E+02  0.45594000000E+02  0.51100000000E-03 0. -1.
    9900012    2    1    2    0    0  0.29017383439E+00  0.37927068522E+00  0.10795453942E+01  0.90007548660E+02  0.89999807503E+02 0.  0.
         12    1    1    2    0    0 -0.29017383439E+00 -0.37927068522E+00 -0.10795453942E+01  0.11804513396E+01  0.00000000000E+00 0. -1.
         11    1    3    3    0    0 -0.31952465188E+01  0.73692828105E+01  0.57277664505E+01  0.98652540885E+01  0.51100000000E-03 0. -1.
        -11    1    3    3    0    0 -0.13137965106E+01 -0.80974355252E+01  0.37155051481E+02  0.38049866940E+02  0.51100000000E-03 0.  1.
         12    1    3    3    0    0  0.47992168638E+01  0.11074233999E+01 -0.41803272537E+02  0.42092427632E+02  0.00000000000E+00 0. -1.
</event>
<event>
 7    1  0.4520336E-015  0.9000761E+02  0.7816164E-02  0.1186339E+00
        -11   -1    0    0    0    0  0.00000000000E+00  0.00000000000E+00  0.45593999997E+02  0.45594000000E+02  0.51100000000E-03 0.  1.
         11   -1    0    0    0    0 -0.00000000000E+00 -0.00000000000E+00 -0.45593999997E+02  0.45594000000E+02  0.51100000000E-03 0. -1.
    9900012    2    1    2    0    0 -0.71068183291E+00 -0.32559821141E-01  0.94190814502E+00  0.90007610334E+02  0.89999869990E+02 0.  0.
         12    1    1    2    0    0  0.71068183291E+00  0.32559821141E-01 -0.94190814502E+00  0.11803896658E+01  0.00000000000E+00 0. -1.
         11    1    3    3    0    0 -0.36904765539E+02  0.78025663596E+01 -0.16097783285E+02  0.41011954211E+02  0.51100000000E-03 0. -1.
        -11    1    3    3    0    0  0.90546841871E+00  0.73797887284E+01  0.38006155773E+01  0.83501996240E+01  0.51100000000E-03 0.  1.
        -12    1    3    3    0    0  0.35288615287E+02 -0.15214914909E+02  0.13239075853E+02  0.40645456499E+02  0.00000000000E+00 0.  1.
</event>
<event>
 7    1  0.4520336E-015  0.9000775E+02  0.7816164E-02  0.1186339E+00
        -11   -1    0    0    0    0  0.00000000000E+00  0.00000000000E+00  0.45593999997E+02  0.45594000000E+02  0.51100000000E-03 0. -1.
         11   -1    0    0    0    0 -0.00000000000E+00 -0.00000000000E+00 -0.45593999997E+02  0.45594000000E+02  0.51100000000E-03 0.  1.
    9900012    2    1    2    0    0 -0.87844153201E+00 -0.17329532898E-01  0.78805848905E+00  0.90007747476E+02  0.90000008943E+02 0.  0.
         12    1    1    2    0    0  0.87844153201E+00  0.17329532898E-01 -0.78805848905E+00  0.11802525238E+01  0.00000000000E+00 0. -1.
         11    1    3    3    0    0  0.85380506639E+00  0.10243801528E+02 -0.16165228677E+01  0.10405652276E+02  0.51100000000E-03 0. -1.
        -11    1    3    3    0    0 -0.34099463975E+02  0.15097191991E+02  0.78968525205E+01  0.38119010079E+02  0.51100000000E-03 0.  1.
         12    1    3    3    0    0  0.32367217376E+02 -0.25358323052E+02 -0.54922711638E+01  0.41483085122E+02  0.00000000000E+00 0. -1.
</event>
<event>
 7    1  0.4969592E-015  0.9000773E+02  0.7816164E-02  0.1186339E+00
        -11   -1    0    0    0    0  0.00000000000E+00  0.00000000000E+00  0.45593999997E+02  0.45594000000E+02  0.51100000000E-03 0. -1.
         11   -1    0    0    0    0 -0.00000000000E+00 -0.00000000000E+00 -0.45593999997E+02  0.45594000000E+02  0.51100000000E-03 0.  1.
    9900012    2    1    2    0    0 -0.39090275070E+00 -0.19424039559E+00 -0.10965921893E+01  0.90007725150E+02  0.89999986322E+02 0.  0.
         12    1    1    2    0    0  0.39090275070E+00  0.19424039559E+00  0.10965921893E+01  0.11802748500E+01  0.00000000000E+00 0. -1.
         11    1    3    3    0    0 -0.75925740769E+01 -0.19209635849E+01 -0.61315947240E+01  0.99465439389E+01  0.51100000000E-03 0. -1.
        -11    1    3    3    0    0 -0.12021210173E+01 -0.77713999610E+01 -0.36135684086E+02  0.36981446928E+02  0.51100000000E-03 0.  1.
         12    1    3    3    0    0  0.84037923436E+01  0.94981231503E+01  0.41170686620E+02  0.43079734283E+02  0.00000000000E+00 0. -1.
</event>
<event>
 7    1  0.4520336E-015  0.9000675E+02  0.7816164E-02  0.1186341E+00
        -11   -1    0    0    0    0  0.00000000000E+00  0.00000000000E+00  0.45593999997E+02  0.45594000000E+02  0.51100000000E-03 0. -1.
         11   -1    0    0    0    0 -0.00000000000E+00 -0.00000000000E+00 -0.45593999997E+02  0.45594000000E+02  0.51100000000E-03 0.  1.
    9900012    2    1    2    0    0  0.69551913008E+00  0.56147739183E+00 -0.77224263291E+00  0.90006745410E+02  0.89998993644E+02 0.  0.
         12    1    1    2    0    0 -0.69551913008E+00 -0.56147739183E+00  0.77224263291E+00  0.11812545898E+01  0.00000000000E+00 0. -1.
         11    1    3    3    0    0  0.43711077559E+01  0.63842872115E+01 -0.22462839932E+01  0.80567672333E+01  0.51100000000E-03 0. -1.
        -11    1    3    3    0    0 -0.75847806230E+01  0.37557058281E+02  0.23280891216E+01  0.38385954762E+02  0.51100000000E-03 0.  1.
         12    1    3    3    0    0  0.39091919972E+01 -0.43379868100E+02 -0.85404776129E+00  0.43564023415E+02  0.00000000000E+00 0. -1.
</event>
<event>
 7    1  0.4520336E-015  0.9000756E+02  0.7816164E-02  0.1186339E+00
        -11   -1    0    0    0    0  0.00000000000E+00  0.00000000000E+00  0.45593999997E+02  0.45594000000E+02  0.51100000000E-03 0. -1.
         11   -1    0    0    0    0 -0.00000000000E+00 -0.00000000000E+00 -0.45593999997E+02  0.45594000000E+02  0.51100000000E-03 0.  1.
    9900012    2    1    2    0    0  0.91849696379E+00 -0.17257286111E+00 -0.72112910529E+00  0.90007557180E+02  0.89999816135E+02 0.  0.
         12    1    1    2    0    0 -0.91849696379E+00  0.17257286111E+00  0.72112910529E+00  0.11804428200E+01  0.00000000000E+00 0. -1.
         11    1    3    3    0    0 -0.19152757779E+02 -0.27482947087E+02 -0.21656811399E+02  0.39889321771E+02  0.51100000000E-03 0. -1.
        -11    1    3    3    0    0  0.93286287510E+01 -0.10149986291E+01 -0.46432359337E+01  0.10469631168E+02  0.51100000000E-03 0.  1.
        -12    1    3    3    0    0  0.10742625992E+02  0.28325372855E+02  0.25578918227E+02  0.39648604241E+02  0.00000000000E+00 0.  1.
</event>
<event>
 7    1  0.4520336E-015  0.9000773E+02  0.7816164E-02  0.1186339E+00
        -11   -1    0    0    0    0  0.00000000000E+00  0.00000000000E+00  0.45593999997E+02  0.45594000000E+02  0.51100000000E-03 0.  1.
         11   -1    0    0    0    0 -0.00000000000E+00 -0.00000000000E+00 -0.45593999997E+02  0.45594000000E+02  0.51100000000E-03 0. -1.
    9900012    2    1    2    0    0 -0.79155530246E+00  0.78589179506E+00  0.38581139544E+00  0.90007730479E+02  0.89999991721E+02 0.  0.
         12    1    1    2    0    0  0.79155530246E+00 -0.78589179506E+00 -0.38581139544E+00  0.11802695214E+01  0.00000000000E+00 0. -1.
         11    1    3    3    0    0 -0.62400195829E+01 -0.61592589686E+01  0.13348205022E+01  0.88688252588E+01  0.51100000000E-03 0. -1.
        -11    1    3    3    0    0  0.22887229823E+02 -0.20904008708E+02 -0.25486590118E+02  0.40129404994E+02  0.51100000000E-03 0.  1.
         12    1    3    3    0    0 -0.17438765542E+02  0.27849159472E+02  0.24537581011E+02  0.41009500226E+02  0.00000000000E+00 0. -1.
</event>
<event>
 7    1  0.4520336E-015  0.9000769E+02  0.7816164E-02  0.1186339E+00
        -11   -1    0    0    0    0  0.00000000000E+00  0.00000000000E+00  0.45593999997E+02  0.45594000000E+02  0.51100000000E-03 0.  1.
         11   -1    0    0    0    0 -0.00000000000E+00 -0.00000000000E+00 -0.45593999997E+02  0.45594000000E+02  0.51100000000E-03 0. -1.
    9900012    2    1    2    0    0  0.75263123118E+00  0.16500202177E+00  0.89411717059E+00  0.90007692857E+02  0.89999953603E+02 0.  0.
         12    1    1    2    0    0 -0.75263123118E+00 -0.16500202177E+00 -0.89411717059E+00  0.11803071431E+01  0.00000000000E+00 0. -1.
         11    1    3    3    0    0 -0.63048862165E+01  0.39705530417E+01  0.61201280154E+01  0.96422429365E+01  0.51100000000E-03 0. -1.
        -11    1    3    3    0    0  0.13924837973E+02  0.16966237169E+02  0.31037199355E+02  0.38013971909E+02  0.51100000000E-03 0.  1.
         12    1    3    3    0    0 -0.68673205251E+01 -0.20771788189E+02 -0.36263210200E+02  0.42351478011E+02  0.00000000000E+00 0. -1.
</event>
<event>
 7    1  0.6134654E-015  0.9000769E+02  0.7816164E-02  0.1186339E+00
        -11   -1    0    0    0    0  0.00000000000E+00  0.00000000000E+00  0.45593999997E+02  0.45594000000E+02  0.51100000000E-03 0. -1.
         11   -1    0    0    0    0 -0.00000000000E+00 -0.00000000000E+00 -0.45593999997E+02  0.45594000000E+02  0.51100000000E-03 0.  1.
    9900012    2    1    2    0    0 -0.11725948535E+01 -0.74099989656E-01  0.11249300796E+00  0.90007693186E+02  0.89999953936E+02 0.  0.
         12    1    1    2    0    0  0.11725948535E+01  0.74099989656E-01 -0.11249300796E+00  0.11803068142E+01  0.00000000000E+00 0. -1.
         11    1    3    3    0    0 -0.12381188754E+02 -0.28745292031E+02 -0.18587169559E+02  0.36401490648E+02  0.51100000000E-03 0. -1.
        -11    1    3    3    0    0 -0.64144611181E+01 -0.20687904765E+01 -0.70892140672E+01  0.97817259123E+01  0.51100000000E-03 0.  1.
        -12    1    3    3    0    0  0.17623055019E+02  0.30739982518E+02  0.25788876634E+02  0.43824476625E+02  0.00000000000E+00 0.  1.
</event>
<event>
 7    1  0.4520336E-015  0.9000757E+02  0.7816164E-02  0.1186339E+00
        -11   -1    0    0    0    0  0.00000000000E+00  0.00000000000E+00  0.45593999997E+02  0.45594000000E+02  0.51100000000E-03 0.  1.
         11   -1    0    0    0    0 -0.00000000000E+00 -0.00000000000E+00 -0.45593999997E+02  0.45594000000E+02  0.51100000000E-03 0. -1.
    9900012    2    1    2    0    0 -0.51194827236E+00 -0.10044314693E+00  0.10588813419E+01  0.90007572300E+02  0.89999831454E+02 0.  0.
         12    1    1    2    0    0  0.51194827236E+00  0.10044314693E+00 -0.10588813419E+01  0.11804277003E+01  0.00000000000E+00 0. -1.
         11    1    3    3    0    0 -0.34335987417E+02 -0.14534732926E+02  0.81408517906E+01  0.38164013956E+02  0.51100000000E-03 0. -1.
        -11    1    3    3    0    0 -0.52217839463E+01 -0.15996640167E+01 -0.79260065212E+01  0.96253588080E+01  0.51100000000E-03 0.  1.
        -12    1    3    3    0    0  0.39045823091E+02  0.16033953796E+02  0.84403607248E+00  0.42218199536E+02  0.00000000000E+00 0.  1.
</event>
<event>
 7    1  0.4520336E-015  0.9000761E+02  0.7816164E-02  0.1186339E+00
        -11   -1    0    0    0    0  0.00000000000E+00  0.00000000000E+00  0.45593999997E+02  0.45594000000E+02  0.51100000000E-03 0.  1.
         11   -1    0    0    0    0 -0.00000000000E+00 -0.00000000000E+00 -0.45593999997E+02  0.45594000000E+02  0.51100000000E-03 0. -1.
    9900012    2    1    2    0    0  0.47951941328E+00  0.42714251317E+00  0.99041738379E+00  0.90007611848E+02  0.89999871525E+02 0.  0.
         12    1    1    2    0    0 -0.47951941328E+00 -0.42714251317E+00 -0.99041738379E+00  0.11803881516E+01  0.00000000000E+00 0. -1.
         11    1    3    3    0    0  0.23562020334E+01 -0.96393414562E+01 -0.18743673744E+01  0.10098606094E+02  0.51100000000E-03 0. -1.
        -11    1    3    3    0    0  0.59990606455E+01 -0.37704832196E+01  0.39412274595E+02  0.40044133920E+02  0.51100000000E-03 0.  1.
         12    1    3    3    0    0 -0.78757432657E+01  0.13836967189E+02 -0.36547489837E+02  0.39864871834E+02  0.00000000000E+00 0. -1.
</event>
<event>
 7    1  0.4520336E-015  0.9000777E+02  0.7816164E-02  0.1186339E+00
        -11   -1    0    0    0    0  0.00000000000E+00  0.00000000000E+00  0.45593999997E+02  0.45594000000E+02  0.51100000000E-03 0.  1.
         11   -1    0    0    0    0 -0.00000000000E+00 -0.00000000000E+00 -0.45593999997E+02  0.45594000000E+02  0.51100000000E-03 0. -1.
    9900012    2    1    2    0    0 -0.17772338120E+00  0.78612728478E+00  0.86217876835E+00  0.90007773777E+02  0.90000035591E+02 0.  0.
         12    1    1    2    0    0  0.17772338120E+00 -0.78612728478E+00 -0.86217876835E+00  0.11802262227E+01  0.00000000000E+00 0. -1.
         11    1    3    3    0    0 -0.38062700859E+02  0.10581784885E+02 -0.10582694223E+02  0.40899104945E+02  0.51100000000E-03 0. -1.
        -11    1    3    3    0    0  0.45282911273E+01 -0.78753655204E+01 -0.65117542705E+01  0.11177197616E+02  0.51100000000E-03 0.  1.
        -12    1    3    3    0    0  0.33356686351E+02 -0.19202920800E+01  0.17956627262E+02  0.37931471216E+02  0.00000000000E+00 0.  1.
</event>
<event>
 7    1  0.4520336E-015  0.9000772E+02  0.7816164E-02  0.1186339E+00
        -11   -1    0    0    0    0  0.00000000000E+00  0.00000000000E+00  0.45593999997E+02  0.45594000000E+02  0.51100000000E-03 0.  1.
         11   -1    0    0    0    0 -0.00000000000E+00 -0.00000000000E+00 -0.45593999997E+02  0.45594000000E+02  0.51100000000E-03 0. -1.
    9900012    2    1    2    0    0 -0.80382465198E+00  0.86099490696E+00 -0.74897695322E-01  0.90007722081E+02  0.89999983213E+02 0.  0.
         12    1    1    2    0    0  0.80382465198E+00 -0.86099490696E+00  0.74897695322E-01  0.11802779188E+01  0.00000000000E+00 0. -1.
         11    1    3    3    0    0  0.90321052727E+01  0.30067980204E+02  0.27220583647E+01  0.31513044302E+02  0.51100000000E-03 0. -1.
        -11    1    3    3    0    0 -0.94199533600E+01  0.12850156717E+02  0.24103963988E+01  0.16114343301E+02  0.51100000000E-03 0.  1.
        -12    1    3    3    0    0 -0.41597656474E+00 -0.42057142014E+02 -0.52073524588E+01  0.42380334478E+02  0.00000000000E+00 0.  1.
</event>
<event>
 7    1  0.4520336E-015  0.9000770E+02  0.7816164E-02  0.1186339E+00
        -11   -1    0    0    0    0  0.00000000000E+00  0.00000000000E+00  0.45593999997E+02  0.45594000000E+02  0.51100000000E-03 0. -1.
         11   -1    0    0    0    0 -0.00000000000E+00 -0.00000000000E+00 -0.45593999997E+02  0.45594000000E+02  0.51100000000E-03 0.  1.
    9900012    2    1    2    0    0 -0.11676530020E+01  0.23096064723E-01 -0.17079064663E+00  0.90007696477E+02  0.89999957271E+02 0.  0.
         12    1    1    2    0    0  0.11676530020E+01 -0.23096064723E-01  0.17079064663E+00  0.11803035230E+01  0.00000000000E+00 0. -1.
         11    1    3    3    0    0 -0.30303136041E+01 -0.85488731527E+01  0.32881606248E+02  0.34109618328E+02  0.51100000000E-03 0. -1.
        -11    1    3    3    0    0 -0.84638030780E+01  0.53879510468E+01  0.83844447411E+01  0.13075354408E+02  0.51100000000E-03 0.  1.
        -12    1    3    3    0    0  0.10326463680E+02  0.31840181707E+01 -0.41436841636E+02  0.42822723741E+02  0.00000000000E+00 0.  1.
</event>
<event>
 7    1  0.4520336E-015  0.9000765E+02  0.7816164E-02  0.1186339E+00
        -11   -1    0    0    0    0  0.00000000000E+00  0.00000000000E+00  0.45593999997E+02  0.45594000000E+02  0.51100000000E-03 0. -1.
         11   -1    0    0    0    0 -0.00000000000E+00 -0.00000000000E+00 -0.45593999997E+02  0.45594000000E+02  0.51100000000E-03 0.  1.
    9900012    2    1    2    0    0  0.54586005288E+00  0.93734319465E+00  0.46545416679E+00  0.90007651304E+02  0.89999911502E+02 0.  0.
         12    1    1    2    0    0 -0.54586005288E+00 -0.93734319465E+00 -0.46545416679E+00  0.11803486956E+01  0.00000000000E+00 0. -1.
         11    1    3    3    0    0 -0.14343492150E+02 -0.12122578503E+02  0.34196980780E+02  0.39014435423E+02  0.51100000000E-03 0. -1.
        -11    1    3    3    0    0  0.70313359423E+01 -0.31010344400E+01  0.43887105666E+01  0.88496825045E+01  0.51100000000E-03 0.  1.
        -12    1    3    3    0    0  0.78580162602E+01  0.16160956138E+02 -0.38120237180E+02  0.42143533377E+02  0.00000000000E+00 0.  1.
</event>
<event>
 7    1  0.4520336E-015  0.9000779E+02  0.7816164E-02  0.1186339E+00
        -11   -1    0    0    0    0  0.00000000000E+00  0.00000000000E+00  0.45593999997E+02  0.45594000000E+02  0.51100000000E-03 0.  1.
         11   -1    0    0    0    0 -0.00000000000E+00 -0.00000000000E+00 -0.45593999997E+02  0.45594000000E+02  0.51100000000E-03 0. -1.
    9900012    2    1    2    0    0  0.10242630881E+01 -0.29435426855E+00  0.50709348887E+00  0.90007786835E+02  0.90000048821E+02 0.  0.
         12    1    1    2    0    0 -0.10242630881E+01  0.29435426855E+00 -0.50709348887E+00  0.11802131653E+01  0.00000000000E+00 0. -1.
         11    1    3    3    0    0 -0.12247162890E+01 -0.94610502665E+01 -0.32527676656E+02  0.33897804517E+02  0.51100000000E-03 0. -1.
        -11    1    3    3    0    0 -0.13034058315E+01 -0.85120321512E+01 -0.77067802551E+01  0.11556297862E+02  0.51100000000E-03 0.  1.
        -12    1    3    3    0    0  0.35523852086E+01  0.17678728149E+02  0.40741550400E+02  0.44553684457E+02  0.00000000000E+00 0.  1.
</event>
<event>
 7    1  0.4520336E-015  0.9000779E+02  0.7816164E-02  0.1186339E+00
        -11   -1    0    0    0    0  0.00000000000E+00  0.00000000000E+00  0.45593999997E+02  0.45594000000E+02  0.51100000000E-03 0. -1.
         11   -1    0    0    0    0 -0.00000000000E+00 -0.00000000000E+00 -0.45593999997E+02  0.45594000000E+02  0.51100000000E-03 0.  1.
    9900012    2    1    2    0    0 -0.13548061753E-01  0.76054060148E+00 -0.90237550245E+00  0.90007793618E+02  0.90000055694E+02 0.  0.
         12    1    1    2    0    0  0.13548061753E-01 -0.76054060148E+00  0.90237550245E+00  0.11802063819E+01  0.00000000000E+00 0. -1.
         11    1    3    3    0    0  0.30255724481E+02  0.14261991335E+02  0.85041017685E+01  0.34512794843E+02  0.51100000000E-03 0. -1.
        -11    1    3    3    0    0  0.80382041316E+01  0.55949408026E+01  0.40911101210E+01  0.10613824501E+02  0.51100000000E-03 0.  1.
        -12    1    3    3    0    0 -0.38307476674E+02 -0.19096391536E+02 -0.13497587392E+02  0.44881174275E+02  0.00000000000E+00 0.  1.
</event>
<event>
 7    1  0.4520336E-015  0.9000775E+02  0.7816164E-02  0.1186339E+00
        -11   -1    0    0    0    0  0.00000000000E+00  0.00000000000E+00  0.45593999997E+02  0.45594000000E+02  0.51100000000E-03 0. -1.
         11   -1    0    0    0    0 -0.00000000000E+00 -0.00000000000E+00 -0.45593999997E+02  0.45594000000E+02  0.51100000000E-03 0.  1.
    9900012    2    1    2    0    0  0.82165631771E-01 -0.24896123939E+00 -0.11507623285E+01  0.90007751371E+02  0.90000012889E+02 0.  0.
         12    1    1    2    0    0 -0.82165631771E-01  0.24896123939E+00  0.11507623285E+01  0.11802486291E+01  0.00000000000E+00 0. -1.
         11    1    3    3    0    0  0.63825430543E+01 -0.70458430888E+01  0.64240120352E+00  0.95285591901E+01  0.51100000000E-03 0. -1.
        -11    1    3    3    0    0  0.31752258189E+02  0.22275243617E+02  0.40013060622E+01  0.38992343206E+02  0.51100000000E-03 0.  1.
         12    1    3    3    0    0 -0.38052635611E+02 -0.15478361767E+02 -0.57944695943E+01  0.41486848974E+02  0.00000000000E+00 0. -1.
</event>
<event>
 7    1  0.4520336E-015  0.9000771E+02  0.7816164E-02  0.1186339E+00
        -11   -1    0    0    0    0  0.00000000000E+00  0.00000000000E+00  0.45593999997E+02  0.45594000000E+02  0.51100000000E-03 0. -1.
         11   -1    0    0    0    0 -0.00000000000E+00 -0.00000000000E+00 -0.45593999997E+02  0.45594000000E+02  0.51100000000E-03 0.  1.
    9900012    2    1    2    0    0  0.89567893878E+00  0.34014932969E+00  0.68931215437E+00  0.90007706149E+02  0.89999967070E+02 0.  0.
         12    1    1    2    0    0 -0.89567893878E+00 -0.34014932969E+00 -0.68931215437E+00  0.11802938507E+01  0.00000000000E+00 0. -1.
         11    1    3    3    0    0 -0.70835280439E+01  0.32278177400E+00 -0.10031241029E+02  0.12284394753E+02  0.51100000000E-03 0. -1.
        -11    1    3    3    0    0  0.33366110836E+02 -0.20841165490E+02 -0.76536509903E+01  0.40077798156E+02  0.51100000000E-03 0.  1.
         12    1    3    3    0    0 -0.25386903853E+02  0.20858533046E+02  0.18374204173E+02  0.37645513240E+02  0.00000000000E+00 0. -1.
</event>
<event>
 7    1  0.4520336E-015  0.9000776E+02  0.7816164E-02  0.1186339E+00
        -11   -1    0    0    0    0  0.00000000000E+00  0.00000000000E+00  0.45593999997E+02  0.45594000000E+02  0.51100000000E-03 0. -1.
         11   -1    0    0    0    0 -0.00000000000E+00 -0.00000000000E+00 -0.45593999997E+02  0.45594000000E+02  0.51100000000E-03 0.  1.
    9900012    2    1    2    0    0 -0.10875325296E+01  0.32916309733E+00 -0.31920980876E+00  0.90007758394E+02  0.90000020004E+02 0.  0.
         12    1    1    2    0    0  0.10875325296E+01 -0.32916309733E+00  0.31920980876E+00  0.11802416065E+01  0.00000000000E+00 0. -1.
         11    1    3    3    0    0  0.36256414153E+02 -0.13017513791E+02  0.83440858081E+01  0.39415821706E+02  0.51100000000E-03 0. -1.
        -11    1    3    3    0    0  0.14177763367E+01  0.35398983444E+00 -0.95894403186E+01  0.97001424953E+01  0.51100000000E-03 0.  1.
        -12    1    3    3    0    0 -0.38761723019E+02  0.12992687054E+02  0.92614470175E+00  0.40891794193E+02  0.00000000000E+00 0.  1.
</event>
<event>
 7    1  0.4520336E-015  0.9000777E+02  0.7816164E-02  0.1186339E+00
        -11   -1    0    0    0    0  0.00000000000E+00  0.00000000000E+00  0.45593999997E+02  0.45594000000E+02  0.51100000000E-03 0. -1.
         11   -1    0    0    0    0 -0.00000000000E+00 -0.00000000000E+00 -0.45593999997E+02  0.45594000000E+02  0.51100000000E-03 0.  1.
    9900012    2    1    2    0    0 -0.10669834519E+01 -0.50425553765E+00  0.14376799046E-01  0.90007773739E+02  0.90000035553E+02 0.  0.
         12    1    1    2    0    0  0.10669834519E+01  0.50425553765E+00 -0.14376799046E-01  0.11802262606E+01  0.00000000000E+00 0. -1.
         11    1    3    3    0    0 -0.15201777228E+02  0.35360785860E+02 -0.65869967758E+01  0.39049554854E+02  0.51100000000E-03 0. -1.
        -11    1    3    3    0    0 -0.75107257176E+01 -0.20862080400E+01 -0.49196175060E+01  0.92176950187E+01  0.51100000000E-03 0.  1.
        -12    1    3    3    0    0  0.21645519494E+02 -0.33778833358E+02  0.11520991081E+02  0.41740523866E+02  0.00000000000E+00 0.  1.
</event>
<event>
 7    1  0.4520336E-015  0.9000756E+02  0.7816164E-02  0.1186339E+00
        -11   -1    0    0    0    0  0.00000000000E+00  0.00000000000E+00  0.45593999997E+02  0.45594000000E+02  0.51100000000E-03 0. -1.
         11   -1    0    0    0    0 -0.00000000000E+00 -0.00000000000E+00 -0.45593999997E+02  0.45594000000E+02  0.51100000000E-03 0.  1.
    9900012    2    1    2    0    0  0.80480584880E+00  0.85608264849E+00  0.11331650359E+00  0.90007563392E+02  0.89999822429E+02 0.  0.
         12    1    1    2    0    0 -0.80480584880E+00 -0.85608264849E+00 -0.11331650359E+00  0.11804366079E+01  0.00000000000E+00 0. -1.
         11    1    3    3    0    0 -0.66855932197E+01 -0.21769620400E+01  0.12088529533E+01  0.71342586263E+01  0.51100000000E-03 0. -1.
        -11    1    3    3    0    0 -0.28275987431E+02  0.21514935874E+02  0.16208102943E+02  0.39052868424E+02  0.51100000000E-03 0.  1.
         12    1    3    3    0    0  0.35766386499E+02 -0.18481891186E+02 -0.17303639392E+02  0.43820436342E+02  0.00000000000E+00 0. -1.
</event>
<event>
 7    1  0.4520336E-015  0.9000761E+02  0.7816164E-02  0.1186339E+00
        -11   -1    0    0    0    0  0.00000000000E+00  0.00000000000E+00  0.45593999997E+02  0.45594000000E+02  0.51100000000E-03 0. -1.
         11   -1    0    0    0    0 -0.00000000000E+00 -0.00000000000E+00 -0.45593999997E+02  0.45594000000E+02  0.51100000000E-03 0.  1.
    9900012    2    1    2    0    0 -0.70734717333E+00  0.85476268390E+00 -0.40293659233E+00  0.90007611434E+02  0.89999871105E+02 0.  0.
         12    1    1    2    0    0  0.70734717333E+00 -0.85476268390E+00  0.40293659233E+00  0.11803885660E+01  0.00000000000E+00 0. -1.
         11    1    3    3    0    0 -0.99181659290E+01  0.40609841189E+01  0.19809060393E+00  0.10719181291E+02  0.51100000000E-03 0. -1.
        -11    1    3    3    0    0 -0.28408383348E+02  0.21696990025E+01 -0.21708063496E+02  0.35818764066E+02  0.51100000000E-03 0.  1.
         12    1    3    3    0    0  0.37619202104E+02 -0.53759204375E+01  0.21107036299E+02  0.43469666077E+02  0.00000000000E+00 0. -1.
</event>
<event>
 7    1  0.4520336E-015  0.9000786E+02  0.7816164E-02  0.1186339E+00
        -11   -1    0    0    0    0  0.00000000000E+00  0.00000000000E+00  0.45593999997E+02  0.45594000000E+02  0.51100000000E-03 0.  1.
         11   -1    0    0    0    0 -0.00000000000E+00 -0.00000000000E+00 -0.45593999997E+02  0.45594000000E+02  0.51100000000E-03 0. -1.
    9900012    2    1    2    0    0 -0.25186391276E-01 -0.16318367542E+00  0.11685344957E+01  0.90007857579E+02  0.90000120499E+02 0.  0.
         12    1    1    2    0    0  0.25186391277E-01  0.16318367542E+00 -0.11685344957E+01  0.11801424210E+01  0.00000000000E+00 0. -1.
         11    1    3    3    0    0 -0.54063342367E+01 -0.64217574970E+01 -0.17023301512E+00  0.83962133590E+01  0.51100000000E-03 0. -1.
        -11    1    3    3    0    0 -0.37128637977E+02  0.20375849370E+01  0.88853340314E+01  0.38231357176E+02  0.51100000000E-03 0.  1.
         12    1    3    3    0    0  0.42509785822E+02  0.42209888846E+01 -0.75465665206E+01  0.43380287044E+02  0.00000000000E+00 0. -1.
</event>
<event>
 7    1  0.4520336E-015  0.9000773E+02  0.7816164E-02  0.1186339E+00
        -11   -1    0    0    0    0  0.00000000000E+00  0.00000000000E+00  0.45593999997E+02  0.45594000000E+02  0.51100000000E-03 0. -1.
         11   -1    0    0    0    0 -0.00000000000E+00 -0.00000000000E+00 -0.45593999997E+02  0.45594000000E+02  0.51100000000E-03 0.  1.
    9900012    2    1    2    0    0  0.64014415061E+00  0.77716618237E+00 -0.61583971004E+00  0.90007732930E+02  0.89999994204E+02 0.  0.
         12    1    1    2    0    0 -0.64014415061E+00 -0.77716618237E+00  0.61583971004E+00  0.11802670702E+01  0.00000000000E+00 0. -1.
         11    1    3    3    0    0 -0.49790509932E+01  0.35439068361E+02  0.88976794921E+01  0.36876648650E+02  0.51100000000E-03 0. -1.
        -11    1    3    3    0    0 -0.73404576947E+01  0.43521866338E+01  0.45637973999E+01  0.96774012333E+01  0.51100000000E-03 0.  1.
        -12    1    3    3    0    0  0.12959652839E+02 -0.39014088812E+02 -0.14077316602E+02  0.43453683046E+02  0.00000000000E+00 0.  1.
</event>
<event>
 7    1  0.4520336E-015  0.9000774E+02  0.7816164E-02  0.1186339E+00
        -11   -1    0    0    0    0  0.00000000000E+00  0.00000000000E+00  0.45593999997E+02  0.45594000000E+02  0.51100000000E-03 0.  1.
         11   -1    0    0    0    0 -0.00000000000E+00 -0.00000000000E+00 -0.45593999997E+02  0.45594000000E+02  0.51100000000E-03 0. -1.
    9900012    2    1    2    0    0  0.52935822485E+00  0.22293321366E+00  0.10310630975E+01  0.90007741359E+02  0.90000002745E+02 0.  0.
         12    1    1    2    0    0 -0.52935822485E+00 -0.22293321366E+00 -0.10310630975E+01  0.11802586407E+01  0.00000000000E+00 0. -1.
         11    1    3    3    0    0 -0.12050527943E+02  0.14692674095E+02 -0.35605204861E+02  0.40358648506E+02  0.51100000000E-03 0. -1.
        -11    1    3    3    0    0  0.13726071875E+01 -0.78921528738E+01 -0.25161226394E+01  0.83964874128E+01  0.51100000000E-03 0.  1.
        -12    1    3    3    0    0  0.11207278980E+02 -0.65775880071E+01  0.39152390598E+02  0.41252605441E+02  0.00000000000E+00 0.  1.
</event>
<event>
 7    1  0.4520336E-015  0.9000772E+02  0.7816164E-02  0.1186339E+00
        -11   -1    0    0    0    0  0.00000000000E+00  0.00000000000E+00  0.45593999997E+02  0.45594000000E+02  0.51100000000E-03 0.  1.
         11   -1    0    0    0    0 -0.00000000000E+00 -0.00000000000E+00 -0.45593999997E+02  0.45594000000E+02  0.51100000000E-03 0. -1.
    9900012    2    1    2    0    0  0.55074329066E+00 -0.10212045302E+01  0.21655362253E+00  0.90007715146E+02  0.89999976186E+02 0.  0.
         12    1    1    2    0    0 -0.55074329066E+00  0.10212045302E+01 -0.21655362253E+00  0.11802848538E+01  0.00000000000E+00 0. -1.
         11    1    3    3    0    0 -0.28757317344E+02  0.18032618376E+02 -0.18500292382E+02  0.38657721671E+02  0.51100000000E-03 0. -1.
        -11    1    3    3    0    0  0.23162453122E+01  0.87032325220E+01  0.22935039889E+01  0.92936219788E+01  0.51100000000E-03 0.  1.
        -12    1    3    3    0    0  0.26991815323E+02 -0.27757055428E+02  0.16423342015E+02  0.42056371496E+02  0.00000000000E+00 0.  1.
</event>
<event>
 7    1  0.5821334E-015  0.9000768E+02  0.7816164E-02  0.1186339E+00
        -11   -1    0    0    0    0  0.00000000000E+00  0.00000000000E+00  0.45593999997E+02  0.45594000000E+02  0.51100000000E-03 0. -1.
         11   -1    0    0    0    0 -0.00000000000E+00 -0.00000000000E+00 -0.45593999997E+02  0.45594000000E+02  0.51100000000E-03 0.  1.
    9900012    2    1    2    0    0 -0.53705327065E-01  0.11431800414E+01 -0.28880785745E+00  0.90007680193E+02  0.89999940771E+02 0.  0.
         12    1    1    2    0    0  0.53705327065E-01 -0.11431800414E+01  0.28880785745E+00  0.11803198074E+01  0.00000000000E+00 0. -1.
         11    1    3    3    0    0  0.35600582470E+02  0.17792120365E+02  0.65545628508E+01  0.40335137457E+02  0.51100000000E-03 0. -1.
        -11    1    3    3    0    0  0.18090563471E+01 -0.20151729327E+01 -0.89961989806E+01  0.93949562626E+01  0.51100000000E-03 0.  1.
        -12    1    3    3    0    0 -0.37463344144E+02 -0.14633767391E+02  0.21528282724E+01  0.40277586473E+02  0.00000000000E+00 0.  1.
</event>
<event>
 7    1  0.4520336E-015  0.9000769E+02  0.7816164E-02  0.1186339E+00
        -11   -1    0    0    0    0  0.00000000000E+00  0.00000000000E+00  0.45593999997E+02  0.45594000000E+02  0.51100000000E-03 0. -1.
         11   -1    0    0    0    0 -0.00000000000E+00 -0.00000000000E+00 -0.45593999997E+02  0.45594000000E+02  0.51100000000E-03 0.  1.
    9900012    2    1    2    0    0 -0.69352421541E+00  0.95481241037E+00  0.22226372192E-01  0.90007687928E+02  0.89999948608E+02 0.  0.
         12    1    1    2    0    0  0.69352421541E+00 -0.95481241037E+00 -0.22226372192E-01  0.11803120723E+01  0.00000000000E+00 0. -1.
         11    1    3    3    0    0 -0.39883633320E+01 -0.92287675881E+01 -0.90394827748E+00  0.10094271445E+02  0.51100000000E-03 0. -1.
        -11    1    3    3    0    0 -0.11435182606E+02 -0.22793115168E+02  0.25630728471E+02  0.36155549263E+02  0.51100000000E-03 0.  1.
         12    1    3    3    0    0  0.14730021723E+02  0.32976695167E+02 -0.24704553821E+02  0.43757867219E+02  0.00000000000E+00 0. -1.
</event>
<event>
 7    1  0.4520336E-015  0.9000775E+02  0.7816164E-02  0.1186339E+00
        -11   -1    0    0    0    0  0.00000000000E+00  0.00000000000E+00  0.45593999997E+02  0.45594000000E+02  0.51100000000E-03 0.  1.
         11   -1    0    0    0    0 -0.00000000000E+00 -0.00000000000E+00 -0.45593999997E+02  0.45594000000E+02  0.51100000000E-03 0. -1.
    9900012    2    1    2    0    0  0.84227744536E-01  0.52554083315E+00  0.10534194995E+01  0.90007754211E+02  0.90000015767E+02 0.  0.
         12    1    1    2    0    0 -0.84227744536E-01 -0.52554083315E+00 -0.10534194995E+01  0.11802457889E+01  0.00000000000E+00 0. -1.
         11    1    3    3    0    0  0.20798390826E+02 -0.20158816357E+02 -0.26794918861E+02  0.39457808035E+02  0.51100000000E-03 0. -1.
        -11    1    3    3    0    0 -0.50161893227E+01 -0.74288460992E+00 -0.57848056986E+01  0.76927244911E+01  0.51100000000E-03 0.  1.
        -12    1    3    3    0    0 -0.15697973759E+02  0.21427241800E+02  0.33633144059E+02  0.42857221685E+02  0.00000000000E+00 0.  1.
</event>
<event>
 7    1  0.4520336E-015  0.9000776E+02  0.7816164E-02  0.1186339E+00
        -11   -1    0    0    0    0  0.00000000000E+00  0.00000000000E+00  0.45593999997E+02  0.45594000000E+02  0.51100000000E-03 0.  1.
         11   -1    0    0    0    0 -0.00000000000E+00 -0.00000000000E+00 -0.45593999997E+02  0.45594000000E+02  0.51100000000E-03 0. -1.
    9900012    2    1    2    0    0  0.60692160484E+00 -0.76208521296E+00  0.66620999766E+00  0.90007761267E+02  0.90000022916E+02 0.  0.
         12    1    1    2    0    0 -0.60692160484E+00  0.76208521296E+00 -0.66620999766E+00  0.11802387331E+01  0.00000000000E+00 0. -1.
         11    1    3    3    0    0  0.46489606468E+01  0.49651364007E+01 -0.47453532020E+01  0.82935994505E+01  0.51100000000E-03 0. -1.
        -11    1    3    3    0    0  0.22176415289E+02  0.13425761998E+02 -0.25872867412E+02  0.36625807140E+02  0.51100000000E-03 0.  1.
         12    1    3    3    0    0 -0.26218454331E+02 -0.19152983612E+02  0.31284430611E+02  0.45088354676E+02  0.00000000000E+00 0. -1.
</event>
<event>
 7    1  0.4520336E-015  0.9000748E+02  0.7816164E-02  0.1186340E+00
        -11   -1    0    0    0    0  0.00000000000E+00  0.00000000000E+00  0.45593999997E+02  0.45594000000E+02  0.51100000000E-03 0. -1.
         11   -1    0    0    0    0 -0.00000000000E+00 -0.00000000000E+00 -0.45593999997E+02  0.45594000000E+02  0.51100000000E-03 0.  1.
    9900012    2    1    2    0    0 -0.22713620454E+00  0.11255392699E+01 -0.27422083366E+00  0.90007480382E+02  0.89999738322E+02 0.  0.
         12    1    1    2    0    0  0.22713620454E+00 -0.11255392699E+01  0.27422083366E+00  0.11805196183E+01  0.00000000000E+00 0. -1.
         11    1    3    3    0    0 -0.16073795325E+02  0.69411529556E+01  0.29541569886E+02  0.34340222074E+02  0.51100000000E-03 0. -1.
        -11    1    3    3    0    0  0.28744826888E+01 -0.99652642227E+01  0.94965478817E+01  0.14062487820E+02  0.51100000000E-03 0.  1.
        -12    1    3    3    0    0  0.12972176432E+02  0.41496505370E+01 -0.39312338602E+02  0.41604770487E+02  0.00000000000E+00 0.  1.
</event>
<event>
 7    1  0.4520336E-015  0.9000815E+02  0.7816164E-02  0.1186338E+00
        -11   -1    0    0    0    0  0.00000000000E+00  0.00000000000E+00  0.45593999997E+02  0.45594000000E+02  0.51100000000E-03 0.  1.
         11   -1    0    0    0    0 -0.00000000000E+00 -0.00000000000E+00 -0.45593999997E+02  0.45594000000E+02  0.51100000000E-03 0. -1.
    9900012    2    1    2    0    0  0.61458924149E+00  0.38289185653E+00  0.93151448816E+00  0.90008150284E+02  0.90000417067E+02 0.  0.
         12    1    1    2    0    0 -0.61458924149E+00 -0.38289185653E+00 -0.93151448816E+00  0.11798497155E+01  0.00000000000E+00 0. -1.
         11    1    3    3    0    0  0.14440699604E+02  0.61050505085E+01 -0.33696198617E+02  0.37165027220E+02  0.51100000000E-03 0. -1.
        -11    1    3    3    0    0  0.83653288139E+01 -0.77558278911E+01 -0.30057122190E+00  0.11411482628E+02  0.51100000000E-03 0.  1.
        -12    1    3    3    0    0 -0.22191439176E+02  0.20336692391E+01  0.34928284327E+02  0.41431640437E+02  0.00000000000E+00 0.  1.
</event>
<event>
 7    1  0.4520336E-015  0.9000778E+02  0.7816164E-02  0.1186339E+00
        -11   -1    0    0    0    0  0.00000000000E+00  0.00000000000E+00  0.45593999997E+02  0.45594000000E+02  0.51100000000E-03 0. -1.
         11   -1    0    0    0    0 -0.00000000000E+00 -0.00000000000E+00 -0.45593999997E+02  0.45594000000E+02  0.51100000000E-03 0.  1.
    9900012    2    1    2    0    0 -0.72710253989E+00 -0.53675839310E+00  0.75902711256E+00  0.90007783989E+02  0.90000045937E+02 0.  0.
         12    1    1    2    0    0  0.72710253989E+00  0.53675839310E+00 -0.75902711256E+00  0.11802160114E+01  0.00000000000E+00 0. -1.
         11    1    3    3    0    0  0.23272960674E+02 -0.11868057156E+02  0.28301695588E+02  0.38515807828E+02  0.51100000000E-03 0. -1.
        -11    1    3    3    0    0  0.62450788937E+01  0.75589761189E+01  0.84361901656E+00  0.98412816067E+01  0.51100000000E-03 0.  1.
        -12    1    3    3    0    0 -0.30245142108E+02  0.37723226436E+01 -0.28386287492E+02  0.41650694554E+02  0.00000000000E+00 0.  1.
</event>
<event>
 7    1  0.4520336E-015  0.9000774E+02  0.7816164E-02  0.1186339E+00
        -11   -1    0    0    0    0  0.00000000000E+00  0.00000000000E+00  0.45593999997E+02  0.45594000000E+02  0.51100000000E-03 0.  1.
         11   -1    0    0    0    0 -0.00000000000E+00 -0.00000000000E+00 -0.45593999997E+02  0.45594000000E+02  0.51100000000E-03 0. -1.
    9900012    2    1    2    0    0 -0.11085252015E+00 -0.11738567249E+01 -0.52879856513E-01  0.90007735550E+02  0.89999996860E+02 0.  0.
         12    1    1    2    0    0  0.11085252015E+00  0.11738567249E+01  0.52879856513E-01  0.11802644496E+01  0.00000000000E+00 0. -1.
         11    1    3    3    0    0 -0.64754289153E+01  0.25029674587E+01  0.56396889147E+01  0.89443902561E+01  0.51100000000E-03 0. -1.
        -11    1    3    3    0    0  0.41450911205E+01  0.15740888567E+02  0.33512695203E+02  0.37256651666E+02  0.51100000000E-03 0.  1.
         12    1    3    3    0    0  0.22194852747E+01 -0.19417712751E+02 -0.39205263975E+02  0.43806693629E+02  0.00000000000E+00 0. -1.
</event>
<event>
 7    1  0.4520336E-015  0.9000769E+02  0.7816164E-02  0.1186339E+00
        -11   -1    0    0    0    0  0.00000000000E+00  0.00000000000E+00  0.45593999997E+02  0.45594000000E+02  0.51100000000E-03 0. -1.
         11   -1    0    0    0    0 -0.00000000000E+00 -0.00000000000E+00 -0.45593999997E+02  0.45594000000E+02  0.51100000000E-03 0.  1.
    9900012    2    1    2    0    0 -0.11649604211E+01 -0.14984838814E+00  0.11635095760E+00  0.90007692893E+02  0.89999953639E+02 0.  0.
         12    1    1    2    0    0  0.11649604211E+01  0.14984838814E+00 -0.11635095760E+00  0.11803071072E+01  0.00000000000E+00 0. -1.
         11    1    3    3    0    0 -0.20124036496E+02 -0.15345765235E+02  0.26369551911E+02  0.36548907286E+02  0.51100000000E-03 0. -1.
        -11    1    3    3    0    0 -0.28817662962E+01 -0.10114875037E+02  0.66352994140E+00  0.10538289532E+02  0.51100000000E-03 0.  1.
        -12    1    3    3    0    0  0.21840842372E+02  0.25310791884E+02 -0.26916730895E+02  0.42920496075E+02  0.00000000000E+00 0.  1.
</event>
<event>
 7    1  0.4520336E-015  0.9000773E+02  0.7816164E-02  0.1186339E+00
        -11   -1    0    0    0    0  0.00000000000E+00  0.00000000000E+00  0.45593999997E+02  0.45594000000E+02  0.51100000000E-03 0. -1.
         11   -1    0    0    0    0 -0.00000000000E+00 -0.00000000000E+00 -0.45593999997E+02  0.45594000000E+02  0.51100000000E-03 0.  1.
    9900012    2    1    2    0    0  0.44212166450E+00  0.26584695673E+00 -0.10615496224E+01  0.90007731483E+02  0.89999992739E+02 0.  0.
         12    1    1    2    0    0 -0.44212166450E+00 -0.26584695673E+00  0.10615496224E+01  0.11802685167E+01  0.00000000000E+00 0. -1.
         11    1    3    3    0    0  0.44091021628E+01  0.40068268994E+01 -0.89138768840E+01  0.10721569150E+02  0.51100000000E-03 0. -1.
        -11    1    3    3    0    0  0.25595208995E+02  0.25077297322E+02  0.12012123006E+02  0.37792547730E+02  0.51100000000E-03 0.  1.
         12    1    3    3    0    0 -0.29562189494E+02 -0.28818277265E+02 -0.41597957449E+01  0.41493614603E+02  0.00000000000E+00 0. -1.
</event>
<event>
 7    1  0.4520336E-015  0.9000780E+02  0.7816164E-02  0.1186339E+00
        -11   -1    0    0    0    0  0.00000000000E+00  0.00000000000E+00  0.45593999997E+02  0.45594000000E+02  0.51100000000E-03 0.  1.
         11   -1    0    0    0    0 -0.00000000000E+00 -0.00000000000E+00 -0.45593999997E+02  0.45594000000E+02  0.51100000000E-03 0. -1.
    9900012    2    1    2    0    0  0.72953987114E+00  0.26071877674E+00  0.89032019105E+00  0.90007799701E+02  0.90000061857E+02 0.  0.
         12    1    1    2    0    0 -0.72953987114E+00 -0.26071877674E+00 -0.89032019105E+00  0.11802002994E+01  0.00000000000E+00 0. -1.
         11    1    3    3    0    0 -0.51940418135E+01 -0.72273431300E+01 -0.28029909609E+01  0.93310941302E+01  0.51100000000E-03 0. -1.
        -11    1    3    3    0    0  0.30752762194E+02 -0.24696047760E+02 -0.26762223331E+01  0.39532130271E+02  0.51100000000E-03 0.  1.
         12    1    3    3    0    0 -0.24829180509E+02  0.32184109666E+02  0.63695334850E+01  0.41144575300E+02  0.00000000000E+00 0. -1.
</event>
<event>
 7    1  0.4520336E-015  0.9000777E+02  0.7816164E-02  0.1186339E+00
        -11   -1    0    0    0    0  0.00000000000E+00  0.00000000000E+00  0.45593999997E+02  0.45594000000E+02  0.51100000000E-03 0.  1.
         11   -1    0    0    0    0 -0.00000000000E+00 -0.00000000000E+00 -0.45593999997E+02  0.45594000000E+02  0.51100000000E-03 0. -1.
    9900012    2    1    2    0    0  0.11801684221E+01 -0.10289668686E-01 -0.59365514810E-02  0.90007771791E+02  0.90000033579E+02 0.  0.
         12    1    1    2    0    0 -0.11801684221E+01  0.10289668686E-01  0.59365514810E-02  0.11802282087E+01  0.00000000000E+00 0. -1.
         11    1    3    3    0    0  0.16855679199E+01 -0.87686048648E+01 -0.52853040819E+01  0.10376126926E+02  0.51100000000E-03 0. -1.
        -11    1    3    3    0    0  0.37158778752E+02 -0.59964191616E+01  0.98940190801E+01  0.38918164074E+02  0.51100000000E-03 0.  1.
         12    1    3    3    0    0 -0.37664178250E+02  0.14754734358E+02 -0.46146515498E+01  0.40713480791E+02  0.00000000000E+00 0. -1.
</event>
<event>
 7    1  0.4520336E-015  0.9000802E+02  0.7816164E-02  0.1186338E+00
        -11   -1    0    0    0    0  0.00000000000E+00  0.00000000000E+00  0.45593999997E+02  0.45594000000E+02  0.51100000000E-03 0. -1.
         11   -1    0    0    0    0 -0.00000000000E+00 -0.00000000000E+00 -0.45593999997E+02  0.45594000000E+02  0.51100000000E-03 0.  1.
    9900012    2    1    2    0    0  0.68768014223E+00  0.74431881872E+00 -0.60450731104E+00  0.90008023911E+02  0.90000289026E+02 0.  0.
         12    1    1    2    0    0 -0.68768014223E+00 -0.74431881872E+00  0.60450731104E+00  0.11799760892E+01  0.00000000000E+00 0. -1.
         11    1    3    3    0    0  0.62386862192E+00  0.14361717512E+02  0.34971704756E+02  0.37810954441E+02  0.51100000000E-03 0. -1.
        -11    1    3    3    0    0  0.83992591483E+01  0.43308033515E+01  0.20630186014E+01  0.96726138102E+01  0.51100000000E-03 0.  1.
        -12    1    3    3    0    0 -0.83354476280E+01 -0.17948202045E+02 -0.37639230669E+02  0.42524455659E+02  0.00000000000E+00 0.  1.
</event>
<event>
 7    1  0.4520336E-015  0.9000773E+02  0.7816164E-02  0.1186339E+00
        -11   -1    0    0    0    0  0.00000000000E+00  0.00000000000E+00  0.45593999997E+02  0.45594000000E+02  0.51100000000E-03 0. -1.
         11   -1    0    0    0    0 -0.00000000000E+00 -0.00000000000E+00 -0.45593999997E+02  0.45594000000E+02  0.51100000000E-03 0.  1.
    9900012    2    1    2    0    0  0.86463100976E+00 -0.78325360396E+00  0.17876330205E+00  0.90007733374E+02  0.89999994654E+02 0.  0.
         12    1    1    2    0    0 -0.86463100976E+00  0.78325360396E+00 -0.17876330205E+00  0.11802666264E+01  0.00000000000E+00 0. -1.
         11    1    3    3    0    0  0.32492700879E+01 -0.30408933541E+01  0.90803301483E+01  0.10112229446E+02  0.51100000000E-03 0. -1.
        -11    1    3    3    0    0 -0.92554735949E+01 -0.37369550089E+02  0.86433150317E+00  0.38508364475E+02  0.51100000000E-03 0.  1.
         12    1    3    3    0    0  0.68708345168E+01  0.39627189839E+02 -0.97658983494E+01  0.41387139453E+02  0.00000000000E+00 0. -1.
</event>
<event>
 7    1  0.4520336E-015  0.9000779E+02  0.7816164E-02  0.1186339E+00
        -11   -1    0    0    0    0  0.00000000000E+00  0.00000000000E+00  0.45593999997E+02  0.45594000000E+02  0.51100000000E-03 0.  1.
         11   -1    0    0    0    0 -0.00000000000E+00 -0.00000000000E+00 -0.45593999997E+02  0.45594000000E+02  0.51100000000E-03 0. -1.
    9900012    2    1    2    0    0  0.28987935573E+00  0.10860003957E+01 -0.35980964781E+00  0.90007792441E+02  0.90000054501E+02 0.  0.
         12    1    1    2    0    0 -0.28987935573E+00 -0.10860003957E+01  0.35980964781E+00  0.11802075593E+01  0.00000000000E+00 0. -1.
         11    1    3    3    0    0  0.12684602999E+02 -0.87041772689E+01 -0.36083285617E+02  0.39225825120E+02  0.51100000000E-03 0. -1.
        -11    1    3    3    0    0  0.51198342825E+01 -0.72034551867E+01  0.18431964197E+01  0.90277263478E+01  0.51100000000E-03 0.  1.
        -12    1    3    3    0    0 -0.17514557926E+02  0.16993632851E+02  0.33880279550E+02  0.41754240973E+02  0.00000000000E+00 0.  1.
</event>
<event>
 7    1  0.4520336E-015  0.9000778E+02  0.7816164E-02  0.1186339E+00
        -11   -1    0    0    0    0  0.00000000000E+00  0.00000000000E+00  0.45593999997E+02  0.45594000000E+02  0.51100000000E-03 0. -1.
         11   -1    0    0    0    0 -0.00000000000E+00 -0.00000000000E+00 -0.45593999997E+02  0.45594000000E+02  0.51100000000E-03 0.  1.
    9900012    2    1    2    0    0  0.13247930151E+00  0.25708727449E+00 -0.11442355074E+01  0.90007779881E+02  0.90000041776E+02 0.  0.
         12    1    1    2    0    0 -0.13247930151E+00 -0.25708727449E+00  0.11442355074E+01  0.11802201186E+01  0.00000000000E+00 0. -1.
         11    1    3    3    0    0  0.39750148661E+02 -0.47146191523E+01  0.15096673810E+02  0.42780971386E+02  0.51100000000E-03 0. -1.
        -11    1    3    3    0    0 -0.28308121038E+01  0.37825429739E+01 -0.83355069730E+01  0.95813258620E+01  0.51100000000E-03 0.  1.
        -12    1    3    3    0    0 -0.36786857256E+02  0.11891634529E+01 -0.79054023441E+01  0.37645482634E+02  0.00000000000E+00 0.  1.
</event>
<event>
 7    1  0.4520336E-015  0.9000792E+02  0.7816164E-02  0.1186339E+00
        -11   -1    0    0    0    0  0.00000000000E+00  0.00000000000E+00  0.45593999997E+02  0.45594000000E+02  0.51100000000E-03 0.  1.
         11   -1    0    0    0    0 -0.00000000000E+00 -0.00000000000E+00 -0.45593999997E+02  0.45594000000E+02  0.51100000000E-03 0. -1.
    9900012    2    1    2    0    0  0.54124541737E+00 -0.15972863890E+00  0.10364032220E+01  0.90007918868E+02  0.90000182597E+02 0.  0.
         12    1    1    2    0    0 -0.54124541737E+00  0.15972863890E+00 -0.10364032220E+01  0.11800811321E+01  0.00000000000E+00 0. -1.
         11    1    3    3    0    0 -0.30236508785E+02  0.31796805327E+02 -0.55118174349E+01  0.44222883491E+02  0.51100000000E-03 0. -1.
        -11    1    3    3    0    0  0.11165007534E+02 -0.56916974336E+01  0.20343531155E+01  0.12696117744E+02  0.51100000000E-03 0.  1.
        -12    1    3    3    0    0  0.19612746668E+02 -0.26264836533E+02  0.45138675414E+01  0.33088917633E+02  0.00000000000E+00 0.  1.
</event>
<event>
 7    1  0.4520336E-015  0.9000779E+02  0.7816164E-02  0.1186339E+00
        -11   -1    0    0    0    0  0.00000000000E+00  0.00000000000E+00  0.45593999997E+02  0.45594000000E+02  0.51100000000E-03 0.  1.
         11   -1    0    0    0    0 -0.00000000000E+00 -0.00000000000E+00 -0.45593999997E+02  0.45594000000E+02  0.51100000000E-03 0. -1.
    9900012    2    1    2    0    0  0.72517795734E-01  0.11723555112E+01  0.11492951360E+00  0.90007794480E+02  0.90000056568E+02 0.  0.
         12    1    1    2    0    0 -0.72517795734E-01 -0.11723555112E+01 -0.11492951360E+00  0.11802055195E+01  0.00000000000E+00 0. -1.
         11    1    3    3    0    0 -0.25609419533E+02  0.21084937003E+02 -0.13628173122E+02  0.35862850419E+02  0.51100000000E-03 0. -1.
        -11    1    3    3    0    0  0.37077495508E+01  0.86496947535E+01 -0.77446895543E+01  0.12187897383E+02  0.51100000000E-03 0.  1.
        -12    1    3    3    0    0  0.21974187778E+02 -0.28562276245E+02  0.21487792190E+02  0.41957046679E+02  0.00000000000E+00 0.  1.
</event>
<event>
 7    1  0.4520336E-015  0.9000770E+02  0.7816164E-02  0.1186339E+00
        -11   -1    0    0    0    0  0.00000000000E+00  0.00000000000E+00  0.45593999997E+02  0.45594000000E+02  0.51100000000E-03 0. -1.
         11   -1    0    0    0    0 -0.00000000000E+00 -0.00000000000E+00 -0.45593999997E+02  0.45594000000E+02  0.51100000000E-03 0.  1.
    9900012    2    1    2    0    0 -0.40809863187E+00  0.84826489932E+00  0.71204905153E+00  0.90007698477E+02  0.89999959297E+02 0.  0.
         12    1    1    2    0    0  0.40809863187E+00 -0.84826489932E+00 -0.71204905153E+00  0.11803015227E+01  0.00000000000E+00 0. -1.
         11    1    3    3    0    0  0.31858620847E+02  0.11770007101E+02  0.22565300668E+02  0.40776188934E+02  0.51100000000E-03 0. -1.
        -11    1    3    3    0    0 -0.66073907959E+01 -0.99584714502E+01  0.41844894628E+01  0.12662492609E+02  0.51100000000E-03 0.  1.
        -12    1    3    3    0    0 -0.25659328683E+02 -0.96327075135E+00 -0.26037741080E+02  0.36569016934E+02  0.00000000000E+00 0.  1.
</event>
<event>
 7    1  0.4520336E-015  0.9000775E+02  0.7816164E-02  0.1186339E+00
        -11   -1    0    0    0    0  0.00000000000E+00  0.00000000000E+00  0.45593999997E+02  0.45594000000E+02  0.51100000000E-03 0.  1.
         11   -1    0    0    0    0 -0.00000000000E+00 -0.00000000000E+00 -0.45593999997E+02  0.45594000000E+02  0.51100000000E-03 0. -1.
    9900012    2    1    2    0    0 -0.66077057960E+00 -0.21777006589E+00  0.95338515586E+00  0.90007752223E+02  0.90000013752E+02 0.  0.
         12    1    1    2    0    0  0.66077057960E+00  0.21777006589E+00 -0.95338515586E+00  0.11802477773E+01  0.00000000000E+00 0. -1.
         11    1    3    3    0    0  0.23727507473E+02  0.66102778892E+01 -0.28615787946E+02  0.37756505462E+02  0.51100000000E-03 0. -1.
        -11    1    3    3    0    0  0.56447215873E+01  0.64571598617E+01  0.83897716065E+00  0.86175215819E+01  0.51100000000E-03 0.  1.
        -12    1    3    3    0    0 -0.30032999640E+02 -0.13285207817E+02  0.28730195941E+02  0.43633725179E+02  0.00000000000E+00 0.  1.
</event>
<event>
 7    1  0.4520336E-015  0.9000778E+02  0.7816164E-02  0.1186339E+00
        -11   -1    0    0    0    0  0.00000000000E+00  0.00000000000E+00  0.45593999997E+02  0.45594000000E+02  0.51100000000E-03 0. -1.
         11   -1    0    0    0    0 -0.00000000000E+00 -0.00000000000E+00 -0.45593999997E+02  0.45594000000E+02  0.51100000000E-03 0.  1.
    9900012    2    1    2    0    0 -0.15269349205E+00  0.84155530736E+00  0.81325220384E+00  0.90007784009E+02  0.90000045958E+02 0.  0.
         12    1    1    2    0    0  0.15269349205E+00 -0.84155530736E+00 -0.81325220384E+00  0.11802159908E+01  0.00000000000E+00 0. -1.
         11    1    3    3    0    0 -0.35979054726E+01 -0.11750746102E+02 -0.73175592441E+01  0.14302853956E+02  0.51100000000E-03 0. -1.
        -11    1    3    3    0    0 -0.14240477931E+02 -0.19343611648E+02 -0.18665589678E+02  0.30419907323E+02  0.51100000000E-03 0.  1.
         12    1    3    3    0    0  0.17685689911E+02  0.31935913057E+02  0.26796401126E+02  0.45285022730E+02  0.00000000000E+00 0. -1.
</event>
<event>
 7    1  0.4520336E-015  0.9000778E+02  0.7816164E-02  0.1186339E+00
        -11   -1    0    0    0    0  0.00000000000E+00  0.00000000000E+00  0.45593999997E+02  0.45594000000E+02  0.51100000000E-03 0. -1.
         11   -1    0    0    0    0 -0.00000000000E+00 -0.00000000000E+00 -0.45593999997E+02  0.45594000000E+02  0.51100000000E-03 0.  1.
    9900012    2    1    2    0    0 -0.48866489297E+00 -0.81343079593E+00  0.70175397415E+00  0.90007778971E+02  0.90000040853E+02 0.  0.
         12    1    1    2    0    0  0.48866489297E+00  0.81343079593E+00 -0.70175397415E+00  0.11802210291E+01  0.00000000000E+00 0. -1.
         11    1    3    3    0    0 -0.27742163648E+02 -0.13437008015E+02  0.26548285529E+02  0.40681596491E+02  0.51100000000E-03 0. -1.
        -11    1    3    3    0    0 -0.38894140241E+01  0.64462489931E+01  0.11931083981E+01  0.76226750844E+01  0.51100000000E-03 0.  1.
        -12    1    3    3    0    0  0.31142912779E+02  0.61773282261E+01 -0.27039639953E+02  0.41703507396E+02  0.00000000000E+00 0.  1.
</event>
<event>
 7    1  0.4520336E-015  0.9000891E+02  0.7816164E-02  0.1186337E+00
        -11   -1    0    0    0    0  0.00000000000E+00  0.00000000000E+00  0.45593999997E+02  0.45594000000E+02  0.51100000000E-03 0.  1.
         11   -1    0    0    0    0 -0.00000000000E+00 -0.00000000000E+00 -0.45593999997E+02  0.45594000000E+02  0.51100000000E-03 0. -1.
    9900012    2    1    2    0    0  0.37803104300E+00 -0.10697130604E+01  0.32104295916E+00  0.90008906245E+02  0.90001183000E+02 0.  0.
         12    1    1    2    0    0 -0.37803104300E+00  0.10697130604E+01 -0.32104295916E+00  0.11790937549E+01  0.00000000000E+00 0. -1.
         11    1    3    3    0    0  0.54143516724E+01 -0.46769404050E+00  0.87245435764E+01  0.10278696543E+02  0.51100000000E-03 0. -1.
        -11    1    3    3    0    0 -0.62186067206E+01  0.30671536440E+02  0.20268658746E+02  0.37285824984E+02  0.51100000000E-03 0.  1.
         12    1    3    3    0    0  0.11822860913E+01 -0.31273555460E+02 -0.28672159363E+02  0.42444384718E+02  0.00000000000E+00 0. -1.
</event>
<event>
 7    1  0.4520336E-015  0.9000773E+02  0.7816164E-02  0.1186339E+00
        -11   -1    0    0    0    0  0.00000000000E+00  0.00000000000E+00  0.45593999997E+02  0.45594000000E+02  0.51100000000E-03 0.  1.
         11   -1    0    0    0    0 -0.00000000000E+00 -0.00000000000E+00 -0.45593999997E+02  0.45594000000E+02  0.51100000000E-03 0. -1.
    9900012    2    1    2    0    0  0.10437972655E+01  0.37944114510E+00  0.39943977538E+00  0.90007728655E+02  0.89999989873E+02 0.  0.
         12    1    1    2    0    0 -0.10437972655E+01 -0.37944114510E+00 -0.39943977538E+00  0.11802713451E+01  0.00000000000E+00 0. -1.
         11    1    3    3    0    0  0.35245638046E+02 -0.11135353175E+02  0.17127136638E+01  0.37002492889E+02  0.51100000000E-03 0. -1.
        -11    1    3    3    0    0  0.43178700089E+01 -0.49891917996E+01 -0.82124027058E+01  0.10534685315E+02  0.51100000000E-03 0.  1.
        -12    1    3    3    0    0 -0.38519710790E+02  0.16503986120E+02  0.68991288174E+01  0.42470550451E+02  0.00000000000E+00 0.  1.
</event>
<event>
 7    1  0.4520336E-015  0.9000768E+02  0.7816164E-02  0.1186339E+00
        -11   -1    0    0    0    0  0.00000000000E+00  0.00000000000E+00  0.45593999997E+02  0.45594000000E+02  0.51100000000E-03 0.  1.
         11   -1    0    0    0    0 -0.00000000000E+00 -0.00000000000E+00 -0.45593999997E+02  0.45594000000E+02  0.51100000000E-03 0. -1.
    9900012    2    1    2    0    0  0.20254717293E+00  0.28887923241E+00  0.11263593905E+01  0.90007677144E+02  0.89999937682E+02 0.  0.
         12    1    1    2    0    0 -0.20254717293E+00 -0.28887923241E+00 -0.11263593905E+01  0.11803228561E+01  0.00000000000E+00 0. -1.
         11    1    3    3    0    0  0.35574038215E+02  0.16517168129E+02 -0.16642906802E+02  0.42606518105E+02  0.51100000000E-03 0. -1.
        -11    1    3    3    0    0 -0.57379930098E+01  0.16308724342E+01 -0.33739339831E+01  0.68533013549E+01  0.51100000000E-03 0.  1.
        -12    1    3    3    0    0 -0.29633498033E+02 -0.17859161331E+02  0.21143200176E+02  0.40547857684E+02  0.00000000000E+00 0.  1.
</event>
<event>
 7    1  0.4520336E-015  0.9000832E+02  0.7816164E-02  0.1186338E+00
        -11   -1    0    0    0    0  0.00000000000E+00  0.00000000000E+00  0.45593999997E+02  0.45594000000E+02  0.51100000000E-03 0.  1.
         11   -1    0    0    0    0 -0.00000000000E+00 -0.00000000000E+00 -0.45593999997E+02  0.45594000000E+02  0.51100000000E-03 0. -1.
    9900012    2    1    2    0    0  0.97882122959E+00 -0.30270151088E+00 -0.58473501210E+00  0.90008324520E+02  0.90000593602E+02 0.  0.
         12    1    1    2    0    0 -0.97882122959E+00  0.30270151088E+00  0.58473501210E+00  0.11796754802E+01  0.00000000000E+00 0. -1.
         11    1    3    3    0    0  0.92611374668E+01  0.41107426569E+01  0.90196184053E+01  0.13565411487E+02  0.51100000000E-03 0. -1.
        -11    1    3    3    0    0  0.32502655132E+02  0.76981163039E+00  0.48321876594E+01  0.32868909906E+02  0.51100000000E-03 0.  1.
         12    1    3    3    0    0 -0.40784971369E+02 -0.51832557981E+01 -0.14436541077E+02  0.43574003127E+02  0.00000000000E+00 0. -1.
</event>
<event>
 7    1  0.4520336E-015  0.9000745E+02  0.7816164E-02  0.1186340E+00
        -11   -1    0    0    0    0  0.00000000000E+00  0.00000000000E+00  0.45593999997E+02  0.45594000000E+02  0.51100000000E-03 0.  1.
         11   -1    0    0    0    0 -0.00000000000E+00 -0.00000000000E+00 -0.45593999997E+02  0.45594000000E+02  0.51100000000E-03 0. -1.
    9900012    2    1    2    0    0  0.13418442718E+00  0.36390305350E+00  0.11150160454E+01  0.90007452807E+02  0.89999710384E+02 0.  0.
         12    1    1    2    0    0 -0.13418442718E+00 -0.36390305350E+00 -0.11150160454E+01  0.11805471927E+01  0.00000000000E+00 0. -1.
         11    1    3    3    0    0 -0.43810613835E+01  0.78914018346E+01  0.35155443377E+01  0.96864324709E+01  0.51100000000E-03 0. -1.
        -11    1    3    3    0    0  0.20471871886E+02  0.18547984355E+02  0.26479683661E+02  0.38266158799E+02  0.51100000000E-03 0.  1.
         12    1    3    3    0    0 -0.15956626075E+02 -0.26075483136E+02 -0.28880211953E+02  0.42054861538E+02  0.00000000000E+00 0. -1.
</event>
<event>
 7    1  0.4520336E-015  0.9000776E+02  0.7816164E-02  0.1186339E+00
        -11   -1    0    0    0    0  0.00000000000E+00  0.00000000000E+00  0.45593999997E+02  0.45594000000E+02  0.51100000000E-03 0. -1.
         11   -1    0    0    0    0 -0.00000000000E+00 -0.00000000000E+00 -0.45593999997E+02  0.45594000000E+02  0.51100000000E-03 0.  1.
    9900012    2    1    2    0    0 -0.61879255156E+00  0.10035028228E+01 -0.55263194687E-01  0.90007755891E+02  0.90000017468E+02 0.  0.
         12    1    1    2    0    0  0.61879255156E+00 -0.10035028228E+01  0.55263194687E-01  0.11802441094E+01  0.00000000000E+00 0. -1.
         11    1    3    3    0    0  0.88063053769E+01 -0.60923258201E+00  0.11126426084E+01  0.88971991416E+01  0.51100000000E-03 0. -1.
        -11    1    3    3    0    0 -0.21195022776E+02  0.21473406993E+02 -0.31086087736E+02  0.43320676926E+02  0.51100000000E-03 0.  1.
         12    1    3    3    0    0  0.11769924848E+02 -0.19860671588E+02  0.29918181933E+02  0.37789879823E+02  0.00000000000E+00 0. -1.
</event>
<event>
 7    1  0.4520336E-015  0.9000760E+02  0.7816164E-02  0.1186339E+00
        -11   -1    0    0    0    0  0.00000000000E+00  0.00000000000E+00  0.45593999997E+02  0.45594000000E+02  0.51100000000E-03 0. -1.
         11   -1    0    0    0    0 -0.00000000000E+00 -0.00000000000E+00 -0.45593999997E+02  0.45594000000E+02  0.51100000000E-03 0.  1.
    9900012    2    1    2    0    0 -0.50738573448E+00 -0.85221796851E+00 -0.64001381339E+00  0.90007604545E+02  0.89999864125E+02 0.  0.
         12    1    1    2    0    0  0.50738573448E+00  0.85221796851E+00  0.64001381339E+00  0.11803954552E+01  0.00000000000E+00 0. -1.
         11    1    3    3    0    0 -0.32674712937E+02 -0.16677228401E+02  0.10714185535E+02  0.38217281230E+02  0.51100000000E-03 0. -1.
        -11    1    3    3    0    0 -0.61553897370E+01  0.48965256137E+01  0.43133942627E+01  0.89705159398E+01  0.51100000000E-03 0.  1.
        -12    1    3    3    0    0  0.38322716940E+02  0.10928484819E+02 -0.15667593612E+02  0.42819807375E+02  0.00000000000E+00 0.  1.
</event>
<event>
 7    1  0.4520336E-015  0.9000773E+02  0.7816164E-02  0.1186339E+00
        -11   -1    0    0    0    0  0.00000000000E+00  0.00000000000E+00  0.45593999997E+02  0.45594000000E+02  0.51100000000E-03 0. -1.
         11   -1    0    0    0    0 -0.00000000000E+00 -0.00000000000E+00 -0.45593999997E+02  0.45594000000E+02  0.51100000000E-03 0.  1.
    9900012    2    1    2    0    0  0.10966430248E+01 -0.32637150157E+00 -0.28965050421E+00  0.90007728126E+02  0.89999989338E+02 0.  0.
         12    1    1    2    0    0 -0.10966430248E+01  0.32637150157E+00  0.28965050421E+00  0.11802718735E+01  0.00000000000E+00 0. -1.
         11    1    3    3    0    0 -0.57472568805E+01 -0.12330424691E+02 -0.95363212945E+01  0.16613601621E+02  0.51100000000E-03 0. -1.
        -11    1    3    3    0    0  0.27609242312E+02  0.21019473604E+02 -0.17077523355E+02  0.38674673055E+02  0.51100000000E-03 0.  1.
         12    1    3    3    0    0 -0.20765342407E+02 -0.90154204144E+01  0.26324194146E+02  0.34719453451E+02  0.00000000000E+00 0. -1.
</event>
<event>
 7    1  0.4520336E-015  0.9000774E+02  0.7816164E-02  0.1186339E+00
        -11   -1    0    0    0    0  0.00000000000E+00  0.00000000000E+00  0.45593999997E+02  0.45594000000E+02  0.51100000000E-03 0.  1.
         11   -1    0    0    0    0 -0.00000000000E+00 -0.00000000000E+00 -0.45593999997E+02  0.45594000000E+02  0.51100000000E-03 0. -1.
    9900012    2    1    2    0    0  0.20520266874E+00  0.11313737971E+01 -0.26626048987E+00  0.90007741786E+02  0.90000003177E+02 0.  0.
         12    1    1    2    0    0 -0.20520266874E+00 -0.11313737971E+01  0.26626048987E+00  0.11802582143E+01  0.00000000000E+00 0. -1.
         11    1    3    3    0    0  0.25524880484E+02  0.13999182412E+02 -0.16535981513E+02  0.33480372113E+02  0.51100000000E-03 0. -1.
        -11    1    3    3    0    0  0.10706405384E+02 -0.21944649945E+01 -0.63798031433E+01  0.12654828378E+02  0.51100000000E-03 0.  1.
        -12    1    3    3    0    0 -0.36026083200E+02 -0.10673343620E+02  0.22649524166E+02  0.43872541295E+02  0.00000000000E+00 0.  1.
</event>
<event>
 7    1  0.4520336E-015  0.9000776E+02  0.7816164E-02  0.1186339E+00
        -11   -1    0    0    0    0  0.00000000000E+00  0.00000000000E+00  0.45593999997E+02  0.45594000000E+02  0.51100000000E-03 0.  1.
         11   -1    0    0    0    0 -0.00000000000E+00 -0.00000000000E+00 -0.45593999997E+02  0.45594000000E+02  0.51100000000E-03 0. -1.
    9900012    2    1    2    0    0  0.18619947901E+00 -0.99897801237E+00 -0.60027775925E+00  0.90007762438E+02  0.90000024102E+02 0.  0.
         12    1    1    2    0    0 -0.18619947901E+00  0.99897801237E+00  0.60027775925E+00  0.11802375623E+01  0.00000000000E+00 0. -1.
         11    1    3    3    0    0  0.51871878458E+01  0.69725141892E+01  0.38939101440E+01  0.95228886550E+01  0.51100000000E-03 0. -1.
        -11    1    3    3    0    0  0.20702182534E+02 -0.14208524168E+02  0.28640374587E+02  0.38088496655E+02  0.51100000000E-03 0.  1.
         12    1    3    3    0    0 -0.25703170900E+02  0.62370319669E+01 -0.33134562490E+02  0.42396377127E+02  0.00000000000E+00 0. -1.
</event>
<event>
 7    1  0.4520336E-015  0.9000767E+02  0.7816164E-02  0.1186339E+00
        -11   -1    0    0    0    0  0.00000000000E+00  0.00000000000E+00  0.45593999997E+02  0.45594000000E+02  0.51100000000E-03 0.  1.
         11   -1    0    0    0    0 -0.00000000000E+00 -0.00000000000E+00 -0.45593999997E+02  0.45594000000E+02  0.51100000000E-03 0. -1.
    9900012    2    1    2    0    0  0.52243636347E+00 -0.36703528784E+00  0.99273059538E+00  0.90007674328E+02  0.89999934829E+02 0.  0.
         12    1    1    2    0    0 -0.52243636347E+00  0.36703528784E+00 -0.99273059538E+00  0.11803256718E+01  0.00000000000E+00 0. -1.
         11    1    3    3    0    0 -0.41558128721E+01  0.71904397898E+01  0.30590338291E+01  0.88504741809E+01  0.51100000000E-03 0. -1.
        -11    1    3    3    0    0  0.40081657080E+02 -0.52598625032E+01 -0.15395982738E+02  0.43257850994E+02  0.51100000000E-03 0.  1.
         12    1    3    3    0    0 -0.35403407845E+02 -0.22976125745E+01  0.13329679504E+02  0.37899349154E+02  0.00000000000E+00 0. -1.
</event>
<event>
 7    1  0.4520336E-015  0.9000774E+02  0.7816164E-02  0.1186339E+00
        -11   -1    0    0    0    0  0.00000000000E+00  0.00000000000E+00  0.45593999997E+02  0.45594000000E+02  0.51100000000E-03 0.  1.
         11   -1    0    0    0    0 -0.00000000000E+00 -0.00000000000E+00 -0.45593999997E+02  0.45594000000E+02  0.51100000000E-03 0. -1.
    9900012    2    1    2    0    0  0.44173371992E+00 -0.78383299998E+00  0.76387218150E+00  0.90007735809E+02  0.89999997122E+02 0.  0.
         12    1    1    2    0    0 -0.44173371992E+00  0.78383299998E+00 -0.76387218150E+00  0.11802641911E+01  0.00000000000E+00 0. -1.
         11    1    3    3    0    0 -0.66388769470E+01  0.36247858546E+02 -0.13807685748E+02  0.39352688882E+02  0.51100000000E-03 0. -1.
        -11    1    3    3    0    0 -0.27110439664E+01  0.10249159916E+01 -0.57324182790E+01  0.64234594857E+01  0.51100000000E-03 0.  1.
        -12    1    3    3    0    0  0.97916546334E+01 -0.38056607537E+02  0.20303976208E+02  0.44231587441E+02  0.00000000000E+00 0.  1.
</event>
<event>
 7    1  0.4520336E-015  0.9000777E+02  0.7816164E-02  0.1186339E+00
        -11   -1    0    0    0    0  0.00000000000E+00  0.00000000000E+00  0.45593999997E+02  0.45594000000E+02  0.51100000000E-03 0.  1.
         11   -1    0    0    0    0 -0.00000000000E+00 -0.00000000000E+00 -0.45593999997E+02  0.45594000000E+02  0.51100000000E-03 0. -1.
    9900012    2    1    2    0    0  0.10121999881E+01  0.24545068342E+00  0.55511343258E+00  0.90007768761E+02  0.90000030509E+02 0.  0.
         12    1    1    2    0    0 -0.10121999881E+01 -0.24545068342E+00 -0.55511343258E+00  0.11802312388E+01  0.00000000000E+00 0. -1.
         11    1    3    3    0    0  0.77424872649E+00  0.12336991841E+02 -0.33807978061E+01  0.12815249621E+02  0.51100000000E-03 0. -1.
        -11    1    3    3    0    0 -0.27077134496E+02  0.11435625527E+02  0.22147670962E+02  0.36803044344E+02  0.51100000000E-03 0.  1.
         12    1    3    3    0    0  0.27315085757E+02 -0.23527166684E+02 -0.18211759723E+02  0.40389474797E+02  0.00000000000E+00 0. -1.
</event>
<event>
 7    1  0.4520336E-015  0.9000774E+02  0.7816164E-02  0.1186339E+00
        -11   -1    0    0    0    0  0.00000000000E+00  0.00000000000E+00  0.45593999997E+02  0.45594000000E+02  0.51100000000E-03 0.  1.
         11   -1    0    0    0    0 -0.00000000000E+00 -0.00000000000E+00 -0.45593999997E+02  0.45594000000E+02  0.51100000000E-03 0. -1.
    9900012    2    1    2    0    0 -0.10113224814E+01 -0.53548922099E+00 -0.28894440941E+00  0.90007741241E+02  0.90000002625E+02 0.  0.
         12    1    1    2    0    0  0.10113224814E+01  0.53548922099E+00  0.28894440941E+00  0.11802587593E+01  0.00000000000E+00 0. -1.
         11    1    3    3    0    0  0.61961050595E+01  0.47773231194E+01  0.66764586745E+01  0.10285408829E+02  0.51100000000E-03 0. -1.
        -11    1    3    3    0    0  0.89274312513E+01 -0.22154627781E+02  0.28555730846E+02  0.37228434365E+02  0.51100000000E-03 0.  1.
         12    1    3    3    0    0 -0.16134858792E+02  0.16841815440E+02 -0.35521133930E+02  0.42493898047E+02  0.00000000000E+00 0. -1.
</event>
<event>
 7    1  0.4520336E-015  0.9000775E+02  0.7816164E-02  0.1186339E+00
        -11   -1    0    0    0    0  0.00000000000E+00  0.00000000000E+00  0.45593999997E+02  0.45594000000E+02  0.51100000000E-03 0.  1.
         11   -1    0    0    0    0 -0.00000000000E+00 -0.00000000000E+00 -0.45593999997E+02  0.45594000000E+02  0.51100000000E-03 0. -1.
    9900012    2    1    2    0    0  0.41071390630E+00  0.10660951656E+01 -0.29619961106E+00  0.90007754676E+02  0.90000016238E+02 0.  0.
         12    1    1    2    0    0 -0.41071390630E+00 -0.10660951656E+01  0.29619961106E+00  0.11802453239E+01  0.00000000000E+00 0. -1.
         11    1    3    3    0    0 -0.60733953896E+01  0.60877515983E+01 -0.39864759897E+01  0.94783354107E+01  0.51100000000E-03 0. -1.
        -11    1    3    3    0    0 -0.35449544239E+02 -0.81183304599E+00  0.12267649128E+02  0.37520987127E+02  0.51100000000E-03 0.  1.
         12    1    3    3    0    0  0.41933653534E+02 -0.42098233867E+01 -0.85773727494E+01  0.43008432138E+02  0.00000000000E+00 0. -1.
</event>
<event>
 7    1  0.4520336E-015  0.9000789E+02  0.7816164E-02  0.1186339E+00
        -11   -1    0    0    0    0  0.00000000000E+00  0.00000000000E+00  0.45593999997E+02  0.45594000000E+02  0.51100000000E-03 0.  1.
         11   -1    0    0    0    0 -0.00000000000E+00 -0.00000000000E+00 -0.45593999997E+02  0.45594000000E+02  0.51100000000E-03 0. -1.
    9900012    2    1    2    0    0  0.34157397935E+00 -0.10099385552E+01  0.50597542313E+00  0.90007889921E+02  0.90000153268E+02 0.  0.
         12    1    1    2    0    0 -0.34157397935E+00  0.10099385552E+01 -0.50597542313E+00  0.11801100785E+01  0.00000000000E+00 0. -1.
         11    1    3    3    0    0 -0.65811670649E+01  0.39507924778E+01 -0.22523391410E+01  0.79995970527E+01  0.51100000000E-03 0. -1.
        -11    1    3    3    0    0  0.25014983142E+02  0.31921712727E+02 -0.22802675665E+01  0.40619511881E+02  0.51100000000E-03 0.  1.
         12    1    3    3    0    0 -0.18092242097E+02 -0.36882443760E+02  0.50385821307E+01  0.41388780988E+02  0.00000000000E+00 0. -1.
</event>
<event>
 7    1  0.4520336E-015  0.9000900E+02  0.7816164E-02  0.1186337E+00
        -11   -1    0    0    0    0  0.00000000000E+00  0.00000000000E+00  0.45593999997E+02  0.45594000000E+02  0.51100000000E-03 0.  1.
         11   -1    0    0    0    0 -0.00000000000E+00 -0.00000000000E+00 -0.45593999997E+02  0.45594000000E+02  0.51100000000E-03 0. -1.
    9900012    2    1    2    0    0  0.14909152081E+00 -0.78199005973E+00  0.86965150287E+00  0.90009004465E+02  0.90001282515E+02 0.  0.
         12    1    1    2    0    0 -0.14909152081E+00  0.78199005973E+00 -0.86965150287E+00  0.11789955350E+01  0.00000000000E+00 0. -1.
         11    1    3    3    0    0 -0.43141350244E+01 -0.36380449598E+01 -0.12092649794E+02  0.13344636055E+02  0.51100000000E-03 0. -1.
        -11    1    3    3    0    0  0.31369759908E+02 -0.18696874544E+02 -0.64739822685E+01  0.37088372856E+02  0.51100000000E-03 0.  1.
         12    1    3    3    0    0 -0.26906533363E+02  0.21552929444E+02  0.19436283566E+02  0.39575995554E+02  0.00000000000E+00 0. -1.
</event>
<event>
 7    1  0.4520336E-015  0.9000785E+02  0.7816164E-02  0.1186339E+00
        -11   -1    0    0    0    0  0.00000000000E+00  0.00000000000E+00  0.45593999997E+02  0.45594000000E+02  0.51100000000E-03 0.  1.
         11   -1    0    0    0    0 -0.00000000000E+00 -0.00000000000E+00 -0.45593999997E+02  0.45594000000E+02  0.51100000000E-03 0. -1.
    9900012    2    1    2    0    0 -0.75821138104E+00  0.83042483410E+00  0.35813364591E+00  0.90007851869E+02  0.90000114713E+02 0.  0.
         12    1    1    2    0    0  0.75821138104E+00 -0.83042483410E+00 -0.35813364591E+00  0.11801481313E+01  0.00000000000E+00 0. -1.
         11    1    3    3    0    0 -0.24071158004E+02  0.31831825629E+02 -0.86463136019E+01  0.40834354527E+02  0.51100000000E-03 0. -1.
        -11    1    3    3    0    0  0.34034625327E+00  0.46558062427E+01 -0.24019082491E+01  0.52499076982E+01  0.51100000000E-03 0.  1.
        -12    1    3    3    0    0  0.22972600369E+02 -0.35657207037E+02  0.11406355497E+02  0.43923589643E+02  0.00000000000E+00 0.  1.
</event>
<event>
 7    1  0.4520336E-015  0.9000766E+02  0.7816164E-02  0.1186339E+00
        -11   -1    0    0    0    0  0.00000000000E+00  0.00000000000E+00  0.45593999997E+02  0.45594000000E+02  0.51100000000E-03 0. -1.
         11   -1    0    0    0    0 -0.00000000000E+00 -0.00000000000E+00 -0.45593999997E+02  0.45594000000E+02  0.51100000000E-03 0.  1.
    9900012    2    1    2    0    0 -0.90265825783E+00  0.60374248064E+00 -0.46251106596E+00  0.90007655390E+02  0.89999915641E+02 0.  0.
         12    1    1    2    0    0  0.90265825783E+00 -0.60374248064E+00  0.46251106596E+00  0.11803446105E+01  0.00000000000E+00 0. -1.
         11    1    3    3    0    0  0.34640561677E+02  0.83866616990E+00  0.17709099278E+02  0.38913803100E+02  0.51100000000E-03 0. -1.
        -11    1    3    3    0    0 -0.52703004008E+01  0.41878755051E+01  0.82652854090E+01  0.10659705001E+02  0.51100000000E-03 0.  1.
        -12    1    3    3    0    0 -0.30272919534E+02 -0.44227991943E+01 -0.26436895753E+02  0.40434147288E+02  0.00000000000E+00 0.  1.
</event>
<event>
 7    1  0.4520336E-015  0.9000727E+02  0.7816164E-02  0.1186340E+00
        -11   -1    0    0    0    0  0.00000000000E+00  0.00000000000E+00  0.45593999997E+02  0.45594000000E+02  0.51100000000E-03 0. -1.
         11   -1    0    0    0    0 -0.00000000000E+00 -0.00000000000E+00 -0.45593999997E+02  0.45594000000E+02  0.51100000000E-03 0.  1.
    9900012    2    1    2    0    0 -0.11755330532E+01  0.60211397416E-01  0.92819653307E-01  0.90007271894E+02  0.89999527082E+02 0.  0.
         12    1    1    2    0    0  0.11755330532E+01 -0.60211397416E-01 -0.92819653307E-01  0.11807281057E+01  0.00000000000E+00 0. -1.
         11    1    3    3    0    0  0.11394338214E+02 -0.17322096086E+01 -0.18241373298E+01  0.11668717613E+02  0.51100000000E-03 0. -1.
        -11    1    3    3    0    0  0.27220060107E+02 -0.35974372827E+01 -0.18681987543E+02  0.33209785998E+02  0.51100000000E-03 0.  1.
         12    1    3    3    0    0 -0.39789931375E+02  0.53898582887E+01  0.20598944526E+02  0.45128768283E+02  0.00000000000E+00 0. -1.
</event>
<event>
 7    1  0.4520336E-015  0.9000781E+02  0.7816164E-02  0.1186339E+00
        -11   -1    0    0    0    0  0.00000000000E+00  0.00000000000E+00  0.45593999997E+02  0.45594000000E+02  0.51100000000E-03 0. -1.
         11   -1    0    0    0    0 -0.00000000000E+00 -0.00000000000E+00 -0.45593999997E+02  0.45594000000E+02  0.51100000000E-03 0.  1.
    9900012    2    1    2    0    0 -0.22912266635E+00 -0.79479143691E+00 -0.84181174237E+00  0.90007814576E+02  0.90000076929E+02 0.  0.
         12    1    1    2    0    0  0.22912266635E+00  0.79479143691E+00  0.84181174237E+00  0.11801854236E+01  0.00000000000E+00 0. -1.
         11    1    3    3    0    0  0.31280358342E+01 -0.75609048230E+00 -0.71592316631E+01  0.78492597909E+01  0.51100000000E-03 0. -1.
        -11    1    3    3    0    0  0.84894941397E+01  0.21601920475E+02 -0.30199749559E+02  0.38088572468E+02  0.51100000000E-03 0.  1.
         12    1    3    3    0    0 -0.11846652640E+02 -0.21640621430E+02  0.36517169480E+02  0.44069982317E+02  0.00000000000E+00 0. -1.
</event>
<event>
 7    1  0.4520336E-015  0.9000812E+02  0.7816164E-02  0.1186338E+00
        -11   -1    0    0    0    0  0.00000000000E+00  0.00000000000E+00  0.45593999997E+02  0.45594000000E+02  0.51100000000E-03 0. -1.
         11   -1    0    0    0    0 -0.00000000000E+00 -0.00000000000E+00 -0.45593999997E+02  0.45594000000E+02  0.51100000000E-03 0.  1.
    9900012    2    1    2    0    0  0.76882387943E+00 -0.84247197080E+00 -0.30209866326E+00  0.90008121709E+02  0.90000388115E+02 0.  0.
         12    1    1    2    0    0 -0.76882387943E+00  0.84247197080E+00  0.30209866326E+00  0.11798782910E+01  0.00000000000E+00 0. -1.
         11    1    3    3    0    0 -0.45046780670E+01  0.89212739535E+01 -0.10913074975E+01  0.10053467350E+02  0.51100000000E-03 0. -1.
        -11    1    3    3    0    0 -0.26304954248E+02  0.14596635895E+02 -0.18847506543E+02  0.35499871840E+02  0.51100000000E-03 0.  1.
         12    1    3    3    0    0  0.31578456195E+02 -0.24360381820E+02  0.19636715378E+02  0.44454782520E+02  0.00000000000E+00 0. -1.
</event>
<event>
 7    1  0.4520336E-015  0.9000776E+02  0.7816164E-02  0.1186339E+00
        -11   -1    0    0    0    0  0.00000000000E+00  0.00000000000E+00  0.45593999997E+02  0.45594000000E+02  0.51100000000E-03 0. -1.
         11   -1    0    0    0    0 -0.00000000000E+00 -0.00000000000E+00 -0.45593999997E+02  0.45594000000E+02  0.51100000000E-03 0.  1.
    9900012    2    1    2    0    0  0.95662672948E+00 -0.17456369488E+00  0.66884145467E+00  0.90007764399E+02  0.90000026089E+02 0.  0.
         12    1    1    2    0    0 -0.95662672948E+00  0.17456369488E+00 -0.66884145467E+00  0.11802356013E+01  0.00000000000E+00 0. -1.
         11    1    3    3    0    0 -0.10587151775E+02 -0.32308441044E+02  0.14687525760E+02  0.37035747037E+02  0.51100000000E-03 0. -1.
        -11    1    3    3    0    0  0.20110108285E+01 -0.83659346951E+01 -0.62789271391E+01  0.10651664384E+02  0.51100000000E-03 0.  1.
        -12    1    3    3    0    0  0.95327676758E+01  0.40499812044E+02 -0.77397571659E+01  0.42320352978E+02  0.00000000000E+00 0.  1.
</event>
<event>
 7    1  0.4520336E-015  0.9000775E+02  0.7816164E-02  0.1186339E+00
        -11   -1    0    0    0    0  0.00000000000E+00  0.00000000000E+00  0.45593999997E+02  0.45594000000E+02  0.51100000000E-03 0.  1.
         11   -1    0    0    0    0 -0.00000000000E+00 -0.00000000000E+00 -0.45593999997E+02  0.45594000000E+02  0.51100000000E-03 0. -1.
    9900012    2    1    2    0    0 -0.11307216125E+01 -0.25361745456E+00 -0.22391471932E+00  0.90007749611E+02  0.90000011106E+02 0.  0.
         12    1    1    2    0    0  0.11307216125E+01  0.25361745456E+00  0.22391471932E+00  0.11802503886E+01  0.00000000000E+00 0. -1.
         11    1    3    3    0    0  0.45849845146E+01 -0.69386962326E+01 -0.20633417377E+01  0.85688370153E+01  0.51100000000E-03 0. -1.
        -11    1    3    3    0    0  0.12328750253E+02 -0.21575226552E+02 -0.27372071482E+02  0.36969159864E+02  0.51100000000E-03 0.  1.
         12    1    3    3    0    0 -0.18044456380E+02  0.28260305330E+02  0.29211498500E+02  0.44469752732E+02  0.00000000000E+00 0. -1.
</event>
<event>
 7    1  0.4520336E-015  0.9000771E+02  0.7816164E-02  0.1186339E+00
        -11   -1    0    0    0    0  0.00000000000E+00  0.00000000000E+00  0.45593999997E+02  0.45594000000E+02  0.51100000000E-03 0.  1.
         11   -1    0    0    0    0 -0.00000000000E+00 -0.00000000000E+00 -0.45593999997E+02  0.45594000000E+02  0.51100000000E-03 0. -1.
    9900012    2    1    2    0    0  0.75189166026E+00 -0.75592459977E+00 -0.50627694094E+00  0.90007712149E+02  0.89999973150E+02 0.  0.
         12    1    1    2    0    0 -0.75189166026E+00  0.75592459977E+00  0.50627694094E+00  0.11802878506E+01  0.00000000000E+00 0. -1.
         11    1    3    3    0    0 -0.50656754627E+01  0.46969980116E+01 -0.67083074378E+01  0.96293430282E+01  0.51100000000E-03 0. -1.
        -11    1    3    3    0    0 -0.32544535197E+02 -0.21886285014E+00 -0.15440726315E+02  0.36022363909E+02  0.51100000000E-03 0.  1.
         12    1    3    3    0    0  0.38362102320E+02 -0.52340597612E+01  0.21642756812E+02  0.44356005213E+02  0.00000000000E+00 0. -1.
</event>
<event>
 7    1  0.4520336E-015  0.9000860E+02  0.7816164E-02  0.1186337E+00
        -11   -1    0    0    0    0  0.00000000000E+00  0.00000000000E+00  0.45593999997E+02  0.45594000000E+02  0.51100000000E-03 0.  1.
         11   -1    0    0    0    0 -0.00000000000E+00 -0.00000000000E+00 -0.45593999997E+02  0.45594000000E+02  0.51100000000E-03 0. -1.
    9900012    2    1    2    0    0  0.95414593262E+00 -0.64531623029E+00 -0.25329794715E+00  0.90008598733E+02  0.90000871432E+02 0.  0.
         12    1    1    2    0    0 -0.95414593262E+00  0.64531623029E+00  0.25329794715E+00  0.11794012667E+01  0.00000000000E+00 0. -1.
         11    1    3    3    0    0 -0.27260695699E+02 -0.25561247909E+02 -0.75288033770E+01  0.38120936574E+02  0.51100000000E-03 0. -1.
        -11    1    3    3    0    0  0.22561242204E+01 -0.69952784571E+01 -0.50815040025E+01  0.89356421358E+01  0.51100000000E-03 0.  1.
        -12    1    3    3    0    0  0.25958717412E+02  0.31911210136E+02  0.12357009432E+02  0.42952020024E+02  0.00000000000E+00 0.  1.
</event>
<event>
 7    1  0.4520336E-015  0.9000777E+02  0.7816164E-02  0.1186339E+00
        -11   -1    0    0    0    0  0.00000000000E+00  0.00000000000E+00  0.45593999997E+02  0.45594000000E+02  0.51100000000E-03 0.  1.
         11   -1    0    0    0    0 -0.00000000000E+00 -0.00000000000E+00 -0.45593999997E+02  0.45594000000E+02  0.51100000000E-03 0. -1.
    9900012    2    1    2    0    0 -0.34537326050E-02  0.59581918566E+00  0.10187888727E+01  0.90007769854E+02  0.90000031616E+02 0.  0.
         12    1    1    2    0    0  0.34537326050E-02 -0.59581918566E+00 -0.10187888727E+01  0.11802301459E+01  0.00000000000E+00 0. -1.
         11    1    3    3    0    0 -0.19295157465E+02  0.24370401450E+02  0.17307886268E+02  0.35577837142E+02  0.51100000000E-03 0. -1.
        -11    1    3    3    0    0  0.18074787970E+01  0.10514418236E+02  0.33994604032E+01  0.11197155967E+02  0.51100000000E-03 0.  1.
        -12    1    3    3    0    0  0.17484224935E+02 -0.34289000500E+02 -0.19688557798E+02  0.43232776745E+02  0.00000000000E+00 0.  1.
</event>
<event>
 7    1  0.4520336E-015  0.9000771E+02  0.7816164E-02  0.1186339E+00
        -11   -1    0    0    0    0  0.00000000000E+00  0.00000000000E+00  0.45593999997E+02  0.45594000000E+02  0.51100000000E-03 0. -1.
         11   -1    0    0    0    0 -0.00000000000E+00 -0.00000000000E+00 -0.45593999997E+02  0.45594000000E+02  0.51100000000E-03 0.  1.
    9900012    2    1    2    0    0 -0.51952058612E+00 -0.80071779499E+00 -0.69429257948E+00  0.90007706472E+02  0.89999967397E+02 0.  0.
         12    1    1    2    0    0  0.51952058612E+00  0.80071779499E+00  0.69429257948E+00  0.11802935281E+01  0.00000000000E+00 0. -1.
         11    1    3    3    0    0  0.32065346409E+01 -0.50617794701E+01 -0.64829185444E+01  0.88278937987E+01  0.51100000000E-03 0. -1.
        -11    1    3    3    0    0  0.13819578514E+02 -0.24531714026E+02 -0.23378788340E+02  0.36597178687E+02  0.51100000000E-03 0.  1.
         12    1    3    3    0    0 -0.17545633741E+02  0.28792775701E+02  0.29167414305E+02  0.44582633986E+02  0.00000000000E+00 0. -1.
</event>
<event>
 7    1  0.4520336E-015  0.9000776E+02  0.7816164E-02  0.1186339E+00
        -11   -1    0    0    0    0  0.00000000000E+00  0.00000000000E+00  0.45593999997E+02  0.45594000000E+02  0.51100000000E-03 0. -1.
         11   -1    0    0    0    0 -0.00000000000E+00 -0.00000000000E+00 -0.45593999997E+02  0.45594000000E+02  0.51100000000E-03 0.  1.
    9900012    2    1    2    0    0 -0.86139687827E-01  0.94514638643E+00 -0.70160454844E+00  0.90007758211E+02  0.90000019820E+02 0.  0.
         12    1    1    2    0    0  0.86139687827E-01 -0.94514638643E+00  0.70160454844E+00  0.11802417888E+01  0.00000000000E+00 0. -1.
         11    1    3    3    0    0 -0.10555497502E+02 -0.88710050337E+00  0.44245067032E+01  0.11479622583E+02  0.51100000000E-03 0. -1.
        -11    1    3    3    0    0  0.29859201430E+02  0.67040154622E+01  0.26919484615E+02  0.40757507107E+02  0.51100000000E-03 0.  1.
         12    1    3    3    0    0 -0.19389843616E+02 -0.48717685724E+01 -0.32045595867E+02  0.37770628521E+02  0.00000000000E+00 0. -1.
</event>
<event>
 7    1  0.4520336E-015  0.9000770E+02  0.7816164E-02  0.1186339E+00
        -11   -1    0    0    0    0  0.00000000000E+00  0.00000000000E+00  0.45593999997E+02  0.45594000000E+02  0.51100000000E-03 0. -1.
         11   -1    0    0    0    0 -0.00000000000E+00 -0.00000000000E+00 -0.45593999997E+02  0.45594000000E+02  0.51100000000E-03 0.  1.
    9900012    2    1    2    0    0  0.83864303009E+00  0.35648083092E+00 -0.75013821759E+00  0.90007700013E+02  0.89999960853E+02 0.  0.
         12    1    1    2    0    0 -0.83864303009E+00 -0.35648083092E+00  0.75013821759E+00  0.11802999874E+01  0.00000000000E+00 0. -1.
         11    1    3    3    0    0  0.29040812570E+02  0.17900122114E+02 -0.16493291461E+02  0.37892107752E+02  0.51100000000E-03 0. -1.
        -11    1    3    3    0    0 -0.40356105274E+01  0.17081687342E+01 -0.10626885486E+02  0.11494985348E+02  0.51100000000E-03 0.  1.
        -12    1    3    3    0    0 -0.24166559012E+02 -0.19251810018E+02  0.26370038729E+02  0.40620606913E+02  0.00000000000E+00 0.  1.
</event>
<event>
 7    1  0.4520336E-015  0.9000771E+02  0.7816164E-02  0.1186339E+00
        -11   -1    0    0    0    0  0.00000000000E+00  0.00000000000E+00  0.45593999997E+02  0.45594000000E+02  0.51100000000E-03 0.  1.
         11   -1    0    0    0    0 -0.00000000000E+00 -0.00000000000E+00 -0.45593999997E+02  0.45594000000E+02  0.51100000000E-03 0. -1.
    9900012    2    1    2    0    0 -0.11267238120E+01  0.23294971791E+00  0.26326386664E+00  0.90007711907E+02  0.89999972904E+02 0.  0.
         12    1    1    2    0    0  0.11267238120E+01 -0.23294971791E+00 -0.26326386664E+00  0.11802880932E+01  0.00000000000E+00 0. -1.
         11    1    3    3    0    0  0.74100084503E+01  0.50871543899E+01 -0.52268776126E+01  0.10397481179E+02  0.51100000000E-03 0. -1.
        -11    1    3    3    0    0 -0.34727711692E+02  0.12737886066E+02  0.22969136750E+02  0.43541347523E+02  0.51100000000E-03 0.  1.
         12    1    3    3    0    0  0.26190979430E+02 -0.17592090738E+02 -0.17478995271E+02  0.36068883205E+02  0.00000000000E+00 0. -1.
</event>
<event>
 7    1  0.4520336E-015  0.9000777E+02  0.7816164E-02  0.1186339E+00
        -11   -1    0    0    0    0  0.00000000000E+00  0.00000000000E+00  0.45593999997E+02  0.45594000000E+02  0.51100000000E-03 0. -1.
         11   -1    0    0    0    0 -0.00000000000E+00 -0.00000000000E+00 -0.45593999997E+02  0.45594000000E+02  0.51100000000E-03 0.  1.
    9900012    2    1    2    0    0 -0.48628480122E+00  0.79706138387E+00 -0.72191328784E+00  0.90007771822E+02  0.90000033610E+02 0.  0.
         12    1    1    2    0    0  0.48628480122E+00 -0.79706138387E+00  0.72191328784E+00  0.11802281782E+01  0.00000000000E+00 0. -1.
         11    1    3    3    0    0 -0.99033311440E+01  0.35302688381E+01  0.27720040358E+02  0.29646912209E+02  0.51100000000E-03 0. -1.
        -11    1    3    3    0    0 -0.10331997969E+02  0.64398018412E+01  0.10281239358E+02  0.15935027856E+02  0.51100000000E-03 0.  1.
        -12    1    3    3    0    0  0.19749044312E+02 -0.91730092954E+01 -0.38723193004E+02  0.44425831756E+02  0.00000000000E+00 0.  1.
</event>
<event>
 7    1  0.4520336E-015  0.9000871E+02  0.7816164E-02  0.1186337E+00
        -11   -1    0    0    0    0  0.00000000000E+00  0.00000000000E+00  0.45593999997E+02  0.45594000000E+02  0.51100000000E-03 0. -1.
         11   -1    0    0    0    0 -0.00000000000E+00 -0.00000000000E+00 -0.45593999997E+02  0.45594000000E+02  0.51100000000E-03 0.  1.
    9900012    2    1    2    0    0  0.90236481602E-01 -0.37314366225E+00 -0.11150551507E+01  0.90008709194E+02  0.90000983350E+02 0.  0.
         12    1    1    2    0    0 -0.90236481602E-01  0.37314366225E+00  0.11150551507E+01  0.11792908057E+01  0.00000000000E+00 0. -1.
         11    1    3    3    0    0 -0.18237366875E+01  0.18628491118E+02  0.21883975662E+02  0.28796789541E+02  0.51100000000E-03 0. -1.
        -11    1    3    3    0    0 -0.87757051384E+01  0.97681336022E+01  0.97303183863E+01  0.16343455293E+02  0.51100000000E-03 0.  1.
        -12    1    3    3    0    0  0.10689678308E+02 -0.28769768382E+02 -0.32729349199E+02  0.44868464361E+02  0.00000000000E+00 0.  1.
</event>
<event>
 7    1  0.4520336E-015  0.9000767E+02  0.7816164E-02  0.1186339E+00
        -11   -1    0    0    0    0  0.00000000000E+00  0.00000000000E+00  0.45593999997E+02  0.45594000000E+02  0.51100000000E-03 0.  1.
         11   -1    0    0    0    0 -0.00000000000E+00 -0.00000000000E+00 -0.45593999997E+02  0.45594000000E+02  0.51100000000E-03 0. -1.
    9900012    2    1    2    0    0 -0.32212869887E+00 -0.82453017663E+00  0.78074827560E+00  0.90007667513E+02  0.89999927924E+02 0.  0.
         12    1    1    2    0    0  0.32212869887E+00  0.82453017663E+00 -0.78074827560E+00  0.11803324873E+01  0.00000000000E+00 0. -1.
         11    1    3    3    0    0 -0.11479454665E+02  0.16929154186E+02 -0.28224482644E+02  0.34856786450E+02  0.51100000000E-03 0. -1.
        -11    1    3    3    0    0  0.10989316988E+02 -0.41494292687E+01 -0.89907883069E+01  0.14792468548E+02  0.51100000000E-03 0.  1.
        -12    1    3    3    0    0  0.16800897849E+00 -0.13604255094E+02  0.37996019226E+02  0.40358412515E+02  0.00000000000E+00 0.  1.
</event>
<event>
 7    1  0.4520336E-015  0.9000767E+02  0.7816164E-02  0.1186339E+00
        -11   -1    0    0    0    0  0.00000000000E+00  0.00000000000E+00  0.45593999997E+02  0.45594000000E+02  0.51100000000E-03 0.  1.
         11   -1    0    0    0    0 -0.00000000000E+00 -0.00000000000E+00 -0.45593999997E+02  0.45594000000E+02  0.51100000000E-03 0. -1.
    9900012    2    1    2    0    0  0.68640441708E+00  0.79061209642E+00  0.54494662443E+00  0.90007667278E+02  0.89999927686E+02 0.  0.
         12    1    1    2    0    0 -0.68640441708E+00 -0.79061209642E+00 -0.54494662443E+00  0.11803327219E+01  0.00000000000E+00 0. -1.
         11    1    3    3    0    0  0.23273230122E+02  0.16310052377E+02 -0.22523319465E+02  0.36262390555E+02  0.51100000000E-03 0. -1.
        -11    1    3    3    0    0  0.96721575451E+01 -0.70319486087E+01 -0.18610227429E+01  0.12102162564E+02  0.51100000000E-03 0.  1.
        -12    1    3    3    0    0 -0.32258983250E+02 -0.84874916719E+01  0.24929288832E+02  0.41643114159E+02  0.00000000000E+00 0.  1.
</event>
<event>
 7    1  0.4520336E-015  0.9000767E+02  0.7816164E-02  0.1186339E+00
        -11   -1    0    0    0    0  0.00000000000E+00  0.00000000000E+00  0.45593999997E+02  0.45594000000E+02  0.51100000000E-03 0. -1.
         11   -1    0    0    0    0 -0.00000000000E+00 -0.00000000000E+00 -0.45593999997E+02  0.45594000000E+02  0.51100000000E-03 0.  1.
    9900012    2    1    2    0    0  0.60142088869E+00 -0.49656862014E+00 -0.88594225333E+00  0.90007669048E+02  0.89999929479E+02 0.  0.
         12    1    1    2    0    0 -0.60142088869E+00  0.49656862014E+00  0.88594225333E+00  0.11803309519E+01  0.00000000000E+00 0. -1.
         11    1    3    3    0    0  0.28435999772E+02  0.23605522986E+02  0.17239740517E+02  0.40780331679E+02  0.51100000000E-03 0. -1.
        -11    1    3    3    0    0  0.81502541240E-01  0.27415320902E+01 -0.90407673325E+01  0.94476513001E+01  0.51100000000E-03 0.  1.
        -12    1    3    3    0    0 -0.27916081424E+02 -0.26843623697E+02 -0.90849154381E+01  0.39779686069E+02  0.00000000000E+00 0.  1.
</event>
<event>
 7    1  0.4520336E-015  0.9000781E+02  0.7816164E-02  0.1186339E+00
        -11   -1    0    0    0    0  0.00000000000E+00  0.00000000000E+00  0.45593999997E+02  0.45594000000E+02  0.51100000000E-03 0. -1.
         11   -1    0    0    0    0 -0.00000000000E+00 -0.00000000000E+00 -0.45593999997E+02  0.45594000000E+02  0.51100000000E-03 0.  1.
    9900012    2    1    2    0    0  0.86222003054E+00 -0.58920531135E+00 -0.54978746935E+00  0.90007808261E+02  0.90000070530E+02 0.  0.
         12    1    1    2    0    0 -0.86222003054E+00  0.58920531135E+00  0.54978746935E+00  0.11801917393E+01  0.00000000000E+00 0. -1.
         11    1    3    3    0    0 -0.18501285554E+02  0.31569704860E+02 -0.63910033825E+01  0.37145507892E+02  0.51100000000E-03 0. -1.
        -11    1    3    3    0    0 -0.69131009708E+00 -0.11599982787E+02  0.18201752748E+02  0.21594937223E+02  0.51100000000E-03 0.  1.
        -12    1    3    3    0    0  0.20054815682E+02 -0.20558927384E+02 -0.12360536835E+02  0.31267363145E+02  0.00000000000E+00 0.  1.
</event>
<event>
 7    1  0.4520336E-015  0.9000771E+02  0.7816164E-02  0.1186339E+00
        -11   -1    0    0    0    0  0.00000000000E+00  0.00000000000E+00  0.45593999997E+02  0.45594000000E+02  0.51100000000E-03 0.  1.
         11   -1    0    0    0    0 -0.00000000000E+00 -0.00000000000E+00 -0.45593999997E+02  0.45594000000E+02  0.51100000000E-03 0. -1.
    9900012    2    1    2    0    0  0.68159980867E+00 -0.92771565517E+00  0.26048174448E+00  0.90007709622E+02  0.89999970590E+02 0.  0.
         12    1    1    2    0    0 -0.68159980867E+00  0.92771565517E+00 -0.26048174448E+00  0.11802903775E+01  0.00000000000E+00 0. -1.
         11    1    3    3    0    0 -0.30610237868E+02  0.21064455711E+02 -0.43858543357E+01  0.37415687555E+02  0.51100000000E-03 0. -1.
        -11    1    3    3    0    0  0.29973298929E+01  0.91755729933E+01 -0.23115577173E+01  0.99256448448E+01  0.51100000000E-03 0.  1.
        -12    1    3    3    0    0  0.28294507784E+02 -0.31167744360E+02  0.69578937974E+01  0.42666377222E+02  0.00000000000E+00 0.  1.
</event>
<event>
 7    1  0.4520336E-015  0.9000770E+02  0.7816164E-02  0.1186339E+00
        -11   -1    0    0    0    0  0.00000000000E+00  0.00000000000E+00  0.45593999997E+02  0.45594000000E+02  0.51100000000E-03 0. -1.
         11   -1    0    0    0    0 -0.00000000000E+00 -0.00000000000E+00 -0.45593999997E+02  0.45594000000E+02  0.51100000000E-03 0.  1.
    9900012    2    1    2    0    0  0.33025879136E+00  0.10711800941E+01 -0.36961016046E+00  0.90007699473E+02  0.89999960306E+02 0.  0.
         12    1    1    2    0    0 -0.33025879136E+00 -0.10711800941E+01  0.36961016046E+00  0.11803005270E+01  0.00000000000E+00 0. -1.
         11    1    3    3    0    0 -0.23622691716E+02  0.63657484810E+01  0.74412237736E+01  0.25571979375E+02  0.51100000000E-03 0. -1.
        -11    1    3    3    0    0  0.44730666374E+01 -0.24950057758E+02  0.14219866343E+02  0.29064038025E+02  0.51100000000E-03 0.  1.
        -12    1    3    3    0    0  0.19479883870E+02  0.19655489371E+02 -0.22030700277E+02  0.35371682073E+02  0.00000000000E+00 0.  1.
</event>
<event>
 7    1  0.4520336E-015  0.9000780E+02  0.7816164E-02  0.1186339E+00
        -11   -1    0    0    0    0  0.00000000000E+00  0.00000000000E+00  0.45593999997E+02  0.45594000000E+02  0.51100000000E-03 0.  1.
         11   -1    0    0    0    0 -0.00000000000E+00 -0.00000000000E+00 -0.45593999997E+02  0.45594000000E+02  0.51100000000E-03 0. -1.
    9900012    2    1    2    0    0 -0.53759512715E+00 -0.26311510672E+00  0.10171706126E+01  0.90007799112E+02  0.90000061261E+02 0.  0.
         12    1    1    2    0    0  0.53759512715E+00  0.26311510672E+00 -0.10171706126E+01  0.11802008877E+01  0.00000000000E+00 0. -1.
         11    1    3    3    0    0 -0.31415046486E+02 -0.21386460138E+02  0.15364291691E+02  0.40992039256E+02  0.51100000000E-03 0. -1.
        -11    1    3    3    0    0  0.84094969837E+01 -0.62823542191E+01  0.68862340030E+00  0.10519592031E+02  0.51100000000E-03 0.  1.
        -12    1    3    3    0    0  0.22467954375E+02  0.27405699250E+02 -0.15035744479E+02  0.38496167825E+02  0.00000000000E+00 0.  1.
</event>
<event>
 7    1  0.4520336E-015  0.9000775E+02  0.7816164E-02  0.1186339E+00
        -11   -1    0    0    0    0  0.00000000000E+00  0.00000000000E+00  0.45593999997E+02  0.45594000000E+02  0.51100000000E-03 0.  1.
         11   -1    0    0    0    0 -0.00000000000E+00 -0.00000000000E+00 -0.45593999997E+02  0.45594000000E+02  0.51100000000E-03 0. -1.
    9900012    2    1    2    0    0 -0.11822727422E+00  0.86319869959E+00  0.79617123820E+00  0.90007754973E+02  0.90000016539E+02 0.  0.
         12    1    1    2    0    0  0.11822727422E+00 -0.86319869959E+00 -0.79617123820E+00  0.11802450270E+01  0.00000000000E+00 0. -1.
         11    1    3    3    0    0 -0.73479304976E+01 -0.45980201849E+01  0.37721900126E+01  0.94532158534E+01  0.51100000000E-03 0. -1.
        -11    1    3    3    0    0 -0.18621994289E+02  0.32456043063E+02  0.13402380631E+02  0.39746662872E+02  0.51100000000E-03 0.  1.
         12    1    3    3    0    0  0.25851697513E+02 -0.26994824179E+02 -0.16378399406E+02  0.40807876247E+02  0.00000000000E+00 0. -1.
</event>
<event>
 7    1  0.4520336E-015  0.9000790E+02  0.7816164E-02  0.1186339E+00
        -11   -1    0    0    0    0  0.00000000000E+00  0.00000000000E+00  0.45593999997E+02  0.45594000000E+02  0.51100000000E-03 0.  1.
         11   -1    0    0    0    0 -0.00000000000E+00 -0.00000000000E+00 -0.45593999997E+02  0.45594000000E+02  0.51100000000E-03 0. -1.
    9900012    2    1    2    0    0  0.48606108049E+00 -0.57059610129E+00  0.91147991481E+00  0.90007902157E+02  0.90000165665E+02 0.  0.
         12    1    1    2    0    0 -0.48606108049E+00  0.57059610129E+00 -0.91147991481E+00  0.11800978433E+01  0.00000000000E+00 0. -1.
         11    1    3    3    0    0 -0.70744134694E+00  0.10021722819E+02 -0.52125162817E+01  0.11318380086E+02  0.51100000000E-03 0. -1.
        -11    1    3    3    0    0  0.17325170723E+02  0.11952442802E+02  0.33606558532E+02  0.39653791826E+02  0.51100000000E-03 0.  1.
         12    1    3    3    0    0 -0.16131668296E+02 -0.22544761723E+02 -0.27482562336E+02  0.39035730244E+02  0.00000000000E+00 0. -1.
</event>
<event>
 7    1  0.8326223E-015  0.9000777E+02  0.7816164E-02  0.1186339E+00
        -11   -1    0    0    0    0  0.00000000000E+00  0.00000000000E+00  0.45593999997E+02  0.45594000000E+02  0.51100000000E-03 0. -1.
         11   -1    0    0    0    0 -0.00000000000E+00 -0.00000000000E+00 -0.45593999997E+02  0.45594000000E+02  0.51100000000E-03 0.  1.
    9900012    2    1    2    0    0  0.21247582160E+00 -0.49371499840E+00 -0.10507344477E+01  0.90007769788E+02  0.90000031549E+02 0.  0.
         12    1    1    2    0    0 -0.21247582160E+00  0.49371499840E+00  0.10507344477E+01  0.11802302123E+01  0.00000000000E+00 0. -1.
         11    1    3    3    0    0  0.31202056582E+02 -0.20520392122E+02  0.15062656825E+02  0.40268330716E+02  0.51100000000E-03 0. -1.
        -11    1    3    3    0    0  0.24972660713E+01 -0.94526009122E+00 -0.92603460790E+01  0.96376275211E+01  0.51100000000E-03 0.  1.
        -12    1    3    3    0    0 -0.33486846831E+02  0.20971937215E+02 -0.68530451934E+01  0.40101811551E+02  0.00000000000E+00 0.  1.
</event>
<event>
 7    1  0.4520336E-015  0.9000767E+02  0.7816164E-02  0.1186339E+00
        -11   -1    0    0    0    0  0.00000000000E+00  0.00000000000E+00  0.45593999997E+02  0.45594000000E+02  0.51100000000E-03 0. -1.
         11   -1    0    0    0    0 -0.00000000000E+00 -0.00000000000E+00 -0.45593999997E+02  0.45594000000E+02  0.51100000000E-03 0.  1.
    9900012    2    1    2    0    0  0.95979710452E+00 -0.68699549368E+00 -0.32590756282E-02  0.90007667881E+02  0.89999928297E+02 0.  0.
         12    1    1    2    0    0 -0.95979710452E+00  0.68699549368E+00  0.32590756282E-02  0.11803321193E+01  0.00000000000E+00 0. -1.
         11    1    3    3    0    0 -0.84216043803E+01  0.17446143549E+02 -0.13586288966E+02  0.23661753806E+02  0.51100000000E-03 0. -1.
        -11    1    3    3    0    0  0.56944926519E+01  0.22357828052E+02  0.11123480968E+02  0.25613112870E+02  0.51100000000E-03 0.  1.
         12    1    3    3    0    0  0.36869088329E+01 -0.40490967095E+02  0.24595489218E+01  0.40732801204E+02  0.00000000000E+00 0. -1.
</event>
<event>
 7    1  0.4520336E-015  0.9000763E+02  0.7816164E-02  0.1186339E+00
        -11   -1    0    0    0    0  0.00000000000E+00  0.00000000000E+00  0.45593999997E+02  0.45594000000E+02  0.51100000000E-03 0.  1.
         11   -1    0    0    0    0 -0.00000000000E+00 -0.00000000000E+00 -0.45593999997E+02  0.45594000000E+02  0.51100000000E-03 0. -1.
    9900012    2    1    2    0    0  0.14913357990E+00 -0.86835644652E+00  0.78549192261E+00  0.90007626625E+02  0.89999886497E+02 0.  0.
         12    1    1    2    0    0 -0.14913357990E+00  0.86835644652E+00 -0.78549192261E+00  0.11803733745E+01  0.00000000000E+00 0. -1.
         11    1    3    3    0    0  0.27163169005E+02 -0.18094371455E+02 -0.17114335635E+02  0.36853012268E+02  0.51100000000E-03 0. -1.
        -11    1    3    3    0    0  0.73653170986E+01  0.16847323398E+01 -0.49623473659E+01  0.90394198188E+01  0.51100000000E-03 0.  1.
        -12    1    3    3    0    0 -0.34379352524E+02  0.15541282669E+02  0.22862174923E+02  0.44115194539E+02  0.00000000000E+00 0.  1.
</event>
<event>
 7    1  0.4520336E-015  0.9000773E+02  0.7816164E-02  0.1186339E+00
        -11   -1    0    0    0    0  0.00000000000E+00  0.00000000000E+00  0.45593999997E+02  0.45594000000E+02  0.51100000000E-03 0. -1.
         11   -1    0    0    0    0 -0.00000000000E+00 -0.00000000000E+00 -0.45593999997E+02  0.45594000000E+02  0.51100000000E-03 0.  1.
    9900012    2    1    2    0    0  0.43012082324E+00  0.95803712774E+00  0.53869473006E+00  0.90007732627E+02  0.89999993897E+02 0.  0.
         12    1    1    2    0    0 -0.43012082324E+00 -0.95803712774E+00 -0.53869473006E+00  0.11802673735E+01  0.00000000000E+00 0. -1.
         11    1    3    3    0    0  0.12188150754E+02 -0.66118265693E+01  0.98375755032E+01  0.17001328225E+02  0.51100000000E-03 0. -1.
        -11    1    3    3    0    0  0.16199319638E+02 -0.71998530765E+01  0.22177030146E+02  0.28391486530E+02  0.51100000000E-03 0.  1.
        -12    1    3    3    0    0 -0.27957349568E+02  0.14769716774E+02 -0.31475910919E+02  0.44614917871E+02  0.00000000000E+00 0.  1.
</event>
<event>
 7    1  0.4520336E-015  0.9000774E+02  0.7816164E-02  0.1186339E+00
        -11   -1    0    0    0    0  0.00000000000E+00  0.00000000000E+00  0.45593999997E+02  0.45594000000E+02  0.51100000000E-03 0.  1.
         11   -1    0    0    0    0 -0.00000000000E+00 -0.00000000000E+00 -0.45593999997E+02  0.45594000000E+02  0.51100000000E-03 0. -1.
    9900012    2    1    2    0    0 -0.73736021551E+00  0.98846387786E-01  0.91626824787E+00  0.90007738081E+02  0.89999999423E+02 0.  0.
         12    1    1    2    0    0  0.73736021551E+00 -0.98846387786E-01 -0.91626824787E+00  0.11802619192E+01  0.00000000000E+00 0. -1.
         11    1    3    3    0    0  0.44150771332E+01 -0.94020229191E+01  0.65379208315E+01  0.12273359366E+02  0.51100000000E-03 0. -1.
        -11    1    3    3    0    0 -0.10286408829E+02 -0.33045433044E+02 -0.91185551053E+00  0.34621414361E+02  0.51100000000E-03 0.  1.
         12    1    3    3    0    0  0.51339714805E+01  0.42546302351E+02 -0.47097970731E+01  0.43112964354E+02  0.00000000000E+00 0. -1.
</event>
<event>
 7    1  0.4520336E-015  0.9000775E+02  0.7816164E-02  0.1186339E+00
        -11   -1    0    0    0    0  0.00000000000E+00  0.00000000000E+00  0.45593999997E+02  0.45594000000E+02  0.51100000000E-03 0.  1.
         11   -1    0    0    0    0 -0.00000000000E+00 -0.00000000000E+00 -0.45593999997E+02  0.45594000000E+02  0.51100000000E-03 0. -1.
    9900012    2    1    2    0    0 -0.58709010386E+00  0.99953531731E+00 -0.22189401878E+00  0.90007753163E+02  0.90000014705E+02 0.  0.
         12    1    1    2    0    0  0.58709010386E+00 -0.99953531731E+00  0.22189401878E+00  0.11802468370E+01  0.00000000000E+00 0. -1.
         11    1    3    3    0    0 -0.23179906876E+02  0.12386474938E+02 -0.29410196192E+02  0.39442267740E+02  0.51100000000E-03 0. -1.
        -11    1    3    3    0    0 -0.84113709205E+01 -0.42244572906E+01  0.55675468312E+01  0.10935939747E+02  0.51100000000E-03 0.  1.
        -12    1    3    3    0    0  0.31004187693E+02 -0.71624823299E+01  0.23620755342E+02  0.39629545677E+02  0.00000000000E+00 0.  1.
</event>
<event>
 7    1  0.4520336E-015  0.9000777E+02  0.7816164E-02  0.1186339E+00
        -11   -1    0    0    0    0  0.00000000000E+00  0.00000000000E+00  0.45593999997E+02  0.45594000000E+02  0.51100000000E-03 0. -1.
         11   -1    0    0    0    0 -0.00000000000E+00 -0.00000000000E+00 -0.45593999997E+02  0.45594000000E+02  0.51100000000E-03 0.  1.
    9900012    2    1    2    0    0 -0.90621678019E+00 -0.53535044096E+00 -0.53395996493E+00  0.90007770280E+02  0.90000032048E+02 0.  0.
         12    1    1    2    0    0  0.90621678019E+00  0.53535044096E+00  0.53395996493E+00  0.11802297198E+01  0.00000000000E+00 0. -1.
         11    1    3    3    0    0  0.17357258845E+02  0.29032405614E+02  0.24811462796E+02  0.41949537503E+02  0.51100000000E-03 0. -1.
        -11    1    3    3    0    0 -0.83477082483E+01  0.98874933746E+00 -0.29977062565E+01  0.89245784950E+01  0.51100000000E-03 0.  1.
        -12    1    3    3    0    0 -0.99157673766E+01 -0.30556505393E+02 -0.22347716505E+02  0.39133654282E+02  0.00000000000E+00 0.  1.
</event>
<event>
 7    1  0.4520336E-015  0.9000772E+02  0.7816164E-02  0.1186339E+00
        -11   -1    0    0    0    0  0.00000000000E+00  0.00000000000E+00  0.45593999997E+02  0.45594000000E+02  0.51100000000E-03 0.  1.
         11   -1    0    0    0    0 -0.00000000000E+00 -0.00000000000E+00 -0.45593999997E+02  0.45594000000E+02  0.51100000000E-03 0. -1.
    9900012    2    1    2    0    0  0.97282405791E+00 -0.62134450890E+00 -0.24618855413E+00  0.90007718487E+02  0.89999979571E+02 0.  0.
         12    1    1    2    0    0 -0.97282405791E+00  0.62134450890E+00  0.24618855413E+00  0.11802815133E+01  0.00000000000E+00 0. -1.
         11    1    3    3    0    0  0.13070774750E+02  0.28292347137E+02 -0.96961317056E+01  0.32639194681E+02  0.51100000000E-03 0. -1.
        -11    1    3    3    0    0 -0.10091999522E+02  0.11945588693E+02  0.16707185282E+01  0.15726946438E+02  0.51100000000E-03 0.  1.
        -12    1    3    3    0    0 -0.20059511701E+01 -0.40859280340E+02  0.77792246232E+01  0.41641577368E+02  0.00000000000E+00 0.  1.
</event>
<event>
 7    1  0.4520336E-015  0.9000776E+02  0.7816164E-02  0.1186339E+00
        -11   -1    0    0    0    0  0.00000000000E+00  0.00000000000E+00  0.45593999997E+02  0.45594000000E+02  0.51100000000E-03 0.  1.
         11   -1    0    0    0    0 -0.00000000000E+00 -0.00000000000E+00 -0.45593999997E+02  0.45594000000E+02  0.51100000000E-03 0. -1.
    9900012    2    1    2    0    0  0.27886450066E+00  0.52857977601E+00 -0.10177420775E+01  0.90007762344E+02  0.90000024007E+02 0.  0.
         12    1    1    2    0    0 -0.27886450066E+00 -0.52857977601E+00  0.10177420775E+01  0.11802376564E+01  0.00000000000E+00 0. -1.
         11    1    3    3    0    0 -0.39300556270E+01 -0.62045909543E+01 -0.60005655544E+01  0.94841485319E+01  0.51100000000E-03 0. -1.
        -11    1    3    3    0    0  0.37434123227E+01 -0.34910997291E+02 -0.95960366934E+01  0.36398829489E+02  0.51100000000E-03 0.  1.
         12    1    3    3    0    0  0.46550780496E+00  0.41644168021E+02  0.14578860170E+02  0.44124784323E+02  0.00000000000E+00 0. -1.
</event>
<event>
 7    1  0.4520336E-015  0.9000773E+02  0.7816164E-02  0.1186339E+00
        -11   -1    0    0    0    0  0.00000000000E+00  0.00000000000E+00  0.45593999997E+02  0.45594000000E+02  0.51100000000E-03 0. -1.
         11   -1    0    0    0    0 -0.00000000000E+00 -0.00000000000E+00 -0.45593999997E+02  0.45594000000E+02  0.51100000000E-03 0.  1.
    9900012    2    1    2    0    0  0.65098192060E+00  0.30787672456E+00 -0.93513653929E+00  0.90007726351E+02  0.89999987539E+02 0.  0.
         12    1    1    2    0    0 -0.65098192060E+00 -0.30787672456E+00  0.93513653929E+00  0.11802736486E+01  0.00000000000E+00 0. -1.
         11    1    3    3    0    0 -0.64389512318E+00  0.13700579908E+01 -0.10203224832E+02  0.10314914302E+02  0.51100000000E-03 0. -1.
        -11    1    3    3    0    0  0.34841105220E+02 -0.16517520392E+02  0.16696511373E+02  0.42017907911E+02  0.51100000000E-03 0.  1.
         12    1    3    3    0    0 -0.33546228176E+02  0.15455339126E+02 -0.74284230805E+01  0.37674904138E+02  0.00000000000E+00 0. -1.
</event>
<event>
 7    1  0.4520336E-015  0.9000772E+02  0.7816164E-02  0.1186339E+00
        -11   -1    0    0    0    0  0.00000000000E+00  0.00000000000E+00  0.45593999997E+02  0.45594000000E+02  0.51100000000E-03 0.  1.
         11   -1    0    0    0    0 -0.00000000000E+00 -0.00000000000E+00 -0.45593999997E+02  0.45594000000E+02  0.51100000000E-03 0. -1.
    9900012    2    1    2    0    0  0.27415340077E+00 -0.10088006126E+01  0.54793186913E+00  0.90007716942E+02  0.89999978006E+02 0.  0.
         12    1    1    2    0    0 -0.27415340077E+00  0.10088006126E+01 -0.54793186913E+00  0.11802830577E+01  0.00000000000E+00 0. -1.
         11    1    3    3    0    0  0.17644693395E+01  0.24540606172E+02 -0.25320554637E+02  0.35305597159E+02  0.51100000000E-03 0. -1.
        -11    1    3    3    0    0  0.72416757771E+01  0.81238352102E+01 -0.73613847808E+00  0.10907816771E+02  0.51100000000E-03 0.  1.
        -12    1    3    3    0    0 -0.87319917158E+01 -0.33673241995E+02  0.26604624985E+02  0.43794303013E+02  0.00000000000E+00 0.  1.
</event>
<event>
 7    1  0.4520336E-015  0.9000772E+02  0.7816164E-02  0.1186339E+00
        -11   -1    0    0    0    0  0.00000000000E+00  0.00000000000E+00  0.45593999997E+02  0.45594000000E+02  0.51100000000E-03 0.  1.
         11   -1    0    0    0    0 -0.00000000000E+00 -0.00000000000E+00 -0.45593999997E+02  0.45594000000E+02  0.51100000000E-03 0. -1.
    9900012    2    1    2    0    0 -0.10703004049E+01 -0.47317744820E+00 -0.15368917577E+00  0.90007720280E+02  0.89999981388E+02 0.  0.
         12    1    1    2    0    0  0.10703004049E+01  0.47317744820E+00  0.15368917577E+00  0.11802797198E+01  0.00000000000E+00 0. -1.
         11    1    3    3    0    0 -0.37883924979E+02  0.13063008638E+02  0.19212402768E+01  0.40118887459E+02  0.51100000000E-03 0. -1.
        -11    1    3    3    0    0 -0.54647548102E+00 -0.55044883978E+00  0.88272264919E+01  0.88612390317E+01  0.51100000000E-03 0.  1.
        -12    1    3    3    0    0  0.37360100055E+02 -0.12985737246E+02 -0.10902155945E+02  0.41027593790E+02  0.00000000000E+00 0.  1.
</event>
<event>
 7    1  0.4520336E-015  0.9000774E+02  0.7816164E-02  0.1186339E+00
        -11   -1    0    0    0    0  0.00000000000E+00  0.00000000000E+00  0.45593999997E+02  0.45594000000E+02  0.51100000000E-03 0.  1.
         11   -1    0    0    0    0 -0.00000000000E+00 -0.00000000000E+00 -0.45593999997E+02  0.45594000000E+02  0.51100000000E-03 0. -1.
    9900012    2    1    2    0    0 -0.45945326163E+00  0.43555983036E+00  0.99609604436E+00  0.90007738590E+02  0.89999999940E+02 0.  0.
         12    1    1    2    0    0  0.45945326163E+00 -0.43555983036E+00 -0.99609604436E+00  0.11802614096E+01  0.00000000000E+00 0. -1.
         11    1    3    3    0    0 -0.34283516504E+01  0.69901789128E+01  0.66907487399E+01  0.10265588889E+02  0.51100000000E-03 0. -1.
        -11    1    3    3    0    0 -0.10740456788E+02 -0.19661465757E+02  0.31110198560E+02  0.38337646021E+02  0.51100000000E-03 0.  1.
         12    1    3    3    0    0  0.13709355176E+02  0.13106846675E+02 -0.36804851255E+02  0.41404503681E+02  0.00000000000E+00 0. -1.
</event>
<event>
 7    1  0.4520336E-015  0.9000783E+02  0.7816164E-02  0.1186339E+00
        -11   -1    0    0    0    0  0.00000000000E+00  0.00000000000E+00  0.45593999997E+02  0.45594000000E+02  0.51100000000E-03 0.  1.
         11   -1    0    0    0    0 -0.00000000000E+00 -0.00000000000E+00 -0.45593999997E+02  0.45594000000E+02  0.51100000000E-03 0. -1.
    9900012    2    1    2    0    0 -0.48151247832E+00 -0.42118713056E+00  0.99174497362E+00  0.90007825878E+02  0.90000088379E+02 0.  0.
         12    1    1    2    0    0  0.48151247832E+00  0.42118713056E+00 -0.99174497362E+00  0.11801741221E+01  0.00000000000E+00 0. -1.
         11    1    3    3    0    0  0.18029199176E+02 -0.28930468090E+02 -0.14726936179E+02  0.37133632415E+02  0.51100000000E-03 0. -1.
        -11    1    3    3    0    0  0.95364043587E+01  0.79996291030E+00 -0.17883197600E+01  0.97355552783E+01  0.51100000000E-03 0.  1.
        -12    1    3    3    0    0 -0.28047116013E+02  0.27709318050E+02  0.17507000913E+02  0.43138638184E+02  0.00000000000E+00 0.  1.
</event>
<event>
 7    1  0.4520336E-015  0.9000770E+02  0.7816164E-02  0.1186339E+00
        -11   -1    0    0    0    0  0.00000000000E+00  0.00000000000E+00  0.45593999997E+02  0.45594000000E+02  0.51100000000E-03 0. -1.
         11   -1    0    0    0    0 -0.00000000000E+00 -0.00000000000E+00 -0.45593999997E+02  0.45594000000E+02  0.51100000000E-03 0.  1.
    9900012    2    1    2    0    0 -0.13823633025E+00  0.93141431517E+00  0.71166688519E+00  0.90007698486E+02  0.89999959306E+02 0.  0.
         12    1    1    2    0    0  0.13823633025E+00 -0.93141431517E+00 -0.71166688519E+00  0.11803015144E+01  0.00000000000E+00 0. -1.
         11    1    3    3    0    0 -0.56735875701E+01  0.70216309364E+01  0.44773214817E+00  0.90384379878E+01  0.51100000000E-03 0. -1.
        -11    1    3    3    0    0  0.37208854153E+02 -0.30004740704E+01 -0.20869678751E+02  0.42767337577E+02  0.51100000000E-03 0.  1.
         12    1    3    3    0    0 -0.31673502913E+02 -0.30897425508E+01  0.21133613488E+02  0.38201922921E+02  0.00000000000E+00 0. -1.
</event>
<event>
 7    1  0.4520336E-015  0.9000769E+02  0.7816164E-02  0.1186339E+00
        -11   -1    0    0    0    0  0.00000000000E+00  0.00000000000E+00  0.45593999997E+02  0.45594000000E+02  0.51100000000E-03 0. -1.
         11   -1    0    0    0    0 -0.00000000000E+00 -0.00000000000E+00 -0.45593999997E+02  0.45594000000E+02  0.51100000000E-03 0.  1.
    9900012    2    1    2    0    0 -0.10845008902E+01 -0.59433631633E-01 -0.46200434797E+00  0.90007693872E+02  0.89999954631E+02 0.  0.
         12    1    1    2    0    0  0.10845008902E+01  0.59433631633E-01  0.46200434797E+00  0.11803061276E+01  0.00000000000E+00 0. -1.
         11    1    3    3    0    0 -0.11504313454E+01 -0.86416009689E+01  0.16650493844E+01  0.88754238941E+01  0.51100000000E-03 0. -1.
        -11    1    3    3    0    0 -0.28379688705E+02 -0.13799946842E+02 -0.23274694425E+02  0.39211690409E+02  0.51100000000E-03 0.  1.
         12    1    3    3    0    0  0.28445619160E+02  0.22382114180E+02  0.21147640693E+02  0.41920579570E+02  0.00000000000E+00 0. -1.
</event>
<event>
 7    1  0.4520336E-015  0.9000764E+02  0.7816164E-02  0.1186339E+00
        -11   -1    0    0    0    0  0.00000000000E+00  0.00000000000E+00  0.45593999997E+02  0.45594000000E+02  0.51100000000E-03 0.  1.
         11   -1    0    0    0    0 -0.00000000000E+00 -0.00000000000E+00 -0.45593999997E+02  0.45594000000E+02  0.51100000000E-03 0. -1.
    9900012    2    1    2    0    0 -0.82479873038E+00 -0.56701603849E+00  0.62566469035E+00  0.90007637158E+02  0.89999897169E+02 0.  0.
         12    1    1    2    0    0  0.82479873038E+00  0.56701603849E+00 -0.62566469035E+00  0.11803628418E+01  0.00000000000E+00 0. -1.
         11    1    3    3    0    0 -0.19735343076E+02  0.13517065128E+02 -0.27861213656E+02  0.36721138907E+02  0.51100000000E-03 0. -1.
        -11    1    3    3    0    0 -0.95591874764E+01 -0.11105020457E+01 -0.17446627117E+01  0.97803439736E+01  0.51100000000E-03 0.  1.
        -12    1    3    3    0    0  0.28469731822E+02 -0.12973579121E+02  0.30231541058E+02  0.43506154277E+02  0.00000000000E+00 0.  1.
</event>
<event>
 7    1  0.4520336E-015  0.9000768E+02  0.7816164E-02  0.1186339E+00
        -11   -1    0    0    0    0  0.00000000000E+00  0.00000000000E+00  0.45593999997E+02  0.45594000000E+02  0.51100000000E-03 0.  1.
         11   -1    0    0    0    0 -0.00000000000E+00 -0.00000000000E+00 -0.45593999997E+02  0.45594000000E+02  0.51100000000E-03 0. -1.
    9900012    2    1    2    0    0  0.10569576752E+01 -0.22604410702E+00 -0.47422536162E+00  0.90007684297E+02  0.89999944930E+02 0.  0.
         12    1    1    2    0    0 -0.10569576752E+01  0.22604410702E+00  0.47422536162E+00  0.11803157032E+01  0.00000000000E+00 0. -1.
         11    1    3    3    0    0  0.44521818685E+01  0.90208591692E+01 -0.36161879027E+00  0.10066210407E+02  0.51100000000E-03 0. -1.
        -11    1    3    3    0    0  0.23173640047E+02 -0.48130218698E+01  0.30862061572E+02  0.38892796470E+02  0.51100000000E-03 0.  1.
         12    1    3    3    0    0 -0.26568864240E+02 -0.44338814064E+01 -0.30974668144E+02  0.41048677420E+02  0.00000000000E+00 0. -1.
</event>
<event>
 7    1  0.4520336E-015  0.9000770E+02  0.7816164E-02  0.1186339E+00
        -11   -1    0    0    0    0  0.00000000000E+00  0.00000000000E+00  0.45593999997E+02  0.45594000000E+02  0.51100000000E-03 0. -1.
         11   -1    0    0    0    0 -0.00000000000E+00 -0.00000000000E+00 -0.45593999997E+02  0.45594000000E+02  0.51100000000E-03 0.  1.
    9900012    2    1    2    0    0  0.58678939808E+00  0.80574845119E+00  0.63210348069E+00  0.90007700388E+02  0.89999961233E+02 0.  0.
         12    1    1    2    0    0 -0.58678939808E+00 -0.80574845119E+00 -0.63210348069E+00  0.11802996122E+01  0.00000000000E+00 0. -1.
         11    1    3    3    0    0 -0.82070292835E+01 -0.47597130107E+01 -0.18018233960E+01  0.96569542515E+01  0.51100000000E-03 0. -1.
        -11    1    3    3    0    0 -0.34875911340E+02  0.85388918966E+01 -0.39270059672E+01  0.36120122408E+02  0.51100000000E-03 0.  1.
         12    1    3    3    0    0  0.43669730022E+02 -0.29734304347E+01  0.63609328440E+01  0.44230623728E+02  0.00000000000E+00 0. -1.
</event>
<event>
 7    1  0.4520336E-015  0.9000774E+02  0.7816164E-02  0.1186339E+00
        -11   -1    0    0    0    0  0.00000000000E+00  0.00000000000E+00  0.45593999997E+02  0.45594000000E+02  0.51100000000E-03 0.  1.
         11   -1    0    0    0    0 -0.00000000000E+00 -0.00000000000E+00 -0.45593999997E+02  0.45594000000E+02  0.51100000000E-03 0. -1.
    9900012    2    1    2    0    0 -0.44485690063E+00 -0.10817758563E+01 -0.15771145211E+00  0.90007741737E+02  0.90000003128E+02 0.  0.
         12    1    1    2    0    0  0.44485690063E+00  0.10817758563E+01  0.15771145211E+00  0.11802582630E+01  0.00000000000E+00 0. -1.
         11    1    3    3    0    0  0.77655531794E+01  0.26026715051E+01  0.78027569954E+01  0.11311972955E+02  0.51100000000E-03 0. -1.
        -11    1    3    3    0    0  0.33166586927E+02  0.10907507596E+01  0.79249464693E+01  0.34117693392E+02  0.51100000000E-03 0.  1.
         12    1    3    3    0    0 -0.41376997007E+02 -0.47751981209E+01 -0.15885414917E+02  0.44578075390E+02  0.00000000000E+00 0. -1.
</event>
<event>
 7    1  0.4520336E-015  0.9000783E+02  0.7816164E-02  0.1186339E+00
        -11   -1    0    0    0    0  0.00000000000E+00  0.00000000000E+00  0.45593999997E+02  0.45594000000E+02  0.51100000000E-03 0. -1.
         11   -1    0    0    0    0 -0.00000000000E+00 -0.00000000000E+00 -0.45593999997E+02  0.45594000000E+02  0.51100000000E-03 0.  1.
    9900012    2    1    2    0    0  0.64875650185E+00  0.98491594378E+00 -0.43226451350E-01  0.90007825038E+02  0.90000087528E+02 0.  0.
         12    1    1    2    0    0 -0.64875650185E+00 -0.98491594378E+00  0.43226451350E-01  0.11801749621E+01  0.00000000000E+00 0. -1.
         11    1    3    3    0    0  0.79592549659E+01 -0.50607577322E+01  0.20278014484E+01  0.96474342398E+01  0.51100000000E-03 0. -1.
        -11    1    3    3    0    0 -0.35843311498E+01 -0.30877595233E+01 -0.40454230370E+02  0.40729920744E+02  0.51100000000E-03 0.  1.
         12    1    3    3    0    0 -0.37261673143E+01  0.91334331992E+01  0.38383202470E+02  0.39630470055E+02  0.00000000000E+00 0. -1.
</event>
<event>
 7    1  0.4520336E-015  0.9000759E+02  0.7816164E-02  0.1186339E+00
        -11   -1    0    0    0    0  0.00000000000E+00  0.00000000000E+00  0.45593999997E+02  0.45594000000E+02  0.51100000000E-03 0. -1.
         11   -1    0    0    0    0 -0.00000000000E+00 -0.00000000000E+00 -0.45593999997E+02  0.45594000000E+02  0.51100000000E-03 0.  1.
    9900012    2    1    2    0    0 -0.58445633397E+00  0.78930335375E+00 -0.65481094702E+00  0.90007590594E+02  0.89999849989E+02 0.  0.
         12    1    1    2    0    0  0.58445633397E+00 -0.78930335375E+00  0.65481094702E+00  0.11804094065E+01  0.00000000000E+00 0. -1.
         11    1    3    3    0    0 -0.26345667704E+02  0.17435808924E+02  0.25906142495E+02  0.40856209550E+02  0.51100000000E-03 0. -1.
        -11    1    3    3    0    0 -0.43229760528E+01 -0.57190470344E+00 -0.10660637053E+02  0.11518002412E+02  0.51100000000E-03 0.  1.
        -12    1    3    3    0    0  0.30084187423E+02 -0.16074600866E+02 -0.15900316389E+02  0.37633378631E+02  0.00000000000E+00 0.  1.
</event>
<event>
 7    1  0.4520336E-015  0.9000772E+02  0.7816164E-02  0.1186339E+00
        -11   -1    0    0    0    0  0.00000000000E+00  0.00000000000E+00  0.45593999997E+02  0.45594000000E+02  0.51100000000E-03 0.  1.
         11   -1    0    0    0    0 -0.00000000000E+00 -0.00000000000E+00 -0.45593999997E+02  0.45594000000E+02  0.51100000000E-03 0. -1.
    9900012    2    1    2    0    0  0.79024281519E+00  0.12963948035E+00  0.86704241382E+00  0.90007723486E+02  0.89999984636E+02 0.  0.
         12    1    1    2    0    0 -0.79024281519E+00 -0.12963948035E+00 -0.86704241382E+00  0.11802765139E+01  0.00000000000E+00 0. -1.
         11    1    3    3    0    0 -0.51389718603E+00 -0.26771320044E+01  0.12624533152E+02  0.12915493163E+02  0.51100000000E-03 0. -1.
        -11    1    3    3    0    0  0.18260755341E+01  0.13376785222E+02  0.30592960000E+02  0.33439529550E+02  0.51100000000E-03 0.  1.
         12    1    3    3    0    0 -0.52193553284E+00 -0.10570013737E+02 -0.42350450738E+02  0.43652700773E+02  0.00000000000E+00 0. -1.
</event>
<event>
 7    1  0.4520336E-015  0.9000783E+02  0.7816164E-02  0.1186339E+00
        -11   -1    0    0    0    0  0.00000000000E+00  0.00000000000E+00  0.45593999997E+02  0.45594000000E+02  0.51100000000E-03 0.  1.
         11   -1    0    0    0    0 -0.00000000000E+00 -0.00000000000E+00 -0.45593999997E+02  0.45594000000E+02  0.51100000000E-03 0. -1.
    9900012    2    1    2    0    0 -0.42243784417E+00  0.37841525009E+00  0.10349642432E+01  0.90007829327E+02  0.90000091874E+02 0.  0.
         12    1    1    2    0    0  0.42243784417E+00 -0.37841525009E+00 -0.10349642432E+01  0.11801706734E+01  0.00000000000E+00 0. -1.
         11    1    3    3    0    0  0.98941675008E+01 -0.26501224766E+00 -0.16956723281E+01  0.10041916497E+02  0.51100000000E-03 0. -1.
        -11    1    3    3    0    0 -0.19559241704E+02  0.30205543269E+02  0.23222198301E+02  0.42827669496E+02  0.51100000000E-03 0.  1.
         12    1    3    3    0    0  0.92426363594E+01 -0.29562115772E+02 -0.20491561730E+02  0.37138243334E+02  0.00000000000E+00 0. -1.
</event>
<event>
 7    1  0.4520336E-015  0.9000776E+02  0.7816164E-02  0.1186339E+00
        -11   -1    0    0    0    0  0.00000000000E+00  0.00000000000E+00  0.45593999997E+02  0.45594000000E+02  0.51100000000E-03 0. -1.
         11   -1    0    0    0    0 -0.00000000000E+00 -0.00000000000E+00 -0.45593999997E+02  0.45594000000E+02  0.51100000000E-03 0.  1.
    9900012    2    1    2    0    0  0.30756111138E+00 -0.10960622528E+01 -0.31147415148E+00  0.90007761699E+02  0.90000023354E+02 0.  0.
         12    1    1    2    0    0 -0.30756111138E+00  0.10960622528E+01  0.31147415148E+00  0.11802383006E+01  0.00000000000E+00 0. -1.
         11    1    3    3    0    0 -0.39954291271E+00  0.58871357884E+01 -0.62912339790E+01  0.86254059366E+01  0.51100000000E-03 0. -1.
        -11    1    3    3    0    0 -0.49578594161E+01  0.44827262480E+01 -0.36454800123E+02  0.37062483145E+02  0.51100000000E-03 0.  1.
         12    1    3    3    0    0  0.56649634402E+01 -0.11465924289E+02  0.42434559951E+02  0.44319872617E+02  0.00000000000E+00 0. -1.
</event>
<event>
 7    1  0.4520336E-015  0.9000776E+02  0.7816164E-02  0.1186339E+00
        -11   -1    0    0    0    0  0.00000000000E+00  0.00000000000E+00  0.45593999997E+02  0.45594000000E+02  0.51100000000E-03 0. -1.
         11   -1    0    0    0    0 -0.00000000000E+00 -0.00000000000E+00 -0.45593999997E+02  0.45594000000E+02  0.51100000000E-03 0.  1.
    9900012    2    1    2    0    0 -0.31502913542E+00 -0.28451285835E-01 -0.11370592476E+01  0.90007764191E+02  0.90000025878E+02 0.  0.
         12    1    1    2    0    0  0.31502913542E+00  0.28451285835E-01  0.11370592476E+01  0.11802358088E+01  0.00000000000E+00 0. -1.
         11    1    3    3    0    0  0.63976503353E+01 -0.89525255835E+01  0.11214364450E+02  0.15711130272E+02  0.51100000000E-03 0. -1.
        -11    1    3    3    0    0  0.25557891657E+02  0.18769521909E+02  0.10664353453E+02  0.33454883253E+02  0.51100000000E-03 0.  1.
         12    1    3    3    0    0 -0.32270571128E+02 -0.98454476118E+01 -0.23015777151E+02  0.40841750666E+02  0.00000000000E+00 0. -1.
</event>
<event>
 7    1  0.4520336E-015  0.9000789E+02  0.7816164E-02  0.1186339E+00
        -11   -1    0    0    0    0  0.00000000000E+00  0.00000000000E+00  0.45593999997E+02  0.45594000000E+02  0.51100000000E-03 0. -1.
         11   -1    0    0    0    0 -0.00000000000E+00 -0.00000000000E+00 -0.45593999997E+02  0.45594000000E+02  0.51100000000E-03 0.  1.
    9900012    2    1    2    0    0 -0.95976640523E+00 -0.67546032635E+00  0.12357737374E+00  0.90007885780E+02  0.90000149072E+02 0.  0.
         12    1    1    2    0    0  0.95976640523E+00  0.67546032635E+00 -0.12357737374E+00  0.11801142201E+01  0.00000000000E+00 0. -1.
         11    1    3    3    0    0 -0.45296393355E+01 -0.33623555347E+01 -0.65631337290E+01  0.86543510362E+01  0.51100000000E-03 0. -1.
        -11    1    3    3    0    0 -0.15948873340E+02 -0.11074674311E+02 -0.31093301143E+02  0.36657991600E+02  0.51100000000E-03 0.  1.
         12    1    3    3    0    0  0.19518746270E+02  0.13761569520E+02  0.37780012246E+02  0.44695543144E+02  0.00000000000E+00 0. -1.
</event>
<event>
 7    1  0.4520336E-015  0.9000771E+02  0.7816164E-02  0.1186339E+00
        -11   -1    0    0    0    0  0.00000000000E+00  0.00000000000E+00  0.45593999997E+02  0.45594000000E+02  0.51100000000E-03 0.  1.
         11   -1    0    0    0    0 -0.00000000000E+00 -0.00000000000E+00 -0.45593999997E+02  0.45594000000E+02  0.51100000000E-03 0. -1.
    9900012    2    1    2    0    0 -0.10448221391E-01 -0.32306509403E+00  0.11351656023E+01  0.90007711406E+02  0.89999972397E+02 0.  0.
         12    1    1    2    0    0  0.10448221391E-01  0.32306509403E+00 -0.11351656023E+01  0.11802885939E+01  0.00000000000E+00 0. -1.
         11    1    3    3    0    0  0.73819736727E+00 -0.35563107038E+02  0.20015323587E+01  0.35627035375E+02  0.51100000000E-03 0. -1.
        -11    1    3    3    0    0 -0.71721131752E+01 -0.63251403814E+01 -0.70355363461E+01  0.11872041955E+02  0.51100000000E-03 0.  1.
        -12    1    3    3    0    0  0.64234675865E+01  0.41565182326E+02  0.61691695897E+01  0.42508634076E+02  0.00000000000E+00 0.  1.
</event>
<event>
 7    1  0.4520336E-015  0.9000767E+02  0.7816164E-02  0.1186339E+00
        -11   -1    0    0    0    0  0.00000000000E+00  0.00000000000E+00  0.45593999997E+02  0.45594000000E+02  0.51100000000E-03 0.  1.
         11   -1    0    0    0    0 -0.00000000000E+00 -0.00000000000E+00 -0.45593999997E+02  0.45594000000E+02  0.51100000000E-03 0. -1.
    9900012    2    1    2    0    0  0.51282568107E+00 -0.90058887049E+00  0.56492376330E+00  0.90007665577E+02  0.89999925962E+02 0.  0.
         12    1    1    2    0    0 -0.51282568107E+00  0.90058887049E+00 -0.56492376330E+00  0.11803344234E+01  0.00000000000E+00 0. -1.
         11    1    3    3    0    0 -0.98172875911E+00 -0.20722301470E+01 -0.74055556843E+01  0.77524308699E+01  0.51100000000E-03 0. -1.
        -11    1    3    3    0    0 -0.46046690012E+00 -0.38328594782E+02 -0.87499029497E+01  0.39317349982E+02  0.51100000000E-03 0.  1.
         12    1    3    3    0    0  0.19550213403E+01  0.39500236058E+02  0.16720382397E+02  0.42937884725E+02  0.00000000000E+00 0. -1.
</event>
<event>
 7    1  0.4520336E-015  0.9000776E+02  0.7816164E-02  0.1186339E+00
        -11   -1    0    0    0    0  0.00000000000E+00  0.00000000000E+00  0.45593999997E+02  0.45594000000E+02  0.51100000000E-03 0. -1.
         11   -1    0    0    0    0 -0.00000000000E+00 -0.00000000000E+00 -0.45593999997E+02  0.45594000000E+02  0.51100000000E-03 0.  1.
    9900012    2    1    2    0    0 -0.28705947460E+00  0.10645713038E+01  0.42100544124E+00  0.90007762403E+02  0.90000024067E+02 0.  0.
         12    1    1    2    0    0  0.28705947460E+00 -0.10645713038E+01 -0.42100544124E+00  0.11802375966E+01  0.00000000000E+00 0. -1.
         11    1    3    3    0    0 -0.10606995909E+02  0.44594060914E+01  0.36566120029E+02  0.38333742306E+02  0.51100000000E-03 0. -1.
        -11    1    3    3    0    0 -0.56409672070E+01 -0.96494954664E+01  0.53035752037E+00  0.11189930882E+02  0.51100000000E-03 0.  1.
        -12    1    3    3    0    0  0.15960903641E+02  0.62546606788E+01 -0.36675472108E+02  0.40484089216E+02  0.00000000000E+00 0.  1.
</event>
<event>
 7    1  0.4520336E-015  0.9000765E+02  0.7816164E-02  0.1186339E+00
        -11   -1    0    0    0    0  0.00000000000E+00  0.00000000000E+00  0.45593999997E+02  0.45594000000E+02  0.51100000000E-03 0. -1.
         11   -1    0    0    0    0 -0.00000000000E+00 -0.00000000000E+00 -0.45593999997E+02  0.45594000000E+02  0.51100000000E-03 0.  1.
    9900012    2    1    2    0    0 -0.85014009795E+00 -0.45058621930E+00 -0.68370477984E+00  0.90007653291E+02  0.89999913515E+02 0.  0.
         12    1    1    2    0    0  0.85014009795E+00  0.45058621930E+00  0.68370477984E+00  0.11803467089E+01  0.00000000000E+00 0. -1.
         11    1    3    3    0    0  0.99941043850E+01  0.20925809550E+02  0.29098064754E+02  0.37208453346E+02  0.51100000000E-03 0. -1.
        -11    1    3    3    0    0  0.97470042938E+01 -0.14325677522E+01  0.19430581735E+01  0.10041504787E+02  0.51100000000E-03 0.  1.
        -12    1    3    3    0    0 -0.20591248777E+02 -0.19943828017E+02 -0.31724827707E+02  0.42757695157E+02  0.00000000000E+00 0.  1.
</event>
<event>
 7    1  0.4520336E-015  0.9000772E+02  0.7816164E-02  0.1186339E+00
        -11   -1    0    0    0    0  0.00000000000E+00  0.00000000000E+00  0.45593999997E+02  0.45594000000E+02  0.51100000000E-03 0. -1.
         11   -1    0    0    0    0 -0.00000000000E+00 -0.00000000000E+00 -0.45593999997E+02  0.45594000000E+02  0.51100000000E-03 0.  1.
    9900012    2    1    2    0    0  0.35439898348E+00  0.42242569841E-01 -0.11250190698E+01  0.90007724193E+02  0.89999985352E+02 0.  0.
         12    1    1    2    0    0 -0.35439898348E+00 -0.42242569841E-01  0.11250190698E+01  0.11802758074E+01  0.00000000000E+00 0. -1.
         11    1    3    3    0    0  0.19140338555E+02 -0.54708528624E+01  0.62468229546E+01  0.20863978248E+02  0.51100000000E-03 0. -1.
        -11    1    3    3    0    0 -0.27834218673E+01  0.12643891337E+02 -0.34500612471E+02  0.36849799003E+02  0.51100000000E-03 0.  1.
         12    1    3    3    0    0 -0.16002517705E+02 -0.71307959045E+01  0.27128770446E+02  0.32293946941E+02  0.00000000000E+00 0. -1.
</event>
<event>
 7    1  0.4520336E-015  0.9000762E+02  0.7816164E-02  0.1186339E+00
        -11   -1    0    0    0    0  0.00000000000E+00  0.00000000000E+00  0.45593999997E+02  0.45594000000E+02  0.51100000000E-03 0. -1.
         11   -1    0    0    0    0 -0.00000000000E+00 -0.00000000000E+00 -0.45593999997E+02  0.45594000000E+02  0.51100000000E-03 0.  1.
    9900012    2    1    2    0    0 -0.67770381726E+00  0.71620464060E+00 -0.64890094255E+00  0.90007617018E+02  0.89999876762E+02 0.  0.
         12    1    1    2    0    0  0.67770381726E+00 -0.71620464060E+00  0.64890094255E+00  0.11803829821E+01  0.00000000000E+00 0. -1.
         11    1    3    3    0    0 -0.81924358856E+01 -0.24243744412E+01  0.28519424669E+02  0.29771650624E+02  0.51100000000E-03 0. -1.
        -11    1    3    3    0    0 -0.16589896960E+02 -0.37586739478E+01  0.51149383875E+01  0.17762739258E+02  0.51100000000E-03 0.  1.
        -12    1    3    3    0    0  0.24104629028E+02  0.68992530296E+01 -0.34283263999E+02  0.42473227136E+02  0.00000000000E+00 0.  1.
</event>
<event>
 7    1  0.4520336E-015  0.9000786E+02  0.7816164E-02  0.1186339E+00
        -11   -1    0    0    0    0  0.00000000000E+00  0.00000000000E+00  0.45593999997E+02  0.45594000000E+02  0.51100000000E-03 0.  1.
         11   -1    0    0    0    0 -0.00000000000E+00 -0.00000000000E+00 -0.45593999997E+02  0.45594000000E+02  0.51100000000E-03 0. -1.
    9900012    2    1    2    0    0 -0.59885626978E+00  0.17409144912E+00  0.10018920917E+01  0.90007862539E+02  0.90000125524E+02 0.  0.
         12    1    1    2    0    0  0.59885626978E+00 -0.17409144912E+00 -0.10018920917E+01  0.11801374614E+01  0.00000000000E+00 0. -1.
         11    1    3    3    0    0 -0.16320282571E+01 -0.85607999619E+01 -0.29231141956E+01  0.91921384390E+01  0.51100000000E-03 0. -1.
        -11    1    3    3    0    0 -0.27030645450E+02  0.47029874479E+01  0.31149031612E+02  0.41509469462E+02  0.51100000000E-03 0.  1.
         12    1    3    3    0    0  0.28063817438E+02  0.40319039631E+01 -0.27224025325E+02  0.39306254637E+02  0.00000000000E+00 0. -1.
</event>
<event>
 7    1  0.4520336E-015  0.9000770E+02  0.7816164E-02  0.1186339E+00
        -11   -1    0    0    0    0  0.00000000000E+00  0.00000000000E+00  0.45593999997E+02  0.45594000000E+02  0.51100000000E-03 0.  1.
         11   -1    0    0    0    0 -0.00000000000E+00 -0.00000000000E+00 -0.45593999997E+02  0.45594000000E+02  0.51100000000E-03 0. -1.
    9900012    2    1    2    0    0 -0.89488890982E+00 -0.72935965720E+00  0.24559177377E+00  0.90007700466E+02  0.89999961312E+02 0.  0.
         12    1    1    2    0    0  0.89488890982E+00  0.72935965720E+00 -0.24559177377E+00  0.11802995339E+01  0.00000000000E+00 0. -1.
         11    1    3    3    0    0 -0.49342755169E+01 -0.61399552034E+01 -0.28175109419E+01  0.83656734902E+01  0.51100000000E-03 0. -1.
        -11    1    3    3    0    0  0.33661919597E+01 -0.37509351854E+02  0.77899536772E+01  0.38457328344E+02  0.51100000000E-03 0.  1.
         12    1    3    3    0    0  0.67319464737E+00  0.42919947400E+02 -0.47268509615E+01  0.43184698632E+02  0.00000000000E+00 0. -1.
</event>
<event>
 7    1  0.4520336E-015  0.9000770E+02  0.7816164E-02  0.1186339E+00
        -11   -1    0    0    0    0  0.00000000000E+00  0.00000000000E+00  0.45593999997E+02  0.45594000000E+02  0.51100000000E-03 0.  1.
         11   -1    0    0    0    0 -0.00000000000E+00 -0.00000000000E+00 -0.45593999997E+02  0.45594000000E+02  0.51100000000E-03 0. -1.
    9900012    2    1    2    0    0  0.68588421006E+00  0.15977697159E+00  0.94717281042E+00  0.90007702511E+02  0.89999963384E+02 0.  0.
         12    1    1    2    0    0 -0.68588421006E+00 -0.15977697159E+00 -0.94717281042E+00  0.11802974892E+01  0.00000000000E+00 0. -1.
         11    1    3    3    0    0  0.27411681791E+01 -0.51401894682E+01 -0.36869575126E+02  0.37326948991E+02  0.51100000000E-03 0. -1.
        -11    1    3    3    0    0 -0.30134346534E+01 -0.94488076201E+01 -0.20807886016E+01  0.10133628931E+02  0.51100000000E-03 0.  1.
        -12    1    3    3    0    0  0.95815068433E+00  0.14748774060E+02  0.39897536538E+02  0.42547124589E+02  0.00000000000E+00 0.  1.
</event>
<event>
 7    1  0.4520336E-015  0.9000767E+02  0.7816164E-02  0.1186339E+00
        -11   -1    0    0    0    0  0.00000000000E+00  0.00000000000E+00  0.45593999997E+02  0.45594000000E+02  0.51100000000E-03 0. -1.
         11   -1    0    0    0    0 -0.00000000000E+00 -0.00000000000E+00 -0.45593999997E+02  0.45594000000E+02  0.51100000000E-03 0.  1.
    9900012    2    1    2    0    0 -0.85205925635E+00 -0.81220996639E+00 -0.86586077200E-01  0.90007666507E+02  0.89999926905E+02 0.  0.
         12    1    1    2    0    0  0.85205925635E+00  0.81220996639E+00  0.86586077200E-01  0.11803334930E+01  0.00000000000E+00 0. -1.
         11    1    3    3    0    0  0.37567364964E+01  0.61696064781E+01  0.80346889235E+00  0.72679210040E+01  0.51100000000E-03 0. -1.
        -11    1    3    3    0    0  0.22663369799E+02 -0.17493547308E+02 -0.30013932901E+02  0.41478774048E+02  0.51100000000E-03 0.  1.
         12    1    3    3    0    0 -0.27272165552E+02  0.10511730863E+02  0.29123877932E+02  0.41260971455E+02  0.00000000000E+00 0. -1.
</event>
<event>
 7    1  0.4520336E-015  0.9000765E+02  0.7816164E-02  0.1186339E+00
        -11   -1    0    0    0    0  0.00000000000E+00  0.00000000000E+00  0.45593999997E+02  0.45594000000E+02  0.51100000000E-03 0.  1.
         11   -1    0    0    0    0 -0.00000000000E+00 -0.00000000000E+00 -0.45593999997E+02  0.45594000000E+02  0.51100000000E-03 0. -1.
    9900012    2    1    2    0    0 -0.49217592558E+00 -0.71913894260E+00  0.79613587220E+00  0.90007648236E+02  0.89999908392E+02 0.  0.
         12    1    1    2    0    0  0.49217592558E+00  0.71913894260E+00 -0.79613587220E+00  0.11803517643E+01  0.00000000000E+00 0. -1.
         11    1    3    3    0    0  0.62130647702E+01  0.42073337616E+01  0.43175641974E+01  0.86570891228E+01  0.51100000000E-03 0. -1.
        -11    1    3    3    0    0 -0.20936415027E+01  0.27834233634E+02  0.25149881732E+02  0.37571857130E+02  0.51100000000E-03 0.  1.
         12    1    3    3    0    0 -0.46115991931E+01 -0.32760706339E+02 -0.28671310058E+02  0.43778701983E+02  0.00000000000E+00 0. -1.
</event>
<event>
 7    1  0.4520336E-015  0.9000770E+02  0.7816164E-02  0.1186339E+00
        -11   -1    0    0    0    0  0.00000000000E+00  0.00000000000E+00  0.45593999997E+02  0.45594000000E+02  0.51100000000E-03 0.  1.
         11   -1    0    0    0    0 -0.00000000000E+00 -0.00000000000E+00 -0.45593999997E+02  0.45594000000E+02  0.51100000000E-03 0. -1.
    9900012    2    1    2    0    0  0.63800163153E+00 -0.91839345671E+00 -0.37764275336E+00  0.90007700601E+02  0.89999961448E+02 0.  0.
         12    1    1    2    0    0 -0.63800163153E+00  0.91839345671E+00  0.37764275336E+00  0.11802993994E+01  0.00000000000E+00 0. -1.
         11    1    3    3    0    0 -0.44828563794E+01 -0.77546378811E+01 -0.44786746335E+01  0.10014436415E+02  0.51100000000E-03 0. -1.
        -11    1    3    3    0    0  0.13556376568E+02  0.34919790570E+01 -0.36132281713E+02  0.38749336064E+02  0.51100000000E-03 0.  1.
         12    1    3    3    0    0 -0.84355185572E+01  0.33442653674E+01  0.40233313593E+02  0.41243928121E+02  0.00000000000E+00 0. -1.
</event>
<event>
 7    1  0.4520336E-015  0.9000769E+02  0.7816164E-02  0.1186339E+00
        -11   -1    0    0    0    0  0.00000000000E+00  0.00000000000E+00  0.45593999997E+02  0.45594000000E+02  0.51100000000E-03 0.  1.
         11   -1    0    0    0    0 -0.00000000000E+00 -0.00000000000E+00 -0.45593999997E+02  0.45594000000E+02  0.51100000000E-03 0. -1.
    9900012    2    1    2    0    0  0.10031871074E+01  0.50874838101E+00  0.35765726022E+00  0.90007691564E+02  0.89999952293E+02 0.  0.
         12    1    1    2    0    0 -0.10031871074E+01 -0.50874838101E+00 -0.35765726022E+00  0.11803084357E+01  0.00000000000E+00 0. -1.
         11    1    3    3    0    0  0.82928700167E+01  0.56622141438E+01  0.15773555693E+00  0.10042770678E+02  0.51100000000E-03 0. -1.
        -11    1    3    3    0    0  0.27224019505E+02  0.82456665619E+00  0.25060593239E+02  0.37011626308E+02  0.51100000000E-03 0.  1.
         12    1    3    3    0    0 -0.34513702414E+02 -0.59780324190E+01 -0.24860671536E+02  0.42953294579E+02  0.00000000000E+00 0. -1.
</event>
<event>
 7    1  0.4520336E-015  0.9000768E+02  0.7816164E-02  0.1186339E+00
        -11   -1    0    0    0    0  0.00000000000E+00  0.00000000000E+00  0.45593999997E+02  0.45594000000E+02  0.51100000000E-03 0.  1.
         11   -1    0    0    0    0 -0.00000000000E+00 -0.00000000000E+00 -0.45593999997E+02  0.45594000000E+02  0.51100000000E-03 0. -1.
    9900012    2    1    2    0    0 -0.72059000240E+00 -0.83678999534E+00  0.41674567093E+00  0.90007684618E+02  0.89999945254E+02 0.  0.
         12    1    1    2    0    0  0.72059000240E+00  0.83678999534E+00 -0.41674567093E+00  0.11803153825E+01  0.00000000000E+00 0. -1.
         11    1    3    3    0    0 -0.24541924413E+02 -0.12094428834E+02 -0.21808343332E+02  0.34988356662E+02  0.51100000000E-03 0. -1.
        -11    1    3    3    0    0 -0.25829004049E+01 -0.74017885869E+00 -0.10763993699E+02  0.11094268784E+02  0.51100000000E-03 0.  1.
        -12    1    3    3    0    0  0.26404234816E+02  0.11997817697E+02  0.32989082702E+02  0.43925059172E+02  0.00000000000E+00 0.  1.
</event>
<event>
 7    1  0.4520336E-015  0.9000790E+02  0.7816164E-02  0.1186339E+00
        -11   -1    0    0    0    0  0.00000000000E+00  0.00000000000E+00  0.45593999997E+02  0.45594000000E+02  0.51100000000E-03 0.  1.
         11   -1    0    0    0    0 -0.00000000000E+00 -0.00000000000E+00 -0.45593999997E+02  0.45594000000E+02  0.51100000000E-03 0. -1.
    9900012    2    1    2    0    0 -0.35315790763E+00  0.46815566657E+00  0.10240823505E+01  0.90007900472E+02  0.90000163958E+02 0.  0.
         12    1    1    2    0    0  0.35315790763E+00 -0.46815566657E+00 -0.10240823505E+01  0.11800995282E+01  0.00000000000E+00 0. -1.
         11    1    3    3    0    0  0.53034716517E+01 -0.57004688211E+01  0.61990228685E+01  0.99523887146E+01  0.51100000000E-03 0. -1.
        -11    1    3    3    0    0  0.17234413147E+02  0.11991656514E+02  0.30645821923E+02  0.37148233121E+02  0.51100000000E-03 0.  1.
         12    1    3    3    0    0 -0.22891042706E+02 -0.58230320261E+01 -0.35820762441E+02  0.42907278636E+02  0.00000000000E+00 0. -1.
</event>
<event>
 7    1  0.4520336E-015  0.9000754E+02  0.7816164E-02  0.1186339E+00
        -11   -1    0    0    0    0  0.00000000000E+00  0.00000000000E+00  0.45593999997E+02  0.45594000000E+02  0.51100000000E-03 0. -1.
         11   -1    0    0    0    0 -0.00000000000E+00 -0.00000000000E+00 -0.45593999997E+02  0.45594000000E+02  0.51100000000E-03 0.  1.
    9900012    2    1    2    0    0 -0.61408584633E+00  0.81932629789E+00 -0.58743370603E+00  0.90007544424E+02  0.89999803210E+02 0.  0.
         12    1    1    2    0    0  0.61408584633E+00 -0.81932629789E+00  0.58743370603E+00  0.11804555765E+01  0.00000000000E+00 0. -1.
         11    1    3    3    0    0 -0.11199881428E+02 -0.29778582979E+02 -0.19716612001E+02  0.37429215024E+02  0.51100000000E-03 0. -1.
        -11    1    3    3    0    0 -0.13026237125E+00 -0.82815023522E+01  0.93539365526E+00  0.83351791251E+01  0.51100000000E-03 0.  1.
        -12    1    3    3    0    0  0.10716057953E+02  0.38879411629E+02  0.18193784640E+02  0.44243150274E+02  0.00000000000E+00 0.  1.
</event>
<event>
 7    1  0.4520336E-015  0.9000775E+02  0.7816164E-02  0.1186339E+00
        -11   -1    0    0    0    0  0.00000000000E+00  0.00000000000E+00  0.45593999997E+02  0.45594000000E+02  0.51100000000E-03 0.  1.
         11   -1    0    0    0    0 -0.00000000000E+00 -0.00000000000E+00 -0.45593999997E+02  0.45594000000E+02  0.51100000000E-03 0. -1.
    9900012    2    1    2    0    0  0.65690492556E+00 -0.85404528672E+00  0.48174084895E+00  0.90007749315E+02  0.90000010806E+02 0.  0.
         12    1    1    2    0    0 -0.65690492556E+00  0.85404528672E+00 -0.48174084895E+00  0.11802506846E+01  0.00000000000E+00 0. -1.
         11    1    3    3    0    0 -0.63418555653E+01 -0.63930442839E+01 -0.13806151676E+01  0.91102275344E+01  0.51100000000E-03 0. -1.
        -11    1    3    3    0    0 -0.26083655910E+02 -0.10959107320E+02  0.24604303736E+02  0.37494411604E+02  0.51100000000E-03 0.  1.
         12    1    3    3    0    0  0.33082416401E+02  0.16498106318E+02 -0.22741947720E+02  0.43403110177E+02  0.00000000000E+00 0. -1.
</event>
<event>
 7    1  0.4520336E-015  0.9000763E+02  0.7816164E-02  0.1186339E+00
        -11   -1    0    0    0    0  0.00000000000E+00  0.00000000000E+00  0.45593999997E+02  0.45594000000E+02  0.51100000000E-03 0. -1.
         11   -1    0    0    0    0 -0.00000000000E+00 -0.00000000000E+00 -0.45593999997E+02  0.45594000000E+02  0.51100000000E-03 0.  1.
    9900012    2    1    2    0    0 -0.15088386242E+00  0.11685929591E+01  0.69962729886E-01  0.90007631317E+02  0.89999891250E+02 0.  0.
         12    1    1    2    0    0  0.15088386242E+00 -0.11685929591E+01 -0.69962729886E-01  0.11803686829E+01  0.00000000000E+00 0. -1.
         11    1    3    3    0    0  0.60292740464E+01  0.37699862391E+01  0.54327386366E+01  0.89487200830E+01  0.51100000000E-03 0. -1.
        -11    1    3    3    0    0 -0.10295203548E+02 -0.37178683296E+02 -0.19801285716E+02  0.43362848430E+02  0.51100000000E-03 0.  1.
         12    1    3    3    0    0  0.41150456396E+01  0.34577290016E+02  0.14438509809E+02  0.37696062804E+02  0.00000000000E+00 0. -1.
</event>
<event>
 7    1  0.4520336E-015  0.9000775E+02  0.7816164E-02  0.1186339E+00
        -11   -1    0    0    0    0  0.00000000000E+00  0.00000000000E+00  0.45593999997E+02  0.45594000000E+02  0.51100000000E-03 0.  1.
         11   -1    0    0    0    0 -0.00000000000E+00 -0.00000000000E+00 -0.45593999997E+02  0.45594000000E+02  0.51100000000E-03 0. -1.
    9900012    2    1    2    0    0  0.90460993999E+00 -0.75582946149E+00  0.58172873670E-01  0.90007753669E+02  0.90000015218E+02 0.  0.
         12    1    1    2    0    0 -0.90460993999E+00  0.75582946149E+00 -0.58172873670E-01  0.11802463309E+01  0.00000000000E+00 0. -1.
         11    1    3    3    0    0 -0.18288825390E+02 -0.34977398906E+02 -0.70147648041E+01  0.40088732755E+02  0.51100000000E-03 0. -1.
        -11    1    3    3    0    0 -0.68349601254E+01  0.34157562539E+01  0.57587406026E+01  0.95680282342E+01  0.51100000000E-03 0.  1.
        -12    1    3    3    0    0  0.26028395455E+02  0.30805813191E+02  0.13141970751E+01  0.40350992680E+02  0.00000000000E+00 0.  1.
</event>
<event>
 7    1  0.4520336E-015  0.9000780E+02  0.7816164E-02  0.1186339E+00
        -11   -1    0    0    0    0  0.00000000000E+00  0.00000000000E+00  0.45593999997E+02  0.45594000000E+02  0.51100000000E-03 0. -1.
         11   -1    0    0    0    0 -0.00000000000E+00 -0.00000000000E+00 -0.45593999997E+02  0.45594000000E+02  0.51100000000E-03 0.  1.
    9900012    2    1    2    0    0  0.33985933074E+00 -0.11260729088E+01  0.96586868215E-01  0.90007799346E+02  0.90000061497E+02 0.  0.
         12    1    1    2    0    0 -0.33985933074E+00  0.11260729088E+01 -0.96586868215E-01  0.11802006540E+01  0.00000000000E+00 0. -1.
         11    1    3    3    0    0  0.22899576279E+02 -0.34006169556E+02  0.53945021344E+00  0.41001233743E+02  0.51100000000E-03 0. -1.
        -11    1    3    3    0    0 -0.84636530839E+01  0.82089210681E+01 -0.13338763999E+02  0.17802877125E+02  0.51100000000E-03 0.  1.
        -12    1    3    3    0    0 -0.14096063865E+02  0.24671175580E+02  0.12895900654E+02  0.31203688478E+02  0.00000000000E+00 0.  1.
</event>
<event>
 7    1  0.4520336E-015  0.9000777E+02  0.7816164E-02  0.1186339E+00
        -11   -1    0    0    0    0  0.00000000000E+00  0.00000000000E+00  0.45593999997E+02  0.45594000000E+02  0.51100000000E-03 0.  1.
         11   -1    0    0    0    0 -0.00000000000E+00 -0.00000000000E+00 -0.45593999997E+02  0.45594000000E+02  0.51100000000E-03 0. -1.
    9900012    2    1    2    0    0  0.16804810162E+00 -0.49513241860E+00  0.10580883482E+01  0.90007768146E+02  0.90000029886E+02 0.  0.
         12    1    1    2    0    0 -0.16804810162E+00  0.49513241860E+00 -0.10580883482E+01  0.11802318539E+01  0.00000000000E+00 0. -1.
         11    1    3    3    0    0 -0.30282437233E+01  0.25022086753E+01  0.11487507964E+02  0.12140599153E+02  0.51100000000E-03 0. -1.
        -11    1    3    3    0    0  0.60464084990E+01  0.16776300477E+02  0.28782626416E+02  0.33859162676E+02  0.51100000000E-03 0.  1.
         12    1    3    3    0    0 -0.28501166741E+01 -0.19773641571E+02 -0.39212046032E+02  0.44008006318E+02  0.00000000000E+00 0. -1.
</event>
<event>
 7    1  0.4520336E-015  0.9000776E+02  0.7816164E-02  0.1186339E+00
        -11   -1    0    0    0    0  0.00000000000E+00  0.00000000000E+00  0.45593999997E+02  0.45594000000E+02  0.51100000000E-03 0.  1.
         11   -1    0    0    0    0 -0.00000000000E+00 -0.00000000000E+00 -0.45593999997E+02  0.45594000000E+02  0.51100000000E-03 0. -1.
    9900012    2    1    2    0    0 -0.92266776502E+00 -0.28394155068E+00 -0.67899666986E+00  0.90007756344E+02  0.90000017928E+02 0.  0.
         12    1    1    2    0    0  0.92266776502E+00  0.28394155068E+00  0.67899666986E+00  0.11802436556E+01  0.00000000000E+00 0. -1.
         11    1    3    3    0    0 -0.46023964833E+01 -0.31516557734E+02 -0.15664596306E+02  0.35494436782E+02  0.51100000000E-03 0. -1.
        -11    1    3    3    0    0  0.40508559493E+01 -0.10103092232E+02  0.12641304354E+01  0.10958098949E+02  0.51100000000E-03 0.  1.
        -12    1    3    3    0    0 -0.37112723098E+00  0.41335708415E+02  0.13721469201E+02  0.43555220613E+02  0.00000000000E+00 0.  1.
</event>
<event>
 7    1  0.4520336E-015  0.9000846E+02  0.7816164E-02  0.1186338E+00
        -11   -1    0    0    0    0  0.00000000000E+00  0.00000000000E+00  0.45593999997E+02  0.45594000000E+02  0.51100000000E-03 0.  1.
         11   -1    0    0    0    0 -0.00000000000E+00 -0.00000000000E+00 -0.45593999997E+02  0.45594000000E+02  0.51100000000E-03 0. -1.
    9900012    2    1    2    0    0 -0.36726042716E-01  0.75033288410E+00  0.90938236363E+00  0.90008455799E+02  0.90000726612E+02 0.  0.
         12    1    1    2    0    0  0.36726042716E-01 -0.75033288410E+00 -0.90938236363E+00  0.11795442012E+01  0.00000000000E+00 0. -1.
         11    1    3    3    0    0 -0.51343875713E+01  0.34967688018E+02  0.13214776548E+02  0.37732366220E+02  0.51100000000E-03 0. -1.
        -11    1    3    3    0    0  0.70102049811E+01  0.66095319343E+01 -0.46318742495E+01  0.10690329536E+02  0.51100000000E-03 0.  1.
        -12    1    3    3    0    0 -0.19125434526E+01 -0.40826887068E+02 -0.76735199351E+01  0.41585760043E+02  0.00000000000E+00 0.  1.
</event>
<event>
 7    1  0.4520336E-015  0.9000770E+02  0.7816164E-02  0.1186339E+00
        -11   -1    0    0    0    0  0.00000000000E+00  0.00000000000E+00  0.45593999997E+02  0.45594000000E+02  0.51100000000E-03 0.  1.
         11   -1    0    0    0    0 -0.00000000000E+00 -0.00000000000E+00 -0.45593999997E+02  0.45594000000E+02  0.51100000000E-03 0. -1.
    9900012    2    1    2    0    0 -0.42536726540E+00 -0.11004732377E+01 -0.33546624175E-01  0.90007701719E+02  0.89999962581E+02 0.  0.
         12    1    1    2    0    0  0.42536726540E+00  0.11004732377E+01  0.33546624175E-01  0.11802982815E+01  0.00000000000E+00 0. -1.
         11    1    3    3    0    0 -0.10838776375E+02  0.25174927646E+02 -0.29304918804E+02  0.40125232979E+02  0.51100000000E-03 0. -1.
        -11    1    3    3    0    0  0.84805381629E+01  0.30794451638E-01 -0.22566284726E+01  0.87756964484E+01  0.51100000000E-03 0.  1.
        -12    1    3    3    0    0  0.19328709467E+01 -0.26306195335E+02  0.31528000652E+02  0.41106772291E+02  0.00000000000E+00 0.  1.
</event>
<event>
 7    1  0.4520336E-015  0.9000778E+02  0.7816164E-02  0.1186339E+00
        -11   -1    0    0    0    0  0.00000000000E+00  0.00000000000E+00  0.45593999997E+02  0.45594000000E+02  0.51100000000E-03 0.  1.
         11   -1    0    0    0    0 -0.00000000000E+00 -0.00000000000E+00 -0.45593999997E+02  0.45594000000E+02  0.51100000000E-03 0. -1.
    9900012    2    1    2    0    0  0.72634131285E+00  0.79179645659E+00  0.48825650994E+00  0.90007784871E+02  0.90000046831E+02 0.  0.
         12    1    1    2    0    0 -0.72634131285E+00 -0.79179645659E+00 -0.48825650994E+00  0.11802151291E+01  0.00000000000E+00 0. -1.
         11    1    3    3    0    0 -0.67097471979E+01  0.31818960197E+02 -0.24346604096E+02  0.40622950001E+02  0.51100000000E-03 0. -1.
        -11    1    3    3    0    0  0.30070516934E+01  0.51338776884E+01  0.56763187212E+01  0.82231170788E+01  0.51100000000E-03 0.  1.
        -12    1    3    3    0    0  0.44290368173E+01 -0.36161041429E+02  0.19158541885E+02  0.41161717791E+02  0.00000000000E+00 0.  1.
</event>
<event>
 7    1  0.4520336E-015  0.9000779E+02  0.7816164E-02  0.1186339E+00
        -11   -1    0    0    0    0  0.00000000000E+00  0.00000000000E+00  0.45593999997E+02  0.45594000000E+02  0.51100000000E-03 0.  1.
         11   -1    0    0    0    0 -0.00000000000E+00 -0.00000000000E+00 -0.45593999997E+02  0.45594000000E+02  0.51100000000E-03 0. -1.
    9900012    2    1    2    0    0  0.71940660586E+00  0.93099232816E+00 -0.92757386940E-01  0.90007789632E+02  0.90000051655E+02 0.  0.
         12    1    1    2    0    0 -0.71940660586E+00 -0.93099232816E+00  0.92757386940E-01  0.11802103679E+01  0.00000000000E+00 0. -1.
         11    1    3    3    0    0  0.18745270021E+02  0.21666534636E+02 -0.22895152709E+02  0.36674403732E+02  0.51100000000E-03 0. -1.
        -11    1    3    3    0    0  0.25144133750E+01  0.10513593499E+02  0.55117962060E+01  0.12134159244E+02  0.51100000000E-03 0.  1.
        -12    1    3    3    0    0 -0.20540276790E+02 -0.31249135806E+02  0.17290599116E+02  0.41199226656E+02  0.00000000000E+00 0.  1.
</event>
<event>
 7    1  0.4520336E-015  0.9000776E+02  0.7816164E-02  0.1186339E+00
        -11   -1    0    0    0    0  0.00000000000E+00  0.00000000000E+00  0.45593999997E+02  0.45594000000E+02  0.51100000000E-03 0.  1.
         11   -1    0    0    0    0 -0.00000000000E+00 -0.00000000000E+00 -0.45593999997E+02  0.45594000000E+02  0.51100000000E-03 0. -1.
    9900012    2    1    2    0    0  0.65048008980E+00 -0.95708243258E+00 -0.23204527780E+00  0.90007755898E+02  0.90000017476E+02 0.  0.
         12    1    1    2    0    0 -0.65048008980E+00  0.95708243258E+00  0.23204527780E+00  0.11802441023E+01  0.00000000000E+00 0. -1.
         11    1    3    3    0    0  0.16998861208E+01 -0.77402175493E+01  0.17395023129E+01  0.81133500536E+01  0.51100000000E-03 0. -1.
        -11    1    3    3    0    0  0.38535193664E+02 -0.84077517157E+01 -0.20502303686E+01  0.39494998221E+02  0.51100000000E-03 0.  1.
         12    1    3    3    0    0 -0.39584599695E+02  0.15190886832E+02  0.78682777886E-01  0.42399407623E+02  0.00000000000E+00 0. -1.
</event>
<event>
 7    1  0.4520336E-015  0.9000822E+02  0.7816164E-02  0.1186338E+00
        -11   -1    0    0    0    0  0.00000000000E+00  0.00000000000E+00  0.45593999997E+02  0.45594000000E+02  0.51100000000E-03 0. -1.
         11   -1    0    0    0    0 -0.00000000000E+00 -0.00000000000E+00 -0.45593999997E+02  0.45594000000E+02  0.51100000000E-03 0.  1.
    9900012    2    1    2    0    0 -0.10203504235E+01  0.36570576411E+00 -0.46585507472E+00  0.90008221782E+02  0.90000489508E+02 0.  0.
         12    1    1    2    0    0  0.10203504235E+01 -0.36570576411E+00  0.46585507472E+00  0.11797782179E+01  0.00000000000E+00 0. -1.
         11    1    3    3    0    0 -0.25844823785E+02 -0.20983511767E+02  0.25334764982E+02  0.41834351907E+02  0.51100000000E-03 0. -1.
        -11    1    3    3    0    0  0.47735679138E+00 -0.33150033820E+01 -0.91121455913E+01  0.97081571097E+01  0.51100000000E-03 0.  1.
        -12    1    3    3    0    0  0.24347116570E+02  0.24664220913E+02 -0.16688474466E+02  0.38465712765E+02  0.00000000000E+00 0.  1.
</event>
<event>
 7    1  0.4520336E-015  0.9000774E+02  0.7816164E-02  0.1186339E+00
        -11   -1    0    0    0    0  0.00000000000E+00  0.00000000000E+00  0.45593999997E+02  0.45594000000E+02  0.51100000000E-03 0.  1.
         11   -1    0    0    0    0 -0.00000000000E+00 -0.00000000000E+00 -0.45593999997E+02  0.45594000000E+02  0.51100000000E-03 0. -1.
    9900012    2    1    2    0    0  0.17367893618E+00  0.11995256887E+00  0.11612296784E+01  0.90007742673E+02  0.90000004076E+02 0.  0.
         12    1    1    2    0    0 -0.17367893618E+00 -0.11995256887E+00 -0.11612296784E+01  0.11802573269E+01  0.00000000000E+00 0. -1.
         11    1    3    3    0    0 -0.58910379437E+01  0.71411357561E+01 -0.36900992249E+00  0.92647890707E+01  0.51100000000E-03 0. -1.
        -11    1    3    3    0    0  0.12921859346E+02  0.27077911987E+02  0.24774078925E+02  0.38909417283E+02  0.51100000000E-03 0.  1.
         12    1    3    3    0    0 -0.68571424656E+01 -0.34099095174E+02 -0.23243839324E+02  0.41833536319E+02  0.00000000000E+00 0. -1.
</event>
<event>
 7    1  0.4520336E-015  0.9000771E+02  0.7816164E-02  0.1186339E+00
        -11   -1    0    0    0    0  0.00000000000E+00  0.00000000000E+00  0.45593999997E+02  0.45594000000E+02  0.51100000000E-03 0.  1.
         11   -1    0    0    0    0 -0.00000000000E+00 -0.00000000000E+00 -0.45593999997E+02  0.45594000000E+02  0.51100000000E-03 0. -1.
    9900012    2    1    2    0    0  0.52716628071E+00 -0.44337108323E+00 -0.95843760942E+00  0.90007709842E+02  0.89999970812E+02 0.  0.
         12    1    1    2    0    0 -0.52716628071E+00  0.44337108323E+00  0.95843760942E+00  0.11802901576E+01  0.00000000000E+00 0. -1.
         11    1    3    3    0    0 -0.13024749277E+02  0.15536058026E+02 -0.44143444329E+01  0.20748484999E+02  0.51100000000E-03 0. -1.
        -11    1    3    3    0    0  0.62256616676E+01 -0.13359411468E+02 -0.30792504569E+02  0.34138117637E+02  0.51100000000E-03 0.  1.
        -12    1    3    3    0    0  0.73262538903E+01 -0.26200176411E+01  0.34248411392E+02  0.35121107206E+02  0.00000000000E+00 0.  1.
</event>
<event>
 7    1  0.4520336E-015  0.9000774E+02  0.7816164E-02  0.1186339E+00
        -11   -1    0    0    0    0  0.00000000000E+00  0.00000000000E+00  0.45593999997E+02  0.45594000000E+02  0.51100000000E-03 0.  1.
         11   -1    0    0    0    0 -0.00000000000E+00 -0.00000000000E+00 -0.45593999997E+02  0.45594000000E+02  0.51100000000E-03 0. -1.
    9900012    2    1    2    0    0  0.67258570660E+00 -0.87248420746E+00 -0.42357433185E+00  0.90007739249E+02  0.90000000607E+02 0.  0.
         12    1    1    2    0    0 -0.67258570660E+00  0.87248420746E+00  0.42357433185E+00  0.11802607507E+01  0.00000000000E+00 0. -1.
         11    1    3    3    0    0  0.31458070070E+01  0.11242993114E+02 -0.12733096658E+01  0.11744033109E+02  0.51100000000E-03 0. -1.
        -11    1    3    3    0    0 -0.36489050090E+01  0.23828875196E+02  0.25167541225E+02  0.34850178370E+02  0.51100000000E-03 0.  1.
         12    1    3    3    0    0  0.11756837087E+01 -0.35944352518E+02 -0.24317805891E+02  0.43413527770E+02  0.00000000000E+00 0. -1.
</event>
<event>
 7    1  0.4520336E-015  0.9000690E+02  0.7816164E-02  0.1186341E+00
        -11   -1    0    0    0    0  0.00000000000E+00  0.00000000000E+00  0.45593999997E+02  0.45594000000E+02  0.51100000000E-03 0.  1.
         11   -1    0    0    0    0 -0.00000000000E+00 -0.00000000000E+00 -0.45593999997E+02  0.45594000000E+02  0.51100000000E-03 0. -1.
    9900012    2    1    2    0    0  0.10388609517E+01  0.55984424624E+00  0.48444742824E-01  0.90006896893E+02  0.89999147128E+02 0.  0.
         12    1    1    2    0    0 -0.10388609517E+01 -0.55984424624E+00 -0.48444742824E-01  0.11811031073E+01  0.00000000000E+00 0. -1.
         11    1    3    3    0    0 -0.58205601039E+01 -0.35798877276E+02 -0.84117292032E+01  0.37231649475E+02  0.51100000000E-03 0. -1.
        -11    1    3    3    0    0  0.89916370613E+01 -0.45496677500E+01 -0.24755059686E+01  0.10376759790E+02  0.51100000000E-03 0.  1.
        -12    1    3    3    0    0 -0.21322160057E+01  0.40908389272E+02  0.10935679915E+02  0.42398487628E+02  0.00000000000E+00 0.  1.
</event>
<event>
 7    1  0.4520336E-015  0.9000862E+02  0.7816164E-02  0.1186337E+00
        -11   -1    0    0    0    0  0.00000000000E+00  0.00000000000E+00  0.45593999997E+02  0.45594000000E+02  0.51100000000E-03 0. -1.
         11   -1    0    0    0    0 -0.00000000000E+00 -0.00000000000E+00 -0.45593999997E+02  0.45594000000E+02  0.51100000000E-03 0.  1.
    9900012    2    1    2    0    0  0.11402241288E+01  0.22992224577E+00 -0.19481706732E+00  0.90008623473E+02  0.90000896498E+02 0.  0.
         12    1    1    2    0    0 -0.11402241288E+01 -0.22992224577E+00  0.19481706732E+00  0.11793765271E+01  0.00000000000E+00 0. -1.
         11    1    3    3    0    0  0.31409864117E+02 -0.30309897119E+01  0.51092295230E+01  0.31966712203E+02  0.51100000000E-03 0. -1.
        -11    1    3    3    0    0 -0.82568763768E+01 -0.21579230096E+02 -0.86773061177E+01  0.24680656814E+02  0.51100000000E-03 0.  1.
        -12    1    3    3    0    0 -0.22012763611E+02  0.24840142054E+02  0.33732595273E+01  0.33361254456E+02  0.00000000000E+00 0.  1.
</event>
<event>
 7    1  0.4520336E-015  0.9000782E+02  0.7816164E-02  0.1186339E+00
        -11   -1    0    0    0    0  0.00000000000E+00  0.00000000000E+00  0.45593999997E+02  0.45594000000E+02  0.51100000000E-03 0.  1.
         11   -1    0    0    0    0 -0.00000000000E+00 -0.00000000000E+00 -0.45593999997E+02  0.45594000000E+02  0.51100000000E-03 0. -1.
    9900012    2    1    2    0    0 -0.82801440432E+00 -0.65200789546E+00  0.53113607126E+00  0.90007818795E+02  0.90000081203E+02 0.  0.
         12    1    1    2    0    0  0.82801440432E+00  0.65200789546E+00 -0.53113607126E+00  0.11801812046E+01  0.00000000000E+00 0. -1.
         11    1    3    3    0    0 -0.31941811681E+02 -0.74636267436E+01 -0.16989760805E+02  0.36940993897E+02  0.51100000000E-03 0. -1.
        -11    1    3    3    0    0 -0.77880079972E+01 -0.19856477116E+01 -0.25303914542E+01  0.84260753955E+01  0.51100000000E-03 0.  1.
        -12    1    3    3    0    0  0.38901805274E+02  0.87972665597E+01  0.20051288331E+02  0.44640749503E+02  0.00000000000E+00 0.  1.
</event>
<event>
 7    1  0.4520336E-015  0.9000771E+02  0.7816164E-02  0.1186339E+00
        -11   -1    0    0    0    0  0.00000000000E+00  0.00000000000E+00  0.45593999997E+02  0.45594000000E+02  0.51100000000E-03 0. -1.
         11   -1    0    0    0    0 -0.00000000000E+00 -0.00000000000E+00 -0.45593999997E+02  0.45594000000E+02  0.51100000000E-03 0.  1.
    9900012    2    1    2    0    0 -0.84395877164E+00  0.81906024101E+00  0.99810768260E-01  0.90007708394E+02  0.89999969344E+02 0.  0.
         12    1    1    2    0    0  0.84395877164E+00 -0.81906024101E+00 -0.99810768260E-01  0.11802916064E+01  0.00000000000E+00 0. -1.
         11    1    3    3    0    0 -0.14552608377E+02 -0.28703570869E+02  0.15965838396E+02  0.35924662659E+02  0.51100000000E-03 0. -1.
        -11    1    3    3    0    0 -0.24758514365E+01 -0.78175734252E+01  0.36175760289E+01  0.89627647062E+01  0.51100000000E-03 0.  1.
        -12    1    3    3    0    0  0.16184501041E+02  0.37340204535E+02 -0.19483603657E+02  0.45120281029E+02  0.00000000000E+00 0.  1.
</event>
<event>
 7    1  0.4520336E-015  0.9000774E+02  0.7816164E-02  0.1186339E+00
        -11   -1    0    0    0    0  0.00000000000E+00  0.00000000000E+00  0.45593999997E+02  0.45594000000E+02  0.51100000000E-03 0.  1.
         11   -1    0    0    0    0 -0.00000000000E+00 -0.00000000000E+00 -0.45593999997E+02  0.45594000000E+02  0.51100000000E-03 0. -1.
    9900012    2    1    2    0    0 -0.49639527702E+00 -0.95384778313E+00  0.48659867554E+00  0.90007740649E+02  0.90000002026E+02 0.  0.
         12    1    1    2    0    0  0.49639527702E+00  0.95384778313E+00 -0.48659867554E+00  0.11802593509E+01  0.00000000000E+00 0. -1.
         11    1    3    3    0    0  0.25251718050E+02  0.22266239917E+02  0.21921455919E+02  0.40174431351E+02  0.51100000000E-03 0. -1.
        -11    1    3    3    0    0 -0.22667775960E+01  0.62696482011E+01 -0.43201575940E+00  0.66808238348E+01  0.51100000000E-03 0.  1.
        -12    1    3    3    0    0 -0.23481335731E+02 -0.29489735901E+02 -0.21002841484E+02  0.43152485463E+02  0.00000000000E+00 0.  1.
</event>
<event>
 7    1  0.4520336E-015  0.9000777E+02  0.7816164E-02  0.1186339E+00
        -11   -1    0    0    0    0  0.00000000000E+00  0.00000000000E+00  0.45593999997E+02  0.45594000000E+02  0.51100000000E-03 0.  1.
         11   -1    0    0    0    0 -0.00000000000E+00 -0.00000000000E+00 -0.45593999997E+02  0.45594000000E+02  0.51100000000E-03 0. -1.
    9900012    2    1    2    0    0 -0.65852215394E+00 -0.80145968132E+00 -0.56299202897E+00  0.90007767365E+02  0.90000029094E+02 0.  0.
         12    1    1    2    0    0  0.65852215394E+00  0.80145968132E+00  0.56299202897E+00  0.11802326350E+01  0.00000000000E+00 0. -1.
         11    1    3    3    0    0  0.22413498857E+02 -0.14114709075E+02 -0.16516693009E+02  0.31215238130E+02  0.51100000000E-03 0. -1.
        -11    1    3    3    0    0  0.39479217714E+01  0.24539936128E+02 -0.11838663615E+01  0.24883651085E+02  0.51100000000E-03 0.  1.
        -12    1    3    3    0    0 -0.27019942783E+02 -0.11226686735E+02  0.17137567342E+02  0.33908878150E+02  0.00000000000E+00 0.  1.
</event>
<event>
 7    1  0.4520336E-015  0.9000775E+02  0.7816164E-02  0.1186339E+00
        -11   -1    0    0    0    0  0.00000000000E+00  0.00000000000E+00  0.45593999997E+02  0.45594000000E+02  0.51100000000E-03 0.  1.
         11   -1    0    0    0    0 -0.00000000000E+00 -0.00000000000E+00 -0.45593999997E+02  0.45594000000E+02  0.51100000000E-03 0. -1.
    9900012    2    1    2    0    0 -0.37223154150E+00 -0.11191491437E+01  0.43929147828E-01  0.90007753883E+02  0.90000015434E+02 0.  0.
         12    1    1    2    0    0  0.37223154150E+00  0.11191491437E+01 -0.43929147828E-01  0.11802461168E+01  0.00000000000E+00 0. -1.
         11    1    3    3    0    0  0.12585175293E+02 -0.24252259772E+02 -0.64620876594E+01  0.28076989126E+02  0.51100000000E-03 0. -1.
        -11    1    3    3    0    0  0.14486859513E+02 -0.82403101298E+01 -0.70535853024E+01  0.18097648340E+02  0.51100000000E-03 0.  1.
        -12    1    3    3    0    0 -0.27444266347E+02  0.31373420759E+02  0.13559602110E+02  0.43833116416E+02  0.00000000000E+00 0.  1.
</event>
<event>
 7    1  0.4520336E-015  0.9000772E+02  0.7816164E-02  0.1186339E+00
        -11   -1    0    0    0    0  0.00000000000E+00  0.00000000000E+00  0.45593999997E+02  0.45594000000E+02  0.51100000000E-03 0.  1.
         11   -1    0    0    0    0 -0.00000000000E+00 -0.00000000000E+00 -0.45593999997E+02  0.45594000000E+02  0.51100000000E-03 0. -1.
    9900012    2    1    2    0    0  0.68788531190E+00 -0.78262507961E+00  0.55441988788E+00  0.90007716293E+02  0.89999977348E+02 0.  0.
         12    1    1    2    0    0 -0.68788531190E+00  0.78262507961E+00 -0.55441988788E+00  0.11802837073E+01  0.00000000000E+00 0. -1.
         11    1    3    3    0    0 -0.42631793190E+01  0.13669775077E+01  0.89825460046E+01  0.10036406648E+02  0.51100000000E-03 0. -1.
        -11    1    3    3    0    0  0.12977736506E+02 -0.13499752114E+02  0.32079255848E+02  0.37144900161E+02  0.51100000000E-03 0.  1.
         12    1    3    3    0    0 -0.80266718754E+01  0.11350149527E+02 -0.40507381964E+02  0.42826409484E+02  0.00000000000E+00 0. -1.
</event>
<event>
 7    1  0.4520336E-015  0.9000773E+02  0.7816164E-02  0.1186339E+00
        -11   -1    0    0    0    0  0.00000000000E+00  0.00000000000E+00  0.45593999997E+02  0.45594000000E+02  0.51100000000E-03 0.  1.
         11   -1    0    0    0    0 -0.00000000000E+00 -0.00000000000E+00 -0.45593999997E+02  0.45594000000E+02  0.51100000000E-03 0. -1.
    9900012    2    1    2    0    0  0.62536006516E+00 -0.64285763559E+00  0.76726727609E+00  0.90007728750E+02  0.89999989969E+02 0.  0.
         12    1    1    2    0    0 -0.62536006516E+00  0.64285763559E+00 -0.76726727609E+00  0.11802712500E+01  0.00000000000E+00 0. -1.
         11    1    3    3    0    0 -0.47877510948E+01  0.70937313190E+01  0.17884222396E+01  0.87431138012E+01  0.51100000000E-03 0. -1.
        -11    1    3    3    0    0  0.26287593455E+02  0.54669652580E+01  0.30878988568E+02  0.40919887756E+02  0.51100000000E-03 0.  1.
         12    1    3    3    0    0 -0.20874482295E+02 -0.13203554213E+02 -0.31900143531E+02  0.40344727192E+02  0.00000000000E+00 0. -1.
</event>
<event>
 7    1  0.4520336E-015  0.9000804E+02  0.7816164E-02  0.1186338E+00
        -11   -1    0    0    0    0  0.00000000000E+00  0.00000000000E+00  0.45593999997E+02  0.45594000000E+02  0.51100000000E-03 0. -1.
         11   -1    0    0    0    0 -0.00000000000E+00 -0.00000000000E+00 -0.45593999997E+02  0.45594000000E+02  0.51100000000E-03 0.  1.
    9900012    2    1    2    0    0 -0.69547347277E-01 -0.11738774356E+01  0.97376834335E-01  0.90008039274E+02  0.90000304592E+02 0.  0.
         12    1    1    2    0    0  0.69547347277E-01  0.11738774356E+01 -0.97376834335E-01  0.11799607261E+01  0.00000000000E+00 0. -1.
         11    1    3    3    0    0  0.78473069716E+01 -0.23623391990E+01 -0.68838167358E+01  0.10702700889E+02  0.51100000000E-03 0. -1.
        -11    1    3    3    0    0  0.41240034391E+00  0.28300623172E+02 -0.24139065531E+02  0.37199325679E+02  0.51100000000E-03 0.  1.
         12    1    3    3    0    0 -0.83292546628E+01 -0.27112161409E+02  0.31120259102E+02  0.42106012706E+02  0.00000000000E+00 0. -1.
</event>
<event>
 7    1  0.4520336E-015  0.9000784E+02  0.7816164E-02  0.1186339E+00
        -11   -1    0    0    0    0  0.00000000000E+00  0.00000000000E+00  0.45593999997E+02  0.45594000000E+02  0.51100000000E-03 0. -1.
         11   -1    0    0    0    0 -0.00000000000E+00 -0.00000000000E+00 -0.45593999997E+02  0.45594000000E+02  0.51100000000E-03 0.  1.
    9900012    2    1    2    0    0 -0.61837089745E+00  0.74532882603E+00 -0.67444856755E+00  0.90007839631E+02  0.90000102314E+02 0.  0.
         12    1    1    2    0    0  0.61837089745E+00 -0.74532882603E+00  0.67444856755E+00  0.11801603688E+01  0.00000000000E+00 0. -1.
         11    1    3    3    0    0  0.31474824425E+02  0.19453938268E+02  0.12961326773E+02  0.39206074513E+02  0.51100000000E-03 0. -1.
        -11    1    3    3    0    0  0.14110396247E+01 -0.10270802094E+02  0.50394032001E+01  0.11527184971E+02  0.51100000000E-03 0.  1.
        -12    1    3    3    0    0 -0.33504234947E+02 -0.84378073485E+01 -0.18675178541E+02  0.39274580148E+02  0.00000000000E+00 0.  1.
</event>
<event>
 7    1  0.4520336E-015  0.9000776E+02  0.7816164E-02  0.1186339E+00
        -11   -1    0    0    0    0  0.00000000000E+00  0.00000000000E+00  0.45593999997E+02  0.45594000000E+02  0.51100000000E-03 0. -1.
         11   -1    0    0    0    0 -0.00000000000E+00 -0.00000000000E+00 -0.45593999997E+02  0.45594000000E+02  0.51100000000E-03 0.  1.
    9900012    2    1    2    0    0 -0.83588970624E+00  0.55518543606E+00 -0.62131513069E+00  0.90007756398E+02  0.90000017982E+02 0.  0.
         12    1    1    2    0    0  0.83588970624E+00 -0.55518543606E+00  0.62131513069E+00  0.11802436024E+01  0.00000000000E+00 0. -1.
         11    1    3    3    0    0  0.95274087722E+01 -0.17670165246E+01  0.28607420353E+01  0.10103351452E+02  0.51100000000E-03 0. -1.
        -11    1    3    3    0    0  0.27108252312E+02 -0.92047941827E+01 -0.22422734316E+02  0.36364331340E+02  0.51100000000E-03 0.  1.
         12    1    3    3    0    0 -0.37471550790E+02  0.11526996143E+02  0.18940677150E+02  0.43540073606E+02  0.00000000000E+00 0. -1.
</event>
<event>
 7    1  0.4520336E-015  0.9000772E+02  0.7816164E-02  0.1186339E+00
        -11   -1    0    0    0    0  0.00000000000E+00  0.00000000000E+00  0.45593999997E+02  0.45594000000E+02  0.51100000000E-03 0.  1.
         11   -1    0    0    0    0 -0.00000000000E+00 -0.00000000000E+00 -0.45593999997E+02  0.45594000000E+02  0.51100000000E-03 0. -1.
    9900012    2    1    2    0    0  0.57065208897E+00 -0.10090947187E+01  0.22169017456E+00  0.90007719317E+02  0.89999980412E+02 0.  0.
         12    1    1    2    0    0 -0.57065208897E+00  0.10090947187E+01 -0.22169017456E+00  0.11802806833E+01  0.00000000000E+00 0. -1.
         11    1    3    3    0    0  0.77540437154E+01 -0.17788496264E+02 -0.34476101474E+02  0.39562069794E+02  0.51100000000E-03 0. -1.
        -11    1    3    3    0    0  0.72628765074E+01 -0.26307678276E+01 -0.49167496609E+00  0.77402880475E+01  0.51100000000E-03 0.  1.
        -12    1    3    3    0    0 -0.14446268134E+02  0.19410169373E+02  0.35189466615E+02  0.42705361475E+02  0.00000000000E+00 0.  1.
</event>
<event>
 7    1  0.4520336E-015  0.9000786E+02  0.7816164E-02  0.1186339E+00
        -11   -1    0    0    0    0  0.00000000000E+00  0.00000000000E+00  0.45593999997E+02  0.45594000000E+02  0.51100000000E-03 0.  1.
         11   -1    0    0    0    0 -0.00000000000E+00 -0.00000000000E+00 -0.45593999997E+02  0.45594000000E+02  0.51100000000E-03 0. -1.
    9900012    2    1    2    0    0  0.39237385033E+00  0.11077718050E+01  0.10779537756E+00  0.90007857867E+02  0.90000120791E+02 0.  0.
         12    1    1    2    0    0 -0.39237385033E+00 -0.11077718050E+01 -0.10779537756E+00  0.11801421329E+01  0.00000000000E+00 0. -1.
         11    1    3    3    0    0  0.35691918454E+01 -0.56710412606E+01  0.65860358286E+01  0.93955152921E+01  0.51100000000E-03 0. -1.
        -11    1    3    3    0    0 -0.16001920050E+02 -0.28419972500E+02  0.16615519756E+02  0.36603712643E+02  0.51100000000E-03 0.  1.
         12    1    3    3    0    0  0.12825102055E+02  0.35198785566E+02 -0.23093760207E+02  0.44008629932E+02  0.00000000000E+00 0. -1.
</event>
<event>
 7    1  0.4520336E-015  0.9000809E+02  0.7816164E-02  0.1186338E+00
        -11   -1    0    0    0    0  0.00000000000E+00  0.00000000000E+00  0.45593999997E+02  0.45594000000E+02  0.51100000000E-03 0. -1.
         11   -1    0    0    0    0 -0.00000000000E+00 -0.00000000000E+00 -0.45593999997E+02  0.45594000000E+02  0.51100000000E-03 0.  1.
    9900012    2    1    2    0    0  0.87963139875E+00 -0.50727868761E+00  0.60091616155E+00  0.90008091827E+02  0.90000357838E+02 0.  0.
         12    1    1    2    0    0 -0.87963139875E+00  0.50727868761E+00 -0.60091616155E+00  0.11799081735E+01  0.00000000000E+00 0. -1.
         11    1    3    3    0    0  0.37908132594E+00 -0.27761182705E+02 -0.27234211006E+02  0.38891248594E+02  0.51100000000E-03 0. -1.
        -11    1    3    3    0    0  0.28505698528E+01 -0.69742823382E+01  0.10848836721E+01  0.76120519876E+01  0.51100000000E-03 0.  1.
        -12    1    3    3    0    0 -0.23500197800E+01  0.34228186356E+02  0.26750243496E+02  0.43504791245E+02  0.00000000000E+00 0.  1.
</event>
<event>
 7    1  0.4520336E-015  0.9000852E+02  0.7816164E-02  0.1186337E+00
        -11   -1    0    0    0    0  0.00000000000E+00  0.00000000000E+00  0.45593999997E+02  0.45594000000E+02  0.51100000000E-03 0. -1.
         11   -1    0    0    0    0 -0.00000000000E+00 -0.00000000000E+00 -0.45593999997E+02  0.45594000000E+02  0.51100000000E-03 0.  1.
    9900012    2    1    2    0    0 -0.83388763788E+00 -0.75842032198E+00 -0.34727789696E+00  0.90008520490E+02  0.90000792157E+02 0.  0.
         12    1    1    2    0    0  0.83388763788E+00  0.75842032198E+00  0.34727789696E+00  0.11794795103E+01  0.00000000000E+00 0. -1.
         11    1    3    3    0    0  0.10408230032E+02 -0.16517889157E+02  0.45421657619E+01  0.20045028927E+02  0.51100000000E-03 0. -1.
        -11    1    3    3    0    0  0.11890840045E+02 -0.21821337018E+02 -0.68898976967E+01  0.25788243770E+02  0.51100000000E-03 0.  1.
         12    1    3    3    0    0 -0.23132957714E+02  0.37580805853E+02  0.20004540378E+01  0.44175247793E+02  0.00000000000E+00 0. -1.
</event>
<event>
 7    1  0.4520336E-015  0.9000778E+02  0.7816164E-02  0.1186339E+00
        -11   -1    0    0    0    0  0.00000000000E+00  0.00000000000E+00  0.45593999997E+02  0.45594000000E+02  0.51100000000E-03 0. -1.
         11   -1    0    0    0    0 -0.00000000000E+00 -0.00000000000E+00 -0.45593999997E+02  0.45594000000E+02  0.51100000000E-03 0.  1.
    9900012    2    1    2    0    0  0.10319379084E+01  0.56919306401E+00 -0.63655143172E-01  0.90007776052E+02  0.90000037896E+02 0.  0.
         12    1    1    2    0    0 -0.10319379084E+01 -0.56919306401E+00  0.63655143172E-01  0.11802239483E+01  0.00000000000E+00 0. -1.
         11    1    3    3    0    0 -0.38073157648E+02 -0.15834475601E+02  0.59768500455E+01  0.41665557570E+02  0.51100000000E-03 0. -1.
        -11    1    3    3    0    0  0.32052158884E+01 -0.23451099509E+01 -0.67539442825E+01  0.78350949711E+01  0.51100000000E-03 0.  1.
        -12    1    3    3    0    0  0.35899879668E+02  0.18748778615E+02  0.71343909383E+00  0.40507123511E+02  0.00000000000E+00 0.  1.
</event>
<event>
 7    1  0.4520336E-015  0.9000766E+02  0.7816164E-02  0.1186339E+00
        -11   -1    0    0    0    0  0.00000000000E+00  0.00000000000E+00  0.45593999997E+02  0.45594000000E+02  0.51100000000E-03 0.  1.
         11   -1    0    0    0    0 -0.00000000000E+00 -0.00000000000E+00 -0.45593999997E+02  0.45594000000E+02  0.51100000000E-03 0. -1.
    9900012    2    1    2    0    0  0.86600603526E+00  0.49606305297E+00 -0.63020499175E+00  0.90007659652E+02  0.89999919959E+02 0.  0.
         12    1    1    2    0    0 -0.86600603526E+00 -0.49606305297E+00  0.63020499175E+00  0.11803403481E+01  0.00000000000E+00 0. -1.
         11    1    3    3    0    0 -0.16618673165E+02  0.34316376221E+02 -0.35970600509E+01  0.38297947934E+02  0.51100000000E-03 0. -1.
        -11    1    3    3    0    0 -0.62230252733E+01 -0.35217979334E+01 -0.89306671891E+01  0.11440538490E+02  0.51100000000E-03 0.  1.
        -12    1    3    3    0    0  0.23707704474E+02 -0.30298515234E+02  0.11897522248E+02  0.40269173228E+02  0.00000000000E+00 0.  1.
</event>
<event>
 7    1  0.4520336E-015  0.9000767E+02  0.7816164E-02  0.1186339E+00
        -11   -1    0    0    0    0  0.00000000000E+00  0.00000000000E+00  0.45593999997E+02  0.45594000000E+02  0.51100000000E-03 0.  1.
         11   -1    0    0    0    0 -0.00000000000E+00 -0.00000000000E+00 -0.45593999997E+02  0.45594000000E+02  0.51100000000E-03 0. -1.
    9900012    2    1    2    0    0  0.20939363861E-02  0.19367142395E+00  0.11643333794E+01  0.90007667325E+02  0.89999927734E+02 0.  0.
         12    1    1    2    0    0 -0.20939363861E-02 -0.19367142395E+00 -0.11643333794E+01  0.11803326749E+01  0.00000000000E+00 0. -1.
         11    1    3    3    0    0 -0.71860574003E+01 -0.56443561311E+01 -0.50696725734E+01  0.10449868772E+02  0.51100000000E-03 0. -1.
        -11    1    3    3    0    0  0.80080576437E+01 -0.91182337950E+00  0.42195897499E+02  0.42958749692E+02  0.51100000000E-03 0.  1.
         12    1    3    3    0    0 -0.81990630700E+00  0.67498509346E+01 -0.35961891546E+02  0.36599048861E+02  0.00000000000E+00 0. -1.
</event>
<event>
 7    1  0.4520336E-015  0.9000771E+02  0.7816164E-02  0.1186339E+00
        -11   -1    0    0    0    0  0.00000000000E+00  0.00000000000E+00  0.45593999997E+02  0.45594000000E+02  0.51100000000E-03 0. -1.
         11   -1    0    0    0    0 -0.00000000000E+00 -0.00000000000E+00 -0.45593999997E+02  0.45594000000E+02  0.51100000000E-03 0.  1.
    9900012    2    1    2    0    0 -0.10610474497E+01  0.22802343654E+00  0.46398152746E+00  0.90007705445E+02  0.89999966357E+02 0.  0.
         12    1    1    2    0    0  0.10610474497E+01 -0.22802343654E+00 -0.46398152746E+00  0.11802945548E+01  0.00000000000E+00 0. -1.
         11    1    3    3    0    0  0.25908611209E+02  0.14046443479E+01  0.14387169201E+02  0.29668498419E+02  0.51100000000E-03 0. -1.
        -11    1    3    3    0    0 -0.23527907760E+02  0.22753548883E+02 -0.15286735003E+02  0.36124378162E+02  0.51100000000E-03 0.  1.
         12    1    3    3    0    0 -0.34417508989E+01 -0.23930169794E+02  0.13635473286E+01  0.24214828864E+02  0.00000000000E+00 0. -1.
</event>
<event>
 7    1  0.6041604E-015  0.9000769E+02  0.7816164E-02  0.1186339E+00
        -11   -1    0    0    0    0  0.00000000000E+00  0.00000000000E+00  0.45593999997E+02  0.45594000000E+02  0.51100000000E-03 0.  1.
         11   -1    0    0    0    0 -0.00000000000E+00 -0.00000000000E+00 -0.45593999997E+02  0.45594000000E+02  0.51100000000E-03 0. -1.
    9900012    2    1    2    0    0  0.38092701111E+00 -0.11044690508E+01  0.16785293920E+00  0.90007689922E+02  0.89999950629E+02 0.  0.
         12    1    1    2    0    0 -0.38092701111E+00  0.11044690508E+01 -0.16785293920E+00  0.11803100784E+01  0.00000000000E+00 0. -1.
         11    1    3    3    0    0  0.85708373753E+01 -0.31737391891E+02 -0.21918565511E+02  0.39511325106E+02  0.51100000000E-03 0. -1.
        -11    1    3    3    0    0  0.23184942274E+01  0.39194778530E+01 -0.78156578664E+01  0.90455641210E+01  0.51100000000E-03 0.  1.
        -12    1    3    3    0    0 -0.10508404592E+02  0.26713444987E+02  0.29902076317E+02  0.41450800694E+02  0.00000000000E+00 0.  1.
</event>
<event>
 7    1  0.4520336E-015  0.9000777E+02  0.7816164E-02  0.1186339E+00
        -11   -1    0    0    0    0  0.00000000000E+00  0.00000000000E+00  0.45593999997E+02  0.45594000000E+02  0.51100000000E-03 0.  1.
         11   -1    0    0    0    0 -0.00000000000E+00 -0.00000000000E+00 -0.45593999997E+02  0.45594000000E+02  0.51100000000E-03 0. -1.
    9900012    2    1    2    0    0  0.33545725129E+00 -0.10770473697E+01  0.34696668067E+00  0.90007767615E+02  0.90000029348E+02 0.  0.
         12    1    1    2    0    0 -0.33545725129E+00  0.10770473697E+01 -0.34696668067E+00  0.11802323846E+01  0.00000000000E+00 0. -1.
         11    1    3    3    0    0  0.11123730860E+02  0.78417379741E+01  0.79264773252E+00  0.13632994292E+02  0.51100000000E-03 0. -1.
        -11    1    3    3    0    0  0.16243329773E+02  0.24773273483E+02 -0.11515702598E+02  0.31783207009E+02  0.51100000000E-03 0.  1.
         12    1    3    3    0    0 -0.27031603381E+02 -0.33692058826E+02  0.11070021546E+02  0.44591566314E+02  0.00000000000E+00 0. -1.
</event>
<event>
 7    1  0.4520336E-015  0.9000774E+02  0.7816164E-02  0.1186339E+00
        -11   -1    0    0    0    0  0.00000000000E+00  0.00000000000E+00  0.45593999997E+02  0.45594000000E+02  0.51100000000E-03 0.  1.
         11   -1    0    0    0    0 -0.00000000000E+00 -0.00000000000E+00 -0.45593999997E+02  0.45594000000E+02  0.51100000000E-03 0. -1.
    9900012    2    1    2    0    0 -0.10096801008E+01 -0.58983501244E+00  0.16015239162E+00  0.90007742386E+02  0.90000003785E+02 0.  0.
         12    1    1    2    0    0  0.10096801008E+01  0.58983501244E+00 -0.16015239162E+00  0.11802576144E+01  0.00000000000E+00 0. -1.
         11    1    3    3    0    0  0.30050029801E+00 -0.72168259681E+01  0.25775181586E+01  0.76691901529E+01  0.51100000000E-03 0. -1.
        -11    1    3    3    0    0 -0.77540540827E+01 -0.12860890012E+02  0.35875293355E+02  0.38891702459E+02  0.51100000000E-03 0.  1.
         12    1    3    3    0    0  0.64438736839E+01  0.19487880968E+02 -0.38292659122E+02  0.43446849774E+02  0.00000000000E+00 0. -1.
</event>
<event>
 7    1  0.4520336E-015  0.9000777E+02  0.7816164E-02  0.1186339E+00
        -11   -1    0    0    0    0  0.00000000000E+00  0.00000000000E+00  0.45593999997E+02  0.45594000000E+02  0.51100000000E-03 0. -1.
         11   -1    0    0    0    0 -0.00000000000E+00 -0.00000000000E+00 -0.45593999997E+02  0.45594000000E+02  0.51100000000E-03 0.  1.
    9900012    2    1    2    0    0 -0.21365615687E+00  0.23585664344E+00 -0.11365134499E+01  0.90007771153E+02  0.90000032932E+02 0.  0.
         12    1    1    2    0    0  0.21365615687E+00 -0.23585664344E+00  0.11365134499E+01  0.11802288470E+01  0.00000000000E+00 0. -1.
         11    1    3    3    0    0 -0.34567823126E+02 -0.10041820767E+02  0.12999628776E+02  0.38272221108E+02  0.51100000000E-03 0. -1.
        -11    1    3    3    0    0 -0.78636222850E+00  0.22309420451E+01  0.87302584627E+01  0.90450473216E+01  0.51100000000E-03 0.  1.
        -12    1    3    3    0    0  0.35140529198E+02  0.80467353651E+01 -0.22866400689E+02  0.42690502723E+02  0.00000000000E+00 0.  1.
</event>
<event>
 7    1  0.4520336E-015  0.9000771E+02  0.7816164E-02  0.1186339E+00
        -11   -1    0    0    0    0  0.00000000000E+00  0.00000000000E+00  0.45593999997E+02  0.45594000000E+02  0.51100000000E-03 0.  1.
         11   -1    0    0    0    0 -0.00000000000E+00 -0.00000000000E+00 -0.45593999997E+02  0.45594000000E+02  0.51100000000E-03 0. -1.
    9900012    2    1    2    0    0 -0.10935500142E+01  0.40252622901E+00  0.18765044807E+00  0.90007706948E+02  0.89999967879E+02 0.  0.
         12    1    1    2    0    0  0.10935500142E+01 -0.40252622901E+00 -0.18765044807E+00  0.11802930523E+01  0.00000000000E+00 0. -1.
         11    1    3    3    0    0  0.63774227301E+01 -0.67317997765E+00 -0.77881962040E+01  0.10088641749E+02  0.51100000000E-03 0. -1.
        -11    1    3    3    0    0 -0.30231154495E+02  0.13129733918E+02 -0.22583521999E+02  0.39954074648E+02  0.51100000000E-03 0.  1.
         12    1    3    3    0    0  0.22760181750E+02 -0.12054027712E+02  0.30559368651E+02  0.39964990551E+02  0.00000000000E+00 0. -1.
</event>
<event>
 7    1  0.4520336E-015  0.9000777E+02  0.7816164E-02  0.1186339E+00
        -11   -1    0    0    0    0  0.00000000000E+00  0.00000000000E+00  0.45593999997E+02  0.45594000000E+02  0.51100000000E-03 0.  1.
         11   -1    0    0    0    0 -0.00000000000E+00 -0.00000000000E+00 -0.45593999997E+02  0.45594000000E+02  0.51100000000E-03 0. -1.
    9900012    2    1    2    0    0 -0.75215180042E+00 -0.61501440305E+00  0.67005730456E+00  0.90007766193E+02  0.90000027907E+02 0.  0.
         12    1    1    2    0    0  0.75215180042E+00  0.61501440305E+00 -0.67005730456E+00  0.11802338066E+01  0.00000000000E+00 0. -1.
         11    1    3    3    0    0 -0.31266366351E+02 -0.62301664856E+01 -0.10915269566E+02  0.33697830036E+02  0.51100000000E-03 0. -1.
        -11    1    3    3    0    0 -0.41076610674E+01  0.16578088720E+02 -0.26879092545E+01  0.17289614266E+02  0.51100000000E-03 0.  1.
        -12    1    3    3    0    0  0.34621875618E+02 -0.10962936637E+02  0.14273236125E+02  0.39020321891E+02  0.00000000000E+00 0.  1.
</event>
<event>
 7    1  0.4520336E-015  0.9000790E+02  0.7816164E-02  0.1186339E+00
        -11   -1    0    0    0    0  0.00000000000E+00  0.00000000000E+00  0.45593999997E+02  0.45594000000E+02  0.51100000000E-03 0.  1.
         11   -1    0    0    0    0 -0.00000000000E+00 -0.00000000000E+00 -0.45593999997E+02  0.45594000000E+02  0.51100000000E-03 0. -1.
    9900012    2    1    2    0    0  0.44748176268E+00 -0.56196651794E+00  0.93626651463E+00  0.90007897766E+02  0.90000161217E+02 0.  0.
         12    1    1    2    0    0 -0.44748176268E+00  0.56196651794E+00 -0.93626651463E+00  0.11801022336E+01  0.00000000000E+00 0. -1.
         11    1    3    3    0    0  0.11672497754E+01 -0.27191318165E+02 -0.27800745057E+02  0.38905162660E+02  0.51100000000E-03 0. -1.
        -11    1    3    3    0    0  0.28654169196E+01  0.71991334998E+01 -0.68867264764E+01  0.10366539398E+02  0.51100000000E-03 0.  1.
        -12    1    3    3    0    0 -0.35851849324E+01  0.19430218147E+02  0.35623738048E+02  0.40736195708E+02  0.00000000000E+00 0.  1.
</event>
<event>
 7    1  0.4520336E-015  0.9000771E+02  0.7816164E-02  0.1186339E+00
        -11   -1    0    0    0    0  0.00000000000E+00  0.00000000000E+00  0.45593999997E+02  0.45594000000E+02  0.51100000000E-03 0.  1.
         11   -1    0    0    0    0 -0.00000000000E+00 -0.00000000000E+00 -0.45593999997E+02  0.45594000000E+02  0.51100000000E-03 0. -1.
    9900012    2    1    2    0    0 -0.13997114311E+00  0.11719599836E+01 -0.22270683599E-02  0.90007708899E+02  0.89999969856E+02 0.  0.
         12    1    1    2    0    0  0.13997114311E+00 -0.11719599836E+01  0.22270683599E-02  0.11802911013E+01  0.00000000000E+00 0. -1.
         11    1    3    3    0    0 -0.12176421218E+02 -0.78060573286E+01 -0.18721772833E+02  0.23658075640E+02  0.51100000000E-03 0. -1.
        -11    1    3    3    0    0 -0.66214351338E+01 -0.23971663257E+02  0.12975837400E+02  0.28050960751E+02  0.51100000000E-03 0.  1.
         12    1    3    3    0    0  0.18657885209E+02  0.32949680569E+02  0.57437083649E+01  0.38298672508E+02  0.00000000000E+00 0. -1.
</event>
<event>
 7    1  0.4520336E-015  0.9000774E+02  0.7816164E-02  0.1186339E+00
        -11   -1    0    0    0    0  0.00000000000E+00  0.00000000000E+00  0.45593999997E+02  0.45594000000E+02  0.51100000000E-03 0. -1.
         11   -1    0    0    0    0 -0.00000000000E+00 -0.00000000000E+00 -0.45593999997E+02  0.45594000000E+02  0.51100000000E-03 0.  1.
    9900012    2    1    2    0    0  0.29318189279E+00  0.12165276754E+00 -0.11367755633E+01  0.90007739987E+02  0.90000001354E+02 0.  0.
         12    1    1    2    0    0 -0.29318189279E+00 -0.12165276754E+00  0.11367755633E+01  0.11802600135E+01  0.00000000000E+00 0. -1.
         11    1    3    3    0    0 -0.61249890963E+01  0.30078219823E+01 -0.13219241097E+02  0.14876519080E+02  0.51100000000E-03 0. -1.
        -11    1    3    3    0    0 -0.43620123992E+01  0.20600211544E+02 -0.23242653066E+02  0.31362665537E+02  0.51100000000E-03 0.  1.
         12    1    3    3    0    0  0.10780183388E+02 -0.23486380758E+02  0.35325118599E+02  0.43768555369E+02  0.00000000000E+00 0. -1.
</event>
<event>
 7    1  0.4520336E-015  0.9000775E+02  0.7816164E-02  0.1186339E+00
        -11   -1    0    0    0    0  0.00000000000E+00  0.00000000000E+00  0.45593999997E+02  0.45594000000E+02  0.51100000000E-03 0. -1.
         11   -1    0    0    0    0 -0.00000000000E+00 -0.00000000000E+00 -0.45593999997E+02  0.45594000000E+02  0.51100000000E-03 0.  1.
    9900012    2    1    2    0    0  0.96564387436E+00 -0.50712172452E+00 -0.45094826555E+00  0.90007747962E+02  0.90000009435E+02 0.  0.
         12    1    1    2    0    0 -0.96564387436E+00  0.50712172452E+00  0.45094826555E+00  0.11802520382E+01  0.00000000000E+00 0. -1.
         11    1    3    3    0    0 -0.59020609088E+01  0.10808298208E+01  0.68770441075E+01  0.91266780370E+01  0.51100000000E-03 0. -1.
        -11    1    3    3    0    0 -0.66387743318E+00 -0.40067999116E+02 -0.10840486248E+02  0.41513870317E+02  0.51100000000E-03 0.  1.
         12    1    3    3    0    0  0.75315822164E+01  0.38480047570E+02  0.35124938750E+01  0.39367199607E+02  0.00000000000E+00 0. -1.
</event>
<event>
 7    1  0.4520336E-015  0.9000768E+02  0.7816164E-02  0.1186339E+00
        -11   -1    0    0    0    0  0.00000000000E+00  0.00000000000E+00  0.45593999997E+02  0.45594000000E+02  0.51100000000E-03 0.  1.
         11   -1    0    0    0    0 -0.00000000000E+00 -0.00000000000E+00 -0.45593999997E+02  0.45594000000E+02  0.51100000000E-03 0. -1.
    9900012    2    1    2    0    0 -0.59225959540E+00 -0.88830860063E+00 -0.50326955473E+00  0.90007684854E+02  0.89999945494E+02 0.  0.
         12    1    1    2    0    0  0.59225959540E+00  0.88830860063E+00  0.50326955473E+00  0.11803151456E+01  0.00000000000E+00 0. -1.
         11    1    3    3    0    0  0.18870271810E+01 -0.90305316448E+01 -0.75292217345E+01  0.11908003760E+02  0.51100000000E-03 0. -1.
        -11    1    3    3    0    0 -0.37946162176E+02 -0.21982632690E+01  0.13995381584E+02  0.40504497173E+02  0.51100000000E-03 0.  1.
         12    1    3    3    0    0  0.35466875400E+02  0.10340486313E+02 -0.69694294042E+01  0.37595183921E+02  0.00000000000E+00 0. -1.
</event>
<event>
 7    1  0.4520336E-015  0.9000796E+02  0.7816164E-02  0.1186339E+00
        -11   -1    0    0    0    0  0.00000000000E+00  0.00000000000E+00  0.45593999997E+02  0.45594000000E+02  0.51100000000E-03 0.  1.
         11   -1    0    0    0    0 -0.00000000000E+00 -0.00000000000E+00 -0.45593999997E+02  0.45594000000E+02  0.51100000000E-03 0. -1.
    9900012    2    1    2    0    0  0.44738243545E-01 -0.32949881304E+00  0.11322154791E+01  0.90007964886E+02  0.90000229223E+02 0.  0.
         12    1    1    2    0    0 -0.44738243545E-01  0.32949881304E+00 -0.11322154791E+01  0.11800351136E+01  0.00000000000E+00 0. -1.
         11    1    3    3    0    0  0.42823697087E+01 -0.31458544503E+02 -0.20061194031E+02  0.37555694892E+02  0.51100000000E-03 0. -1.
        -11    1    3    3    0    0  0.14723474597E+02  0.47543175812E+01  0.76312603619E+01  0.17251677450E+02  0.51100000000E-03 0.  1.
        -12    1    3    3    0    0 -0.18961106063E+02  0.26374728109E+02  0.13562149148E+02  0.35200592544E+02  0.00000000000E+00 0.  1.
</event>
<event>
 7    1  0.4520336E-015  0.9000776E+02  0.7816164E-02  0.1186339E+00
        -11   -1    0    0    0    0  0.00000000000E+00  0.00000000000E+00  0.45593999997E+02  0.45594000000E+02  0.51100000000E-03 0.  1.
         11   -1    0    0    0    0 -0.00000000000E+00 -0.00000000000E+00 -0.45593999997E+02  0.45594000000E+02  0.51100000000E-03 0. -1.
    9900012    2    1    2    0    0  0.30518336330E+00  0.99664612807E+00  0.55365775470E+00  0.90007755407E+02  0.90000016978E+02 0.  0.
         12    1    1    2    0    0 -0.30518336330E+00 -0.99664612807E+00 -0.55365775470E+00  0.11802445929E+01  0.00000000000E+00 0. -1.
         11    1    3    3    0    0  0.21147798301E+01 -0.96103956352E+01  0.51297627434E+01  0.11097137652E+02  0.51100000000E-03 0. -1.
        -11    1    3    3    0    0 -0.31262061895E+02  0.10206246765E+01  0.21883733919E+02  0.38174022569E+02  0.51100000000E-03 0.  1.
         12    1    3    3    0    0  0.29452465428E+02  0.95864170868E+01 -0.26459838907E+02  0.40736595186E+02  0.00000000000E+00 0. -1.
</event>
<event>
 7    1  0.4520336E-015  0.9000747E+02  0.7816164E-02  0.1186340E+00
        -11   -1    0    0    0    0  0.00000000000E+00  0.00000000000E+00  0.45593999997E+02  0.45594000000E+02  0.51100000000E-03 0.  1.
         11   -1    0    0    0    0 -0.00000000000E+00 -0.00000000000E+00 -0.45593999997E+02  0.45594000000E+02  0.51100000000E-03 0. -1.
    9900012    2    1    2    0    0 -0.94342848209E+00 -0.67508594514E+00  0.21876317697E+00  0.90007468060E+02  0.89999725838E+02 0.  0.
         12    1    1    2    0    0  0.94342848209E+00  0.67508594514E+00 -0.21876317697E+00  0.11805319402E+01  0.00000000000E+00 0. -1.
         11    1    3    3    0    0  0.26999313569E+02 -0.32040694226E+02  0.14066536575E+01  0.41923116469E+02  0.51100000000E-03 0. -1.
        -11    1    3    3    0    0  0.43771666249E+00  0.65357553352E+01  0.69038810536E+01  0.95168937969E+01  0.51100000000E-03 0.  1.
        -12    1    3    3    0    0 -0.28380458714E+02  0.24829852946E+02 -0.80917715341E+01  0.38567457794E+02  0.00000000000E+00 0.  1.
</event>
<event>
 7    1  0.4520336E-015  0.9000785E+02  0.7816164E-02  0.1186339E+00
        -11   -1    0    0    0    0  0.00000000000E+00  0.00000000000E+00  0.45593999997E+02  0.45594000000E+02  0.51100000000E-03 0.  1.
         11   -1    0    0    0    0 -0.00000000000E+00 -0.00000000000E+00 -0.45593999997E+02  0.45594000000E+02  0.51100000000E-03 0. -1.
    9900012    2    1    2    0    0 -0.18673067185E+00 -0.42707631368E+00  0.10842027463E+01  0.90007848265E+02  0.90000111062E+02 0.  0.
         12    1    1    2    0    0  0.18673067185E+00  0.42707631368E+00 -0.10842027463E+01  0.11801517346E+01  0.00000000000E+00 0. -1.
         11    1    3    3    0    0  0.76019526340E+01  0.17312908166E+02 -0.30185658648E+02  0.35618821728E+02  0.51100000000E-03 0. -1.
        -11    1    3    3    0    0  0.11588926469E+02  0.25051312277E+01 -0.69743596509E+00  0.11877092083E+02  0.51100000000E-03 0.  1.
        -12    1    3    3    0    0 -0.19377609775E+02 -0.20245115707E+02  0.31967297359E+02  0.42511934454E+02  0.00000000000E+00 0.  1.
</event>
<event>
 7    1  0.4520336E-015  0.9000775E+02  0.7816164E-02  0.1186339E+00
        -11   -1    0    0    0    0  0.00000000000E+00  0.00000000000E+00  0.45593999997E+02  0.45594000000E+02  0.51100000000E-03 0.  1.
         11   -1    0    0    0    0 -0.00000000000E+00 -0.00000000000E+00 -0.45593999997E+02  0.45594000000E+02  0.51100000000E-03 0. -1.
    9900012    2    1    2    0    0  0.99419187850E+00 -0.53812822399E+00 -0.33908971029E+00  0.90007753709E+02  0.90000015258E+02 0.  0.
         12    1    1    2    0    0 -0.99419187850E+00  0.53812822399E+00  0.33908971029E+00  0.11802462914E+01  0.00000000000E+00 0. -1.
         11    1    3    3    0    0  0.30185833433E+02  0.23365296299E+02 -0.10470391292E+02  0.39582201875E+02  0.51100000000E-03 0. -1.
        -11    1    3    3    0    0  0.14869075073E+01  0.36281910119E+01  0.82818552266E+01  0.91631757710E+01  0.51100000000E-03 0.  1.
        -12    1    3    3    0    0 -0.30678549062E+02 -0.27531615535E+02  0.18494463553E+01  0.41262376063E+02  0.00000000000E+00 0.  1.
</event>
<event>
 7    1  0.4520336E-015  0.9000796E+02  0.7816164E-02  0.1186339E+00
        -11   -1    0    0    0    0  0.00000000000E+00  0.00000000000E+00  0.45593999997E+02  0.45594000000E+02  0.51100000000E-03 0. -1.
         11   -1    0    0    0    0 -0.00000000000E+00 -0.00000000000E+00 -0.45593999997E+02  0.45594000000E+02  0.51100000000E-03 0.  1.
    9900012    2    1    2    0    0  0.73650047126E+00 -0.89734187063E+00 -0.21173936765E+00  0.90007962316E+02  0.90000226618E+02 0.  0.
         12    1    1    2    0    0 -0.73650047126E+00  0.89734187063E+00  0.21173936765E+00  0.11800376845E+01  0.00000000000E+00 0. -1.
         11    1    3    3    0    0 -0.10319837307E+01 -0.62316966396E+01 -0.77193855733E+01  0.99743645070E+01  0.51100000000E-03 0. -1.
        -11    1    3    3    0    0 -0.23814672353E+02 -0.27138911408E+02 -0.58753916516E+01  0.36581133922E+02  0.51100000000E-03 0.  1.
         12    1    3    3    0    0  0.25583156555E+02  0.32473266177E+02  0.13383037857E+02  0.43452463887E+02  0.00000000000E+00 0. -1.
</event>
<event>
 7    1  0.4520336E-015  0.9000776E+02  0.7816164E-02  0.1186339E+00
        -11   -1    0    0    0    0  0.00000000000E+00  0.00000000000E+00  0.45593999997E+02  0.45594000000E+02  0.51100000000E-03 0. -1.
         11   -1    0    0    0    0 -0.00000000000E+00 -0.00000000000E+00 -0.45593999997E+02  0.45594000000E+02  0.51100000000E-03 0.  1.
    9900012    2    1    2    0    0 -0.39847830117E+00  0.10113569654E+01 -0.45970302459E+00  0.90007764965E+02  0.90000026662E+02 0.  0.
         12    1    1    2    0    0  0.39847830117E+00 -0.10113569654E+01  0.45970302459E+00  0.11802350354E+01  0.00000000000E+00 0. -1.
         11    1    3    3    0    0  0.17791787908E+00 -0.55263841621E+01  0.68757293447E+01  0.88231644528E+01  0.51100000000E-03 0. -1.
        -11    1    3    3    0    0 -0.12549144079E+02  0.40113630424E+02 -0.15174516348E+02  0.44686131065E+02  0.51100000000E-03 0.  1.
         12    1    3    3    0    0  0.11972747899E+02 -0.33575889297E+02  0.78390839791E+01  0.36498469447E+02  0.00000000000E+00 0. -1.
</event>
<event>
 7    1  0.4520336E-015  0.9000768E+02  0.7816164E-02  0.1186339E+00
        -11   -1    0    0    0    0  0.00000000000E+00  0.00000000000E+00  0.45593999997E+02  0.45594000000E+02  0.51100000000E-03 0.  1.
         11   -1    0    0    0    0 -0.00000000000E+00 -0.00000000000E+00 -0.45593999997E+02  0.45594000000E+02  0.51100000000E-03 0. -1.
    9900012    2    1    2    0    0  0.56635626631E-01  0.10444192511E+01  0.54693576821E+00  0.90007678899E+02  0.89999939461E+02 0.  0.
         12    1    1    2    0    0 -0.56635626631E-01 -0.10444192511E+01 -0.54693576821E+00  0.11803211007E+01  0.00000000000E+00 0. -1.
         11    1    3    3    0    0 -0.83144948917E+01  0.42335956552E+01 -0.31882488182E+02  0.33219681070E+02  0.51100000000E-03 0. -1.
        -11    1    3    3    0    0 -0.10856422349E+01  0.83963768342E+01 -0.92304531088E+01  0.12525135842E+02  0.51100000000E-03 0.  1.
        -12    1    3    3    0    0  0.94567727532E+01 -0.11585553238E+02  0.41659877059E+02  0.44262861987E+02  0.00000000000E+00 0.  1.
</event>
<event>
 7    1  0.4520336E-015  0.9000784E+02  0.7816164E-02  0.1186339E+00
        -11   -1    0    0    0    0  0.00000000000E+00  0.00000000000E+00  0.45593999997E+02  0.45594000000E+02  0.51100000000E-03 0. -1.
         11   -1    0    0    0    0 -0.00000000000E+00 -0.00000000000E+00 -0.45593999997E+02  0.45594000000E+02  0.51100000000E-03 0.  1.
    9900012    2    1    2    0    0  0.69578969609E+00  0.72168672213E+00  0.62276253517E+00  0.90007835519E+02  0.90000098148E+02 0.  0.
         12    1    1    2    0    0 -0.69578969609E+00 -0.72168672213E+00 -0.62276253517E+00  0.11801644806E+01  0.00000000000E+00 0. -1.
         11    1    3    3    0    0  0.62302547774E+01  0.62056637015E+00 -0.69304688646E+01  0.93398381226E+01  0.51100000000E-03 0. -1.
        -11    1    3    3    0    0 -0.89165541556E+01 -0.13626928125E+02 -0.33499938743E+02  0.37248409418E+02  0.51100000000E-03 0.  1.
         12    1    3    3    0    0  0.33820890743E+01  0.13728048477E+02  0.41053170143E+02  0.43419587979E+02  0.00000000000E+00 0. -1.
</event>
<event>
 7    1  0.4520336E-015  0.9000774E+02  0.7816164E-02  0.1186339E+00
        -11   -1    0    0    0    0  0.00000000000E+00  0.00000000000E+00  0.45593999997E+02  0.45594000000E+02  0.51100000000E-03 0.  1.
         11   -1    0    0    0    0 -0.00000000000E+00 -0.00000000000E+00 -0.45593999997E+02  0.45594000000E+02  0.51100000000E-03 0. -1.
    9900012    2    1    2    0    0 -0.95146872157E+00 -0.41130712503E+00  0.56440964145E+00  0.90007735401E+02  0.89999996709E+02 0.  0.
         12    1    1    2    0    0  0.95146872157E+00  0.41130712503E+00 -0.56440964145E+00  0.11802645985E+01  0.00000000000E+00 0. -1.
         11    1    3    3    0    0 -0.27044371621E+02 -0.30435426698E+01 -0.19337420698E+02  0.33385581137E+02  0.51100000000E-03 0. -1.
        -11    1    3    3    0    0 -0.13094055043E+02  0.34285184144E+01  0.26220930257E+01  0.13787109490E+02  0.51100000000E-03 0.  1.
        -12    1    3    3    0    0  0.39186957943E+02 -0.79628286962E+00  0.17279737313E+02  0.42835044774E+02  0.00000000000E+00 0.  1.
</event>
<event>
 7    1  0.4520336E-015  0.9000776E+02  0.7816164E-02  0.1186339E+00
        -11   -1    0    0    0    0  0.00000000000E+00  0.00000000000E+00  0.45593999997E+02  0.45594000000E+02  0.51100000000E-03 0. -1.
         11   -1    0    0    0    0 -0.00000000000E+00 -0.00000000000E+00 -0.45593999997E+02  0.45594000000E+02  0.51100000000E-03 0.  1.
    9900012    2    1    2    0    0  0.17524319892E-01  0.63687438035E+00 -0.99350401933E+00  0.90007760061E+02  0.90000021693E+02 0.  0.
         12    1    1    2    0    0 -0.17524319892E-01 -0.63687438035E+00  0.99350401933E+00  0.11802399394E+01  0.00000000000E+00 0. -1.
         11    1    3    3    0    0  0.98585353902E+01 -0.55566231047E-01 -0.44691112955E+01  0.10824359735E+02  0.51100000000E-03 0. -1.
        -11    1    3    3    0    0  0.18612320516E+02  0.16683008068E+02 -0.25377576017E+02  0.35619693962E+02  0.51100000000E-03 0.  1.
         12    1    3    3    0    0 -0.28453331586E+02 -0.15990567456E+02  0.28853183293E+02  0.43563706363E+02  0.00000000000E+00 0. -1.
</event>
<event>
 7    1  0.4520336E-015  0.9000772E+02  0.7816164E-02  0.1186339E+00
        -11   -1    0    0    0    0  0.00000000000E+00  0.00000000000E+00  0.45593999997E+02  0.45594000000E+02  0.51100000000E-03 0.  1.
         11   -1    0    0    0    0 -0.00000000000E+00 -0.00000000000E+00 -0.45593999997E+02  0.45594000000E+02  0.51100000000E-03 0. -1.
    9900012    2    1    2    0    0 -0.34071750828E+00  0.11285910294E+01 -0.56959980806E-01  0.90007724366E+02  0.89999985528E+02 0.  0.
         12    1    1    2    0    0  0.34071750828E+00 -0.11285910294E+01  0.56959980806E-01  0.11802756337E+01  0.00000000000E+00 0. -1.
         11    1    3    3    0    0  0.11988676007E+01 -0.86694431734E+01 -0.38640677972E+01  0.95670031182E+01  0.51100000000E-03 0. -1.
        -11    1    3    3    0    0 -0.80731261228E+01  0.19866993888E+02  0.38313300465E+02  0.43906512095E+02  0.51100000000E-03 0.  1.
         12    1    3    3    0    0  0.65335410138E+01 -0.10068959685E+02 -0.34506192649E+02  0.36534209153E+02  0.00000000000E+00 0. -1.
</event>
<event>
 7    1  0.5637408E-015  0.9000786E+02  0.7816164E-02  0.1186339E+00
        -11   -1    0    0    0    0  0.00000000000E+00  0.00000000000E+00  0.45593999997E+02  0.45594000000E+02  0.51100000000E-03 0. -1.
         11   -1    0    0    0    0 -0.00000000000E+00 -0.00000000000E+00 -0.45593999997E+02  0.45594000000E+02  0.51100000000E-03 0.  1.
    9900012    2    1    2    0    0 -0.79242184404E+00  0.45302522011E-01 -0.87335233819E+00  0.90007860600E+02  0.90000123560E+02 0.  0.
         12    1    1    2    0    0  0.79242184404E+00 -0.45302522011E-01  0.87335233819E+00  0.11801394003E+01  0.00000000000E+00 0. -1.
         11    1    3    3    0    0  0.27102490158E+02  0.17420141260E+02  0.27615556537E+02  0.42433774961E+02  0.51100000000E-03 0. -1.
        -11    1    3    3    0    0 -0.51449429391E+01  0.41282725874E+01 -0.69102809756E+01  0.95532746127E+01  0.51100000000E-03 0.  1.
        -12    1    3    3    0    0 -0.22749969063E+02 -0.21503111326E+02 -0.21578627900E+02  0.38020811026E+02  0.00000000000E+00 0.  1.
</event>
<event>
 7    1  0.4520336E-015  0.9000777E+02  0.7816164E-02  0.1186339E+00
        -11   -1    0    0    0    0  0.00000000000E+00  0.00000000000E+00  0.45593999997E+02  0.45594000000E+02  0.51100000000E-03 0. -1.
         11   -1    0    0    0    0 -0.00000000000E+00 -0.00000000000E+00 -0.45593999997E+02  0.45594000000E+02  0.51100000000E-03 0.  1.
    9900012    2    1    2    0    0 -0.42758209552E+00 -0.10343221002E+01 -0.37455245085E+00  0.90007771974E+02  0.90000033764E+02 0.  0.
         12    1    1    2    0    0  0.42758209552E+00  0.10343221002E+01  0.37455245085E+00  0.11802280262E+01  0.00000000000E+00 0. -1.
         11    1    3    3    0    0 -0.34445919459E+02  0.19753007772E+02 -0.35885944619E+01  0.39869545945E+02  0.51100000000E-03 0. -1.
        -11    1    3    3    0    0  0.40715379261E+01  0.73997539141E+01  0.31449892001E+01  0.90124767075E+01  0.51100000000E-03 0.  1.
        -12    1    3    3    0    0  0.29946799438E+02 -0.28187083786E+02  0.69052810994E-01  0.41125749321E+02  0.00000000000E+00 0.  1.
</event>
<event>
 7    1  0.5386291E-015  0.9000766E+02  0.7816164E-02  0.1186339E+00
        -11   -1    0    0    0    0  0.00000000000E+00  0.00000000000E+00  0.45593999997E+02  0.45594000000E+02  0.51100000000E-03 0.  1.
         11   -1    0    0    0    0 -0.00000000000E+00 -0.00000000000E+00 -0.45593999997E+02  0.45594000000E+02  0.51100000000E-03 0. -1.
    9900012    2    1    2    0    0  0.21706281484E-02 -0.11321551204E+01  0.33378270028E+00  0.90007664955E+02  0.89999925332E+02 0.  0.
         12    1    1    2    0    0 -0.21706281484E-02  0.11321551204E+01 -0.33378270028E+00  0.11803350454E+01  0.00000000000E+00 0. -1.
         11    1    3    3    0    0  0.64079763966E+01 -0.11992040416E+02 -0.37264118250E+02  0.39667186742E+02  0.51100000000E-03 0. -1.
        -11    1    3    3    0    0 -0.57427312434E+01 -0.75754657145E+01  0.12613641396E+01  0.95894568501E+01  0.51100000000E-03 0.  1.
        -12    1    3    3    0    0 -0.66307452511E+00  0.18435351010E+02  0.36336536811E+02  0.40751021362E+02  0.00000000000E+00 0.  1.
</event>
<event>
 7    1  0.4520336E-015  0.9000771E+02  0.7816164E-02  0.1186339E+00
        -11   -1    0    0    0    0  0.00000000000E+00  0.00000000000E+00  0.45593999997E+02  0.45594000000E+02  0.51100000000E-03 0.  1.
         11   -1    0    0    0    0 -0.00000000000E+00 -0.00000000000E+00 -0.45593999997E+02  0.45594000000E+02  0.51100000000E-03 0. -1.
    9900012    2    1    2    0    0 -0.90804232050E+00 -0.71365372242E+00  0.24339640812E+00  0.90007710077E+02  0.89999971050E+02 0.  0.
         12    1    1    2    0    0  0.90804232050E+00  0.71365372242E+00 -0.24339640812E+00  0.11802899232E+01  0.00000000000E+00 0. -1.
         11    1    3    3    0    0  0.69408757745E+01 -0.39642277801E+01  0.64717250224E+01  0.10284652811E+02  0.51100000000E-03 0. -1.
        -11    1    3    3    0    0  0.13338024303E+02 -0.33821163889E+02  0.12329567144E+01  0.36377110958E+02  0.51100000000E-03 0.  1.
         12    1    3    3    0    0 -0.21186942398E+02  0.37071737947E+02 -0.74612853288E+01  0.43345946308E+02  0.00000000000E+00 0. -1.
</event>
<event>
 7    1  0.4520336E-015  0.9000766E+02  0.7816164E-02  0.1186339E+00
        -11   -1    0    0    0    0  0.00000000000E+00  0.00000000000E+00  0.45593999997E+02  0.45594000000E+02  0.51100000000E-03 0. -1.
         11   -1    0    0    0    0 -0.00000000000E+00 -0.00000000000E+00 -0.45593999997E+02  0.45594000000E+02  0.51100000000E-03 0.  1.
    9900012    2    1    2    0    0  0.51961175007E+00 -0.87638926567E+00 -0.59593347345E+00  0.90007664785E+02  0.89999925160E+02 0.  0.
         12    1    1    2    0    0 -0.51961175007E+00  0.87638926567E+00  0.59593347345E+00  0.11803352153E+01  0.00000000000E+00 0. -1.
         11    1    3    3    0    0  0.24994884973E+02 -0.12321480876E+02  0.32568810578E+01  0.28056557884E+02  0.51100000000E-03 0. -1.
        -11    1    3    3    0    0  0.53636568007E+01 -0.95008384777E+01 -0.19447611946E+02  0.22298976585E+02  0.51100000000E-03 0.  1.
         12    1    3    3    0    0 -0.29838930024E+02  0.20945930088E+02  0.15594797415E+02  0.39652130316E+02  0.00000000000E+00 0. -1.
</event>
<event>
 7    1  0.4520336E-015  0.9000735E+02  0.7816164E-02  0.1186340E+00
        -11   -1    0    0    0    0  0.00000000000E+00  0.00000000000E+00  0.45593999997E+02  0.45594000000E+02  0.51100000000E-03 0. -1.
         11   -1    0    0    0    0 -0.00000000000E+00 -0.00000000000E+00 -0.45593999997E+02  0.45594000000E+02  0.51100000000E-03 0.  1.
    9900012    2    1    2    0    0  0.28315553308E+00  0.30803256691E+00 -0.11040303003E+01  0.90007345935E+02  0.89999602100E+02 0.  0.
         12    1    1    2    0    0 -0.28315553308E+00 -0.30803256691E+00  0.11040303003E+01  0.11806540654E+01  0.00000000000E+00 0. -1.
         11    1    3    3    0    0  0.70119090471E+01 -0.12944691266E+01 -0.10896064722E+02  0.13021779659E+02  0.51100000000E-03 0. -1.
        -11    1    3    3    0    0 -0.36720688495E+02  0.56088147933E+01 -0.12727971725E+02  0.39266640185E+02  0.51100000000E-03 0.  1.
         12    1    3    3    0    0  0.29991934981E+02 -0.40063130998E+01  0.22520006146E+02  0.37718926090E+02  0.00000000000E+00 0. -1.
</event>
<event>
 7    1  0.4520336E-015  0.9000772E+02  0.7816164E-02  0.1186339E+00
        -11   -1    0    0    0    0  0.00000000000E+00  0.00000000000E+00  0.45593999997E+02  0.45594000000E+02  0.51100000000E-03 0.  1.
         11   -1    0    0    0    0 -0.00000000000E+00 -0.00000000000E+00 -0.45593999997E+02  0.45594000000E+02  0.51100000000E-03 0. -1.
    9900012    2    1    2    0    0  0.60864025666E+00  0.59224885472E+00  0.81966974467E+00  0.90007720305E+02  0.89999981413E+02 0.  0.
         12    1    1    2    0    0 -0.60864025666E+00 -0.59224885472E+00 -0.81966974467E+00  0.11802796949E+01  0.00000000000E+00 0. -1.
         11    1    3    3    0    0 -0.99883739923E+01  0.21564440568E+01  0.74609037278E+01  0.12652389129E+02  0.51100000000E-03 0. -1.
        -11    1    3    3    0    0 -0.29996553830E+02 -0.12629916775E+02 -0.12519599409E+02  0.34871885654E+02  0.51100000000E-03 0.  1.
         12    1    3    3    0    0  0.40593568079E+02  0.11065721573E+02  0.58783654264E+01  0.42483445522E+02  0.00000000000E+00 0. -1.
</event>
<event>
 7    1  0.4520336E-015  0.9000777E+02  0.7816164E-02  0.1186339E+00
        -11   -1    0    0    0    0  0.00000000000E+00  0.00000000000E+00  0.45593999997E+02  0.45594000000E+02  0.51100000000E-03 0. -1.
         11   -1    0    0    0    0 -0.00000000000E+00 -0.00000000000E+00 -0.45593999997E+02  0.45594000000E+02  0.51100000000E-03 0.  1.
    9900012    2    1    2    0    0  0.48085286812E-01  0.11223927514E+01 -0.36174369757E+00  0.90007772824E+02  0.90000034626E+02 0.  0.
         12    1    1    2    0    0 -0.48085286812E-01 -0.11223927514E+01  0.36174369757E+00  0.11802271756E+01  0.00000000000E+00 0. -1.
         11    1    3    3    0    0  0.17950500716E+02  0.31973758889E+01 -0.26836496991E+02  0.32444433413E+02  0.51100000000E-03 0. -1.
        -11    1    3    3    0    0 -0.31438775910E+02  0.65954977970E+01  0.80592895973E+01  0.33118716324E+02  0.51100000000E-03 0.  1.
         12    1    3    3    0    0  0.13536360481E+02 -0.86704809345E+01  0.18415463696E+02  0.24444623087E+02  0.00000000000E+00 0. -1.
</event>
<event>
 7    1  0.4520336E-015  0.9000738E+02  0.7816164E-02  0.1186340E+00
        -11   -1    0    0    0    0  0.00000000000E+00  0.00000000000E+00  0.45593999997E+02  0.45594000000E+02  0.51100000000E-03 0.  1.
         11   -1    0    0    0    0 -0.00000000000E+00 -0.00000000000E+00 -0.45593999997E+02  0.45594000000E+02  0.51100000000E-03 0. -1.
    9900012    2    1    2    0    0  0.80685195002E-01  0.11778142683E+01  0.10883462686E-01  0.90007375165E+02  0.89999631716E+02 0.  0.
         12    1    1    2    0    0 -0.80685195002E-01 -0.11778142683E+01 -0.10883462686E-01  0.11806248350E+01  0.00000000000E+00 0. -1.
         11    1    3    3    0    0  0.35358197994E+02 -0.36427296942E+01 -0.10186418619E+02  0.36976137840E+02  0.51100000000E-03 0. -1.
        -11    1    3    3    0    0  0.76312263417E+01  0.36878610870E+01  0.48782904911E+01  0.97792460472E+01  0.51100000000E-03 0.  1.
        -12    1    3    3    0    0 -0.42908739141E+02  0.11326828755E+01  0.53190115908E+01  0.43251991278E+02  0.00000000000E+00 0.  1.
</event>
<event>
 7    1  0.4520336E-015  0.9000766E+02  0.7816164E-02  0.1186339E+00
        -11   -1    0    0    0    0  0.00000000000E+00  0.00000000000E+00  0.45593999997E+02  0.45594000000E+02  0.51100000000E-03 0.  1.
         11   -1    0    0    0    0 -0.00000000000E+00 -0.00000000000E+00 -0.45593999997E+02  0.45594000000E+02  0.51100000000E-03 0. -1.
    9900012    2    1    2    0    0  0.88153460649E+00  0.72901726301E+00 -0.29090839300E+00  0.90007662283E+02  0.89999922625E+02 0.  0.
         12    1    1    2    0    0 -0.88153460649E+00 -0.72901726301E+00  0.29090839300E+00  0.11803377166E+01  0.00000000000E+00 0. -1.
         11    1    3    3    0    0 -0.18058342800E+01  0.93715771517E+01  0.24900179253E+01  0.98634519964E+01  0.51100000000E-03 0. -1.
        -11    1    3    3    0    0  0.29068692350E+02  0.17812094966E+02  0.16752114824E+02  0.37985430804E+02  0.51100000000E-03 0.  1.
         12    1    3    3    0    0 -0.26381323464E+02 -0.26454654855E+02 -0.19533041142E+02  0.42158779483E+02  0.00000000000E+00 0. -1.
</event>
<event>
 7    1  0.4520336E-015  0.9000773E+02  0.7816164E-02  0.1186339E+00
        -11   -1    0    0    0    0  0.00000000000E+00  0.00000000000E+00  0.45593999997E+02  0.45594000000E+02  0.51100000000E-03 0.  1.
         11   -1    0    0    0    0 -0.00000000000E+00 -0.00000000000E+00 -0.45593999997E+02  0.45594000000E+02  0.51100000000E-03 0. -1.
    9900012    2    1    2    0    0 -0.11783502383E+00  0.42103688244E+00  0.10963040855E+01  0.90007728931E+02  0.89999990153E+02 0.  0.
         12    1    1    2    0    0  0.11783502383E+00 -0.42103688244E+00 -0.10963040855E+01  0.11802710694E+01  0.00000000000E+00 0. -1.
         11    1    3    3    0    0 -0.14468146220E+01 -0.95398902366E+01  0.40677170255E+01  0.10471346634E+02  0.51100000000E-03 0. -1.
        -11    1    3    3    0    0  0.33773098835E+01 -0.34272268196E+02  0.41477449613E+01  0.34687150040E+02  0.51100000000E-03 0.  1.
         12    1    3    3    0    0 -0.20483302854E+01  0.44233195315E+02 -0.71191579013E+01  0.44849232256E+02  0.00000000000E+00 0. -1.
</event>
<event>
 7    1  0.4520336E-015  0.9000768E+02  0.7816164E-02  0.1186339E+00
        -11   -1    0    0    0    0  0.00000000000E+00  0.00000000000E+00  0.45593999997E+02  0.45594000000E+02  0.51100000000E-03 0. -1.
         11   -1    0    0    0    0 -0.00000000000E+00 -0.00000000000E+00 -0.45593999997E+02  0.45594000000E+02  0.51100000000E-03 0.  1.
    9900012    2    1    2    0    0  0.74196585709E+00  0.37630254520E+00 -0.83728004379E+00  0.90007680208E+02  0.89999940787E+02 0.  0.
         12    1    1    2    0    0 -0.74196585709E+00 -0.37630254520E+00  0.83728004379E+00  0.11803197916E+01  0.00000000000E+00 0. -1.
         11    1    3    3    0    0 -0.10525545763E+02 -0.25564309642E+02  0.14571413697E+02  0.31251354186E+02  0.51100000000E-03 0. -1.
        -11    1    3    3    0    0 -0.16347258266E+02 -0.26639972235E+01 -0.76625861035E+01  0.18249519448E+02  0.51100000000E-03 0.  1.
        -12    1    3    3    0    0  0.27614769886E+02  0.28604609410E+02 -0.77461076373E+01  0.40506806575E+02  0.00000000000E+00 0.  1.
</event>
<event>
 7    1  0.4520336E-015  0.9000774E+02  0.7816164E-02  0.1186339E+00
        -11   -1    0    0    0    0  0.00000000000E+00  0.00000000000E+00  0.45593999997E+02  0.45594000000E+02  0.51100000000E-03 0.  1.
         11   -1    0    0    0    0 -0.00000000000E+00 -0.00000000000E+00 -0.45593999997E+02  0.45594000000E+02  0.51100000000E-03 0. -1.
    9900012    2    1    2    0    0 -0.11263422177E+01  0.19068449484E+00 -0.29667691772E+00  0.90007735385E+02  0.89999996692E+02 0.  0.
         12    1    1    2    0    0  0.11263422177E+01 -0.19068449484E+00  0.29667691772E+00  0.11802646150E+01  0.00000000000E+00 0. -1.
         11    1    3    3    0    0  0.96509490083E+00 -0.26461906686E+01  0.81845189938E+01  0.86556388928E+01  0.51100000000E-03 0. -1.
        -11    1    3    3    0    0  0.15398069681E+02  0.89594006565E+01  0.32115849975E+02  0.36726002095E+02  0.51100000000E-03 0.  1.
         12    1    3    3    0    0 -0.17489506799E+02 -0.61225254930E+01 -0.40597045886E+02  0.44626094397E+02  0.00000000000E+00 0. -1.
</event>
<event>
 7    1  0.4520336E-015  0.9000771E+02  0.7816164E-02  0.1186339E+00
        -11   -1    0    0    0    0  0.00000000000E+00  0.00000000000E+00  0.45593999997E+02  0.45594000000E+02  0.51100000000E-03 0. -1.
         11   -1    0    0    0    0 -0.00000000000E+00 -0.00000000000E+00 -0.45593999997E+02  0.45594000000E+02  0.51100000000E-03 0.  1.
    9900012    2    1    2    0    0 -0.55301351294E+00 -0.54408565841E+00  0.88951664642E+00  0.90007706387E+02  0.89999967311E+02 0.  0.
         12    1    1    2    0    0  0.55301351294E+00  0.54408565841E+00 -0.88951664642E+00  0.11802936132E+01  0.00000000000E+00 0. -1.
         11    1    3    3    0    0 -0.28688779516E+02 -0.20728854665E+02  0.12878214388E+02  0.37664039771E+02  0.51100000000E-03 0. -1.
        -11    1    3    3    0    0  0.42792228791E+01 -0.63965050809E+01  0.82573097393E+01  0.11287612240E+02  0.51100000000E-03 0.  1.
        -12    1    3    3    0    0  0.23856543124E+02  0.26581274087E+02 -0.20246007481E+02  0.41056054375E+02  0.00000000000E+00 0.  1.
</event>
<event>
 7    1  0.4520336E-015  0.9000774E+02  0.7816164E-02  0.1186339E+00
        -11   -1    0    0    0    0  0.00000000000E+00  0.00000000000E+00  0.45593999997E+02  0.45594000000E+02  0.51100000000E-03 0.  1.
         11   -1    0    0    0    0 -0.00000000000E+00 -0.00000000000E+00 -0.45593999997E+02  0.45594000000E+02  0.51100000000E-03 0. -1.
    9900012    2    1    2    0    0 -0.94766869124E+00  0.69115346229E+00 -0.13132818388E+00  0.90007738949E+02  0.90000000303E+02 0.  0.
         12    1    1    2    0    0  0.94766869124E+00 -0.69115346229E+00  0.13132818388E+00  0.11802610511E+01  0.00000000000E+00 0. -1.
         11    1    3    3    0    0  0.21168793179E+02 -0.17239694185E+02 -0.25854035097E+02  0.37599946693E+02  0.51100000000E-03 0. -1.
        -11    1    3    3    0    0  0.96970272151E+01  0.25872946677E+01  0.32718644895E+01  0.10556113300E+02  0.51100000000E-03 0.  1.
        -12    1    3    3    0    0 -0.31813489085E+02  0.15343552980E+02  0.22450842424E+02  0.41851678955E+02  0.00000000000E+00 0.  1.
</event>
<event>
 7    1  0.4520336E-015  0.9000774E+02  0.7816164E-02  0.1186339E+00
        -11   -1    0    0    0    0  0.00000000000E+00  0.00000000000E+00  0.45593999997E+02  0.45594000000E+02  0.51100000000E-03 0. -1.
         11   -1    0    0    0    0 -0.00000000000E+00 -0.00000000000E+00 -0.45593999997E+02  0.45594000000E+02  0.51100000000E-03 0.  1.
    9900012    2    1    2    0    0  0.11316181483E+01 -0.37802233184E-01 -0.33318748486E+00  0.90007744713E+02  0.90000006143E+02 0.  0.
         12    1    1    2    0    0 -0.11316181483E+01  0.37802233184E-01  0.33318748486E+00  0.11802552870E+01  0.00000000000E+00 0. -1.
         11    1    3    3    0    0  0.87210179603E+01  0.13105623247E+02  0.37935287041E+02  0.41071882330E+02  0.51100000000E-03 0. -1.
        -11    1    3    3    0    0 -0.78869139647E+01  0.32007477873E+01 -0.14267985286E+01  0.86304085991E+01  0.51100000000E-03 0.  1.
        -12    1    3    3    0    0  0.29751415271E+00 -0.16344173267E+02 -0.36841675997E+02  0.40305453784E+02  0.00000000000E+00 0.  1.
</event>
<event>
 7    1  0.4520336E-015  0.9000768E+02  0.7816164E-02  0.1186339E+00
        -11   -1    0    0    0    0  0.00000000000E+00  0.00000000000E+00  0.45593999997E+02  0.45594000000E+02  0.51100000000E-03 0. -1.
         11   -1    0    0    0    0 -0.00000000000E+00 -0.00000000000E+00 -0.45593999997E+02  0.45594000000E+02  0.51100000000E-03 0.  1.
    9900012    2    1    2    0    0  0.28757944708E+00 -0.10761655681E+01  0.39029311654E+00  0.90007676745E+02  0.89999937278E+02 0.  0.
         12    1    1    2    0    0 -0.28757944708E+00  0.10761655681E+01 -0.39029311654E+00  0.11803232545E+01  0.00000000000E+00 0. -1.
         11    1    3    3    0    0  0.10869295421E+02 -0.76077112029E+01  0.55620254733E+01  0.14385929943E+02  0.51100000000E-03 0. -1.
        -11    1    3    3    0    0  0.93517961131E+01 -0.27730207673E+02 -0.17515251626E+02  0.34105784670E+02  0.51100000000E-03 0.  1.
         12    1    3    3    0    0 -0.19933512087E+02  0.34261753308E+02  0.12343519270E+02  0.41515962133E+02  0.00000000000E+00 0. -1.
</event>
<event>
 7    1  0.4520336E-015  0.9000767E+02  0.7816164E-02  0.1186339E+00
        -11   -1    0    0    0    0  0.00000000000E+00  0.00000000000E+00  0.45593999997E+02  0.45594000000E+02  0.51100000000E-03 0. -1.
         11   -1    0    0    0    0 -0.00000000000E+00 -0.00000000000E+00 -0.45593999997E+02  0.45594000000E+02  0.51100000000E-03 0.  1.
    9900012    2    1    2    0    0 -0.55135960999E+00  0.56790652001E+00 -0.87559464463E+00  0.90007669022E+02  0.89999929453E+02 0.  0.
         12    1    1    2    0    0  0.55135960999E+00 -0.56790652001E+00  0.87559464463E+00  0.11803309776E+01  0.00000000000E+00 0. -1.
         11    1    3    3    0    0 -0.34240006836E+02 -0.10672770619E+02  0.16331876071E+02  0.39408327509E+02  0.51100000000E-03 0. -1.
        -11    1    3    3    0    0  0.32161832719E+00  0.95917565924E+01  0.46624612586E+01  0.10669759984E+02  0.51100000000E-03 0.  1.
        -12    1    3    3    0    0  0.33367028899E+02  0.16489205463E+01 -0.21869931974E+02  0.39929581529E+02  0.00000000000E+00 0.  1.
</event>
<event>
 7    1  0.4520336E-015  0.9000788E+02  0.7816164E-02  0.1186339E+00
        -11   -1    0    0    0    0  0.00000000000E+00  0.00000000000E+00  0.45593999997E+02  0.45594000000E+02  0.51100000000E-03 0. -1.
         11   -1    0    0    0    0 -0.00000000000E+00 -0.00000000000E+00 -0.45593999997E+02  0.45594000000E+02  0.51100000000E-03 0.  1.
    9900012    2    1    2    0    0 -0.94844381944E+00  0.23814574995E+00 -0.66063007460E+00  0.90007876628E+02  0.90000139800E+02 0.  0.
         12    1    1    2    0    0  0.94844381944E+00 -0.23814574995E+00  0.66063007460E+00  0.11801233716E+01  0.00000000000E+00 0. -1.
         11    1    3    3    0    0  0.90080985784E+00  0.97877030743E+01  0.55261643691E+00  0.98445911575E+01  0.51100000000E-03 0. -1.
        -11    1    3    3    0    0  0.91647082523E+01  0.10801009140E+02 -0.35827857668E+02  0.38526472212E+02  0.51100000000E-03 0.  1.
         12    1    3    3    0    0 -0.11013961930E+02 -0.20350566465E+02  0.34614611156E+02  0.41636813259E+02  0.00000000000E+00 0. -1.
</event>
<event>
 7    1  0.4520336E-015  0.9000690E+02  0.7816164E-02  0.1186341E+00
        -11   -1    0    0    0    0  0.00000000000E+00  0.00000000000E+00  0.45593999997E+02  0.45594000000E+02  0.51100000000E-03 0. -1.
         11   -1    0    0    0    0 -0.00000000000E+00 -0.00000000000E+00 -0.45593999997E+02  0.45594000000E+02  0.51100000000E-03 0.  1.
    9900012    2    1    2    0    0 -0.73259278157E+00 -0.90793629688E+00 -0.18429342603E+00  0.90006896884E+02  0.89999147119E+02 0.  0.
         12    1    1    2    0    0  0.73259278157E+00  0.90793629688E+00  0.18429342603E+00  0.11811031156E+01  0.00000000000E+00 0. -1.
         11    1    3    3    0    0 -0.65686978907E+01 -0.22316348249E+01 -0.86393523354E+01  0.11079999775E+02  0.51100000000E-03 0. -1.
        -11    1    3    3    0    0  0.20876307935E+02  0.31842104912E+02 -0.11130649891E+02  0.39669021231E+02  0.51100000000E-03 0.  1.
         12    1    3    3    0    0 -0.15040202826E+02 -0.30518406384E+02  0.19585708801E+02  0.39257875878E+02  0.00000000000E+00 0. -1.
</event>
<event>
 7    1  0.4520336E-015  0.9000770E+02  0.7816164E-02  0.1186339E+00
        -11   -1    0    0    0    0  0.00000000000E+00  0.00000000000E+00  0.45593999997E+02  0.45594000000E+02  0.51100000000E-03 0. -1.
         11   -1    0    0    0    0 -0.00000000000E+00 -0.00000000000E+00 -0.45593999997E+02  0.45594000000E+02  0.51100000000E-03 0.  1.
    9900012    2    1    2    0    0 -0.10989422255E+01 -0.16013402898E+00  0.39973460574E+00  0.90007701446E+02  0.89999962305E+02 0.  0.
         12    1    1    2    0    0  0.10989422255E+01  0.16013402898E+00 -0.39973460574E+00  0.11802985543E+01  0.00000000000E+00 0. -1.
         11    1    3    3    0    0 -0.20992937616E+01 -0.86774686541E+01 -0.27156645177E+01  0.93316842303E+01  0.51100000000E-03 0. -1.
        -11    1    3    3    0    0  0.18064543398E+02 -0.28706502207E+02 -0.13472287024E+02  0.36495116318E+02  0.51100000000E-03 0.  1.
         12    1    3    3    0    0 -0.17064191862E+02  0.37223836832E+02  0.16587686147E+02  0.44180900898E+02  0.00000000000E+00 0. -1.
</event>
<event>
 7    1  0.4520336E-015  0.9000774E+02  0.7816164E-02  0.1186339E+00
        -11   -1    0    0    0    0  0.00000000000E+00  0.00000000000E+00  0.45593999997E+02  0.45594000000E+02  0.51100000000E-03 0.  1.
         11   -1    0    0    0    0 -0.00000000000E+00 -0.00000000000E+00 -0.45593999997E+02  0.45594000000E+02  0.51100000000E-03 0. -1.
    9900012    2    1    2    0    0  0.12782132948E+00 -0.11624935024E+01 -0.15900643519E+00  0.90007740502E+02  0.90000001877E+02 0.  0.
         12    1    1    2    0    0 -0.12782132948E+00  0.11624935024E+01  0.15900643519E+00  0.11802594977E+01  0.00000000000E+00 0. -1.
         11    1    3    3    0    0  0.38536182260E+01 -0.88523244571E+01 -0.12413704296E+01  0.97342191536E+01  0.51100000000E-03 0. -1.
        -11    1    3    3    0    0  0.33133782837E+02 -0.13074399852E+02 -0.90906684036E+01  0.36761770208E+02  0.51100000000E-03 0.  1.
         12    1    3    3    0    0 -0.36859579733E+02  0.20764230807E+02  0.10173032398E+02  0.43511751140E+02  0.00000000000E+00 0. -1.
</event>
<event>
 7    1  0.4520336E-015  0.9000773E+02  0.7816164E-02  0.1186339E+00
        -11   -1    0    0    0    0  0.00000000000E+00  0.00000000000E+00  0.45593999997E+02  0.45594000000E+02  0.51100000000E-03 0. -1.
         11   -1    0    0    0    0 -0.00000000000E+00 -0.00000000000E+00 -0.45593999997E+02  0.45594000000E+02  0.51100000000E-03 0.  1.
    9900012    2    1    2    0    0  0.11265833563E+01  0.16005909170E+00 -0.31340991526E+00  0.90007731070E+02  0.89999992320E+02 0.  0.
         12    1    1    2    0    0 -0.11265833563E+01 -0.16005909170E+00  0.31340991526E+00  0.11802689297E+01  0.00000000000E+00 0. -1.
         11    1    3    3    0    0 -0.21347173313E+02  0.36155111430E-01 -0.29688803780E+02  0.36566763403E+02  0.51100000000E-03 0. -1.
        -11    1    3    3    0    0  0.43909105850E+01  0.28386058418E+01 -0.92953613029E+01  0.10664966990E+02  0.51100000000E-03 0.  1.
        -12    1    3    3    0    0  0.18082846084E+02 -0.27147018616E+01  0.38670755167E+02  0.42776000677E+02  0.00000000000E+00 0.  1.
</event>
<event>
 7    1  0.4520336E-015  0.9000782E+02  0.7816164E-02  0.1186339E+00
        -11   -1    0    0    0    0  0.00000000000E+00  0.00000000000E+00  0.45593999997E+02  0.45594000000E+02  0.51100000000E-03 0.  1.
         11   -1    0    0    0    0 -0.00000000000E+00 -0.00000000000E+00 -0.45593999997E+02  0.45594000000E+02  0.51100000000E-03 0. -1.
    9900012    2    1    2    0    0  0.31695402227E+00 -0.92222915836E+00  0.66472761364E+00  0.90007818119E+02  0.90000080518E+02 0.  0.
         12    1    1    2    0    0 -0.31695402227E+00  0.92222915836E+00 -0.66472761364E+00  0.11801818814E+01  0.00000000000E+00 0. -1.
         11    1    3    3    0    0 -0.89826111829E+01  0.38789568131E+01 -0.31541494136E+01  0.10280188150E+02  0.51100000000E-03 0. -1.
        -11    1    3    3    0    0 -0.16530995101E+02 -0.96158302593E+00  0.35200953115E+02  0.38901228019E+02  0.51100000000E-03 0.  1.
         12    1    3    3    0    0  0.25830560306E+02 -0.38396029456E+01 -0.31382076088E+02  0.40826401949E+02  0.00000000000E+00 0. -1.
</event>
<event>
 7    1  0.4520336E-015  0.9000768E+02  0.7816164E-02  0.1186339E+00
        -11   -1    0    0    0    0  0.00000000000E+00  0.00000000000E+00  0.45593999997E+02  0.45594000000E+02  0.51100000000E-03 0. -1.
         11   -1    0    0    0    0 -0.00000000000E+00 -0.00000000000E+00 -0.45593999997E+02  0.45594000000E+02  0.51100000000E-03 0.  1.
    9900012    2    1    2    0    0  0.94108965698E+00  0.40926822997E+00 -0.58309689286E+00  0.90007681309E+02  0.89999941902E+02 0.  0.
         12    1    1    2    0    0 -0.94108965698E+00 -0.40926822997E+00  0.58309689286E+00  0.11803186913E+01  0.00000000000E+00 0. -1.
         11    1    3    3    0    0 -0.42114942413E+01 -0.54501050924E+01 -0.53626252715E+01  0.87291511229E+01  0.51100000000E-03 0. -1.
        -11    1    3    3    0    0  0.41052363353E+01 -0.36572234844E+02 -0.64750796391E+01  0.37367204652E+02  0.51100000000E-03 0.  1.
         12    1    3    3    0    0  0.10473475630E+01  0.42431608167E+02  0.11254608018E+02  0.43911325534E+02  0.00000000000E+00 0. -1.
</event>
<event>
 7    1  0.4520336E-015  0.9000772E+02  0.7816164E-02  0.1186339E+00
        -11   -1    0    0    0    0  0.00000000000E+00  0.00000000000E+00  0.45593999997E+02  0.45594000000E+02  0.51100000000E-03 0. -1.
         11   -1    0    0    0    0 -0.00000000000E+00 -0.00000000000E+00 -0.45593999997E+02  0.45594000000E+02  0.51100000000E-03 0.  1.
    9900012    2    1    2    0    0  0.98377322715E+00  0.61428120671E+00  0.21887674204E+00  0.90007721138E+02  0.89999982257E+02 0.  0.
         12    1    1    2    0    0 -0.98377322715E+00 -0.61428120671E+00 -0.21887674204E+00  0.11802788618E+01  0.00000000000E+00 0. -1.
         11    1    3    3    0    0 -0.66559162085E-01 -0.70468040036E+01 -0.22910794226E+01  0.74101904139E+01  0.51100000000E-03 0. -1.
        -11    1    3    3    0    0 -0.17354582066E+00 -0.35294778642E+02 -0.11939606500E+02  0.37259974787E+02  0.51100000000E-03 0.  1.
         12    1    3    3    0    0  0.12238782099E+01  0.42955863852E+02  0.14449562665E+02  0.45337555937E+02  0.00000000000E+00 0. -1.
</event>
<event>
 7    1  0.4520336E-015  0.9000777E+02  0.7816164E-02  0.1186339E+00
        -11   -1    0    0    0    0  0.00000000000E+00  0.00000000000E+00  0.45593999997E+02  0.45594000000E+02  0.51100000000E-03 0.  1.
         11   -1    0    0    0    0 -0.00000000000E+00 -0.00000000000E+00 -0.45593999997E+02  0.45594000000E+02  0.51100000000E-03 0. -1.
    9900012    2    1    2    0    0 -0.58054027477E+00 -0.26159055094E+00  0.99372012445E+00  0.90007772771E+02  0.90000034571E+02 0.  0.
         12    1    1    2    0    0  0.58054027477E+00  0.26159055094E+00 -0.99372012445E+00  0.11802272293E+01  0.00000000000E+00 0. -1.
         11    1    3    3    0    0 -0.60495194024E+01  0.65450218918E+01  0.60154124833E+01  0.10752636150E+02  0.51100000000E-03 0. -1.
        -11    1    3    3    0    0 -0.77767885651E+01  0.79557312559E+01  0.33841578671E+02  0.35623370803E+02  0.51100000000E-03 0.  1.
         12    1    3    3    0    0  0.13245767693E+02 -0.14762343699E+02 -0.38863271030E+02  0.43631765818E+02  0.00000000000E+00 0. -1.
</event>
<event>
 7    1  0.4520336E-015  0.9000773E+02  0.7816164E-02  0.1186339E+00
        -11   -1    0    0    0    0  0.00000000000E+00  0.00000000000E+00  0.45593999997E+02  0.45594000000E+02  0.51100000000E-03 0.  1.
         11   -1    0    0    0    0 -0.00000000000E+00 -0.00000000000E+00 -0.45593999997E+02  0.45594000000E+02  0.51100000000E-03 0. -1.
    9900012    2    1    2    0    0  0.78647973040E+00 -0.86730947347E+00 -0.14917831216E+00  0.90007732972E+02  0.89999994247E+02 0.  0.
         12    1    1    2    0    0 -0.78647973040E+00  0.86730947347E+00  0.14917831216E+00  0.11802670282E+01  0.00000000000E+00 0. -1.
         11    1    3    3    0    0 -0.22770411432E+02  0.97075619790E+01 -0.27974853446E+02  0.37353993387E+02  0.51100000000E-03 0. -1.
        -11    1    3    3    0    0 -0.64813680529E+01  0.60194446841E+01  0.63143016566E+00  0.88679507474E+01  0.51100000000E-03 0.  1.
        -12    1    3    3    0    0  0.30038259215E+02 -0.16594316137E+02  0.27194244968E+02  0.43785788837E+02  0.00000000000E+00 0.  1.
</event>
<event>
 7    1  0.4520336E-015  0.9000767E+02  0.7816164E-02  0.1186339E+00
        -11   -1    0    0    0    0  0.00000000000E+00  0.00000000000E+00  0.45593999997E+02  0.45594000000E+02  0.51100000000E-03 0.  1.
         11   -1    0    0    0    0 -0.00000000000E+00 -0.00000000000E+00 -0.45593999997E+02  0.45594000000E+02  0.51100000000E-03 0. -1.
    9900012    2    1    2    0    0  0.91777871360E+00 -0.68554706555E+00  0.28439847110E+00  0.90007671640E+02  0.89999932106E+02 0.  0.
         12    1    1    2    0    0 -0.91777871360E+00  0.68554706555E+00 -0.28439847110E+00  0.11803283596E+01  0.00000000000E+00 0. -1.
         11    1    3    3    0    0  0.20977873171E+01 -0.92942618529E+01 -0.37337638928E+01  0.10233523738E+02  0.51100000000E-03 0. -1.
        -11    1    3    3    0    0 -0.17329590468E+02 -0.31412507965E+02 -0.31993894657E+01  0.36018001827E+02  0.51100000000E-03 0.  1.
         12    1    3    3    0    0  0.16149581865E+02  0.40021222752E+02  0.72175518296E+01  0.43756146075E+02  0.00000000000E+00 0. -1.
</event>
<event>
 7    1  0.4520336E-015  0.9000787E+02  0.7816164E-02  0.1186339E+00
        -11   -1    0    0    0    0  0.00000000000E+00  0.00000000000E+00  0.45593999997E+02  0.45594000000E+02  0.51100000000E-03 0. -1.
         11   -1    0    0    0    0 -0.00000000000E+00 -0.00000000000E+00 -0.45593999997E+02  0.45594000000E+02  0.51100000000E-03 0.  1.
    9900012    2    1    2    0    0  0.30857852279E+00 -0.11358846342E+01 -0.85109960799E-01  0.90007873603E+02  0.90000136735E+02 0.  0.
         12    1    1    2    0    0 -0.30857852279E+00  0.11358846342E+01  0.85109960799E-01  0.11801263968E+01  0.00000000000E+00 0. -1.
         11    1    3    3    0    0 -0.24333895113E+02  0.26957499546E+02  0.85313421918E+01  0.37304544401E+02  0.51100000000E-03 0. -1.
        -11    1    3    3    0    0 -0.44889210524E+00  0.70781091370E+01 -0.62186784307E+01  0.94325550496E+01  0.51100000000E-03 0.  1.
        -12    1    3    3    0    0  0.25091365741E+02 -0.35171493317E+02 -0.23977737219E+01  0.43270774152E+02  0.00000000000E+00 0.  1.
</event>
<event>
 7    1  0.4520336E-015  0.9000768E+02  0.7816164E-02  0.1186339E+00
        -11   -1    0    0    0    0  0.00000000000E+00  0.00000000000E+00  0.45593999997E+02  0.45594000000E+02  0.51100000000E-03 0. -1.
         11   -1    0    0    0    0 -0.00000000000E+00 -0.00000000000E+00 -0.45593999997E+02  0.45594000000E+02  0.51100000000E-03 0.  1.
    9900012    2    1    2    0    0  0.27918103347E+00  0.10626540810E+01 -0.43125400132E+00  0.90007679807E+02  0.89999940380E+02 0.  0.
         12    1    1    2    0    0 -0.27918103347E+00 -0.10626540810E+01  0.43125400132E+00  0.11803201934E+01  0.00000000000E+00 0. -1.
         11    1    3    3    0    0  0.17072340463E+02 -0.94841347481E+01 -0.10674470481E+02  0.22256638136E+02  0.51100000000E-03 0. -1.
        -11    1    3    3    0    0 -0.34454838552E+02 -0.74304715749E+01 -0.86034716443E+01  0.36281779615E+02  0.51100000000E-03 0.  1.
         12    1    3    3    0    0  0.17661679122E+02  0.17977260404E+02  0.18846688124E+02  0.31469262055E+02  0.00000000000E+00 0. -1.
</event>
<event>
 7    1  0.4520336E-015  0.9000779E+02  0.7816164E-02  0.1186339E+00
        -11   -1    0    0    0    0  0.00000000000E+00  0.00000000000E+00  0.45593999997E+02  0.45594000000E+02  0.51100000000E-03 0.  1.
         11   -1    0    0    0    0 -0.00000000000E+00 -0.00000000000E+00 -0.45593999997E+02  0.45594000000E+02  0.51100000000E-03 0. -1.
    9900012    2    1    2    0    0 -0.38621518644E+00  0.10798014448E+01 -0.27884615772E+00  0.90007793022E+02  0.90000055090E+02 0.  0.
         12    1    1    2    0    0  0.38621518644E+00 -0.10798014448E+01  0.27884615772E+00  0.11802069776E+01  0.00000000000E+00 0. -1.
         11    1    3    3    0    0 -0.19569304048E+01 -0.11321468318E+02 -0.21908195535E+01  0.11696363198E+02  0.51100000000E-03 0. -1.
        -11    1    3    3    0    0  0.17116345413E+02 -0.29164384225E+02 -0.10772337431E+01  0.33833282731E+02  0.51100000000E-03 0.  1.
         12    1    3    3    0    0 -0.15545630194E+02  0.41565653988E+02  0.29892071389E+01  0.44478147094E+02  0.00000000000E+00 0. -1.
</event>
<event>
 7    1  0.4520336E-015  0.9000802E+02  0.7816164E-02  0.1186338E+00
        -11   -1    0    0    0    0  0.00000000000E+00  0.00000000000E+00  0.45593999997E+02  0.45594000000E+02  0.51100000000E-03 0.  1.
         11   -1    0    0    0    0 -0.00000000000E+00 -0.00000000000E+00 -0.45593999997E+02  0.45594000000E+02  0.51100000000E-03 0. -1.
    9900012    2    1    2    0    0 -0.17780575384E+00  0.67312292510E+00 -0.95269742842E+00  0.90008024683E+02  0.90000289808E+02 0.  0.
         12    1    1    2    0    0  0.17780575384E+00 -0.67312292510E+00  0.95269742842E+00  0.11799753169E+01  0.00000000000E+00 0. -1.
         11    1    3    3    0    0  0.87330933550E+01 -0.34074745773E+01 -0.34815752490E+01  0.99999584508E+01  0.51100000000E-03 0. -1.
        -11    1    3    3    0    0 -0.38459735003E+02 -0.70463991431E+01  0.20004408222E+02  0.43920146926E+02  0.51100000000E-03 0.  1.
         12    1    3    3    0    0  0.29548835894E+02  0.11126996645E+02 -0.17475530402E+02  0.36087919307E+02  0.00000000000E+00 0. -1.
</event>
<event>
 7    1  0.4520336E-015  0.9000760E+02  0.7816164E-02  0.1186339E+00
        -11   -1    0    0    0    0  0.00000000000E+00  0.00000000000E+00  0.45593999997E+02  0.45594000000E+02  0.51100000000E-03 0. -1.
         11   -1    0    0    0    0 -0.00000000000E+00 -0.00000000000E+00 -0.45593999997E+02  0.45594000000E+02  0.51100000000E-03 0.  1.
    9900012    2    1    2    0    0 -0.39944852739E+00 -0.80974046076E+00 -0.76032647744E+00  0.90007603841E+02  0.89999863412E+02 0.  0.
         12    1    1    2    0    0  0.39944852739E+00  0.80974046076E+00  0.76032647744E+00  0.11803961590E+01  0.00000000000E+00 0. -1.
         11    1    3    3    0    0 -0.29607642632E+01 -0.92198349010E+01 -0.27567480015E+01  0.10068323616E+02  0.51100000000E-03 0. -1.
        -11    1    3    3    0    0  0.21358384796E+02 -0.16955680203E+02 -0.26047342295E+02  0.37711267986E+02  0.51100000000E-03 0.  1.
         12    1    3    3    0    0 -0.18797069060E+02  0.25365774643E+02  0.28043763819E+02  0.42228012239E+02  0.00000000000E+00 0. -1.
</event>
<event>
 7    1  0.4520336E-015  0.9000735E+02  0.7816164E-02  0.1186340E+00
        -11   -1    0    0    0    0  0.00000000000E+00  0.00000000000E+00  0.45593999997E+02  0.45594000000E+02  0.51100000000E-03 0. -1.
         11   -1    0    0    0    0 -0.00000000000E+00 -0.00000000000E+00 -0.45593999997E+02  0.45594000000E+02  0.51100000000E-03 0.  1.
    9900012    2    1    2    0    0 -0.52354825338E+00  0.10245364818E+01 -0.26486162014E+00  0.90007352104E+02  0.89999608351E+02 0.  0.
         12    1    1    2    0    0  0.52354825338E+00 -0.10245364818E+01  0.26486162014E+00  0.11806478958E+01  0.00000000000E+00 0. -1.
         11    1    3    3    0    0 -0.36647623692E+02  0.38604909633E+00 -0.14112403357E+02  0.39272856847E+02  0.51100000000E-03 0. -1.
        -11    1    3    3    0    0  0.28037658380E+01  0.69071138915E+01 -0.75758367186E+01  0.10628387810E+02  0.51100000000E-03 0.  1.
        -12    1    3    3    0    0  0.33320309600E+02 -0.62686265061E+01  0.21423378456E+02  0.40106107447E+02  0.00000000000E+00 0.  1.
</event>
<event>
 7    1  0.4520336E-015  0.9000780E+02  0.7816164E-02  0.1186339E+00
        -11   -1    0    0    0    0  0.00000000000E+00  0.00000000000E+00  0.45593999997E+02  0.45594000000E+02  0.51100000000E-03 0.  1.
         11   -1    0    0    0    0 -0.00000000000E+00 -0.00000000000E+00 -0.45593999997E+02  0.45594000000E+02  0.51100000000E-03 0. -1.
    9900012    2    1    2    0    0  0.10284130440E+01  0.45357221380E+00  0.35987635184E+00  0.90007799961E+02  0.90000062121E+02 0.  0.
         12    1    1    2    0    0 -0.10284130440E+01 -0.45357221380E+00 -0.35987635184E+00  0.11802000385E+01  0.00000000000E+00 0. -1.
         11    1    3    3    0    0  0.13438814868E+02 -0.18721397451E+02 -0.28589261860E+02  0.36721088785E+02  0.51100000000E-03 0. -1.
        -11    1    3    3    0    0  0.42595789507E+01 -0.85677411970E+01 -0.42656919695E+00  0.95776909324E+01  0.51100000000E-03 0.  1.
        -12    1    3    3    0    0 -0.16669980774E+02  0.27742710862E+02  0.29375707409E+02  0.43709020245E+02  0.00000000000E+00 0.  1.
</event>
<event>
 7    1  0.4520336E-015  0.9000763E+02  0.7816164E-02  0.1186339E+00
        -11   -1    0    0    0    0  0.00000000000E+00  0.00000000000E+00  0.45593999997E+02  0.45594000000E+02  0.51100000000E-03 0.  1.
         11   -1    0    0    0    0 -0.00000000000E+00 -0.00000000000E+00 -0.45593999997E+02  0.45594000000E+02  0.51100000000E-03 0. -1.
    9900012    2    1    2    0    0  0.54127256624E+00  0.43375766155E+00  0.95506499508E+00  0.90007631056E+02  0.89999890986E+02 0.  0.
         12    1    1    2    0    0 -0.54127256624E+00 -0.43375766155E+00 -0.95506499508E+00  0.11803689443E+01  0.00000000000E+00 0. -1.
         11    1    3    3    0    0 -0.11199787738E+01  0.10984663259E+02 -0.51110777539E+01  0.12167181080E+02  0.51100000000E-03 0. -1.
        -11    1    3    3    0    0  0.36123065795E+02  0.72788265507E+01 -0.57165442815E+01  0.37289892426E+02  0.51100000000E-03 0.  1.
         12    1    3    3    0    0 -0.34461814455E+02 -0.17829732148E+02  0.11782687030E+02  0.40550557550E+02  0.00000000000E+00 0. -1.
</event>
<event>
 7    1  0.4520336E-015  0.9000774E+02  0.7816164E-02  0.1186339E+00
        -11   -1    0    0    0    0  0.00000000000E+00  0.00000000000E+00  0.45593999997E+02  0.45594000000E+02  0.51100000000E-03 0.  1.
         11   -1    0    0    0    0 -0.00000000000E+00 -0.00000000000E+00 -0.45593999997E+02  0.45594000000E+02  0.51100000000E-03 0. -1.
    9900012    2    1    2    0    0  0.79373854112E+00 -0.43524844241E+00  0.75732804472E+00  0.90007742466E+02  0.90000003867E+02 0.  0.
         12    1    1    2    0    0 -0.79373854112E+00  0.43524844241E+00 -0.75732804472E+00  0.11802575336E+01  0.00000000000E+00 0. -1.
         11    1    3    3    0    0 -0.12257213602E+01  0.12301074815E+02 -0.10809759145E+01  0.12409163696E+02  0.51100000000E-03 0. -1.
        -11    1    3    3    0    0  0.38615715933E+02 -0.23472174796E+01 -0.47924540548E+01  0.38982695687E+02  0.51100000000E-03 0.  1.
         12    1    3    3    0    0 -0.36596256032E+02 -0.10389105778E+02  0.66307580140E+01  0.38615883083E+02  0.00000000000E+00 0. -1.
</event>
<event>
 7    1  0.4520336E-015  0.9000767E+02  0.7816164E-02  0.1186339E+00
        -11   -1    0    0    0    0  0.00000000000E+00  0.00000000000E+00  0.45593999997E+02  0.45594000000E+02  0.51100000000E-03 0.  1.
         11   -1    0    0    0    0 -0.00000000000E+00 -0.00000000000E+00 -0.45593999997E+02  0.45594000000E+02  0.51100000000E-03 0. -1.
    9900012    2    1    2    0    0  0.41929610408E+00 -0.20952973369E+00  0.10832681939E+01  0.90007668728E+02  0.89999929155E+02 0.  0.
         12    1    1    2    0    0 -0.41929610408E+00  0.20952973369E+00 -0.10832681939E+01  0.11803312722E+01  0.00000000000E+00 0. -1.
         11    1    3    3    0    0 -0.19356479667E+02 -0.17920217690E+02 -0.26752527735E+02  0.37570004626E+02  0.51100000000E-03 0. -1.
        -11    1    3    3    0    0 -0.74366650140E+00 -0.94426871218E+01  0.19327580590E+01  0.96671057676E+01  0.51100000000E-03 0.  1.
        -12    1    3    3    0    0  0.20519442272E+02  0.27153375078E+02  0.25903037870E+02  0.42770558334E+02  0.00000000000E+00 0.  1.
</event>
<event>
 7    1  0.4520336E-015  0.9000772E+02  0.7816164E-02  0.1186339E+00
        -11   -1    0    0    0    0  0.00000000000E+00  0.00000000000E+00  0.45593999997E+02  0.45594000000E+02  0.51100000000E-03 0. -1.
         11   -1    0    0    0    0 -0.00000000000E+00 -0.00000000000E+00 -0.45593999997E+02  0.45594000000E+02  0.51100000000E-03 0.  1.
    9900012    2    1    2    0    0 -0.42677226066E+00  0.10951471409E+01 -0.10763539844E+00  0.90007717321E+02  0.89999978390E+02 0.  0.
         12    1    1    2    0    0  0.42677226066E+00 -0.10951471409E+01  0.10763539844E+00  0.11802826787E+01  0.00000000000E+00 0. -1.
         11    1    3    3    0    0 -0.72613022732E+01 -0.45587627849E+01 -0.44217791515E+01  0.96468108698E+01  0.51100000000E-03 0. -1.
        -11    1    3    3    0    0  0.24462997124E+02 -0.29965071222E+02  0.10637078286E+02  0.40118464033E+02  0.51100000000E-03 0.  1.
         12    1    3    3    0    0 -0.17628467112E+02  0.35618981148E+02 -0.63229345325E+01  0.40242442419E+02  0.00000000000E+00 0. -1.
</event>
<event>
 7    1  0.4520336E-015  0.9000768E+02  0.7816164E-02  0.1186339E+00
        -11   -1    0    0    0    0  0.00000000000E+00  0.00000000000E+00  0.45593999997E+02  0.45594000000E+02  0.51100000000E-03 0. -1.
         11   -1    0    0    0    0 -0.00000000000E+00 -0.00000000000E+00 -0.45593999997E+02  0.45594000000E+02  0.51100000000E-03 0.  1.
    9900012    2    1    2    0    0 -0.49105390366E+00 -0.10686498825E+01  0.10002390592E+00  0.90007681700E+02  0.89999942298E+02 0.  0.
         12    1    1    2    0    0  0.49105390366E+00  0.10686498825E+01 -0.10002390592E+00  0.11803183001E+01  0.00000000000E+00 0. -1.
         11    1    3    3    0    0 -0.92543265179E+00  0.50218895787E+01 -0.11961614662E+02  0.13005999620E+02  0.51100000000E-03 0. -1.
        -11    1    3    3    0    0  0.21726009350E+02  0.58395322787E+01 -0.24359794037E+02  0.33158998558E+02  0.51100000000E-03 0.  1.
         12    1    3    3    0    0 -0.21291630602E+02 -0.11930071740E+02  0.36421432605E+02  0.43842683522E+02  0.00000000000E+00 0. -1.
</event>
<event>
 7    1  0.4520336E-015  0.9000777E+02  0.7816164E-02  0.1186339E+00
        -11   -1    0    0    0    0  0.00000000000E+00  0.00000000000E+00  0.45593999997E+02  0.45594000000E+02  0.51100000000E-03 0.  1.
         11   -1    0    0    0    0 -0.00000000000E+00 -0.00000000000E+00 -0.45593999997E+02  0.45594000000E+02  0.51100000000E-03 0. -1.
    9900012    2    1    2    0    0  0.35113016287E+00 -0.18517373210E+00  0.11114679875E+01  0.90007770027E+02  0.90000031791E+02 0.  0.
         12    1    1    2    0    0 -0.35113016287E+00  0.18517373210E+00 -0.11114679875E+01  0.11802299732E+01  0.00000000000E+00 0. -1.
         11    1    3    3    0    0 -0.17532705227E+02 -0.69511215924E+01 -0.47315437268E+01  0.19444828368E+02  0.51100000000E-03 0. -1.
        -11    1    3    3    0    0 -0.18826842316E+02  0.22815609662E+02  0.73101684751E+01  0.30470323254E+02  0.51100000000E-03 0.  1.
         12    1    3    3    0    0  0.36710677705E+02 -0.16049661802E+02 -0.14671567607E+01  0.40092618404E+02  0.00000000000E+00 0. -1.
</event>
<event>
 7    1  0.6629949E-015  0.9000771E+02  0.7816164E-02  0.1186339E+00
        -11   -1    0    0    0    0  0.00000000000E+00  0.00000000000E+00  0.45593999997E+02  0.45594000000E+02  0.51100000000E-03 0.  1.
         11   -1    0    0    0    0 -0.00000000000E+00 -0.00000000000E+00 -0.45593999997E+02  0.45594000000E+02  0.51100000000E-03 0. -1.
    9900012    2    1    2    0    0 -0.27074221176E+00  0.11144756177E+01  0.27877881966E+00  0.90007714069E+02  0.89999975095E+02 0.  0.
         12    1    1    2    0    0  0.27074221176E+00 -0.11144756177E+01 -0.27877881966E+00  0.11802859306E+01  0.00000000000E+00 0. -1.
         11    1    3    3    0    0  0.23836182123E+02  0.27739555537E+02 -0.13133526246E+02  0.38860468751E+02  0.51100000000E-03 0. -1.
        -11    1    3    3    0    0  0.85347026605E+01 -0.30789359702E+01  0.32343105634E+01  0.96323289652E+01  0.51100000000E-03 0.  1.
        -12    1    3    3    0    0 -0.32641626995E+02 -0.23546143949E+02  0.10177994502E+02  0.41514916354E+02  0.00000000000E+00 0.  1.
</event>
<event>
 7    1  0.4520336E-015  0.9000776E+02  0.7816164E-02  0.1186339E+00
        -11   -1    0    0    0    0  0.00000000000E+00  0.00000000000E+00  0.45593999997E+02  0.45594000000E+02  0.51100000000E-03 0.  1.
         11   -1    0    0    0    0 -0.00000000000E+00 -0.00000000000E+00 -0.45593999997E+02  0.45594000000E+02  0.51100000000E-03 0. -1.
    9900012    2    1    2    0    0  0.11155536655E+01 -0.73252157609E-01  0.37833558521E+00  0.90007761179E+02  0.90000022827E+02 0.  0.
         12    1    1    2    0    0 -0.11155536655E+01  0.73252157609E-01 -0.37833558521E+00  0.11802388208E+01  0.00000000000E+00 0. -1.
         11    1    3    3    0    0 -0.54227940945E+01 -0.14878495084E+01  0.63718320993E+01  0.84982725606E+01  0.51100000000E-03 0. -1.
        -11    1    3    3    0    0 -0.16614251373E+02 -0.34619856810E+02 -0.43622621522E+01  0.38647084827E+02  0.51100000000E-03 0.  1.
         12    1    3    3    0    0  0.23152599133E+02  0.36034454161E+02 -0.16312343619E+01  0.42862403792E+02  0.00000000000E+00 0. -1.
</event>
<event>
 7    1  0.4520336E-015  0.9000769E+02  0.7816164E-02  0.1186339E+00
        -11   -1    0    0    0    0  0.00000000000E+00  0.00000000000E+00  0.45593999997E+02  0.45594000000E+02  0.51100000000E-03 0. -1.
         11   -1    0    0    0    0 -0.00000000000E+00 -0.00000000000E+00 -0.45593999997E+02  0.45594000000E+02  0.51100000000E-03 0.  1.
    9900012    2    1    2    0    0 -0.31357442274E+00 -0.10691010342E+01 -0.38964801609E+00  0.90007690076E+02  0.89999950785E+02 0.  0.
         12    1    1    2    0    0  0.31357442274E+00  0.10691010342E+01  0.38964801609E+00  0.11803099239E+01  0.00000000000E+00 0. -1.
         11    1    3    3    0    0 -0.82667975812E+01  0.22154356688E+02 -0.52792314078E+00  0.23652360677E+02  0.51100000000E-03 0. -1.
        -11    1    3    3    0    0  0.10650735575E+02 -0.89605292200E+01 -0.29907026806E+02  0.32987262767E+02  0.51100000000E-03 0.  1.
         12    1    3    3    0    0 -0.26975124165E+01 -0.14262928502E+02  0.30045301931E+02  0.33368066633E+02  0.00000000000E+00 0. -1.
</event>
<event>
 7    1  0.4520336E-015  0.9000772E+02  0.7816164E-02  0.1186339E+00
        -11   -1    0    0    0    0  0.00000000000E+00  0.00000000000E+00  0.45593999997E+02  0.45594000000E+02  0.51100000000E-03 0.  1.
         11   -1    0    0    0    0 -0.00000000000E+00 -0.00000000000E+00 -0.45593999997E+02  0.45594000000E+02  0.51100000000E-03 0. -1.
    9900012    2    1    2    0    0  0.25941600335E+00  0.11503984116E+01  0.48332031148E-01  0.90007724967E+02  0.89999986137E+02 0.  0.
         12    1    1    2    0    0 -0.25941600335E+00 -0.11503984116E+01 -0.48332031148E-01  0.11802750329E+01  0.00000000000E+00 0. -1.
         11    1    3    3    0    0  0.48488403401E+01  0.83433627754E+01 -0.38361427334E+02  0.39556567879E+02  0.51100000000E-03 0. -1.
        -11    1    3    3    0    0 -0.94604727657E+01  0.40115705935E+01  0.13821231821E+00  0.10276786778E+02  0.51100000000E-03 0.  1.
        -12    1    3    3    0    0  0.48710484290E+01 -0.11204534957E+02  0.38271547047E+02  0.40174370309E+02  0.00000000000E+00 0.  1.
</event>
<event>
 7    1  0.4520336E-015  0.9000791E+02  0.7816164E-02  0.1186339E+00
        -11   -1    0    0    0    0  0.00000000000E+00  0.00000000000E+00  0.45593999997E+02  0.45594000000E+02  0.51100000000E-03 0.  1.
         11   -1    0    0    0    0 -0.00000000000E+00 -0.00000000000E+00 -0.45593999997E+02  0.45594000000E+02  0.51100000000E-03 0. -1.
    9900012    2    1    2    0    0 -0.24361510626E+00  0.73662773566E+00  0.88917521164E+00  0.90007914707E+02  0.90000178381E+02 0.  0.
         12    1    1    2    0    0  0.24361510626E+00 -0.73662773566E+00 -0.88917521164E+00  0.11800852926E+01  0.00000000000E+00 0. -1.
         11    1    3    3    0    0  0.22156632766E+01  0.14069712097E+02 -0.11231203931E+01  0.14287314720E+02  0.51100000000E-03 0. -1.
        -11    1    3    3    0    0 -0.53525076072E+01  0.18235138226E+02  0.28605341898E+02  0.34342905951E+02  0.51100000000E-03 0.  1.
         12    1    3    3    0    0  0.28932292243E+01 -0.31568222586E+02 -0.26593046293E+02  0.41377694036E+02  0.00000000000E+00 0. -1.
</event>
<event>
 7    1  0.4520336E-015  0.9000778E+02  0.7816164E-02  0.1186339E+00
        -11   -1    0    0    0    0  0.00000000000E+00  0.00000000000E+00  0.45593999997E+02  0.45594000000E+02  0.51100000000E-03 0. -1.
         11   -1    0    0    0    0 -0.00000000000E+00 -0.00000000000E+00 -0.45593999997E+02  0.45594000000E+02  0.51100000000E-03 0.  1.
    9900012    2    1    2    0    0  0.11131726053E+01  0.35008876471E+00  0.17663834534E+00  0.90007781165E+02  0.90000043077E+02 0.  0.
         12    1    1    2    0    0 -0.11131726053E+01 -0.35008876471E+00 -0.17663834534E+00  0.11802188345E+01  0.00000000000E+00 0. -1.
         11    1    3    3    0    0 -0.31553591679E+01 -0.19911655989E+00 -0.10197017841E+02  0.10675912700E+02  0.51100000000E-03 0. -1.
        -11    1    3    3    0    0 -0.20051838923E+02 -0.12413998787E+02  0.35112637895E+02  0.42297528891E+02  0.51100000000E-03 0.  1.
         12    1    3    3    0    0  0.24320370696E+02  0.12963204112E+02 -0.24738981710E+02  0.37034339574E+02  0.00000000000E+00 0. -1.
</event>
<event>
 7    1  0.4520336E-015  0.9000775E+02  0.7816164E-02  0.1186339E+00
        -11   -1    0    0    0    0  0.00000000000E+00  0.00000000000E+00  0.45593999997E+02  0.45594000000E+02  0.51100000000E-03 0.  1.
         11   -1    0    0    0    0 -0.00000000000E+00 -0.00000000000E+00 -0.45593999997E+02  0.45594000000E+02  0.51100000000E-03 0. -1.
    9900012    2    1    2    0    0  0.18755759501E+00  0.90597179667E+00  0.73281744281E+00  0.90007752504E+02  0.90000014037E+02 0.  0.
         12    1    1    2    0    0 -0.18755759501E+00 -0.90597179667E+00 -0.73281744281E+00  0.11802474962E+01  0.00000000000E+00 0. -1.
         11    1    3    3    0    0 -0.36048370468E+01 -0.27183703234E+01  0.96515530450E+01  0.10655367839E+02  0.51100000000E-03 0. -1.
        -11    1    3    3    0    0 -0.45387389873E+01  0.32151144001E+02  0.19795295370E+02  0.38028278047E+02  0.51100000000E-03 0.  1.
         12    1    3    3    0    0  0.83311336291E+01 -0.28526801881E+02 -0.28714030972E+02  0.41324106618E+02  0.00000000000E+00 0. -1.
</event>
<event>
 7    1  0.4520336E-015  0.9000772E+02  0.7816164E-02  0.1186339E+00
        -11   -1    0    0    0    0  0.00000000000E+00  0.00000000000E+00  0.45593999997E+02  0.45594000000E+02  0.51100000000E-03 0.  1.
         11   -1    0    0    0    0 -0.00000000000E+00 -0.00000000000E+00 -0.45593999997E+02  0.45594000000E+02  0.51100000000E-03 0. -1.
    9900012    2    1    2    0    0 -0.11122936949E+01 -0.25194276071E+00 -0.30395188432E+00  0.90007720725E+02  0.89999981839E+02 0.  0.
         12    1    1    2    0    0  0.11122936949E+01  0.25194276071E+00  0.30395188432E+00  0.11802792747E+01  0.00000000000E+00 0. -1.
         11    1    3    3    0    0 -0.54491767948E+01  0.39615111184E+01  0.68131825865E+01  0.95815737382E+01  0.51100000000E-03 0. -1.
        -11    1    3    3    0    0 -0.31772033031E+02  0.19135886782E+02 -0.23908099901E+01  0.37166654658E+02  0.51100000000E-03 0.  1.
         12    1    3    3    0    0  0.36108916131E+02 -0.23349340661E+02 -0.47263244808E+01  0.43259492329E+02  0.00000000000E+00 0. -1.
</event>
<event>
 7    1  0.4520336E-015  0.9000777E+02  0.7816164E-02  0.1186339E+00
        -11   -1    0    0    0    0  0.00000000000E+00  0.00000000000E+00  0.45593999997E+02  0.45594000000E+02  0.51100000000E-03 0. -1.
         11   -1    0    0    0    0 -0.00000000000E+00 -0.00000000000E+00 -0.45593999997E+02  0.45594000000E+02  0.51100000000E-03 0.  1.
    9900012    2    1    2    0    0 -0.24970298968E+00 -0.77427708834E+00  0.85502921054E+00  0.90007774791E+02  0.90000036618E+02 0.  0.
         12    1    1    2    0    0  0.24970298968E+00  0.77427708834E+00 -0.85502921054E+00  0.11802252088E+01  0.00000000000E+00 0. -1.
         11    1    3    3    0    0 -0.20534262442E+01  0.77044480494E+01  0.26302888763E+01  0.83960406692E+01  0.51100000000E-03 0. -1.
        -11    1    3    3    0    0 -0.19038267747E+02  0.18397101339E+02  0.26443643998E+02  0.37418916134E+02  0.51100000000E-03 0.  1.
         12    1    3    3    0    0  0.20841991002E+02 -0.26875826477E+02 -0.28218903664E+02  0.44192817988E+02  0.00000000000E+00 0. -1.
</event>
<event>
 7    1  0.4520336E-015  0.9000770E+02  0.7816164E-02  0.1186339E+00
        -11   -1    0    0    0    0  0.00000000000E+00  0.00000000000E+00  0.45593999997E+02  0.45594000000E+02  0.51100000000E-03 0. -1.
         11   -1    0    0    0    0 -0.00000000000E+00 -0.00000000000E+00 -0.45593999997E+02  0.45594000000E+02  0.51100000000E-03 0.  1.
    9900012    2    1    2    0    0  0.99462975618E-01 -0.15812391463E+00 -0.11654263049E+01  0.90007697273E+02  0.89999958077E+02 0.  0.
         12    1    1    2    0    0 -0.99462975618E-01  0.15812391463E+00  0.11654263049E+01  0.11803027273E+01  0.00000000000E+00 0. -1.
         11    1    3    3    0    0 -0.32396998089E+02  0.98344288437E+01  0.59788367978E+01  0.34380633583E+02  0.51100000000E-03 0. -1.
        -11    1    3    3    0    0  0.61089699624E+01  0.10356314441E+01 -0.22380502415E+02  0.23222380048E+02  0.51100000000E-03 0.  1.
        -12    1    3    3    0    0  0.26387491103E+02 -0.11028184202E+02  0.15236239313E+02  0.32404683641E+02  0.00000000000E+00 0.  1.
</event>
<event>
 7    1  0.4520336E-015  0.9000785E+02  0.7816164E-02  0.1186339E+00
        -11   -1    0    0    0    0  0.00000000000E+00  0.00000000000E+00  0.45593999997E+02  0.45594000000E+02  0.51100000000E-03 0.  1.
         11   -1    0    0    0    0 -0.00000000000E+00 -0.00000000000E+00 -0.45593999997E+02  0.45594000000E+02  0.51100000000E-03 0. -1.
    9900012    2    1    2    0    0  0.11110994675E+01  0.16422174266E+00 -0.36229114000E+00  0.90007845062E+02  0.90000107817E+02 0.  0.
         12    1    1    2    0    0 -0.11110994675E+01 -0.16422174266E+00  0.36229114000E+00  0.11801549379E+01  0.00000000000E+00 0. -1.
         11    1    3    3    0    0  0.39957713935E+01 -0.37418780665E+02  0.88352291568E+01  0.38654787673E+02  0.51100000000E-03 0. -1.
        -11    1    3    3    0    0 -0.23433490671E+01  0.19268004115E+01  0.10281290319E+02  0.10719551089E+02  0.51100000000E-03 0.  1.
        -12    1    3    3    0    0 -0.54132285890E+00  0.35656201996E+02 -0.19478810616E+02  0.40633506300E+02  0.00000000000E+00 0.  1.
</event>
<event>
 7    1  0.4520336E-015  0.9000784E+02  0.7816164E-02  0.1186339E+00
        -11   -1    0    0    0    0  0.00000000000E+00  0.00000000000E+00  0.45593999997E+02  0.45594000000E+02  0.51100000000E-03 0. -1.
         11   -1    0    0    0    0 -0.00000000000E+00 -0.00000000000E+00 -0.45593999997E+02  0.45594000000E+02  0.51100000000E-03 0.  1.
    9900012    2    1    2    0    0  0.95260654628E+00 -0.55452609864E+00  0.42167706639E+00  0.90007843242E+02  0.90000105972E+02 0.  0.
         12    1    1    2    0    0 -0.95260654628E+00  0.55452609864E+00 -0.42167706639E+00  0.11801567584E+01  0.00000000000E+00 0. -1.
         11    1    3    3    0    0  0.31253480118E+02 -0.16170871909E+02  0.22122170791E+02  0.41565220540E+02  0.51100000000E-03 0. -1.
        -11    1    3    3    0    0  0.41075525404E+01  0.64492690866E+01 -0.47887831430E+01  0.90220565214E+01  0.51100000000E-03 0.  1.
        -12    1    3    3    0    0 -0.34408426112E+02  0.91670767238E+01 -0.16911710582E+02  0.39420566180E+02  0.00000000000E+00 0.  1.
</event>
<event>
 7    1  0.4520336E-015  0.9000765E+02  0.7816164E-02  0.1186339E+00
        -11   -1    0    0    0    0  0.00000000000E+00  0.00000000000E+00  0.45593999997E+02  0.45594000000E+02  0.51100000000E-03 0.  1.
         11   -1    0    0    0    0 -0.00000000000E+00 -0.00000000000E+00 -0.45593999997E+02  0.45594000000E+02  0.51100000000E-03 0. -1.
    9900012    2    1    2    0    0  0.10651661733E+00  0.10653459781E+01 -0.49691425744E+00  0.90007647670E+02  0.89999907820E+02 0.  0.
         12    1    1    2    0    0 -0.10651661733E+00 -0.10653459781E+01  0.49691425744E+00  0.11803523296E+01  0.00000000000E+00 0. -1.
         11    1    3    3    0    0 -0.19273466875E+02  0.28318470408E+02 -0.30691851050E+01  0.34392182093E+02  0.51100000000E-03 0. -1.
        -11    1    3    3    0    0 -0.13048041892E+02 -0.57286224470E+00 -0.25627073930E+01  0.13309659568E+02  0.51100000000E-03 0.  1.
        -12    1    3    3    0    0  0.32428025384E+02 -0.26680262185E+02  0.51349782405E+01  0.42305806010E+02  0.00000000000E+00 0.  1.
</event>
<event>
 7    1  0.4520336E-015  0.9000757E+02  0.7816164E-02  0.1186339E+00
        -11   -1    0    0    0    0  0.00000000000E+00  0.00000000000E+00  0.45593999997E+02  0.45594000000E+02  0.51100000000E-03 0. -1.
         11   -1    0    0    0    0 -0.00000000000E+00 -0.00000000000E+00 -0.45593999997E+02  0.45594000000E+02  0.51100000000E-03 0.  1.
    9900012    2    1    2    0    0  0.94065155949E+00  0.61898217085E+00 -0.35420271064E+00  0.90007566247E+02  0.89999825322E+02 0.  0.
         12    1    1    2    0    0 -0.94065155949E+00 -0.61898217085E+00  0.35420271064E+00  0.11804337527E+01  0.00000000000E+00 0. -1.
         11    1    3    3    0    0  0.80926572382E+01 -0.29614203835E+01 -0.49937149046E+01  0.99598343698E+01  0.51100000000E-03 0. -1.
        -11    1    3    3    0    0  0.26714070302E+02  0.25487368184E+02  0.12449600785E+02  0.38964599947E+02  0.51100000000E-03 0.  1.
         12    1    3    3    0    0 -0.33866075981E+02 -0.21906965629E+02 -0.78100885910E+01  0.41083131931E+02  0.00000000000E+00 0. -1.
</event>
<event>
 7    1  0.4520336E-015  0.9000784E+02  0.7816164E-02  0.1186339E+00
        -11   -1    0    0    0    0  0.00000000000E+00  0.00000000000E+00  0.45593999997E+02  0.45594000000E+02  0.51100000000E-03 0.  1.
         11   -1    0    0    0    0 -0.00000000000E+00 -0.00000000000E+00 -0.45593999997E+02  0.45594000000E+02  0.51100000000E-03 0. -1.
    9900012    2    1    2    0    0  0.96435303796E+00  0.51895194985E+00  0.43988277035E+00  0.90007836977E+02  0.90000099626E+02 0.  0.
         12    1    1    2    0    0 -0.96435303796E+00 -0.51895194985E+00 -0.43988277035E+00  0.11801630225E+01  0.00000000000E+00 0. -1.
         11    1    3    3    0    0 -0.75353687420E+01  0.29336634703E+02 -0.22289296811E+02  0.37606284985E+02  0.51100000000E-03 0. -1.
        -11    1    3    3    0    0 -0.41644685756E+01 -0.14843885143E+01 -0.81438197279E+01  0.92664992203E+01  0.51100000000E-03 0.  1.
        -12    1    3    3    0    0  0.12664190356E+02 -0.27333294239E+02  0.30872999309E+02  0.43135052772E+02  0.00000000000E+00 0.  1.
</event>
<event>
 7    1  0.4520336E-015  0.9000781E+02  0.7816164E-02  0.1186339E+00
        -11   -1    0    0    0    0  0.00000000000E+00  0.00000000000E+00  0.45593999997E+02  0.45594000000E+02  0.51100000000E-03 0.  1.
         11   -1    0    0    0    0 -0.00000000000E+00 -0.00000000000E+00 -0.45593999997E+02  0.45594000000E+02  0.51100000000E-03 0. -1.
    9900012    2    1    2    0    0  0.27750318771E+00  0.21962131061E+00  0.11258772402E+01  0.90007813108E+02  0.90000075441E+02 0.  0.
         12    1    1    2    0    0 -0.27750318771E+00 -0.21962131061E+00 -0.11258772402E+01  0.11801868916E+01  0.00000000000E+00 0. -1.
         11    1    3    3    0    0 -0.26891906703E+02 -0.24808084604E+02  0.12231401814E+02  0.38577492122E+02  0.51100000000E-03 0. -1.
        -11    1    3    3    0    0 -0.80469915150E+01  0.30336752752E+01 -0.31252079685E+01  0.91500919791E+01  0.51100000000E-03 0.  1.
        -12    1    3    3    0    0  0.35216401406E+02  0.21994030639E+02 -0.79803166058E+01  0.42280229007E+02  0.00000000000E+00 0.  1.
</event>
<event>
 7    1  0.4520336E-015  0.9000749E+02  0.7816164E-02  0.1186340E+00
        -11   -1    0    0    0    0  0.00000000000E+00  0.00000000000E+00  0.45593999997E+02  0.45594000000E+02  0.51100000000E-03 0.  1.
         11   -1    0    0    0    0 -0.00000000000E+00 -0.00000000000E+00 -0.45593999997E+02  0.45594000000E+02  0.51100000000E-03 0. -1.
    9900012    2    1    2    0    0 -0.11581821378E+01  0.22775671354E+00  0.18331798084E-01  0.90007493736E+02  0.89999751853E+02 0.  0.
         12    1    1    2    0    0  0.11581821378E+01 -0.22775671354E+00 -0.18331798084E-01  0.11805062642E+01  0.00000000000E+00 0. -1.
         11    1    3    3    0    0 -0.14872224943E+02 -0.82634712647E+01  0.87868094366E+01  0.19148787231E+02  0.51100000000E-03 0. -1.
        -11    1    3    3    0    0 -0.26708889439E+02  0.73430526382E+01  0.49845149985E+01  0.28144814569E+02  0.51100000000E-03 0.  1.
         12    1    3    3    0    0  0.40422932244E+02  0.11481753401E+01 -0.13752992637E+02  0.42713891935E+02  0.00000000000E+00 0. -1.
</event>
<event>
 7    1  0.4520336E-015  0.9000789E+02  0.7816164E-02  0.1186339E+00
        -11   -1    0    0    0    0  0.00000000000E+00  0.00000000000E+00  0.45593999997E+02  0.45594000000E+02  0.51100000000E-03 0. -1.
         11   -1    0    0    0    0 -0.00000000000E+00 -0.00000000000E+00 -0.45593999997E+02  0.45594000000E+02  0.51100000000E-03 0.  1.
    9900012    2    1    2    0    0 -0.10832911031E+00 -0.10414181486E+01 -0.54440325827E+00  0.90007889046E+02  0.90000152381E+02 0.  0.
         12    1    1    2    0    0  0.10832911031E+00  0.10414181486E+01  0.54440325827E+00  0.11801109541E+01  0.00000000000E+00 0. -1.
         11    1    3    3    0    0  0.39598319148E+01 -0.42179079991E+00 -0.11046162301E+02  0.11742055958E+02  0.51100000000E-03 0. -1.
        -11    1    3    3    0    0  0.53365926201E+01  0.35942278952E+02 -0.64125118983E+01  0.36897790532E+02  0.51100000000E-03 0.  1.
         12    1    3    3    0    0 -0.94047536452E+01 -0.36561906301E+02  0.16914270941E+02  0.41368042556E+02  0.00000000000E+00 0. -1.
</event>
<event>
 7    1  0.4520336E-015  0.9000767E+02  0.7816164E-02  0.1186339E+00
        -11   -1    0    0    0    0  0.00000000000E+00  0.00000000000E+00  0.45593999997E+02  0.45594000000E+02  0.51100000000E-03 0.  1.
         11   -1    0    0    0    0 -0.00000000000E+00 -0.00000000000E+00 -0.45593999997E+02  0.45594000000E+02  0.51100000000E-03 0. -1.
    9900012    2    1    2    0    0 -0.20875422125E+00  0.10026181363E+01  0.58682858693E+00  0.90007665623E+02  0.89999926009E+02 0.  0.
         12    1    1    2    0    0  0.20875422125E+00 -0.10026181363E+01 -0.58682858693E+00  0.11803343774E+01  0.00000000000E+00 0. -1.
         11    1    3    3    0    0 -0.14938168076E+02  0.14965580331E+02 -0.22910475087E+02  0.31177032076E+02  0.51100000000E-03 0. -1.
        -11    1    3    3    0    0 -0.17156928888E+01  0.27194943576E+01  0.33287021513E+02  0.33441965449E+02  0.51100000000E-03 0.  1.
         12    1    3    3    0    0  0.16445106743E+02 -0.16682456552E+02 -0.97897178384E+01  0.25388668097E+02  0.00000000000E+00 0. -1.
</event>
<event>
 7    1  0.4520336E-015  0.9000780E+02  0.7816164E-02  0.1186339E+00
        -11   -1    0    0    0    0  0.00000000000E+00  0.00000000000E+00  0.45593999997E+02  0.45594000000E+02  0.51100000000E-03 0.  1.
         11   -1    0    0    0    0 -0.00000000000E+00 -0.00000000000E+00 -0.45593999997E+02  0.45594000000E+02  0.51100000000E-03 0. -1.
    9900012    2    1    2    0    0  0.41821201886E+00 -0.84094680376E+00  0.71468239519E+00  0.90007803514E+02  0.90000065720E+02 0.  0.
         12    1    1    2    0    0 -0.41821201886E+00  0.84094680376E+00 -0.71468239519E+00  0.11801964860E+01  0.00000000000E+00 0. -1.
         11    1    3    3    0    0  0.59684006248E+01 -0.56184067169E+01  0.72129473820E+01  0.10918558067E+02  0.51100000000E-03 0. -1.
        -11    1    3    3    0    0  0.14121431394E+02  0.70987149608E+01  0.32057994862E+02  0.35742434354E+02  0.51100000000E-03 0.  1.
         12    1    3    3    0    0 -0.19671620000E+02 -0.23212550476E+01 -0.38556259849E+02  0.43346811093E+02  0.00000000000E+00 0. -1.
</event>
<event>
 7    1  0.4520336E-015  0.9000761E+02  0.7816164E-02  0.1186339E+00
        -11   -1    0    0    0    0  0.00000000000E+00  0.00000000000E+00  0.45593999997E+02  0.45594000000E+02  0.51100000000E-03 0.  1.
         11   -1    0    0    0    0 -0.00000000000E+00 -0.00000000000E+00 -0.45593999997E+02  0.45594000000E+02  0.51100000000E-03 0. -1.
    9900012    2    1    2    0    0  0.66309188724E-01 -0.95974632446E+00 -0.68396208709E+00  0.90007612753E+02  0.89999872441E+02 0.  0.
         12    1    1    2    0    0 -0.66309188724E-01  0.95974632446E+00  0.68396208709E+00  0.11803872468E+01  0.00000000000E+00 0. -1.
         11    1    3    3    0    0 -0.34785824441E+01  0.40293420879E+01 -0.42625377017E+01  0.68194839542E+01  0.51100000000E-03 0. -1.
        -11    1    3    3    0    0 -0.16501516356E+02  0.34000082190E+02  0.94485038283E+01  0.38956127321E+02  0.51100000000E-03 0.  1.
         12    1    3    3    0    0  0.20046407989E+02 -0.38989170602E+02 -0.58699282137E+01  0.44232001478E+02  0.00000000000E+00 0. -1.
</event>
<event>
 7    1  0.4520336E-015  0.9000768E+02  0.7816164E-02  0.1186339E+00
        -11   -1    0    0    0    0  0.00000000000E+00  0.00000000000E+00  0.45593999997E+02  0.45594000000E+02  0.51100000000E-03 0.  1.
         11   -1    0    0    0    0 -0.00000000000E+00 -0.00000000000E+00 -0.45593999997E+02  0.45594000000E+02  0.51100000000E-03 0. -1.
    9900012    2    1    2    0    0  0.58434220346E+00  0.99438255826E+00  0.25079015183E+00  0.90007683016E+02  0.89999943632E+02 0.  0.
         12    1    1    2    0    0 -0.58434220346E+00 -0.99438255826E+00 -0.25079015183E+00  0.11803169842E+01  0.00000000000E+00 0. -1.
         11    1    3    3    0    0  0.36144155581E+01  0.76752084565E+01 -0.57704853106E+01  0.10260181561E+02  0.51100000000E-03 0. -1.
        -11    1    3    3    0    0 -0.18411166666E+02  0.32300878137E+02 -0.13195736898E+01  0.37202944257E+02  0.51100000000E-03 0.  1.
         12    1    3    3    0    0  0.15381093311E+02 -0.38981704035E+02  0.73408491522E+01  0.42544557198E+02  0.00000000000E+00 0. -1.
</event>
<event>
 7    1  0.4520336E-015  0.9000764E+02  0.7816164E-02  0.1186339E+00
        -11   -1    0    0    0    0  0.00000000000E+00  0.00000000000E+00  0.45593999997E+02  0.45594000000E+02  0.51100000000E-03 0. -1.
         11   -1    0    0    0    0 -0.00000000000E+00 -0.00000000000E+00 -0.45593999997E+02  0.45594000000E+02  0.51100000000E-03 0.  1.
    9900012    2    1    2    0    0  0.96645334951E+00 -0.25517288443E-01 -0.67716782689E+00  0.90007644344E+02  0.89999904449E+02 0.  0.
         12    1    1    2    0    0 -0.96645334951E+00  0.25517288443E-01  0.67716782689E+00  0.11803556560E+01  0.00000000000E+00 0. -1.
         11    1    3    3    0    0  0.14886679963E+02  0.29093524085E+02 -0.11813727454E+02  0.34750691225E+02  0.51100000000E-03 0. -1.
        -11    1    3    3    0    0 -0.57804862208E+01  0.84666504254E+01 -0.73234719913E+01  0.12598866324E+02  0.51100000000E-03 0.  1.
        -12    1    3    3    0    0 -0.81397403926E+01 -0.37585691799E+02  0.18460031619E+02  0.42658086795E+02  0.00000000000E+00 0.  1.
</event>
<event>
 7    1  0.4520336E-015  0.9000770E+02  0.7816164E-02  0.1186339E+00
        -11   -1    0    0    0    0  0.00000000000E+00  0.00000000000E+00  0.45593999997E+02  0.45594000000E+02  0.51100000000E-03 0. -1.
         11   -1    0    0    0    0 -0.00000000000E+00 -0.00000000000E+00 -0.45593999997E+02  0.45594000000E+02  0.51100000000E-03 0.  1.
    9900012    2    1    2    0    0  0.11115387483E+01  0.20811983772E-01 -0.39641692004E+00  0.90007704316E+02  0.89999965213E+02 0.  0.
         12    1    1    2    0    0 -0.11115387483E+01 -0.20811983772E-01  0.39641692004E+00  0.11802956842E+01  0.00000000000E+00 0. -1.
         11    1    3    3    0    0  0.11171694213E+02 -0.72985252548E+01  0.17023135148E+02  0.21630126052E+02  0.51100000000E-03 0. -1.
        -11    1    3    3    0    0 -0.14237479601E+02 -0.24707159463E+02 -0.21650924447E+02  0.35803799851E+02  0.51100000000E-03 0.  1.
         12    1    3    3    0    0  0.41773241358E+01  0.32026496701E+02  0.42313723789E+01  0.32573778413E+02  0.00000000000E+00 0. -1.
</event>
<event>
 7    1  0.4520336E-015  0.9000769E+02  0.7816164E-02  0.1186339E+00
        -11   -1    0    0    0    0  0.00000000000E+00  0.00000000000E+00  0.45593999997E+02  0.45594000000E+02  0.51100000000E-03 0.  1.
         11   -1    0    0    0    0 -0.00000000000E+00 -0.00000000000E+00 -0.45593999997E+02  0.45594000000E+02  0.51100000000E-03 0. -1.
    9900012    2    1    2    0    0  0.27958518490E+00 -0.11414039126E+01  0.11027316327E+00  0.90007690321E+02  0.89999951033E+02 0.  0.
         12    1    1    2    0    0 -0.27958518490E+00  0.11414039126E+01 -0.11027316327E+00  0.11803096788E+01  0.00000000000E+00 0. -1.
         11    1    3    3    0    0  0.12810371210E+01  0.53536779277E+01 -0.86529152415E+01  0.10255528553E+02  0.51100000000E-03 0. -1.
        -11    1    3    3    0    0  0.20509385336E+02  0.17595364681E+02  0.30555846401E+02  0.40790826110E+02  0.51100000000E-03 0.  1.
         12    1    3    3    0    0 -0.21510837272E+02 -0.24090446521E+02 -0.21792657997E+02  0.38961335659E+02  0.00000000000E+00 0. -1.
</event>
<event>
 7    1  0.4520336E-015  0.9000784E+02  0.7816164E-02  0.1186339E+00
        -11   -1    0    0    0    0  0.00000000000E+00  0.00000000000E+00  0.45593999997E+02  0.45594000000E+02  0.51100000000E-03 0. -1.
         11   -1    0    0    0    0 -0.00000000000E+00 -0.00000000000E+00 -0.45593999997E+02  0.45594000000E+02  0.51100000000E-03 0.  1.
    9900012    2    1    2    0    0 -0.77029002193E+00  0.88980547607E+00 -0.87605713652E-01  0.90007841000E+02  0.90000103702E+02 0.  0.
         12    1    1    2    0    0  0.77029002193E+00 -0.88980547607E+00  0.87605713652E-01  0.11801589995E+01  0.00000000000E+00 0. -1.
         11    1    3    3    0    0 -0.78676489742E+01 -0.36750819742E+01  0.34331044281E+01  0.93376835550E+01  0.51100000000E-03 0. -1.
        -11    1    3    3    0    0 -0.32202653300E+02 -0.15041382826E+02 -0.82794829955E+01  0.36493888746E+02  0.51100000000E-03 0.  1.
         12    1    3    3    0    0  0.39300012252E+02  0.19606270276E+02  0.47587728538E+01  0.44176268700E+02  0.00000000000E+00 0. -1.
</event>
<event>
 7    1  0.4520336E-015  0.9000770E+02  0.7816164E-02  0.1186339E+00
        -11   -1    0    0    0    0  0.00000000000E+00  0.00000000000E+00  0.45593999997E+02  0.45594000000E+02  0.51100000000E-03 0.  1.
         11   -1    0    0    0    0 -0.00000000000E+00 -0.00000000000E+00 -0.45593999997E+02  0.45594000000E+02  0.51100000000E-03 0. -1.
    9900012    2    1    2    0    0  0.11072370419E+01  0.40653645557E+00 -0.43232206841E-01  0.90007697166E+02  0.89999957968E+02 0.  0.
         12    1    1    2    0    0 -0.11072370419E+01 -0.40653645557E+00  0.43232206841E-01  0.11803028342E+01  0.00000000000E+00 0. -1.
         11    1    3    3    0    0 -0.36553076103E+01  0.33696040028E+02 -0.24898687869E+02  0.42056260475E+02  0.51100000000E-03 0. -1.
        -11    1    3    3    0    0 -0.36204703399E+00  0.27270983993E+01  0.68052457746E+01  0.73402666197E+01  0.51100000000E-03 0.  1.
        -12    1    3    3    0    0  0.51245916861E+01 -0.36016601972E+02  0.18050209888E+02  0.40611170071E+02  0.00000000000E+00 0.  1.
</event>
<event>
 7    1  0.4520336E-015  0.9000777E+02  0.7816164E-02  0.1186339E+00
        -11   -1    0    0    0    0  0.00000000000E+00  0.00000000000E+00  0.45593999997E+02  0.45594000000E+02  0.51100000000E-03 0.  1.
         11   -1    0    0    0    0 -0.00000000000E+00 -0.00000000000E+00 -0.45593999997E+02  0.45594000000E+02  0.51100000000E-03 0. -1.
    9900012    2    1    2    0    0  0.16630298241E+00 -0.95775657389E+00 -0.66932369703E+00  0.90007767587E+02  0.90000029319E+02 0.  0.
         12    1    1    2    0    0 -0.16630298241E+00  0.95775657389E+00  0.66932369703E+00  0.11802324128E+01  0.00000000000E+00 0. -1.
         11    1    3    3    0    0 -0.11024570849E+02  0.69647721436E+01  0.66323129211E+01  0.14629996184E+02  0.51100000000E-03 0. -1.
        -11    1    3    3    0    0 -0.97746013124E+01  0.27396012909E+02  0.10071873672E+02  0.30781926412E+02  0.51100000000E-03 0.  1.
         12    1    3    3    0    0  0.20965475144E+02 -0.35318541627E+02 -0.17373510290E+02  0.44595844991E+02  0.00000000000E+00 0. -1.
</event>
<event>
 7    1  0.4520336E-015  0.9000793E+02  0.7816164E-02  0.1186339E+00
        -11   -1    0    0    0    0  0.00000000000E+00  0.00000000000E+00  0.45593999997E+02  0.45594000000E+02  0.51100000000E-03 0.  1.
         11   -1    0    0    0    0 -0.00000000000E+00 -0.00000000000E+00 -0.45593999997E+02  0.45594000000E+02  0.51100000000E-03 0. -1.
    9900012    2    1    2    0    0 -0.29544743962E+00  0.89951004582E+00  0.70438193297E+00  0.90007931604E+02  0.90000195501E+02 0.  0.
         12    1    1    2    0    0  0.29544743962E+00 -0.89951004582E+00 -0.70438193297E+00  0.11800683962E+01  0.00000000000E+00 0. -1.
         11    1    3    3    0    0  0.18920316187E+02 -0.65870539815E+01 -0.31338224313E+02  0.37194783883E+02  0.51100000000E-03 0. -1.
        -11    1    3    3    0    0  0.86675060189E+01  0.53101379993E+01 -0.15318960858E+00  0.10165957578E+02  0.51100000000E-03 0.  1.
        -12    1    3    3    0    0 -0.27883269645E+02  0.21764260280E+01  0.32195795855E+02  0.42647190143E+02  0.00000000000E+00 0.  1.
</event>
<event>
 7    1  0.4520336E-015  0.9000774E+02  0.7816164E-02  0.1186339E+00
        -11   -1    0    0    0    0  0.00000000000E+00  0.00000000000E+00  0.45593999997E+02  0.45594000000E+02  0.51100000000E-03 0.  1.
         11   -1    0    0    0    0 -0.00000000000E+00 -0.00000000000E+00 -0.45593999997E+02  0.45594000000E+02  0.51100000000E-03 0. -1.
    9900012    2    1    2    0    0  0.91806376767E+00  0.30278958350E+00  0.67711785340E+00  0.90007741045E+02  0.90000002427E+02 0.  0.
         12    1    1    2    0    0 -0.91806376767E+00 -0.30278958350E+00 -0.67711785340E+00  0.11802589550E+01  0.00000000000E+00 0. -1.
         11    1    3    3    0    0  0.64800492238E+01 -0.16827462680E+01 -0.54027341542E+01  0.86030349033E+01  0.51100000000E-03 0. -1.
        -11    1    3    3    0    0 -0.14509994199E+02 -0.29154150476E+02 -0.21360882619E+02  0.38946010426E+02  0.51100000000E-03 0.  1.
         12    1    3    3    0    0  0.89480087426E+01  0.31139686327E+02  0.27440734626E+02  0.42458695715E+02  0.00000000000E+00 0. -1.
</event>
<event>
 7    1  0.4520336E-015  0.9000774E+02  0.7816164E-02  0.1186339E+00
        -11   -1    0    0    0    0  0.00000000000E+00  0.00000000000E+00  0.45593999997E+02  0.45594000000E+02  0.51100000000E-03 0. -1.
         11   -1    0    0    0    0 -0.00000000000E+00 -0.00000000000E+00 -0.45593999997E+02  0.45594000000E+02  0.51100000000E-03 0.  1.
    9900012    2    1    2    0    0  0.35874029896E+00 -0.87373478837E+00 -0.70775159314E+00  0.90007737572E+02  0.89999998907E+02 0.  0.
         12    1    1    2    0    0 -0.35874029896E+00  0.87373478837E+00  0.70775159314E+00  0.11802624285E+01  0.00000000000E+00 0. -1.
         11    1    3    3    0    0 -0.36176688125E+02 -0.11794283947E+00  0.19467496211E+02  0.41082235616E+02  0.51100000000E-03 0. -1.
        -11    1    3    3    0    0  0.42061754996E+01 -0.69926184844E+01  0.29646901229E+01  0.86820512201E+01  0.51100000000E-03 0.  1.
        -12    1    3    3    0    0  0.32329252924E+02  0.62368265355E+01 -0.23139937927E+02  0.40243450736E+02  0.00000000000E+00 0.  1.
</event>
<event>
 7    1  0.4520336E-015  0.9000774E+02  0.7816164E-02  0.1186339E+00
        -11   -1    0    0    0    0  0.00000000000E+00  0.00000000000E+00  0.45593999997E+02  0.45594000000E+02  0.51100000000E-03 0.  1.
         11   -1    0    0    0    0 -0.00000000000E+00 -0.00000000000E+00 -0.45593999997E+02  0.45594000000E+02  0.51100000000E-03 0. -1.
    9900012    2    1    2    0    0 -0.50869881588E+00 -0.79797141423E+00  0.70532657482E+00  0.90007737978E+02  0.89999999319E+02 0.  0.
         12    1    1    2    0    0  0.50869881588E+00  0.79797141423E+00 -0.70532657482E+00  0.11802620219E+01  0.00000000000E+00 0. -1.
         11    1    3    3    0    0  0.56862407837E+00 -0.38304227813E+02 -0.21395696829E+02  0.43878389268E+02  0.51100000000E-03 0. -1.
        -11    1    3    3    0    0 -0.10403618092E+01  0.37363274361E+01  0.91909876138E+01  0.99758081869E+01  0.51100000000E-03 0.  1.
        -12    1    3    3    0    0 -0.36961085030E-01  0.33769928963E+02  0.12910035790E+02  0.36153540523E+02  0.00000000000E+00 0.  1.
</event>
<event>
 7    1  0.4520336E-015  0.9000769E+02  0.7816164E-02  0.1186339E+00
        -11   -1    0    0    0    0  0.00000000000E+00  0.00000000000E+00  0.45593999997E+02  0.45594000000E+02  0.51100000000E-03 0. -1.
         11   -1    0    0    0    0 -0.00000000000E+00 -0.00000000000E+00 -0.45593999997E+02  0.45594000000E+02  0.51100000000E-03 0.  1.
    9900012    2    1    2    0    0 -0.18392637886E+00  0.11208084290E+01  0.32106020960E+00  0.90007694910E+02  0.89999955683E+02 0.  0.
         12    1    1    2    0    0  0.18392637886E+00 -0.11208084290E+01 -0.32106020960E+00  0.11803050901E+01  0.00000000000E+00 0. -1.
         11    1    3    3    0    0  0.14792027402E+02  0.34227290492E+02 -0.94797477686E+01  0.38473069894E+02  0.51100000000E-03 0. -1.
        -11    1    3    3    0    0  0.42407425048E+01 -0.45419315255E-01 -0.82286496771E+01  0.92572477377E+01  0.51100000000E-03 0.  1.
        -12    1    3    3    0    0 -0.19216696285E+02 -0.33061062748E+02  0.18029457655E+02  0.42277377278E+02  0.00000000000E+00 0.  1.
</event>
<event>
 7    1  0.4520336E-015  0.9000784E+02  0.7816164E-02  0.1186339E+00
        -11   -1    0    0    0    0  0.00000000000E+00  0.00000000000E+00  0.45593999997E+02  0.45594000000E+02  0.51100000000E-03 0. -1.
         11   -1    0    0    0    0 -0.00000000000E+00 -0.00000000000E+00 -0.45593999997E+02  0.45594000000E+02  0.51100000000E-03 0.  1.
    9900012    2    1    2    0    0 -0.88368947440E+00 -0.77138677230E+00 -0.12975066852E+00  0.90007839047E+02  0.90000101722E+02 0.  0.
         12    1    1    2    0    0  0.88368947440E+00  0.77138677230E+00  0.12975066852E+00  0.11801609533E+01  0.00000000000E+00 0. -1.
         11    1    3    3    0    0  0.24702339308E+01  0.89466016386E+00  0.75035499316E+01  0.79502034137E+01  0.51100000000E-03 0. -1.
        -11    1    3    3    0    0 -0.41299451189E+02  0.90341772658E+01 -0.40888691748E+01  0.42473284295E+02  0.51100000000E-03 0.  1.
         12    1    3    3    0    0  0.37945527784E+02 -0.10700224202E+02 -0.35444314252E+01  0.39584351338E+02  0.00000000000E+00 0. -1.
</event>
<event>
 7    1  0.4520336E-015  0.9000768E+02  0.7816164E-02  0.1186339E+00
        -11   -1    0    0    0    0  0.00000000000E+00  0.00000000000E+00  0.45593999997E+02  0.45594000000E+02  0.51100000000E-03 0. -1.
         11   -1    0    0    0    0 -0.00000000000E+00 -0.00000000000E+00 -0.45593999997E+02  0.45594000000E+02  0.51100000000E-03 0.  1.
    9900012    2    1    2    0    0  0.10116855166E+01  0.60616516487E+00  0.46982576531E-01  0.90007681757E+02  0.89999942356E+02 0.  0.
         12    1    1    2    0    0 -0.10116855166E+01 -0.60616516487E+00 -0.46982576531E-01  0.11803182427E+01  0.00000000000E+00 0. -1.
         11    1    3    3    0    0 -0.45808619837E+01 -0.14892420084E+02  0.40568275980E+02  0.43457490594E+02  0.51100000000E-03 0. -1.
        -11    1    3    3    0    0  0.42198420895E+01  0.12976128920E+02 -0.12892058795E+02  0.18772111475E+02  0.51100000000E-03 0.  1.
        -12    1    3    3    0    0  0.13727054108E+01  0.25224563287E+01 -0.27629234609E+02  0.27778079688E+02  0.00000000000E+00 0.  1.
</event>
<event>
 7    1  0.4520336E-015  0.9000785E+02  0.7816164E-02  0.1186339E+00
        -11   -1    0    0    0    0  0.00000000000E+00  0.00000000000E+00  0.45593999997E+02  0.45594000000E+02  0.51100000000E-03 0. -1.
         11   -1    0    0    0    0 -0.00000000000E+00 -0.00000000000E+00 -0.45593999997E+02  0.45594000000E+02  0.51100000000E-03 0.  1.
    9900012    2    1    2    0    0 -0.11143793807E+01  0.38363107008E+00 -0.61183217560E-01  0.90007848489E+02  0.90000111289E+02 0.  0.
         12    1    1    2    0    0  0.11143793807E+01 -0.38363107008E+00  0.61183217560E-01  0.11801515107E+01  0.00000000000E+00 0. -1.
         11    1    3    3    0    0  0.19096437413E+02 -0.24339858136E+02  0.21274335923E+02  0.37545971624E+02  0.51100000000E-03 0. -1.
        -11    1    3    3    0    0  0.37648721071E+01 -0.71036478008E+01 -0.44016688391E+01  0.91657385349E+01  0.51100000000E-03 0.  1.
        -12    1    3    3    0    0 -0.23975688901E+02  0.31827137007E+02 -0.16933850302E+02  0.43296138331E+02  0.00000000000E+00 0.  1.
</event>
<event>
 7    1  0.4520336E-015  0.9000821E+02  0.7816164E-02  0.1186338E+00
        -11   -1    0    0    0    0  0.00000000000E+00  0.00000000000E+00  0.45593999997E+02  0.45594000000E+02  0.51100000000E-03 0. -1.
         11   -1    0    0    0    0 -0.00000000000E+00 -0.00000000000E+00 -0.45593999997E+02  0.45594000000E+02  0.51100000000E-03 0.  1.
    9900012    2    1    2    0    0  0.90416743473E+00 -0.30400661813E+00 -0.69424120520E+00  0.90008207804E+02  0.90000475346E+02 0.  0.
         12    1    1    2    0    0 -0.90416743473E+00  0.30400661813E+00  0.69424120520E+00  0.11797921956E+01  0.00000000000E+00 0. -1.
         11    1    3    3    0    0  0.24965713692E+01  0.92807091899E+01 -0.42654979104E+01  0.10514699442E+02  0.51100000000E-03 0. -1.
        -11    1    3    3    0    0 -0.39340269522E+02 -0.42909029644E+00  0.87602249615E+01  0.40306109539E+02  0.51100000000E-03 0.  1.
         12    1    3    3    0    0  0.37747865588E+02 -0.91556255116E+01 -0.51889682563E+01  0.39187398823E+02  0.00000000000E+00 0. -1.
</event>
<event>
 7    1  0.4520336E-015  0.9000778E+02  0.7816164E-02  0.1186339E+00
        -11   -1    0    0    0    0  0.00000000000E+00  0.00000000000E+00  0.45593999997E+02  0.45594000000E+02  0.51100000000E-03 0. -1.
         11   -1    0    0    0    0 -0.00000000000E+00 -0.00000000000E+00 -0.45593999997E+02  0.45594000000E+02  0.51100000000E-03 0.  1.
    9900012    2    1    2    0    0  0.72232902723E+00  0.93149608328E+00 -0.58990771542E-01  0.90007777950E+02  0.90000039819E+02 0.  0.
         12    1    1    2    0    0 -0.72232902723E+00 -0.93149608328E+00  0.58990771542E-01  0.11802220502E+01  0.00000000000E+00 0. -1.
         11    1    3    3    0    0  0.15057306931E+02 -0.95363385483E+01 -0.77824678222E+01  0.19448163168E+02  0.51100000000E-03 0. -1.
        -11    1    3    3    0    0  0.19129769432E+02 -0.21990428609E+01 -0.18104317618E+02  0.26430099975E+02  0.51100000000E-03 0.  1.
         12    1    3    3    0    0 -0.33464747336E+02  0.12666877492E+02  0.25827794669E+02  0.44129514807E+02  0.00000000000E+00 0. -1.
</event>
<event>
 7    1  0.4520336E-015  0.9000774E+02  0.7816164E-02  0.1186339E+00
        -11   -1    0    0    0    0  0.00000000000E+00  0.00000000000E+00  0.45593999997E+02  0.45594000000E+02  0.51100000000E-03 0.  1.
         11   -1    0    0    0    0 -0.00000000000E+00 -0.00000000000E+00 -0.45593999997E+02  0.45594000000E+02  0.51100000000E-03 0. -1.
    9900012    2    1    2    0    0 -0.23159987075E+00  0.10250077804E+01  0.53734589508E+00  0.90007737292E+02  0.89999998624E+02 0.  0.
         12    1    1    2    0    0  0.23159987075E+00 -0.10250077804E+01 -0.53734589508E+00  0.11802627084E+01  0.00000000000E+00 0. -1.
         11    1    3    3    0    0 -0.38790136786E+01 -0.12851972975E+02 -0.34863802174E+01  0.13869924432E+02  0.51100000000E-03 0. -1.
        -11    1    3    3    0    0  0.33693376254E+02  0.95537568205E+01 -0.17280052702E+02  0.39052760395E+02  0.51100000000E-03 0.  1.
         12    1    3    3    0    0 -0.30045962446E+02  0.43232239352E+01  0.21303778815E+02  0.37085052465E+02  0.00000000000E+00 0. -1.
</event>
<event>
 7    1  0.4520336E-015  0.9000777E+02  0.7816164E-02  0.1186339E+00
        -11   -1    0    0    0    0  0.00000000000E+00  0.00000000000E+00  0.45593999997E+02  0.45594000000E+02  0.51100000000E-03 0.  1.
         11   -1    0    0    0    0 -0.00000000000E+00 -0.00000000000E+00 -0.45593999997E+02  0.45594000000E+02  0.51100000000E-03 0. -1.
    9900012    2    1    2    0    0 -0.23005561320E+00  0.95839346383E+00  0.64923453191E+00  0.90007767356E+02  0.90000029085E+02 0.  0.
         12    1    1    2    0    0  0.23005561320E+00 -0.95839346383E+00 -0.64923453191E+00  0.11802326441E+01  0.00000000000E+00 0. -1.
         11    1    3    3    0    0  0.73900065168E+01  0.11504351504E+02  0.13555158406E+02  0.19253691062E+02  0.51100000000E-03 0. -1.
        -11    1    3    3    0    0 -0.11222758408E+02 -0.18603085372E+02  0.24253090424E+02  0.32561288166E+02  0.51100000000E-03 0.  1.
         12    1    3    3    0    0  0.36026962779E+01  0.80571273319E+01 -0.37159014298E+02  0.38192788127E+02  0.00000000000E+00 0. -1.
</event>
<event>
 7    1  0.4520336E-015  0.9000773E+02  0.7816164E-02  0.1186339E+00
        -11   -1    0    0    0    0  0.00000000000E+00  0.00000000000E+00  0.45593999997E+02  0.45594000000E+02  0.51100000000E-03 0. -1.
         11   -1    0    0    0    0 -0.00000000000E+00 -0.00000000000E+00 -0.45593999997E+02  0.45594000000E+02  0.51100000000E-03 0.  1.
    9900012    2    1    2    0    0 -0.32603940204E+00  0.11325396023E+01 -0.63963563715E-01  0.90007729277E+02  0.89999990503E+02 0.  0.
         12    1    1    2    0    0  0.32603940204E+00 -0.11325396023E+01  0.63963563715E-01  0.11802707232E+01  0.00000000000E+00 0. -1.
         11    1    3    3    0    0 -0.15006434373E+02  0.12037935403E+02  0.34027603492E+02  0.39089420065E+02  0.51100000000E-03 0. -1.
        -11    1    3    3    0    0  0.34968938078E+01  0.98438194726E+01 -0.12898429811E+01  0.10525813189E+02  0.51100000000E-03 0.  1.
        -12    1    3    3    0    0  0.11183501163E+02 -0.20749215273E+02 -0.32801724074E+02  0.40392496023E+02  0.00000000000E+00 0.  1.
</event>
<event>
 7    1  0.4520336E-015  0.9000783E+02  0.7816164E-02  0.1186339E+00
        -11   -1    0    0    0    0  0.00000000000E+00  0.00000000000E+00  0.45593999997E+02  0.45594000000E+02  0.51100000000E-03 0. -1.
         11   -1    0    0    0    0 -0.00000000000E+00 -0.00000000000E+00 -0.45593999997E+02  0.45594000000E+02  0.51100000000E-03 0.  1.
    9900012    2    1    2    0    0  0.65084290011E+00  0.91795270342E+00  0.35576257591E+00  0.90007830242E+02  0.90000092802E+02 0.  0.
         12    1    1    2    0    0 -0.65084290011E+00 -0.91795270342E+00 -0.35576257591E+00  0.11801697576E+01  0.00000000000E+00 0. -1.
         11    1    3    3    0    0 -0.15453045489E+01  0.83892382263E+01  0.36377137638E+02  0.37363932169E+02  0.51100000000E-03 0. -1.
        -11    1    3    3    0    0 -0.41504611551E+01 -0.21938486179E+01  0.72253320414E+01  0.86165377576E+01  0.51100000000E-03 0.  1.
        -12    1    3    3    0    0  0.63466086041E+01 -0.52774369050E+01 -0.43246707103E+02  0.44027360315E+02  0.00000000000E+00 0.  1.
</event>
<event>
 7    1  0.4520336E-015  0.9000771E+02  0.7816164E-02  0.1186339E+00
        -11   -1    0    0    0    0  0.00000000000E+00  0.00000000000E+00  0.45593999997E+02  0.45594000000E+02  0.51100000000E-03 0.  1.
         11   -1    0    0    0    0 -0.00000000000E+00 -0.00000000000E+00 -0.45593999997E+02  0.45594000000E+02  0.51100000000E-03 0. -1.
    9900012    2    1    2    0    0 -0.54188048884E+00  0.14120379360E+00  0.10389923958E+01  0.90007712673E+02  0.89999973680E+02 0.  0.
         12    1    1    2    0    0  0.54188048884E+00 -0.14120379360E+00 -0.10389923958E+01  0.11802873269E+01  0.00000000000E+00 0. -1.
         11    1    3    3    0    0  0.27043826198E+02  0.37164155139E+00  0.31494694599E+02  0.41514123392E+02  0.51100000000E-03 0. -1.
        -11    1    3    3    0    0  0.30924610295E+01 -0.54487645785E+01 -0.28028958236E+01  0.68635687445E+01  0.51100000000E-03 0.  1.
        -12    1    3    3    0    0 -0.30678167716E+02  0.52183268207E+01 -0.27652806379E+02  0.41630020537E+02  0.00000000000E+00 0.  1.
</event>
<event>
 7    1  0.4520336E-015  0.9000780E+02  0.7816164E-02  0.1186339E+00
        -11   -1    0    0    0    0  0.00000000000E+00  0.00000000000E+00  0.45593999997E+02  0.45594000000E+02  0.51100000000E-03 0.  1.
         11   -1    0    0    0    0 -0.00000000000E+00 -0.00000000000E+00 -0.45593999997E+02  0.45594000000E+02  0.51100000000E-03 0. -1.
    9900012    2    1    2    0    0 -0.68019275735E+00 -0.65854029766E+00  0.70464854186E+00  0.90007802102E+02  0.90000064290E+02 0.  0.
         12    1    1    2    0    0  0.68019275735E+00  0.65854029766E+00 -0.70464854186E+00  0.11801978980E+01  0.00000000000E+00 0. -1.
         11    1    3    3    0    0  0.87363360788E+01  0.96608645073E+00 -0.37055947828E+00  0.87973976663E+01  0.51100000000E-03 0. -1.
        -11    1    3    3    0    0  0.10812179419E+02 -0.38027610867E+02 -0.43393711515E+00  0.39537206701E+02  0.51100000000E-03 0.  1.
         12    1    3    3    0    0 -0.20228708255E+02  0.36402984118E+02  0.15091451353E+01  0.41673197735E+02  0.00000000000E+00 0. -1.
</event>
<event>
 7    1  0.4520336E-015  0.9000776E+02  0.7816164E-02  0.1186339E+00
        -11   -1    0    0    0    0  0.00000000000E+00  0.00000000000E+00  0.45593999997E+02  0.45594000000E+02  0.51100000000E-03 0.  1.
         11   -1    0    0    0    0 -0.00000000000E+00 -0.00000000000E+00 -0.45593999997E+02  0.45594000000E+02  0.51100000000E-03 0. -1.
    9900012    2    1    2    0    0 -0.10217842289E+01  0.43273772070E+00  0.40205880767E+00  0.90007764333E+02  0.90000026022E+02 0.  0.
         12    1    1    2    0    0  0.10217842289E+01 -0.43273772070E+00 -0.40205880767E+00  0.11802356672E+01  0.00000000000E+00 0. -1.
         11    1    3    3    0    0  0.18023516155E+01 -0.38180616175E+01  0.33246762916E+02  0.33513777921E+02  0.51100000000E-03 0. -1.
        -11    1    3    3    0    0  0.31548363946E+01 -0.20162815013E+02 -0.18547298365E+02  0.27577062549E+02  0.51100000000E-03 0.  1.
         12    1    3    3    0    0 -0.59789722391E+01  0.24413614351E+02 -0.14297405743E+02  0.28916923863E+02  0.00000000000E+00 0. -1.
</event>
<event>
 7    1  0.4520336E-015  0.9000796E+02  0.7816164E-02  0.1186339E+00
        -11   -1    0    0    0    0  0.00000000000E+00  0.00000000000E+00  0.45593999997E+02  0.45594000000E+02  0.51100000000E-03 0. -1.
         11   -1    0    0    0    0 -0.00000000000E+00 -0.00000000000E+00 -0.45593999997E+02  0.45594000000E+02  0.51100000000E-03 0.  1.
    9900012    2    1    2    0    0 -0.77302798400E+00  0.26423903345E+00  0.85152677805E+00  0.90007960855E+02  0.90000225138E+02 0.  0.
         12    1    1    2    0    0  0.77302798400E+00 -0.26423903345E+00 -0.85152677805E+00  0.11800391454E+01  0.00000000000E+00 0. -1.
         11    1    3    3    0    0  0.65375420164E+01 -0.17881679638E+01 -0.64461960616E+01  0.93536326745E+01  0.51100000000E-03 0. -1.
        -11    1    3    3    0    0  0.20863271901E+02 -0.22505883613E+02 -0.17948289185E+02  0.35551821283E+02  0.51100000000E-03 0.  1.
         12    1    3    3    0    0 -0.28173841902E+02  0.24558290611E+02  0.25246012025E+02  0.45102506897E+02  0.00000000000E+00 0. -1.
</event>
<event>
 7    1  0.4520336E-015  0.9000765E+02  0.7816164E-02  0.1186339E+00
        -11   -1    0    0    0    0  0.00000000000E+00  0.00000000000E+00  0.45593999997E+02  0.45594000000E+02  0.51100000000E-03 0. -1.
         11   -1    0    0    0    0 -0.00000000000E+00 -0.00000000000E+00 -0.45593999997E+02  0.45594000000E+02  0.51100000000E-03 0.  1.
    9900012    2    1    2    0    0 -0.56681739506E-01 -0.27978390255E+00 -0.11453071040E+01  0.90007652503E+02  0.89999912716E+02 0.  0.
         12    1    1    2    0    0  0.56681739506E-01  0.27978390255E+00  0.11453071040E+01  0.11803474972E+01  0.00000000000E+00 0. -1.
         11    1    3    3    0    0 -0.15190841865E+02 -0.26996343762E+02  0.26870827987E+02  0.41007385311E+02  0.51100000000E-03 0. -1.
        -11    1    3    3    0    0  0.66573488028E+01  0.98084194818E+01  0.33978979369E+01  0.12331711011E+02  0.51100000000E-03 0.  1.
        -12    1    3    3    0    0  0.84768113230E+01  0.16908140378E+02 -0.31414033028E+02  0.36668556180E+02  0.00000000000E+00 0.  1.
</event>
<event>
 7    1  0.4520336E-015  0.9000776E+02  0.7816164E-02  0.1186339E+00
        -11   -1    0    0    0    0  0.00000000000E+00  0.00000000000E+00  0.45593999997E+02  0.45594000000E+02  0.51100000000E-03 0.  1.
         11   -1    0    0    0    0 -0.00000000000E+00 -0.00000000000E+00 -0.45593999997E+02  0.45594000000E+02  0.51100000000E-03 0. -1.
    9900012    2    1    2    0    0 -0.32526730479E+00  0.25716897575E+00  0.11050002176E+01  0.90007762658E+02  0.90000024325E+02 0.  0.
         12    1    1    2    0    0  0.32526730479E+00 -0.25716897575E+00 -0.11050002176E+01  0.11802373416E+01  0.00000000000E+00 0. -1.
         11    1    3    3    0    0  0.58854156696E+01 -0.35879180229E+00  0.10383036076E+02  0.11940447545E+02  0.51100000000E-03 0. -1.
        -11    1    3    3    0    0  0.25783738183E+02  0.25903091207E+02 -0.70768730826E+01  0.37227052283E+02  0.51100000000E-03 0.  1.
         12    1    3    3    0    0 -0.31994421157E+02 -0.25287130429E+02 -0.22011627756E+01  0.40840262831E+02  0.00000000000E+00 0. -1.
</event>
<event>
 7    1  0.4520336E-015  0.9000782E+02  0.7816164E-02  0.1186339E+00
        -11   -1    0    0    0    0  0.00000000000E+00  0.00000000000E+00  0.45593999997E+02  0.45594000000E+02  0.51100000000E-03 0. -1.
         11   -1    0    0    0    0 -0.00000000000E+00 -0.00000000000E+00 -0.45593999997E+02  0.45594000000E+02  0.51100000000E-03 0.  1.
    9900012    2    1    2    0    0  0.31357002106E-01 -0.24408668834E+00 -0.11542393703E+01  0.90007817770E+02  0.90000080164E+02 0.  0.
         12    1    1    2    0    0 -0.31357002106E-01  0.24408668834E+00  0.11542393703E+01  0.11801822304E+01  0.00000000000E+00 0. -1.
         11    1    3    3    0    0  0.74245061854E+01 -0.25595604198E+02  0.42050024221E+01  0.26980368640E+02  0.51100000000E-03 0. -1.
        -11    1    3    3    0    0  0.18769631929E+02  0.23365061624E+01 -0.17853810415E+02  0.26009938301E+02  0.51100000000E-03 0.  1.
         12    1    3    3    0    0 -0.26162781113E+02  0.23015011347E+02  0.12494568623E+02  0.37017510828E+02  0.00000000000E+00 0. -1.
</event>
<event>
 7    1  0.4520336E-015  0.9000764E+02  0.7816164E-02  0.1186339E+00
        -11   -1    0    0    0    0  0.00000000000E+00  0.00000000000E+00  0.45593999997E+02  0.45594000000E+02  0.51100000000E-03 0.  1.
         11   -1    0    0    0    0 -0.00000000000E+00 -0.00000000000E+00 -0.45593999997E+02  0.45594000000E+02  0.51100000000E-03 0. -1.
    9900012    2    1    2    0    0 -0.65009207431E-01  0.54229772222E+00  0.10463971781E+01  0.90007635619E+02  0.89999895610E+02 0.  0.
         12    1    1    2    0    0  0.65009207431E-01 -0.54229772222E+00 -0.10463971781E+01  0.11803643806E+01  0.00000000000E+00 0. -1.
         11    1    3    3    0    0  0.13154451658E+02 -0.24396527142E+01  0.12470787236E+02  0.18289670263E+02  0.51100000000E-03 0. -1.
        -11    1    3    3    0    0 -0.77655212786E+00  0.35369647962E+02 -0.63664668639E+00  0.35383899579E+02  0.51100000000E-03 0.  1.
         12    1    3    3    0    0 -0.12442908737E+02 -0.32387697526E+02 -0.10787743372E+02  0.36334065777E+02  0.00000000000E+00 0. -1.
</event>
<event>
 7    1  0.4520336E-015  0.9000775E+02  0.7816164E-02  0.1186339E+00
        -11   -1    0    0    0    0  0.00000000000E+00  0.00000000000E+00  0.45593999997E+02  0.45594000000E+02  0.51100000000E-03 0.  1.
         11   -1    0    0    0    0 -0.00000000000E+00 -0.00000000000E+00 -0.45593999997E+02  0.45594000000E+02  0.51100000000E-03 0. -1.
    9900012    2    1    2    0    0  0.97302851635E+00 -0.35387423896E+00 -0.56655784404E+00  0.90007746103E+02  0.90000007552E+02 0.  0.
         12    1    1    2    0    0 -0.97302851635E+00  0.35387423896E+00  0.56655784404E+00  0.11802538970E+01  0.00000000000E+00 0. -1.
         11    1    3    3    0    0  0.29903320379E+01 -0.78251599339E+01  0.36731743984E+01  0.91469898934E+01  0.51100000000E-03 0. -1.
        -11    1    3    3    0    0 -0.26262666488E+02  0.79233862144E-01  0.28957504169E+02  0.39093106515E+02  0.51100000000E-03 0.  1.
         12    1    3    3    0    0  0.24245362966E+02  0.73920518328E+01 -0.33197236411E+02  0.41767649695E+02  0.00000000000E+00 0. -1.
</event>
<event>
 7    1  0.4520336E-015  0.9000763E+02  0.7816164E-02  0.1186339E+00
        -11   -1    0    0    0    0  0.00000000000E+00  0.00000000000E+00  0.45593999997E+02  0.45594000000E+02  0.51100000000E-03 0.  1.
         11   -1    0    0    0    0 -0.00000000000E+00 -0.00000000000E+00 -0.45593999997E+02  0.45594000000E+02  0.51100000000E-03 0. -1.
    9900012    2    1    2    0    0 -0.81297825514E+00  0.77785316191E+00  0.35677400124E+00  0.90007628502E+02  0.89999888398E+02 0.  0.
         12    1    1    2    0    0  0.81297825514E+00 -0.77785316191E+00 -0.35677400124E+00  0.11803714978E+01  0.00000000000E+00 0. -1.
         11    1    3    3    0    0  0.22469266075E+02 -0.34035299916E+02 -0.19011474798E+01  0.40827489763E+02  0.51100000000E-03 0. -1.
        -11    1    3    3    0    0  0.25597118005E+01  0.80018537996E+01 -0.68554609942E+01  0.10843391279E+02  0.51100000000E-03 0.  1.
        -12    1    3    3    0    0 -0.25841956131E+02  0.26811299278E+02  0.91133824753E+01  0.38336747460E+02  0.00000000000E+00 0.  1.
</event>
<event>
 7    1  0.4520336E-015  0.9000774E+02  0.7816164E-02  0.1186339E+00
        -11   -1    0    0    0    0  0.00000000000E+00  0.00000000000E+00  0.45593999997E+02  0.45594000000E+02  0.51100000000E-03 0.  1.
         11   -1    0    0    0    0 -0.00000000000E+00 -0.00000000000E+00 -0.45593999997E+02  0.45594000000E+02  0.51100000000E-03 0. -1.
    9900012    2    1    2    0    0  0.75981944345E+00  0.37436922629E+00  0.82190840605E+00  0.90007740989E+02  0.90000002370E+02 0.  0.
         12    1    1    2    0    0 -0.75981944345E+00 -0.37436922629E+00 -0.82190840605E+00  0.11802590106E+01  0.00000000000E+00 0. -1.
         11    1    3    3    0    0 -0.19596255870E+02  0.15435814157E+01 -0.32706591757E+02  0.38159101566E+02  0.51100000000E-03 0. -1.
        -11    1    3    3    0    0  0.45241086072E+01  0.23676512294E+01 -0.67281344660E+01  0.84463675439E+01  0.51100000000E-03 0.  1.
        -12    1    3    3    0    0  0.15831966707E+02 -0.35368634188E+01  0.40256634629E+02  0.43402271879E+02  0.00000000000E+00 0.  1.
</event>
<event>
 7    1  0.4520336E-015  0.9000772E+02  0.7816164E-02  0.1186339E+00
        -11   -1    0    0    0    0  0.00000000000E+00  0.00000000000E+00  0.45593999997E+02  0.45594000000E+02  0.51100000000E-03 0.  1.
         11   -1    0    0    0    0 -0.00000000000E+00 -0.00000000000E+00 -0.45593999997E+02  0.45594000000E+02  0.51100000000E-03 0. -1.
    9900012    2    1    2    0    0  0.83908341156E+00 -0.58008139004E+00  0.59372692378E+00  0.90007717385E+02  0.89999978455E+02 0.  0.
         12    1    1    2    0    0 -0.83908341156E+00  0.58008139004E+00 -0.59372692378E+00  0.11802826147E+01  0.00000000000E+00 0. -1.
         11    1    3    3    0    0 -0.35437603576E+01 -0.82310182713E+01 -0.26049521794E+01  0.93323992292E+01  0.51100000000E-03 0. -1.
        -11    1    3    3    0    0  0.25151154593E+02 -0.36396893595E+01  0.33623192386E+02  0.42146731576E+02  0.51100000000E-03 0.  1.
         12    1    3    3    0    0 -0.20768310824E+02  0.11290626241E+02 -0.30424513283E+02  0.38528586581E+02  0.00000000000E+00 0. -1.
</event>
<event>
 7    1  0.4520336E-015  0.9000773E+02  0.7816164E-02  0.1186339E+00
        -11   -1    0    0    0    0  0.00000000000E+00  0.00000000000E+00  0.45593999997E+02  0.45594000000E+02  0.51100000000E-03 0. -1.
         11   -1    0    0    0    0 -0.00000000000E+00 -0.00000000000E+00 -0.45593999997E+02  0.45594000000E+02  0.51100000000E-03 0.  1.
    9900012    2    1    2    0    0 -0.44818722173E+00  0.10892806084E+01  0.75045666240E-01  0.90007730589E+02  0.89999991833E+02 0.  0.
         12    1    1    2    0    0  0.44818722173E+00 -0.10892806084E+01 -0.75045666240E-01  0.11802694106E+01  0.00000000000E+00 0. -1.
         11    1    3    3    0    0  0.93090253002E+01  0.51199170562E+01 -0.45794336689E+00  0.10633965163E+02  0.51100000000E-03 0. -1.
        -11    1    3    3    0    0 -0.12413557781E+02 -0.32609109382E+02 -0.23392469836E+02  0.42007833517E+02  0.51100000000E-03 0.  1.
         12    1    3    3    0    0  0.26563452586E+01  0.28578472934E+02  0.23925458869E+02  0.37365931910E+02  0.00000000000E+00 0. -1.
</event>
<event>
 7    1  0.4520336E-015  0.9000775E+02  0.7816164E-02  0.1186339E+00
        -11   -1    0    0    0    0  0.00000000000E+00  0.00000000000E+00  0.45593999997E+02  0.45594000000E+02  0.51100000000E-03 0. -1.
         11   -1    0    0    0    0 -0.00000000000E+00 -0.00000000000E+00 -0.45593999997E+02  0.45594000000E+02  0.51100000000E-03 0.  1.
    9900012    2    1    2    0    0  0.25400184761E+00  0.62253954103E+00 -0.97000838545E+00  0.90007750583E+02  0.90000012091E+02 0.  0.
         12    1    1    2    0    0 -0.25400184761E+00 -0.62253954103E+00  0.97000838545E+00  0.11802494171E+01  0.00000000000E+00 0. -1.
         11    1    3    3    0    0 -0.12513111379E+02  0.13826891640E+02 -0.14319072918E+02  0.23511629852E+02  0.51100000000E-03 0. -1.
        -11    1    3    3    0    0 -0.10728974112E+02 -0.14454624093E+02 -0.19209167466E+02  0.26325636900E+02  0.51100000000E-03 0.  1.
         12    1    3    3    0    0  0.23496087339E+02  0.12502719943E+01  0.32558231999E+02  0.40170483831E+02  0.00000000000E+00 0. -1.
</event>
<event>
 7    1  0.4520336E-015  0.9000774E+02  0.7816164E-02  0.1186339E+00
        -11   -1    0    0    0    0  0.00000000000E+00  0.00000000000E+00  0.45593999997E+02  0.45594000000E+02  0.51100000000E-03 0. -1.
         11   -1    0    0    0    0 -0.00000000000E+00 -0.00000000000E+00 -0.45593999997E+02  0.45594000000E+02  0.51100000000E-03 0.  1.
    9900012    2    1    2    0    0 -0.98426193409E+00  0.54781849446E+00 -0.35231934981E+00  0.90007743425E+02  0.90000004839E+02 0.  0.
         12    1    1    2    0    0  0.98426193409E+00 -0.54781849446E+00  0.35231934981E+00  0.11802565747E+01  0.00000000000E+00 0. -1.
         11    1    3    3    0    0 -0.79855208373E+01  0.49147084080E+01  0.25281343089E+01  0.97115583262E+01  0.51100000000E-03 0. -1.
        -11    1    3    3    0    0 -0.17491927375E+01 -0.47118481500E+01 -0.40937345630E+02  0.41244726399E+02  0.51100000000E-03 0.  1.
         12    1    3    3    0    0  0.87504516407E+01  0.34495823641E+00  0.38056891971E+02  0.39051458700E+02  0.00000000000E+00 0. -1.
</event>
<event>
 7    1  0.4520336E-015  0.9000776E+02  0.7816164E-02  0.1186339E+00
        -11   -1    0    0    0    0  0.00000000000E+00  0.00000000000E+00  0.45593999997E+02  0.45594000000E+02  0.51100000000E-03 0.  1.
         11   -1    0    0    0    0 -0.00000000000E+00 -0.00000000000E+00 -0.45593999997E+02  0.45594000000E+02  0.51100000000E-03 0. -1.
    9900012    2    1    2    0    0  0.10443992323E+01 -0.38999189593E+00  0.38744282366E+00  0.90007756221E+02  0.90000017804E+02 0.  0.
         12    1    1    2    0    0 -0.10443992323E+01  0.38999189593E+00 -0.38744282366E+00  0.11802437786E+01  0.00000000000E+00 0. -1.
         11    1    3    3    0    0  0.26031815774E+02  0.39653509211E+01  0.37390768031E+01  0.26596242893E+02  0.51100000000E-03 0. -1.
        -11    1    3    3    0    0  0.50920232575E+01  0.17632850011E+02 -0.15707212004E+02  0.24157040579E+02  0.51100000000E-03 0.  1.
        -12    1    3    3    0    0 -0.30079439799E+02 -0.21988192828E+02  0.12355578025E+02  0.39254472749E+02  0.00000000000E+00 0.  1.
</event>
<event>
 7    1  0.4520336E-015  0.9000776E+02  0.7816164E-02  0.1186339E+00
        -11   -1    0    0    0    0  0.00000000000E+00  0.00000000000E+00  0.45593999997E+02  0.45594000000E+02  0.51100000000E-03 0.  1.
         11   -1    0    0    0    0 -0.00000000000E+00 -0.00000000000E+00 -0.45593999997E+02  0.45594000000E+02  0.51100000000E-03 0. -1.
    9900012    2    1    2    0    0  0.27690490659E+00 -0.10420700019E+01  0.47999031589E+00  0.90007755568E+02  0.90000017141E+02 0.  0.
         12    1    1    2    0    0 -0.27690490659E+00  0.10420700019E+01 -0.47999031589E+00  0.11802444321E+01  0.00000000000E+00 0. -1.
         11    1    3    3    0    0 -0.64810261042E+01  0.35673122457E+02  0.13368279309E+02  0.38643062212E+02  0.51100000000E-03 0. -1.
        -11    1    3    3    0    0  0.30056240679E+01  0.21301316951E+01  0.67395703813E+01  0.76806930847E+01  0.51100000000E-03 0.  1.
        -12    1    3    3    0    0  0.37523069429E+01 -0.38845324154E+02 -0.19627859375E+02  0.43684000271E+02  0.00000000000E+00 0.  1.
</event>
<event>
 7    1  0.4520336E-015  0.9000774E+02  0.7816164E-02  0.1186339E+00
        -11   -1    0    0    0    0  0.00000000000E+00  0.00000000000E+00  0.45593999997E+02  0.45594000000E+02  0.51100000000E-03 0. -1.
         11   -1    0    0    0    0 -0.00000000000E+00 -0.00000000000E+00 -0.45593999997E+02  0.45594000000E+02  0.51100000000E-03 0.  1.
    9900012    2    1    2    0    0  0.67218595537E+00  0.94116528286E+00  0.23533098321E+00  0.90007742943E+02  0.90000004350E+02 0.  0.
         12    1    1    2    0    0 -0.67218595537E+00 -0.94116528286E+00 -0.23533098321E+00  0.11802570567E+01  0.00000000000E+00 0. -1.
         11    1    3    3    0    0 -0.13395999798E+01  0.65233146609E+01  0.94670733497E+01  0.11574698283E+02  0.51100000000E-03 0. -1.
        -11    1    3    3    0    0  0.29490036946E+02 -0.27945782653E+02  0.35183833598E+01  0.40779995940E+02  0.51100000000E-03 0.  1.
         12    1    3    3    0    0 -0.27478251011E+02  0.22363633275E+02 -0.12750125726E+02  0.37653048720E+02  0.00000000000E+00 0. -1.
</event>
<event>
 7    1  0.4520336E-015  0.9000773E+02  0.7816164E-02  0.1186339E+00
        -11   -1    0    0    0    0  0.00000000000E+00  0.00000000000E+00  0.45593999997E+02  0.45594000000E+02  0.51100000000E-03 0. -1.
         11   -1    0    0    0    0 -0.00000000000E+00 -0.00000000000E+00 -0.45593999997E+02  0.45594000000E+02  0.51100000000E-03 0.  1.
    9900012    2    1    2    0    0  0.48416900999E+00  0.72757493144E+00 -0.79324784841E+00  0.90007734326E+02  0.89999995620E+02 0.  0.
         12    1    1    2    0    0 -0.48416900999E+00 -0.72757493144E+00  0.79324784841E+00  0.11802656735E+01  0.00000000000E+00 0. -1.
         11    1    3    3    0    0  0.17997286162E+02  0.27131762119E+02 -0.83042978234E+01  0.33600538500E+02  0.51100000000E-03 0. -1.
        -11    1    3    3    0    0  0.66342598645E+01  0.97768407313E+01  0.50184122754E+01  0.12836840759E+02  0.51100000000E-03 0.  1.
        -12    1    3    3    0    0 -0.24147377016E+02 -0.36181027919E+02  0.24926376996E+01  0.43570355068E+02  0.00000000000E+00 0.  1.
</event>
<event>
 7    1  0.4520336E-015  0.9000784E+02  0.7816164E-02  0.1186339E+00
        -11   -1    0    0    0    0  0.00000000000E+00  0.00000000000E+00  0.45593999997E+02  0.45594000000E+02  0.51100000000E-03 0.  1.
         11   -1    0    0    0    0 -0.00000000000E+00 -0.00000000000E+00 -0.45593999997E+02  0.45594000000E+02  0.51100000000E-03 0. -1.
    9900012    2    1    2    0    0 -0.14698277577E+00 -0.98423519238E+00  0.63440036460E+00  0.90007836167E+02  0.90000098804E+02 0.  0.
         12    1    1    2    0    0  0.14698277577E+00  0.98423519238E+00 -0.63440036460E+00  0.11801638331E+01  0.00000000000E+00 0. -1.
         11    1    3    3    0    0  0.11968710673E+02 -0.60680121116E+01  0.39206059349E+00  0.13424772546E+02  0.51100000000E-03 0. -1.
        -11    1    3    3    0    0  0.67960296988E+01 -0.27175095375E+02  0.19877169206E+02  0.34347833764E+02  0.51100000000E-03 0.  1.
         12    1    3    3    0    0 -0.18911723147E+02  0.32258872295E+02 -0.19634829435E+02  0.42235229857E+02  0.00000000000E+00 0. -1.
</event>
<event>
 7    1  0.4520336E-015  0.9000770E+02  0.7816164E-02  0.1186339E+00
        -11   -1    0    0    0    0  0.00000000000E+00  0.00000000000E+00  0.45593999997E+02  0.45594000000E+02  0.51100000000E-03 0.  1.
         11   -1    0    0    0    0 -0.00000000000E+00 -0.00000000000E+00 -0.45593999997E+02  0.45594000000E+02  0.51100000000E-03 0. -1.
    9900012    2    1    2    0    0  0.87451461333E+00 -0.70498829968E+00 -0.36238739735E+00  0.90007699641E+02  0.89999960476E+02 0.  0.
         12    1    1    2    0    0 -0.87451461333E+00  0.70498829968E+00  0.36238739735E+00  0.11803003590E+01  0.00000000000E+00 0. -1.
         11    1    3    3    0    0  0.63478008471E+01 -0.31438556597E+02  0.22154072419E+02  0.38980512330E+02  0.51100000000E-03 0. -1.
        -11    1    3    3    0    0 -0.75731769937E+01 -0.55858453074E+01 -0.46919514262E+01  0.10515183594E+02  0.51100000000E-03 0.  1.
        -12    1    3    3    0    0  0.20998907599E+01  0.36319413605E+02 -0.17824508390E+02  0.40512003717E+02  0.00000000000E+00 0.  1.
</event>
<event>
 7    1  0.4520336E-015  0.9000770E+02  0.7816164E-02  0.1186339E+00
        -11   -1    0    0    0    0  0.00000000000E+00  0.00000000000E+00  0.45593999997E+02  0.45594000000E+02  0.51100000000E-03 0.  1.
         11   -1    0    0    0    0 -0.00000000000E+00 -0.00000000000E+00 -0.45593999997E+02  0.45594000000E+02  0.51100000000E-03 0. -1.
    9900012    2    1    2    0    0  0.11469404844E+01  0.26246322751E+00  0.93535314619E-01  0.90007699921E+02  0.89999960760E+02 0.  0.
         12    1    1    2    0    0 -0.11469404844E+01 -0.26246322751E+00 -0.93535314619E-01  0.11803000786E+01  0.00000000000E+00 0. -1.
         11    1    3    3    0    0 -0.50296416243E+01  0.20557188140E+01  0.84902962837E+01  0.10080099501E+02  0.51100000000E-03 0. -1.
        -11    1    3    3    0    0 -0.87135498225E+01  0.34730990780E+02  0.88408092930E+01  0.36882618946E+02  0.51100000000E-03 0.  1.
         12    1    3    3    0    0  0.14890131931E+02 -0.36524246367E+02 -0.17237570262E+02  0.43044981474E+02  0.00000000000E+00 0. -1.
</event>
<event>
 7    1  0.4520336E-015  0.9000774E+02  0.7816164E-02  0.1186339E+00
        -11   -1    0    0    0    0  0.00000000000E+00  0.00000000000E+00  0.45593999997E+02  0.45594000000E+02  0.51100000000E-03 0.  1.
         11   -1    0    0    0    0 -0.00000000000E+00 -0.00000000000E+00 -0.45593999997E+02  0.45594000000E+02  0.51100000000E-03 0. -1.
    9900012    2    1    2    0    0 -0.32526679079E-01 -0.76496389118E+00  0.89821743213E+00  0.90007736345E+02  0.89999997665E+02 0.  0.
         12    1    1    2    0    0  0.32526679079E-01  0.76496389118E+00 -0.89821743213E+00  0.11802636549E+01  0.00000000000E+00 0. -1.
         11    1    3    3    0    0  0.56478085676E+01 -0.16565439812E+02 -0.35252744462E+02  0.39358195210E+02  0.51100000000E-03 0. -1.
        -11    1    3    3    0    0  0.58237197536E+01 -0.57182637735E+01  0.15460458863E+01  0.83068953584E+01  0.51100000000E-03 0.  1.
        -12    1    3    3    0    0 -0.11504055000E+02  0.21518739695E+02  0.34604916008E+02  0.42342645777E+02  0.00000000000E+00 0.  1.
</event>
<event>
 7    1  0.4520336E-015  0.9000777E+02  0.7816164E-02  0.1186339E+00
        -11   -1    0    0    0    0  0.00000000000E+00  0.00000000000E+00  0.45593999997E+02  0.45594000000E+02  0.51100000000E-03 0. -1.
         11   -1    0    0    0    0 -0.00000000000E+00 -0.00000000000E+00 -0.45593999997E+02  0.45594000000E+02  0.51100000000E-03 0.  1.
    9900012    2    1    2    0    0 -0.34581306205E+00 -0.15242094975E+00 -0.11180936155E+01  0.90007766060E+02  0.90000027772E+02 0.  0.
         12    1    1    2    0    0  0.34581306205E+00  0.15242094975E+00  0.11180936155E+01  0.11802339399E+01  0.00000000000E+00 0. -1.
         11    1    3    3    0    0 -0.32265878610E+02 -0.73281842568E+01  0.10512083597E+02  0.34717331533E+02  0.51100000000E-03 0. -1.
        -11    1    3    3    0    0  0.19357477387E+01 -0.15216727735E+02  0.19857787853E+01  0.15467360470E+02  0.51100000000E-03 0.  1.
        -12    1    3    3    0    0  0.29984317809E+02  0.22392491042E+02 -0.13615955998E+02  0.39823074056E+02  0.00000000000E+00 0.  1.
</event>
<event>
 7    1  0.4520336E-015  0.9000735E+02  0.7816164E-02  0.1186340E+00
        -11   -1    0    0    0    0  0.00000000000E+00  0.00000000000E+00  0.45593999997E+02  0.45594000000E+02  0.51100000000E-03 0.  1.
         11   -1    0    0    0    0 -0.00000000000E+00 -0.00000000000E+00 -0.45593999997E+02  0.45594000000E+02  0.51100000000E-03 0. -1.
    9900012    2    1    2    0    0  0.33882754042E+00 -0.21358385101E-01  0.11307834552E+01  0.90007351235E+02  0.89999607471E+02 0.  0.
         12    1    1    2    0    0 -0.33882754042E+00  0.21358385101E-01 -0.11307834552E+01  0.11806487646E+01  0.00000000000E+00 0. -1.
         11    1    3    3    0    0  0.52601170998E+01  0.30879344094E+01 -0.64879641342E+01  0.89049340081E+01  0.51100000000E-03 0. -1.
        -11    1    3    3    0    0  0.27778251960E+02  0.10100408873E+02  0.27708906084E+02  0.40514602528E+02  0.51100000000E-03 0.  1.
         12    1    3    3    0    0 -0.32699541520E+02 -0.13209701667E+02 -0.20090158495E+02  0.40587814699E+02  0.00000000000E+00 0. -1.
</event>
<event>
 7    1  0.4520336E-015  0.9000768E+02  0.7816164E-02  0.1186339E+00
        -11   -1    0    0    0    0  0.00000000000E+00  0.00000000000E+00  0.45593999997E+02  0.45594000000E+02  0.51100000000E-03 0. -1.
         11   -1    0    0    0    0 -0.00000000000E+00 -0.00000000000E+00 -0.45593999997E+02  0.45594000000E+02  0.51100000000E-03 0.  1.
    9900012    2    1    2    0    0  0.34425392139E+00  0.88061625713E+00  0.70650885911E+00  0.90007682025E+02  0.89999942627E+02 0.  0.
         12    1    1    2    0    0 -0.34425392139E+00 -0.88061625713E+00 -0.70650885911E+00  0.11803179753E+01  0.00000000000E+00 0. -1.
         11    1    3    3    0    0  0.76779241881E+01  0.47099521232E+01  0.35960060920E+02  0.37071014964E+02  0.51100000000E-03 0. -1.
        -11    1    3    3    0    0  0.88031499638E+01  0.38825320986E+01  0.35136429554E+01  0.10242811717E+02  0.51100000000E-03 0.  1.
        -12    1    3    3    0    0 -0.16136820231E+02 -0.77118679646E+01 -0.38767195017E+02  0.42693855344E+02  0.00000000000E+00 0.  1.
</event>
<event>
 7    1  0.4520336E-015  0.9000775E+02  0.7816164E-02  0.1186339E+00
        -11   -1    0    0    0    0  0.00000000000E+00  0.00000000000E+00  0.45593999997E+02  0.45594000000E+02  0.51100000000E-03 0. -1.
         11   -1    0    0    0    0 -0.00000000000E+00 -0.00000000000E+00 -0.45593999997E+02  0.45594000000E+02  0.51100000000E-03 0.  1.
    9900012    2    1    2    0    0 -0.99373798065E+00 -0.14870036917E+00 -0.61916651195E+00  0.90007748271E+02  0.90000009748E+02 0.  0.
         12    1    1    2    0    0  0.99373798065E+00  0.14870036917E+00  0.61916651195E+00  0.11802517289E+01  0.00000000000E+00 0. -1.
         11    1    3    3    0    0 -0.62254479551E+01  0.71570938062E+01 -0.16008772819E+01  0.96199273555E+01  0.51100000000E-03 0. -1.
        -11    1    3    3    0    0  0.80473825753E+01 -0.29727856628E+02 -0.29363479852E+02  0.42552553100E+02  0.51100000000E-03 0.  1.
         12    1    3    3    0    0 -0.28156726009E+01  0.22422062453E+02  0.30345190622E+02  0.37835267816E+02  0.00000000000E+00 0. -1.
</event>
<event>
 7    1  0.4520336E-015  0.9000773E+02  0.7816164E-02  0.1186339E+00
        -11   -1    0    0    0    0  0.00000000000E+00  0.00000000000E+00  0.45593999997E+02  0.45594000000E+02  0.51100000000E-03 0.  1.
         11   -1    0    0    0    0 -0.00000000000E+00 -0.00000000000E+00 -0.45593999997E+02  0.45594000000E+02  0.51100000000E-03 0. -1.
    9900012    2    1    2    0    0 -0.10725205211E+01  0.36400068153E+00  0.33202673561E+00  0.90007729473E+02  0.89999990702E+02 0.  0.
         12    1    1    2    0    0  0.10725205211E+01 -0.36400068153E+00 -0.33202673561E+00  0.11802705272E+01  0.00000000000E+00 0. -1.
         11    1    3    3    0    0  0.32490220374E+01 -0.25306668798E+01 -0.57760975608E+01  0.70939215071E+01  0.51100000000E-03 0. -1.
        -11    1    3    3    0    0 -0.41419419871E+02 -0.96669150560E+01 -0.32107493151E+01  0.42653563750E+02  0.51100000000E-03 0.  1.
         12    1    3    3    0    0  0.37097877312E+02  0.12561582617E+02  0.93188736115E+01  0.40260244216E+02  0.00000000000E+00 0. -1.
</event>
<event>
 7    1  0.4520336E-015  0.9000779E+02  0.7816164E-02  0.1186339E+00
        -11   -1    0    0    0    0  0.00000000000E+00  0.00000000000E+00  0.45593999997E+02  0.45594000000E+02  0.51100000000E-03 0.  1.
         11   -1    0    0    0    0 -0.00000000000E+00 -0.00000000000E+00 -0.45593999997E+02  0.45594000000E+02  0.51100000000E-03 0. -1.
    9900012    2    1    2    0    0  0.51749908631E+00 -0.95680390754E+00 -0.45782973823E+00  0.90007793624E+02  0.90000055699E+02 0.  0.
         12    1    1    2    0    0 -0.51749908631E+00  0.95680390754E+00  0.45782973823E+00  0.11802063765E+01  0.00000000000E+00 0. -1.
         11    1    3    3    0    0  0.16102783964E+02  0.32509739224E+02 -0.60468273754E+01  0.36779707957E+02  0.51100000000E-03 0. -1.
        -11    1    3    3    0    0 -0.11620164896E+02  0.57909447461E+01 -0.17295205856E+01  0.13097882080E+02  0.51100000000E-03 0.  1.
        -12    1    3    3    0    0 -0.39651199815E+01 -0.39257487878E+02  0.73185182227E+01  0.40130203587E+02  0.00000000000E+00 0.  1.
</event>
<event>
 7    1  0.4520336E-015  0.9000768E+02  0.7816164E-02  0.1186339E+00
        -11   -1    0    0    0    0  0.00000000000E+00  0.00000000000E+00  0.45593999997E+02  0.45594000000E+02  0.51100000000E-03 0.  1.
         11   -1    0    0    0    0 -0.00000000000E+00 -0.00000000000E+00 -0.45593999997E+02  0.45594000000E+02  0.51100000000E-03 0. -1.
    9900012    2    1    2    0    0  0.11584408642E+01  0.28707884261E-01  0.22435669211E+00  0.90007684236E+02  0.89999944867E+02 0.  0.
         12    1    1    2    0    0 -0.11584408642E+01 -0.28707884261E-01 -0.22435669211E+00  0.11803157644E+01  0.00000000000E+00 0. -1.
         11    1    3    3    0    0  0.38744448538E+01  0.35694530792E+02  0.32644660167E+01  0.36052289664E+02  0.51100000000E-03 0. -1.
        -11    1    3    3    0    0  0.77880824814E+01  0.35056870677E+01  0.82324974178E+01  0.11862465366E+02  0.51100000000E-03 0.  1.
        -12    1    3    3    0    0 -0.10504086471E+02 -0.39171509976E+02 -0.11272606742E+02  0.42092929206E+02  0.00000000000E+00 0.  1.
</event>
<event>
 7    1  0.4520336E-015  0.9000765E+02  0.7816164E-02  0.1186339E+00
        -11   -1    0    0    0    0  0.00000000000E+00  0.00000000000E+00  0.45593999997E+02  0.45594000000E+02  0.51100000000E-03 0.  1.
         11   -1    0    0    0    0 -0.00000000000E+00 -0.00000000000E+00 -0.45593999997E+02  0.45594000000E+02  0.51100000000E-03 0. -1.
    9900012    2    1    2    0    0 -0.16754714114E-02  0.23711784599E+00  0.11562827309E+01  0.90007653681E+02  0.89999913909E+02 0.  0.
         12    1    1    2    0    0  0.16754714114E-02 -0.23711784599E+00 -0.11562827309E+01  0.11803463195E+01  0.00000000000E+00 0. -1.
         11    1    3    3    0    0 -0.67080217281E+01 -0.32707703121E+02  0.17160230311E+02  0.37540177191E+02  0.51100000000E-03 0. -1.
        -11    1    3    3    0    0  0.77654938401E+00 -0.36420053445E+01  0.76432650218E+01  0.85021604507E+01  0.51100000000E-03 0.  1.
        -12    1    3    3    0    0  0.59297968727E+01  0.36586826312E+02 -0.23647212602E+02  0.43965316038E+02  0.00000000000E+00 0.  1.
</event>
<event>
 7    1  0.4520336E-015  0.9000772E+02  0.7816164E-02  0.1186339E+00
        -11   -1    0    0    0    0  0.00000000000E+00  0.00000000000E+00  0.45593999997E+02  0.45594000000E+02  0.51100000000E-03 0.  1.
         11   -1    0    0    0    0 -0.00000000000E+00 -0.00000000000E+00 -0.45593999997E+02  0.45594000000E+02  0.51100000000E-03 0. -1.
    9900012    2    1    2    0    0  0.32755070564E+00  0.10291143810E+01  0.47613319345E+00  0.90007716690E+02  0.89999977750E+02 0.  0.
         12    1    1    2    0    0 -0.32755070564E+00 -0.10291143810E+01 -0.47613319345E+00  0.11802833100E+01  0.00000000000E+00 0. -1.
         11    1    3    3    0    0 -0.38868276528E+02 -0.42271038170E+01 -0.32877125344E+01  0.39235448015E+02  0.51100000000E-03 0. -1.
        -11    1    3    3    0    0  0.21766485443E+01 -0.10249328311E+02  0.21097517678E+00  0.10480030558E+02  0.51100000000E-03 0.  1.
        -12    1    3    3    0    0  0.37019178689E+02  0.15505546509E+02  0.35528705510E+01  0.40292238118E+02  0.00000000000E+00 0.  1.
</event>
<event>
 7    1  0.4520336E-015  0.9000769E+02  0.7816164E-02  0.1186339E+00
        -11   -1    0    0    0    0  0.00000000000E+00  0.00000000000E+00  0.45593999997E+02  0.45594000000E+02  0.51100000000E-03 0. -1.
         11   -1    0    0    0    0 -0.00000000000E+00 -0.00000000000E+00 -0.45593999997E+02  0.45594000000E+02  0.51100000000E-03 0.  1.
    9900012    2    1    2    0    0  0.10917803219E+00  0.80409713490E+00 -0.85711486703E+00  0.90007687355E+02  0.89999948028E+02 0.  0.
         12    1    1    2    0    0 -0.10917803219E+00 -0.80409713490E+00  0.85711486703E+00  0.11803126452E+01  0.00000000000E+00 0. -1.
         11    1    3    3    0    0 -0.37965478282E+02  0.49367917985E+01 -0.99111363638E+01  0.39547188000E+02  0.51100000000E-03 0. -1.
        -11    1    3    3    0    0 -0.16551044308E+01  0.30688431148E+01  0.94591403856E+01  0.10081294849E+02  0.51100000000E-03 0.  1.
        -12    1    3    3    0    0  0.39729760745E+02 -0.72015377784E+01 -0.40511888885E+00  0.40379204506E+02  0.00000000000E+00 0.  1.
</event>
<event>
 7    1  0.4520336E-015  0.9000784E+02  0.7816164E-02  0.1186339E+00
        -11   -1    0    0    0    0  0.00000000000E+00  0.00000000000E+00  0.45593999997E+02  0.45594000000E+02  0.51100000000E-03 0.  1.
         11   -1    0    0    0    0 -0.00000000000E+00 -0.00000000000E+00 -0.45593999997E+02  0.45594000000E+02  0.51100000000E-03 0. -1.
    9900012    2    1    2    0    0  0.65431983822E-01  0.11094956390E+01  0.39687918187E+00  0.90007841111E+02  0.90000103814E+02 0.  0.
         12    1    1    2    0    0 -0.65431983822E-01 -0.11094956390E+01 -0.39687918187E+00  0.11801588886E+01  0.00000000000E+00 0. -1.
         11    1    3    3    0    0 -0.28690359984E+02  0.35636188762E+01 -0.16784960025E+02  0.33430091516E+02  0.51100000000E-03 0. -1.
        -11    1    3    3    0    0  0.15768597685E+02 -0.19386260120E+02 -0.53381763192E+01  0.25553314483E+02  0.51100000000E-03 0.  1.
        -12    1    3    3    0    0  0.12987194282E+02  0.16932136883E+02  0.22520015526E+02  0.31024435112E+02  0.00000000000E+00 0.  1.
</event>
<event>
 7    1  0.4520336E-015  0.9000776E+02  0.7816164E-02  0.1186339E+00
        -11   -1    0    0    0    0  0.00000000000E+00  0.00000000000E+00  0.45593999997E+02  0.45594000000E+02  0.51100000000E-03 0.  1.
         11   -1    0    0    0    0 -0.00000000000E+00 -0.00000000000E+00 -0.45593999997E+02  0.45594000000E+02  0.51100000000E-03 0. -1.
    9900012    2    1    2    0    0 -0.10061683004E+01  0.32886055356E+00  0.52194929984E+00  0.90007764861E+02  0.90000026557E+02 0.  0.
         12    1    1    2    0    0  0.10061683004E+01 -0.32886055356E+00 -0.52194929984E+00  0.11802351393E+01  0.00000000000E+00 0. -1.
         11    1    3    3    0    0  0.57626293277E+00 -0.36174287580E+02  0.29388920950E+01  0.36298047439E+02  0.51100000000E-03 0. -1.
        -11    1    3    3    0    0 -0.24856147733E+01 -0.82257700478E+01  0.17790519848E+01  0.87753404439E+01  0.51100000000E-03 0.  1.
        -12    1    3    3    0    0  0.90318354013E+00  0.44728918181E+02 -0.41959947800E+01  0.44934376978E+02  0.00000000000E+00 0.  1.
</event>
<event>
 7    1  0.4520336E-015  0.9000748E+02  0.7816164E-02  0.1186340E+00
        -11   -1    0    0    0    0  0.00000000000E+00  0.00000000000E+00  0.45593999997E+02  0.45594000000E+02  0.51100000000E-03 0. -1.
         11   -1    0    0    0    0 -0.00000000000E+00 -0.00000000000E+00 -0.45593999997E+02  0.45594000000E+02  0.51100000000E-03 0.  1.
    9900012    2    1    2    0    0  0.47171050631E+00 -0.84626479044E+00 -0.67450881483E+00  0.90007475947E+02  0.89999733830E+02 0.  0.
         12    1    1    2    0    0 -0.47171050631E+00  0.84626479044E+00  0.67450881483E+00  0.11805240525E+01  0.00000000000E+00 0. -1.
         11    1    3    3    0    0 -0.19784822049E+02 -0.23884089079E+02 -0.20799207661E+02  0.37342950262E+02  0.51100000000E-03 0. -1.
        -11    1    3    3    0    0 -0.10574248146E+02  0.12303681971E+01  0.22351284579E+01  0.10877698711E+02  0.51100000000E-03 0.  1.
        -12    1    3    3    0    0  0.30830780702E+02  0.21807456092E+02  0.17889570389E+02  0.41786826974E+02  0.00000000000E+00 0.  1.
</event>
<event>
 7    1  0.4520336E-015  0.9000779E+02  0.7816164E-02  0.1186339E+00
        -11   -1    0    0    0    0  0.00000000000E+00  0.00000000000E+00  0.45593999997E+02  0.45594000000E+02  0.51100000000E-03 0. -1.
         11   -1    0    0    0    0 -0.00000000000E+00 -0.00000000000E+00 -0.45593999997E+02  0.45594000000E+02  0.51100000000E-03 0.  1.
    9900012    2    1    2    0    0  0.86441117705E+00  0.39231315619E+00  0.70127450456E+00  0.90007787211E+02  0.90000049203E+02 0.  0.
         12    1    1    2    0    0 -0.86441117705E+00 -0.39231315619E+00 -0.70127450456E+00  0.11802127886E+01  0.00000000000E+00 0. -1.
         11    1    3    3    0    0 -0.28258186809E+02  0.14077505836E+02  0.21675681932E+02  0.38295384575E+02  0.51100000000E-03 0. -1.
        -11    1    3    3    0    0 -0.72821134331E+01 -0.69922448490E+01 -0.28015524447E+01  0.10477087403E+02  0.51100000000E-03 0.  1.
        -12    1    3    3    0    0  0.36404711419E+02 -0.66929478308E+01 -0.18172854983E+02  0.41235315233E+02  0.00000000000E+00 0.  1.
</event>
<event>
 7    1  0.4520336E-015  0.9000863E+02  0.7816164E-02  0.1186337E+00
        -11   -1    0    0    0    0  0.00000000000E+00  0.00000000000E+00  0.45593999997E+02  0.45594000000E+02  0.51100000000E-03 0. -1.
         11   -1    0    0    0    0 -0.00000000000E+00 -0.00000000000E+00 -0.45593999997E+02  0.45594000000E+02  0.51100000000E-03 0.  1.
    9900012    2    1    2    0    0 -0.88539867265E+00 -0.47101919753E+00 -0.62057586081E+00  0.90008633944E+02  0.90000907108E+02 0.  0.
         12    1    1    2    0    0  0.88539867265E+00  0.47101919753E+00  0.62057586081E+00  0.11793660556E+01  0.00000000000E+00 0. -1.
         11    1    3    3    0    0  0.24670057706E+02  0.16304797814E+02 -0.18235957040E+02  0.34742025105E+02  0.51100000000E-03 0. -1.
        -11    1    3    3    0    0 -0.19343503866E+01  0.90091747331E+01 -0.77714829935E+01  0.12054164798E+02  0.51100000000E-03 0.  1.
        -12    1    3    3    0    0 -0.23621105992E+02 -0.25784991745E+02  0.25386864172E+02  0.43212444042E+02  0.00000000000E+00 0.  1.
</event>
<event>
 7    1  0.4520336E-015  0.9000787E+02  0.7816164E-02  0.1186339E+00
        -11   -1    0    0    0    0  0.00000000000E+00  0.00000000000E+00  0.45593999997E+02  0.45594000000E+02  0.51100000000E-03 0. -1.
         11   -1    0    0    0    0 -0.00000000000E+00 -0.00000000000E+00 -0.45593999997E+02  0.45594000000E+02  0.51100000000E-03 0.  1.
    9900012    2    1    2    0    0  0.21558508808E+00 -0.92559482099E+00 -0.69964710229E+00  0.90007869172E+02  0.90000132245E+02 0.  0.
         12    1    1    2    0    0 -0.21558508808E+00  0.92559482099E+00  0.69964710229E+00  0.11801308277E+01  0.00000000000E+00 0. -1.
         11    1    3    3    0    0 -0.60389523257E+00 -0.66328585694E+01  0.10377867210E+02  0.12331246098E+02  0.51100000000E-03 0. -1.
        -11    1    3    3    0    0  0.58561469744E+01 -0.28485178544E+02  0.16522696965E+02  0.33446963529E+02  0.51100000000E-03 0.  1.
         12    1    3    3    0    0 -0.50366666537E+01  0.34192442292E+02 -0.27600211277E+02  0.44229659545E+02  0.00000000000E+00 0. -1.
</event>
<event>
 7    1  0.4520336E-015  0.9000852E+02  0.7816164E-02  0.1186337E+00
        -11   -1    0    0    0    0  0.00000000000E+00  0.00000000000E+00  0.45593999997E+02  0.45594000000E+02  0.51100000000E-03 0.  1.
         11   -1    0    0    0    0 -0.00000000000E+00 -0.00000000000E+00 -0.45593999997E+02  0.45594000000E+02  0.51100000000E-03 0. -1.
    9900012    2    1    2    0    0  0.53374721272E+00 -0.35877515393E-01 -0.10511952072E+01  0.90008515093E+02  0.90000786688E+02 0.  0.
         12    1    1    2    0    0 -0.53374721272E+00  0.35877515393E-01  0.10511952072E+01  0.11794849074E+01  0.00000000000E+00 0. -1.
         11    1    3    3    0    0  0.96444494461E+01  0.16689080504E+00 -0.69468060134E+00  0.96708758165E+01  0.51100000000E-03 0. -1.
        -11    1    3    3    0    0 -0.14710446788E+02 -0.23703099647E+02  0.30378751399E+02  0.41244426465E+02  0.51100000000E-03 0.  1.
         12    1    3    3    0    0  0.55997445542E+01  0.23500331326E+02 -0.30735266005E+02  0.39093212811E+02  0.00000000000E+00 0. -1.
</event>
<event>
 7    1  0.4520336E-015  0.9000756E+02  0.7816164E-02  0.1186339E+00
        -11   -1    0    0    0    0  0.00000000000E+00  0.00000000000E+00  0.45593999997E+02  0.45594000000E+02  0.51100000000E-03 0.  1.
         11   -1    0    0    0    0 -0.00000000000E+00 -0.00000000000E+00 -0.45593999997E+02  0.45594000000E+02  0.51100000000E-03 0. -1.
    9900012    2    1    2    0    0  0.76647989471E+00  0.84431806356E+00  0.30506780293E+00  0.90007563307E+02  0.89999822343E+02 0.  0.
         12    1    1    2    0    0 -0.76647989471E+00 -0.84431806356E+00 -0.30506780293E+00  0.11804366929E+01  0.00000000000E+00 0. -1.
         11    1    3    3    0    0  0.23370859220E+01  0.11693548238E+02 -0.37931798102E+02  0.39762071734E+02  0.51100000000E-03 0. -1.
        -11    1    3    3    0    0  0.48474276509E+01 -0.33077629076E+01 -0.38438530175E+01  0.70152730927E+01  0.51100000000E-03 0.  1.
        -12    1    3    3    0    0 -0.64180336782E+01 -0.75414672672E+01  0.42080718923E+02  0.43230218481E+02  0.00000000000E+00 0.  1.
</event>
<event>
 7    1  0.4520336E-015  0.9000765E+02  0.7816164E-02  0.1186339E+00
        -11   -1    0    0    0    0  0.00000000000E+00  0.00000000000E+00  0.45593999997E+02  0.45594000000E+02  0.51100000000E-03 0.  1.
         11   -1    0    0    0    0 -0.00000000000E+00 -0.00000000000E+00 -0.45593999997E+02  0.45594000000E+02  0.51100000000E-03 0. -1.
    9900012    2    1    2    0    0  0.11294628061E+01 -0.31789892648E+00  0.12833456294E+00  0.90007654407E+02  0.89999914646E+02 0.  0.
         12    1    1    2    0    0 -0.11294628061E+01  0.31789892648E+00 -0.12833456294E+00  0.11803455926E+01  0.00000000000E+00 0. -1.
         11    1    3    3    0    0 -0.12964428388E+02  0.21611016554E+02 -0.33230007603E+02  0.41705465415E+02  0.51100000000E-03 0. -1.
        -11    1    3    3    0    0 -0.80179991427E+00  0.34908098079E+01  0.10251842326E+02  0.10859507703E+02  0.51100000000E-03 0.  1.
        -12    1    3    3    0    0  0.14895691108E+02 -0.25419725288E+02  0.23106499840E+02  0.37442681290E+02  0.00000000000E+00 0.  1.
</event>
<event>
 7    1  0.4520336E-015  0.9000777E+02  0.7816164E-02  0.1186339E+00
        -11   -1    0    0    0    0  0.00000000000E+00  0.00000000000E+00  0.45593999997E+02  0.45594000000E+02  0.51100000000E-03 0.  1.
         11   -1    0    0    0    0 -0.00000000000E+00 -0.00000000000E+00 -0.45593999997E+02  0.45594000000E+02  0.51100000000E-03 0. -1.
    9900012    2    1    2    0    0  0.92585843467E+00 -0.72887467140E+00  0.66878646357E-01  0.90007769141E+02  0.90000030893E+02 0.  0.
         12    1    1    2    0    0 -0.92585843467E+00  0.72887467140E+00 -0.66878646357E-01  0.11802308592E+01  0.00000000000E+00 0. -1.
         11    1    3    3    0    0 -0.23253206786E+01 -0.19111618200E+02  0.32591246737E+02  0.37853010853E+02  0.51100000000E-03 0. -1.
        -11    1    3    3    0    0  0.87656561703E+01 -0.27736282349E+01  0.36456706732E+01  0.98904325790E+01  0.51100000000E-03 0.  1.
        -12    1    3    3    0    0 -0.55144770571E+01  0.21156371763E+02 -0.36170038764E+02  0.42264325709E+02  0.00000000000E+00 0.  1.
</event>
<event>
 7    1  0.4520336E-015  0.9000760E+02  0.7816164E-02  0.1186339E+00
        -11   -1    0    0    0    0  0.00000000000E+00  0.00000000000E+00  0.45593999997E+02  0.45594000000E+02  0.51100000000E-03 0.  1.
         11   -1    0    0    0    0 -0.00000000000E+00 -0.00000000000E+00 -0.45593999997E+02  0.45594000000E+02  0.51100000000E-03 0. -1.
    9900012    2    1    2    0    0 -0.81727987432E+00  0.77458257671E+00 -0.35413638008E+00  0.90007602975E+02  0.89999862534E+02 0.  0.
         12    1    1    2    0    0  0.81727987432E+00 -0.77458257671E+00  0.35413638008E+00  0.11803970251E+01  0.00000000000E+00 0. -1.
         11    1    3    3    0    0  0.51732382670E+01  0.30209181239E+02 -0.17802823675E+02  0.35444288064E+02  0.51100000000E-03 0. -1.
        -11    1    3    3    0    0  0.32275091802E+01  0.10153178325E+02  0.64520745417E+01  0.12455244348E+02  0.51100000000E-03 0.  1.
        -12    1    3    3    0    0 -0.92180273216E+01 -0.39587776987E+02  0.10996612753E+02  0.42108070563E+02  0.00000000000E+00 0.  1.
</event>
<event>
 7    1  0.4520336E-015  0.9000783E+02  0.7816164E-02  0.1186339E+00
        -11   -1    0    0    0    0  0.00000000000E+00  0.00000000000E+00  0.45593999997E+02  0.45594000000E+02  0.51100000000E-03 0.  1.
         11   -1    0    0    0    0 -0.00000000000E+00 -0.00000000000E+00 -0.45593999997E+02  0.45594000000E+02  0.51100000000E-03 0. -1.
    9900012    2    1    2    0    0  0.42797263610E+00 -0.26897739338E+00  0.10664418107E+01  0.90007827322E+02  0.90000089842E+02 0.  0.
         12    1    1    2    0    0 -0.42797263610E+00  0.26897739338E+00 -0.10664418107E+01  0.11801726785E+01  0.00000000000E+00 0. -1.
         11    1    3    3    0    0 -0.40775592728E+01  0.10115347586E+02  0.39146038423E+01  0.11587530795E+02  0.51100000000E-03 0. -1.
        -11    1    3    3    0    0 -0.33888164761E+02 -0.17560141367E+02  0.52620910708E+01  0.38528637121E+02  0.51100000000E-03 0.  1.
         12    1    3    3    0    0  0.38393696670E+02  0.71758163868E+01 -0.81102531023E+01  0.39891659406E+02  0.00000000000E+00 0. -1.
</event>
<event>
 7    1  0.4520336E-015  0.9000796E+02  0.7816164E-02  0.1186339E+00
        -11   -1    0    0    0    0  0.00000000000E+00  0.00000000000E+00  0.45593999997E+02  0.45594000000E+02  0.51100000000E-03 0. -1.
         11   -1    0    0    0    0 -0.00000000000E+00 -0.00000000000E+00 -0.45593999997E+02  0.45594000000E+02  0.51100000000E-03 0.  1.
    9900012    2    1    2    0    0 -0.40613342649E+00  0.79642308153E-01  0.11050785711E+01  0.90007963600E+02  0.90000227919E+02 0.  0.
         12    1    1    2    0    0  0.40613342649E+00 -0.79642308153E-01 -0.11050785711E+01  0.11800364002E+01  0.00000000000E+00 0. -1.
         11    1    3    3    0    0  0.19281924008E+01  0.68005600070E+01  0.71343796365E+01  0.10043152663E+02  0.51100000000E-03 0. -1.
        -11    1    3    3    0    0  0.28767953092E+02  0.20307262240E+01 -0.28549560608E+02  0.40580739092E+02  0.51100000000E-03 0.  1.
         12    1    3    3    0    0 -0.31102278919E+02 -0.87516439228E+01  0.22520259542E+02  0.39384071846E+02  0.00000000000E+00 0. -1.
</event>
<event>
 7    1  0.4520336E-015  0.9000787E+02  0.7816164E-02  0.1186339E+00
        -11   -1    0    0    0    0  0.00000000000E+00  0.00000000000E+00  0.45593999997E+02  0.45594000000E+02  0.51100000000E-03 0.  1.
         11   -1    0    0    0    0 -0.00000000000E+00 -0.00000000000E+00 -0.45593999997E+02  0.45594000000E+02  0.51100000000E-03 0. -1.
    9900012    2    1    2    0    0 -0.12873292907E+00 -0.25006565483E+00  0.11461218494E+01  0.90007872764E+02  0.90000135885E+02 0.  0.
         12    1    1    2    0    0  0.12873292907E+00  0.25006565483E+00 -0.11461218494E+01  0.11801272356E+01  0.00000000000E+00 0. -1.
         11    1    3    3    0    0 -0.51358677357E+01 -0.74443295816E+01 -0.28270626247E+01  0.94756247109E+01  0.51100000000E-03 0. -1.
        -11    1    3    3    0    0  0.32546514163E+02 -0.22084347000E+02 -0.40644700588E+01  0.39541293399E+02  0.51100000000E-03 0.  1.
         12    1    3    3    0    0 -0.27539379356E+02  0.29278610926E+02  0.80376545328E+01  0.40990954654E+02  0.00000000000E+00 0. -1.
</event>
<event>
 7    1  0.4520336E-015  0.9000768E+02  0.7816164E-02  0.1186339E+00
        -11   -1    0    0    0    0  0.00000000000E+00  0.00000000000E+00  0.45593999997E+02  0.45594000000E+02  0.51100000000E-03 0.  1.
         11   -1    0    0    0    0 -0.00000000000E+00 -0.00000000000E+00 -0.45593999997E+02  0.45594000000E+02  0.51100000000E-03 0. -1.
    9900012    2    1    2    0    0 -0.11723918498E+01  0.67326682569E-01 -0.11879658636E+00  0.90007683025E+02  0.89999943641E+02 0.  0.
         12    1    1    2    0    0  0.11723918498E+01 -0.67326682569E-01  0.11879658636E+00  0.11803169746E+01  0.00000000000E+00 0. -1.
         11    1    3    3    0    0  0.31592709417E+02 -0.12998351743E+01  0.16454679094E+02  0.35644709623E+02  0.51100000000E-03 0. -1.
        -11    1    3    3    0    0  0.18295506971E+01 -0.57730670983E+01  0.89333996665E+01  0.10792645150E+02  0.51100000000E-03 0.  1.
        -12    1    3    3    0    0 -0.34594651964E+02  0.71402289552E+01 -0.25506875347E+02  0.43570328252E+02  0.00000000000E+00 0.  1.
</event>
<event>
 7    1  0.4520336E-015  0.9000725E+02  0.7816164E-02  0.1186340E+00
        -11   -1    0    0    0    0  0.00000000000E+00  0.00000000000E+00  0.45593999997E+02  0.45594000000E+02  0.51100000000E-03 0.  1.
         11   -1    0    0    0    0 -0.00000000000E+00 -0.00000000000E+00 -0.45593999997E+02  0.45594000000E+02  0.51100000000E-03 0. -1.
    9900012    2    1    2    0    0  0.98687498857E+00 -0.64135087350E+00 -0.94451529893E-01  0.90007248427E+02  0.89999503305E+02 0.  0.
         12    1    1    2    0    0 -0.98687498857E+00  0.64135087350E+00  0.94451529893E-01  0.11807515732E+01  0.00000000000E+00 0. -1.
         11    1    3    3    0    0  0.39934570129E+01 -0.48965096418E+01  0.45256692427E+01  0.77720774534E+01  0.51100000000E-03 0. -1.
        -11    1    3    3    0    0  0.31923253324E+02  0.25761496552E+02 -0.68363029395E+00  0.41027017416E+02  0.51100000000E-03 0.  1.
         12    1    3    3    0    0 -0.34929835348E+02 -0.21506337784E+02 -0.39364904787E+01  0.41208153558E+02  0.00000000000E+00 0. -1.
</event>
<event>
 7    1  0.4520336E-015  0.9000770E+02  0.7816164E-02  0.1186339E+00
        -11   -1    0    0    0    0  0.00000000000E+00  0.00000000000E+00  0.45593999997E+02  0.45594000000E+02  0.51100000000E-03 0.  1.
         11   -1    0    0    0    0 -0.00000000000E+00 -0.00000000000E+00 -0.45593999997E+02  0.45594000000E+02  0.51100000000E-03 0. -1.
    9900012    2    1    2    0    0  0.36135323019E-01  0.32286133708E-01  0.11793033983E+01  0.90007701452E+02  0.89999962312E+02 0.  0.
         12    1    1    2    0    0 -0.36135323019E-01 -0.32286133708E-01 -0.11793033983E+01  0.11802985475E+01  0.00000000000E+00 0. -1.
         11    1    3    3    0    0 -0.30983358429E+01 -0.77910780462E+01  0.39240481527E+01  0.92573611944E+01  0.51100000000E-03 0. -1.
        -11    1    3    3    0    0 -0.18110056883E+02  0.29009245867E+02  0.23002495906E+02  0.41214382492E+02  0.51100000000E-03 0.  1.
         12    1    3    3    0    0  0.21244528049E+02 -0.21185881687E+02 -0.25747240660E+02  0.39535957766E+02  0.00000000000E+00 0. -1.
</event>
<event>
 7    1  0.4520336E-015  0.9000782E+02  0.7816164E-02  0.1186339E+00
        -11   -1    0    0    0    0  0.00000000000E+00  0.00000000000E+00  0.45593999997E+02  0.45594000000E+02  0.51100000000E-03 0. -1.
         11   -1    0    0    0    0 -0.00000000000E+00 -0.00000000000E+00 -0.45593999997E+02  0.45594000000E+02  0.51100000000E-03 0.  1.
    9900012    2    1    2    0    0  0.50377583261E+00 -0.86864457692E+00  0.62008298791E+00  0.90007815098E+02  0.90000077457E+02 0.  0.
         12    1    1    2    0    0 -0.50377583261E+00  0.86864457692E+00 -0.62008298791E+00  0.11801849018E+01  0.00000000000E+00 0. -1.
         11    1    3    3    0    0  0.18029954070E+01 -0.90838272690E+01  0.61209108987E-01  0.92612341027E+01  0.51100000000E-03 0. -1.
        -11    1    3    3    0    0  0.31947858057E+02 -0.15830325979E+02 -0.12349356564E+02  0.37732896296E+02  0.51100000000E-03 0.  1.
         12    1    3    3    0    0 -0.33247077632E+02  0.24045508671E+02  0.12908230443E+02  0.43013684700E+02  0.00000000000E+00 0. -1.
</event>
<event>
 7    1  0.4520336E-015  0.9000773E+02  0.7816164E-02  0.1186339E+00
        -11   -1    0    0    0    0  0.00000000000E+00  0.00000000000E+00  0.45593999997E+02  0.45594000000E+02  0.51100000000E-03 0.  1.
         11   -1    0    0    0    0 -0.00000000000E+00 -0.00000000000E+00 -0.45593999997E+02  0.45594000000E+02  0.51100000000E-03 0. -1.
    9900012    2    1    2    0    0  0.91890703688E+00  0.26244287741E+00  0.69265230969E+00  0.90007731544E+02  0.89999992800E+02 0.  0.
         12    1    1    2    0    0 -0.91890703688E+00 -0.26244287741E+00 -0.69265230969E+00  0.11802684561E+01  0.00000000000E+00 0. -1.
         11    1    3    3    0    0  0.20199963714E+02  0.18016542736E+02  0.39864051304E+01  0.27359199044E+02  0.51100000000E-03 0. -1.
        -11    1    3    3    0    0  0.12137573874E+02 -0.21489008951E+02  0.12072774920E+02  0.27474535479E+02  0.51100000000E-03 0.  1.
         12    1    3    3    0    0 -0.31418630551E+02  0.37349090922E+01 -0.15366527740E+02  0.35173997021E+02  0.00000000000E+00 0. -1.
</event>
<event>
 7    1  0.4520336E-015  0.9000778E+02  0.7816164E-02  0.1186339E+00
        -11   -1    0    0    0    0  0.00000000000E+00  0.00000000000E+00  0.45593999997E+02  0.45594000000E+02  0.51100000000E-03 0. -1.
         11   -1    0    0    0    0 -0.00000000000E+00 -0.00000000000E+00 -0.45593999997E+02  0.45594000000E+02  0.51100000000E-03 0.  1.
    9900012    2    1    2    0    0  0.47153653154E+00  0.96786070327E+00 -0.48354613649E+00  0.90007780568E+02  0.90000042472E+02 0.  0.
         12    1    1    2    0    0 -0.47153653154E+00 -0.96786070327E+00  0.48354613649E+00  0.11802194320E+01  0.00000000000E+00 0. -1.
         11    1    3    3    0    0  0.52424555620E+01 -0.28243895236E+02  0.23162528780E+02  0.36901269601E+02  0.51100000000E-03 0. -1.
        -11    1    3    3    0    0 -0.45463895617E+01 -0.75767544462E+01  0.89772389054E+00  0.88815975157E+01  0.51100000000E-03 0.  1.
        -12    1    3    3    0    0 -0.22452946874E+00  0.36788510386E+02 -0.24543798807E+02  0.44224913451E+02  0.00000000000E+00 0.  1.
</event>
<event>
 7    1  0.4520336E-015  0.9000787E+02  0.7816164E-02  0.1186339E+00
        -11   -1    0    0    0    0  0.00000000000E+00  0.00000000000E+00  0.45593999997E+02  0.45594000000E+02  0.51100000000E-03 0. -1.
         11   -1    0    0    0    0 -0.00000000000E+00 -0.00000000000E+00 -0.45593999997E+02  0.45594000000E+02  0.51100000000E-03 0.  1.
    9900012    2    1    2    0    0  0.31137360997E+00 -0.20609145852E+00 -0.11195046418E+01  0.90007865322E+02  0.90000128345E+02 0.  0.
         12    1    1    2    0    0 -0.31137360997E+00  0.20609145852E+00  0.11195046418E+01  0.11801346776E+01  0.00000000000E+00 0. -1.
         11    1    3    3    0    0  0.13243160942E+02  0.35157542202E+02 -0.18817517329E+01  0.37616154445E+02  0.51100000000E-03 0. -1.
        -11    1    3    3    0    0  0.53549932655E+01  0.37101314704E+01  0.60960084884E+01  0.89220148035E+01  0.51100000000E-03 0.  1.
        -12    1    3    3    0    0 -0.18286780598E+02 -0.39073765131E+02 -0.53337613973E+01  0.43469696074E+02  0.00000000000E+00 0.  1.
</event>
<event>
 7    1  0.4520336E-015  0.9000774E+02  0.7816164E-02  0.1186339E+00
        -11   -1    0    0    0    0  0.00000000000E+00  0.00000000000E+00  0.45593999997E+02  0.45594000000E+02  0.51100000000E-03 0. -1.
         11   -1    0    0    0    0 -0.00000000000E+00 -0.00000000000E+00 -0.45593999997E+02  0.45594000000E+02  0.51100000000E-03 0.  1.
    9900012    2    1    2    0    0 -0.35316706178E+00  0.85465576000E+00  0.73338296667E+00  0.90007739852E+02  0.90000001218E+02 0.  0.
         12    1    1    2    0    0  0.35316706178E+00 -0.85465576000E+00 -0.73338296667E+00  0.11802601482E+01  0.00000000000E+00 0. -1.
         11    1    3    3    0    0 -0.62641481838E+01 -0.80213955575E+01 -0.16081155808E+02  0.19031182610E+02  0.51100000000E-03 0. -1.
        -11    1    3    3    0    0 -0.47466383020E+01 -0.89043445103E+01  0.39193583966E+02  0.40471656140E+02  0.51100000000E-03 0.  1.
         12    1    3    3    0    0  0.10657619424E+02  0.17780395828E+02 -0.22379045191E+02  0.30504901102E+02  0.00000000000E+00 0. -1.
</event>
<event>
 7    1  0.5623852E-015  0.9000781E+02  0.7816164E-02  0.1186339E+00
        -11   -1    0    0    0    0  0.00000000000E+00  0.00000000000E+00  0.45593999997E+02  0.45594000000E+02  0.51100000000E-03 0. -1.
         11   -1    0    0    0    0 -0.00000000000E+00 -0.00000000000E+00 -0.45593999997E+02  0.45594000000E+02  0.51100000000E-03 0.  1.
    9900012    2    1    2    0    0 -0.89170589797E+00  0.94904528640E-01 -0.76727365907E+00  0.90007807157E+02  0.90000069412E+02 0.  0.
         12    1    1    2    0    0  0.89170589797E+00 -0.94904528640E-01  0.76727365907E+00  0.11801928427E+01  0.00000000000E+00 0. -1.
         11    1    3    3    0    0 -0.35423961605E+02  0.17288490356E+02  0.17733971723E+02  0.43223173275E+02  0.51100000000E-03 0. -1.
        -11    1    3    3    0    0  0.12547842212E+01 -0.84773965366E+01 -0.38299574871E+01  0.93866559591E+01  0.51100000000E-03 0.  1.
        -12    1    3    3    0    0  0.33277471486E+02 -0.87161892908E+01 -0.14671287895E+02  0.37397977923E+02  0.00000000000E+00 0.  1.
</event>
<event>
 7    1  0.4520336E-015  0.9000773E+02  0.7816164E-02  0.1186339E+00
        -11   -1    0    0    0    0  0.00000000000E+00  0.00000000000E+00  0.45593999997E+02  0.45594000000E+02  0.51100000000E-03 0. -1.
         11   -1    0    0    0    0 -0.00000000000E+00 -0.00000000000E+00 -0.45593999997E+02  0.45594000000E+02  0.51100000000E-03 0.  1.
    9900012    2    1    2    0    0 -0.46719218255E+00 -0.57050552507E+00 -0.92157036733E+00  0.90007730102E+02  0.89999991340E+02 0.  0.
         12    1    1    2    0    0  0.46719218255E+00  0.57050552507E+00  0.92157036733E+00  0.11802698977E+01  0.00000000000E+00 0. -1.
         11    1    3    3    0    0  0.60930359027E+01 -0.52046148092E+01  0.28768540662E+00  0.80184702393E+01  0.51100000000E-03 0. -1.
        -11    1    3    3    0    0 -0.36656911168E+02 -0.16376505452E+02 -0.14885234599E+02  0.42819262914E+02  0.51100000000E-03 0.  1.
         12    1    3    3    0    0  0.30096683083E+02  0.21010614736E+02  0.13675978825E+02  0.39169996949E+02  0.00000000000E+00 0. -1.
</event>
<event>
 7    1  0.4520336E-015  0.9000777E+02  0.7816164E-02  0.1186339E+00
        -11   -1    0    0    0    0  0.00000000000E+00  0.00000000000E+00  0.45593999997E+02  0.45594000000E+02  0.51100000000E-03 0.  1.
         11   -1    0    0    0    0 -0.00000000000E+00 -0.00000000000E+00 -0.45593999997E+02  0.45594000000E+02  0.51100000000E-03 0. -1.
    9900012    2    1    2    0    0  0.79220703135E+00 -0.70095139594E+00  0.52346778505E+00  0.90007769784E+02  0.90000031545E+02 0.  0.
         12    1    1    2    0    0 -0.79220703135E+00  0.70095139594E+00 -0.52346778505E+00  0.11802302157E+01  0.00000000000E+00 0. -1.
         11    1    3    3    0    0 -0.15612059495E+02  0.17843924831E+02 -0.23015013806E+02  0.33042895088E+02  0.51100000000E-03 0. -1.
        -11    1    3    3    0    0 -0.67982847209E+01  0.10958231552E+02  0.46093486133E+00  0.12903951918E+02  0.51100000000E-03 0.  1.
        -12    1    3    3    0    0  0.23202551247E+02 -0.29503107779E+02  0.23077546730E+02  0.44060922778E+02  0.00000000000E+00 0.  1.
</event>
<event>
 7    1  0.4520336E-015  0.9000764E+02  0.7816164E-02  0.1186339E+00
        -11   -1    0    0    0    0  0.00000000000E+00  0.00000000000E+00  0.45593999997E+02  0.45594000000E+02  0.51100000000E-03 0.  1.
         11   -1    0    0    0    0 -0.00000000000E+00 -0.00000000000E+00 -0.45593999997E+02  0.45594000000E+02  0.51100000000E-03 0. -1.
    9900012    2    1    2    0    0  0.63881212932E+00 -0.25042514439E-01  0.99224405505E+00  0.90007637205E+02  0.89999897216E+02 0.  0.
         12    1    1    2    0    0 -0.63881212932E+00  0.25042514439E-01 -0.99224405505E+00  0.11803627954E+01  0.00000000000E+00 0. -1.
         11    1    3    3    0    0 -0.44825305052E+01 -0.73581954059E+01  0.52674642695E+01  0.10098628593E+02  0.51100000000E-03 0. -1.
        -11    1    3    3    0    0 -0.72828868118E+01  0.29983713496E+02  0.25833583415E+02  0.40242235868E+02  0.51100000000E-03 0.  1.
         12    1    3    3    0    0  0.12404229446E+02 -0.22650560605E+02 -0.30108803630E+02  0.39666772744E+02  0.00000000000E+00 0. -1.
</event>
<event>
 7    1  0.4520336E-015  0.9000772E+02  0.7816164E-02  0.1186339E+00
        -11   -1    0    0    0    0  0.00000000000E+00  0.00000000000E+00  0.45593999997E+02  0.45594000000E+02  0.51100000000E-03 0.  1.
         11   -1    0    0    0    0 -0.00000000000E+00 -0.00000000000E+00 -0.45593999997E+02  0.45594000000E+02  0.51100000000E-03 0. -1.
    9900012    2    1    2    0    0  0.75783113577E+00  0.10893496232E+00  0.89826762887E+00  0.90007720546E+02  0.89999981657E+02 0.  0.
         12    1    1    2    0    0 -0.75783113577E+00 -0.10893496232E+00 -0.89826762887E+00  0.11802794540E+01  0.00000000000E+00 0. -1.
         11    1    3    3    0    0  0.71689518736E+01 -0.29849298340E+01 -0.56267271159E+01  0.95897724361E+01  0.51100000000E-03 0. -1.
        -11    1    3    3    0    0 -0.76409260793E+01  0.31984526255E+02 -0.22185908513E+02  0.39668730859E+02  0.51100000000E-03 0.  1.
         12    1    3    3    0    0  0.12298053415E+01 -0.28890661459E+02  0.28710903258E+02  0.40749217251E+02  0.00000000000E+00 0. -1.
</event>
<event>
 7    1  0.4520336E-015  0.9000775E+02  0.7816164E-02  0.1186339E+00
        -11   -1    0    0    0    0  0.00000000000E+00  0.00000000000E+00  0.45593999997E+02  0.45594000000E+02  0.51100000000E-03 0.  1.
         11   -1    0    0    0    0 -0.00000000000E+00 -0.00000000000E+00 -0.45593999997E+02  0.45594000000E+02  0.51100000000E-03 0. -1.
    9900012    2    1    2    0    0 -0.36823476443E+00 -0.51333148197E+00  0.99693951919E+00  0.90007748138E+02  0.90000009614E+02 0.  0.
         12    1    1    2    0    0  0.36823476443E+00  0.51333148197E+00 -0.99693951919E+00  0.11802518617E+01  0.00000000000E+00 0. -1.
         11    1    3    3    0    0 -0.63188723181E+01 -0.31221392035E+02 -0.19377596027E+02  0.37285314751E+02  0.51100000000E-03 0. -1.
        -11    1    3    3    0    0  0.22861591196E+01 -0.83555531214E+01  0.34277527993E+00  0.86694455785E+01  0.51100000000E-03 0.  1.
        -12    1    3    3    0    0  0.36644784341E+01  0.39063613675E+02  0.20031760267E+02  0.44052987809E+02  0.00000000000E+00 0.  1.
</event>
<event>
 7    1  0.4520336E-015  0.9000766E+02  0.7816164E-02  0.1186339E+00
        -11   -1    0    0    0    0  0.00000000000E+00  0.00000000000E+00  0.45593999997E+02  0.45594000000E+02  0.51100000000E-03 0. -1.
         11   -1    0    0    0    0 -0.00000000000E+00 -0.00000000000E+00 -0.45593999997E+02  0.45594000000E+02  0.51100000000E-03 0.  1.
    9900012    2    1    2    0    0  0.78113689796E-01 -0.96375405665E+00  0.67696760622E+00  0.90007657351E+02  0.89999917628E+02 0.  0.
         12    1    1    2    0    0 -0.78113689796E-01  0.96375405665E+00 -0.67696760622E+00  0.11803426495E+01  0.00000000000E+00 0. -1.
         11    1    3    3    0    0 -0.38630755519E+01 -0.46274188618E+01 -0.71401446091E+01  0.93444113427E+01  0.51100000000E-03 0. -1.
        -11    1    3    3    0    0  0.22846591734E+02  0.18364604691E+00 -0.30314595744E+02  0.37960179071E+02  0.51100000000E-03 0.  1.
         12    1    3    3    0    0 -0.18905402492E+02  0.34800187582E+01  0.38131707959E+02  0.42703066937E+02  0.00000000000E+00 0. -1.
</event>
<event>
 7    1  0.4520336E-015  0.9000779E+02  0.7816164E-02  0.1186339E+00
        -11   -1    0    0    0    0  0.00000000000E+00  0.00000000000E+00  0.45593999997E+02  0.45594000000E+02  0.51100000000E-03 0. -1.
         11   -1    0    0    0    0 -0.00000000000E+00 -0.00000000000E+00 -0.45593999997E+02  0.45594000000E+02  0.51100000000E-03 0.  1.
    9900012    2    1    2    0    0  0.17241656106E+00  0.45148056131E+00 -0.10767259604E+01  0.90007787747E+02  0.90000049745E+02 0.  0.
         12    1    1    2    0    0 -0.17241656106E+00 -0.45148056131E+00  0.10767259604E+01  0.11802122528E+01  0.00000000000E+00 0. -1.
         11    1    3    3    0    0 -0.22867155289E+00 -0.63165554365E+01  0.10404515013E+02  0.12173951543E+02  0.51100000000E-03 0. -1.
        -11    1    3    3    0    0  0.46985555378E+01 -0.34813644810E+02 -0.66395492780E+01  0.35751222412E+02  0.51100000000E-03 0.  1.
         12    1    3    3    0    0 -0.42974674238E+01  0.41581680808E+02 -0.48416916952E+01  0.42082613792E+02  0.00000000000E+00 0. -1.
</event>
<event>
 7    1  0.4520336E-015  0.9000777E+02  0.7816164E-02  0.1186339E+00
        -11   -1    0    0    0    0  0.00000000000E+00  0.00000000000E+00  0.45593999997E+02  0.45594000000E+02  0.51100000000E-03 0. -1.
         11   -1    0    0    0    0 -0.00000000000E+00 -0.00000000000E+00 -0.45593999997E+02  0.45594000000E+02  0.51100000000E-03 0.  1.
    9900012    2    1    2    0    0  0.15772779716E+00 -0.74813359934E+00 -0.89908820976E+00  0.90007770552E+02  0.90000032324E+02 0.  0.
         12    1    1    2    0    0 -0.15772779716E+00  0.74813359934E+00  0.89908820976E+00  0.11802294478E+01  0.00000000000E+00 0. -1.
         11    1    3    3    0    0  0.17819751069E+02 -0.21213822716E+01 -0.14371024819E+02  0.22990653438E+02  0.51100000000E-03 0. -1.
        -11    1    3    3    0    0  0.17716484201E+02 -0.19375929739E+01  0.24058405481E+02  0.29940523601E+02  0.51100000000E-03 0.  1.
        -12    1    3    3    0    0 -0.35378507472E+02  0.33108416461E+01 -0.10586468872E+02  0.37076593513E+02  0.00000000000E+00 0.  1.
</event>
<event>
 7    1  0.4520336E-015  0.9000779E+02  0.7816164E-02  0.1186339E+00
        -11   -1    0    0    0    0  0.00000000000E+00  0.00000000000E+00  0.45593999997E+02  0.45594000000E+02  0.51100000000E-03 0. -1.
         11   -1    0    0    0    0 -0.00000000000E+00 -0.00000000000E+00 -0.45593999997E+02  0.45594000000E+02  0.51100000000E-03 0.  1.
    9900012    2    1    2    0    0  0.83344219381E+00 -0.53942458258E+00 -0.63819026079E+00  0.90007791722E+02  0.90000053773E+02 0.  0.
         12    1    1    2    0    0 -0.83344219381E+00  0.53942458258E+00  0.63819026079E+00  0.11802082781E+01  0.00000000000E+00 0. -1.
         11    1    3    3    0    0  0.80627772135E+01  0.30965784632E+01 -0.21116543542E+01  0.88913586671E+01  0.51100000000E-03 0. -1.
        -11    1    3    3    0    0 -0.11732752592E+02  0.37617497485E+02 -0.21259417116E+01  0.39462047955E+02  0.51100000000E-03 0.  1.
         12    1    3    3    0    0  0.45034175720E+01 -0.41253500531E+02  0.35994058051E+01  0.41654385099E+02  0.00000000000E+00 0. -1.
</event>
<event>
 7    1  0.8719817E-015  0.9000793E+02  0.7816164E-02  0.1186339E+00
        -11   -1    0    0    0    0  0.00000000000E+00  0.00000000000E+00  0.45593999997E+02  0.45594000000E+02  0.51100000000E-03 0. -1.
         11   -1    0    0    0    0 -0.00000000000E+00 -0.00000000000E+00 -0.45593999997E+02  0.45594000000E+02  0.51100000000E-03 0.  1.
    9900012    2    1    2    0    0  0.73879768188E+00  0.28294305199E+00 -0.87560816900E+00  0.90007928625E+02  0.90000192482E+02 0.  0.
         12    1    1    2    0    0 -0.73879768188E+00 -0.28294305199E+00  0.87560816900E+00  0.11800713754E+01  0.00000000000E+00 0. -1.
         11    1    3    3    0    0 -0.11118355445E+02 -0.16866692762E+02  0.33828327178E+02  0.39401254706E+02  0.51100000000E-03 0. -1.
        -11    1    3    3    0    0 -0.20386094901E+01 -0.76917479357E+01 -0.46646627157E+01  0.92237732773E+01  0.51100000000E-03 0.  1.
        -12    1    3    3    0    0  0.13895762617E+02  0.24841383750E+02 -0.30039272631E+02  0.41382900641E+02  0.00000000000E+00 0.  1.
</event>
<event>
 7    1  0.4520336E-015  0.9000788E+02  0.7816164E-02  0.1186339E+00
        -11   -1    0    0    0    0  0.00000000000E+00  0.00000000000E+00  0.45593999997E+02  0.45594000000E+02  0.51100000000E-03 0.  1.
         11   -1    0    0    0    0 -0.00000000000E+00 -0.00000000000E+00 -0.45593999997E+02  0.45594000000E+02  0.51100000000E-03 0. -1.
    9900012    2    1    2    0    0 -0.74167379720E+00 -0.26743095358E+00  0.87810965615E+00  0.90007883097E+02  0.90000146354E+02 0.  0.
         12    1    1    2    0    0  0.74167379720E+00  0.26743095358E+00 -0.87810965615E+00  0.11801169029E+01  0.00000000000E+00 0. -1.
         11    1    3    3    0    0 -0.35823700138E+02 -0.70189803171E+01 -0.69701465372E+01  0.37164317824E+02  0.51100000000E-03 0. -1.
        -11    1    3    3    0    0 -0.44895668418E+01 -0.81162188285E+01 -0.18855295778E+01  0.94649057338E+01  0.51100000000E-03 0.  1.
        -12    1    3    3    0    0  0.39571593183E+02  0.14867768192E+02  0.97337857712E+01  0.43378659540E+02  0.00000000000E+00 0.  1.
</event>
<event>
 7    1  0.4520336E-015  0.9000775E+02  0.7816164E-02  0.1186339E+00
        -11   -1    0    0    0    0  0.00000000000E+00  0.00000000000E+00  0.45593999997E+02  0.45594000000E+02  0.51100000000E-03 0. -1.
         11   -1    0    0    0    0 -0.00000000000E+00 -0.00000000000E+00 -0.45593999997E+02  0.45594000000E+02  0.51100000000E-03 0.  1.
    9900012    2    1    2    0    0 -0.94875038877E+00  0.30703824666E-02  0.70203153715E+00  0.90007752142E+02  0.90000013670E+02 0.  0.
         12    1    1    2    0    0  0.94875038877E+00 -0.30703824666E-02 -0.70203153715E+00  0.11802478581E+01  0.00000000000E+00 0. -1.
         11    1    3    3    0    0 -0.27089668334E+01  0.38430718580E+02  0.80421300128E+01  0.39356505018E+02  0.51100000000E-03 0. -1.
        -11    1    3    3    0    0  0.78895278147E+01  0.15603197378E+01  0.34972232771E+01  0.87698242704E+01  0.51100000000E-03 0.  1.
        -12    1    3    3    0    0 -0.61293113701E+01 -0.39987967935E+02 -0.10837321753E+02  0.41881422853E+02  0.00000000000E+00 0.  1.
</event>
<event>
 7    1  0.4520336E-015  0.9000774E+02  0.7816164E-02  0.1186339E+00
        -11   -1    0    0    0    0  0.00000000000E+00  0.00000000000E+00  0.45593999997E+02  0.45594000000E+02  0.51100000000E-03 0.  1.
         11   -1    0    0    0    0 -0.00000000000E+00 -0.00000000000E+00 -0.45593999997E+02  0.45594000000E+02  0.51100000000E-03 0. -1.
    9900012    2    1    2    0    0 -0.58743697588E+00 -0.78095328226E+00  0.66185298027E+00  0.90007737488E+02  0.89999998823E+02 0.  0.
         12    1    1    2    0    0  0.58743697588E+00  0.78095328226E+00 -0.66185298027E+00  0.11802625120E+01  0.00000000000E+00 0. -1.
         11    1    3    3    0    0 -0.96184532258E+01 -0.68800081182E+01  0.10140394264E+02  0.15578085577E+02  0.51100000000E-03 0. -1.
        -11    1    3    3    0    0 -0.25634548683E+02  0.23484508199E+02 -0.12658265109E+01  0.34788712660E+02  0.51100000000E-03 0.  1.
         12    1    3    3    0    0  0.34665564933E+02 -0.17385453363E+02 -0.82127147729E+01  0.39640939251E+02  0.00000000000E+00 0. -1.
</event>
<event>
 7    1  0.4520336E-015  0.9000780E+02  0.7816164E-02  0.1186339E+00
        -11   -1    0    0    0    0  0.00000000000E+00  0.00000000000E+00  0.45593999997E+02  0.45594000000E+02  0.51100000000E-03 0.  1.
         11   -1    0    0    0    0 -0.00000000000E+00 -0.00000000000E+00 -0.45593999997E+02  0.45594000000E+02  0.51100000000E-03 0. -1.
    9900012    2    1    2    0    0 -0.10860732982E+01  0.46057617458E+00 -0.34456820172E-01  0.90007799638E+02  0.90000061793E+02 0.  0.
         12    1    1    2    0    0  0.10860732982E+01 -0.46057617458E+00  0.34456820172E-01  0.11802003619E+01  0.00000000000E+00 0. -1.
         11    1    3    3    0    0  0.18913916151E+02  0.32219148947E+02 -0.11739532994E+02  0.39161542593E+02  0.51100000000E-03 0. -1.
        -11    1    3    3    0    0  0.74992534542E+01 -0.96072672248E+01  0.95241898499E+01  0.15467662346E+02  0.51100000000E-03 0.  1.
        -12    1    3    3    0    0 -0.27499242904E+02 -0.22151305548E+02  0.21808863239E+01  0.35378594699E+02  0.00000000000E+00 0.  1.
</event>
<event>
 7    1  0.4520336E-015  0.9000781E+02  0.7816164E-02  0.1186339E+00
        -11   -1    0    0    0    0  0.00000000000E+00  0.00000000000E+00  0.45593999997E+02  0.45594000000E+02  0.51100000000E-03 0.  1.
         11   -1    0    0    0    0 -0.00000000000E+00 -0.00000000000E+00 -0.45593999997E+02  0.45594000000E+02  0.51100000000E-03 0. -1.
    9900012    2    1    2    0    0  0.52266874130E+00  0.99004918433E+00  0.37346169661E+00  0.90007807796E+02  0.90000070058E+02 0.  0.
         12    1    1    2    0    0 -0.52266874130E+00 -0.99004918433E+00 -0.37346169661E+00  0.11801922044E+01  0.00000000000E+00 0. -1.
         11    1    3    3    0    0  0.98382036099E+01 -0.15525341427E+02 -0.12276682083E+02  0.22103017892E+02  0.51100000000E-03 0. -1.
        -11    1    3    3    0    0 -0.85977684422E+01 -0.14752424880E+02 -0.17508900793E+02  0.24456436152E+02  0.51100000000E-03 0.  1.
        -12    1    3    3    0    0 -0.71776642644E+00  0.31267815491E+02  0.30159044573E+02  0.43448353752E+02  0.00000000000E+00 0.  1.
</event>
<event>
 7    1  0.4520336E-015  0.9000788E+02  0.7816164E-02  0.1186339E+00
        -11   -1    0    0    0    0  0.00000000000E+00  0.00000000000E+00  0.45593999997E+02  0.45594000000E+02  0.51100000000E-03 0. -1.
         11   -1    0    0    0    0 -0.00000000000E+00 -0.00000000000E+00 -0.45593999997E+02  0.45594000000E+02  0.51100000000E-03 0.  1.
    9900012    2    1    2    0    0 -0.53558536045E+00 -0.89349090316E+00 -0.55452554211E+00  0.90007882951E+02  0.90000146206E+02 0.  0.
         12    1    1    2    0    0  0.53558536045E+00  0.89349090316E+00  0.55452554211E+00  0.11801170490E+01  0.00000000000E+00 0. -1.
         11    1    3    3    0    0 -0.34282764486E+02 -0.22130540841E+02  0.90573662798E+01  0.41798381104E+02  0.51100000000E-03 0. -1.
        -11    1    3    3    0    0  0.40631127936E+01  0.31195067317E+01  0.77891991002E+01  0.93226514848E+01  0.51100000000E-03 0.  1.
        -12    1    3    3    0    0  0.29684066332E+02  0.18117543206E+02 -0.17401090922E+02  0.38886850362E+02  0.00000000000E+00 0.  1.
</event>
<event>
 7    1  0.4520336E-015  0.9000766E+02  0.7816164E-02  0.1186339E+00
        -11   -1    0    0    0    0  0.00000000000E+00  0.00000000000E+00  0.45593999997E+02  0.45594000000E+02  0.51100000000E-03 0.  1.
         11   -1    0    0    0    0 -0.00000000000E+00 -0.00000000000E+00 -0.45593999997E+02  0.45594000000E+02  0.51100000000E-03 0. -1.
    9900012    2    1    2    0    0 -0.15910342506E+00 -0.95204558868E+00 -0.67934091827E+00  0.90007657344E+02  0.89999917621E+02 0.  0.
         12    1    1    2    0    0  0.15910342506E+00  0.95204558868E+00  0.67934091827E+00  0.11803426562E+01  0.00000000000E+00 0. -1.
         11    1    3    3    0    0  0.20239068259E+02 -0.13759667000E+02 -0.26109383683E+02  0.35786145874E+02  0.51100000000E-03 0. -1.
        -11    1    3    3    0    0  0.87586377177E+01  0.40845254877E+01 -0.52576072149E+01  0.11001796081E+02  0.51100000000E-03 0.  1.
        -12    1    3    3    0    0 -0.29156809402E+02  0.87230959241E+01  0.30687649980E+02  0.43219715388E+02  0.00000000000E+00 0.  1.
</event>
<event>
 7    1  0.5018256E-015  0.9000769E+02  0.7816164E-02  0.1186339E+00
        -11   -1    0    0    0    0  0.00000000000E+00  0.00000000000E+00  0.45593999997E+02  0.45594000000E+02  0.51100000000E-03 0. -1.
         11   -1    0    0    0    0 -0.00000000000E+00 -0.00000000000E+00 -0.45593999997E+02  0.45594000000E+02  0.51100000000E-03 0.  1.
    9900012    2    1    2    0    0  0.23378038655E+00 -0.53556080740E-01 -0.11556814913E+01  0.90007694433E+02  0.89999955199E+02 0.  0.
         12    1    1    2    0    0 -0.23378038655E+00  0.53556080740E-01  0.11556814913E+01  0.11803055673E+01  0.00000000000E+00 0. -1.
         11    1    3    3    0    0 -0.34034006920E+02  0.28943592374E+01  0.11517466709E+02  0.36046400404E+02  0.51100000000E-03 0. -1.
        -11    1    3    3    0    0 -0.86026418574E+01 -0.40152065213E+01 -0.11980926404E+01  0.95688430111E+01  0.51100000000E-03 0.  1.
        -12    1    3    3    0    0  0.42870429164E+02  0.10672912032E+01 -0.11475055560E+02  0.44392451017E+02  0.00000000000E+00 0.  1.
</event>
<event>
 7    1  0.4520336E-015  0.9000775E+02  0.7816164E-02  0.1186339E+00
        -11   -1    0    0    0    0  0.00000000000E+00  0.00000000000E+00  0.45593999997E+02  0.45594000000E+02  0.51100000000E-03 0. -1.
         11   -1    0    0    0    0 -0.00000000000E+00 -0.00000000000E+00 -0.45593999997E+02  0.45594000000E+02  0.51100000000E-03 0.  1.
    9900012    2    1    2    0    0  0.44497065780E-01  0.61069259070E+00 -0.10089946276E+01  0.90007747659E+02  0.90000009128E+02 0.  0.
         12    1    1    2    0    0 -0.44497065780E-01 -0.61069259070E+00  0.10089946276E+01  0.11802523407E+01  0.00000000000E+00 0. -1.
         11    1    3    3    0    0 -0.26931195638E+01  0.18377299383E+02  0.29421677736E+02  0.34793866509E+02  0.51100000000E-03 0. -1.
        -11    1    3    3    0    0  0.15748419106E+02 -0.32108820097E+01  0.31426845552E+01  0.16376780334E+02  0.51100000000E-03 0.  1.
        -12    1    3    3    0    0 -0.13010802477E+02 -0.14555724782E+02 -0.33573356919E+02  0.38837100816E+02  0.00000000000E+00 0.  1.
</event>
<event>
 7    1  0.4520336E-015  0.9000778E+02  0.7816164E-02  0.1186339E+00
        -11   -1    0    0    0    0  0.00000000000E+00  0.00000000000E+00  0.45593999997E+02  0.45594000000E+02  0.51100000000E-03 0.  1.
         11   -1    0    0    0    0 -0.00000000000E+00 -0.00000000000E+00 -0.45593999997E+02  0.45594000000E+02  0.51100000000E-03 0. -1.
    9900012    2    1    2    0    0  0.11176254062E+01  0.19670619107E+00 -0.32426643484E+00  0.90007776040E+02  0.90000037884E+02 0.  0.
         12    1    1    2    0    0 -0.11176254062E+01 -0.19670619107E+00  0.32426643484E+00  0.11802239597E+01  0.00000000000E+00 0. -1.
         11    1    3    3    0    0 -0.13878191160E+02 -0.37166587239E+02 -0.10289407036E+02  0.40985745013E+02  0.51100000000E-03 0. -1.
        -11    1    3    3    0    0 -0.61168169000E-01 -0.38499137622E+01  0.22850472124E+01  0.44773897022E+01  0.51100000000E-03 0.  1.
        -12    1    3    3    0    0  0.15056984735E+02  0.41213207192E+02  0.76800933883E+01  0.44544641325E+02  0.00000000000E+00 0.  1.
</event>
<event>
 7    1  0.4520336E-015  0.9000767E+02  0.7816164E-02  0.1186339E+00
        -11   -1    0    0    0    0  0.00000000000E+00  0.00000000000E+00  0.45593999997E+02  0.45594000000E+02  0.51100000000E-03 0.  1.
         11   -1    0    0    0    0 -0.00000000000E+00 -0.00000000000E+00 -0.45593999997E+02  0.45594000000E+02  0.51100000000E-03 0. -1.
    9900012    2    1    2    0    0  0.91704383510E+00  0.74299107849E+00 -0.12924232487E-01  0.90007672853E+02  0.89999933335E+02 0.  0.
         12    1    1    2    0    0 -0.91704383510E+00 -0.74299107849E+00  0.12924232487E-01  0.11803271470E+01  0.00000000000E+00 0. -1.
         11    1    3    3    0    0  0.40657293058E+00  0.11086987271E+02 -0.24290362220E+01  0.11357235822E+02  0.51100000000E-03 0. -1.
        -11    1    3    3    0    0 -0.61582790671E+01 -0.16705787923E+02  0.37961556378E+02  0.41929554185E+02  0.51100000000E-03 0.  1.
         12    1    3    3    0    0  0.66687499717E+01  0.63617917303E+01 -0.35545444389E+02  0.36720882846E+02  0.00000000000E+00 0. -1.
</event>
<event>
 7    1  0.4520336E-015  0.9000764E+02  0.7816164E-02  0.1186339E+00
        -11   -1    0    0    0    0  0.00000000000E+00  0.00000000000E+00  0.45593999997E+02  0.45594000000E+02  0.51100000000E-03 0. -1.
         11   -1    0    0    0    0 -0.00000000000E+00 -0.00000000000E+00 -0.45593999997E+02  0.45594000000E+02  0.51100000000E-03 0.  1.
    9900012    2    1    2    0    0  0.89006038381E+00 -0.10551014072E+00  0.76806182467E+00  0.90007636140E+02  0.89999896136E+02 0.  0.
         12    1    1    2    0    0 -0.89006038381E+00  0.10551014072E+00 -0.76806182467E+00  0.11803638605E+01  0.00000000000E+00 0. -1.
         11    1    3    3    0    0 -0.11971752815E+02 -0.17643980572E+02  0.27964512075E+02  0.35165989987E+02  0.51100000000E-03 0. -1.
        -11    1    3    3    0    0  0.28048135206E+01 -0.11520416613E+02  0.24726951575E+01  0.12112027057E+02  0.51100000000E-03 0.  1.
        -12    1    3    3    0    0  0.10056999678E+02  0.29058887045E+02 -0.29669145407E+02  0.42729619096E+02  0.00000000000E+00 0.  1.
</event>
<event>
 7    1  0.4520336E-015  0.9000775E+02  0.7816164E-02  0.1186339E+00
        -11   -1    0    0    0    0  0.00000000000E+00  0.00000000000E+00  0.45593999997E+02  0.45594000000E+02  0.51100000000E-03 0.  1.
         11   -1    0    0    0    0 -0.00000000000E+00 -0.00000000000E+00 -0.45593999997E+02  0.45594000000E+02  0.51100000000E-03 0. -1.
    9900012    2    1    2    0    0 -0.83591271678E+00 -0.73831196564E+00 -0.38619471797E+00  0.90007745371E+02  0.90000006810E+02 0.  0.
         12    1    1    2    0    0  0.83591271678E+00  0.73831196564E+00  0.38619471797E+00  0.11802546288E+01  0.00000000000E+00 0. -1.
         11    1    3    3    0    0 -0.55665404088E+01 -0.52753948248E+01 -0.10461762849E+02  0.12971686277E+02  0.51100000000E-03 0. -1.
        -11    1    3    3    0    0  0.88423792715E+01 -0.31558961325E+02  0.21209891389E+02  0.39038637324E+02  0.51100000000E-03 0.  1.
         12    1    3    3    0    0 -0.41117515795E+01  0.36096044184E+02 -0.11134323258E+02  0.37997421771E+02  0.00000000000E+00 0. -1.
</event>
<event>
 7    1  0.4520336E-015  0.9000779E+02  0.7816164E-02  0.1186339E+00
        -11   -1    0    0    0    0  0.00000000000E+00  0.00000000000E+00  0.45593999997E+02  0.45594000000E+02  0.51100000000E-03 0.  1.
         11   -1    0    0    0    0 -0.00000000000E+00 -0.00000000000E+00 -0.45593999997E+02  0.45594000000E+02  0.51100000000E-03 0. -1.
    9900012    2    1    2    0    0 -0.98784511518E+00  0.64463959040E+00  0.38608267269E-01  0.90007792912E+02  0.90000054978E+02 0.  0.
         12    1    1    2    0    0  0.98784511518E+00 -0.64463959040E+00 -0.38608267269E-01  0.11802070883E+01  0.00000000000E+00 0. -1.
         11    1    3    3    0    0  0.19755672235E+02  0.10631332841E+02 -0.36885515634E+01  0.22735813957E+02  0.51100000000E-03 0. -1.
        -11    1    3    3    0    0  0.10835903210E+02  0.19973087258E+02  0.65569082658E+01  0.23650244381E+02  0.51100000000E-03 0.  1.
        -12    1    3    3    0    0 -0.31579420560E+02 -0.29959780508E+02 -0.28297484351E+01  0.43621734574E+02  0.00000000000E+00 0.  1.
</event>
<event>
 7    1  0.4520336E-015  0.9000770E+02  0.7816164E-02  0.1186339E+00
        -11   -1    0    0    0    0  0.00000000000E+00  0.00000000000E+00  0.45593999997E+02  0.45594000000E+02  0.51100000000E-03 0.  1.
         11   -1    0    0    0    0 -0.00000000000E+00 -0.00000000000E+00 -0.45593999997E+02  0.45594000000E+02  0.51100000000E-03 0. -1.
    9900012    2    1    2    0    0 -0.54041125465E+00 -0.72767859854E+00  0.75600351712E+00  0.90007702671E+02  0.89999963546E+02 0.  0.
         12    1    1    2    0    0  0.54041125465E+00  0.72767859854E+00 -0.75600351712E+00  0.11802973290E+01  0.00000000000E+00 0. -1.
         11    1    3    3    0    0 -0.23320565995E+01  0.65909325612E+01  0.54130949985E+01  0.88419725024E+01  0.51100000000E-03 0. -1.
        -11    1    3    3    0    0  0.21582383989E+02 -0.38474350743E+02 -0.19818792859E+01  0.44158836144E+02  0.51100000000E-03 0.  1.
         12    1    3    3    0    0 -0.19790738644E+02  0.31155739584E+02 -0.26752121955E+01  0.37006894025E+02  0.00000000000E+00 0. -1.
</event>
<event>
 7    1  0.4520336E-015  0.9000773E+02  0.7816164E-02  0.1186339E+00
        -11   -1    0    0    0    0  0.00000000000E+00  0.00000000000E+00  0.45593999997E+02  0.45594000000E+02  0.51100000000E-03 0.  1.
         11   -1    0    0    0    0 -0.00000000000E+00 -0.00000000000E+00 -0.45593999997E+02  0.45594000000E+02  0.51100000000E-03 0. -1.
    9900012    2    1    2    0    0  0.66431871021E+00 -0.37493954174E+00  0.90063627339E+00  0.90007726851E+02  0.89999988046E+02 0.  0.
         12    1    1    2    0    0 -0.66431871021E+00  0.37493954174E+00 -0.90063627339E+00  0.11802731487E+01  0.00000000000E+00 0. -1.
         11    1    3    3    0    0 -0.51574169581E+01 -0.59461912279E+01 -0.27928028033E+01  0.83519990156E+01  0.51100000000E-03 0. -1.
        -11    1    3    3    0    0 -0.32111436888E+01 -0.36727211944E+02  0.93519295468E+01  0.38034959281E+02  0.51100000000E-03 0.  1.
         12    1    3    3    0    0  0.90328793571E+01  0.42298463630E+02 -0.56584904701E+01  0.43620768555E+02  0.00000000000E+00 0. -1.
</event>
<event>
 7    1  0.4520336E-015  0.9000772E+02  0.7816164E-02  0.1186339E+00
        -11   -1    0    0    0    0  0.00000000000E+00  0.00000000000E+00  0.45593999997E+02  0.45594000000E+02  0.51100000000E-03 0.  1.
         11   -1    0    0    0    0 -0.00000000000E+00 -0.00000000000E+00 -0.45593999997E+02  0.45594000000E+02  0.51100000000E-03 0. -1.
    9900012    2    1    2    0    0  0.82207410637E+00  0.78512844224E+00 -0.31752123479E+00  0.90007723659E+02  0.89999984811E+02 0.  0.
         12    1    1    2    0    0 -0.82207410637E+00 -0.78512844224E+00  0.31752123479E+00  0.11802763413E+01  0.00000000000E+00 0. -1.
         11    1    3    3    0    0  0.17723547496E+02  0.40554446111E+01 -0.31187478651E+02  0.36100271353E+02  0.51100000000E-03 0. -1.
        -11    1    3    3    0    0 -0.82859065951E+00  0.12218414002E+01 -0.98187872067E+01  0.99291510896E+01  0.51100000000E-03 0.  1.
        -12    1    3    3    0    0 -0.16072882730E+02 -0.44921575691E+01  0.40688744623E+02  0.43978301217E+02  0.00000000000E+00 0.  1.
</event>
<event>
 7    1  0.4520336E-015  0.9000770E+02  0.7816164E-02  0.1186339E+00
        -11   -1    0    0    0    0  0.00000000000E+00  0.00000000000E+00  0.45593999997E+02  0.45594000000E+02  0.51100000000E-03 0.  1.
         11   -1    0    0    0    0 -0.00000000000E+00 -0.00000000000E+00 -0.45593999997E+02  0.45594000000E+02  0.51100000000E-03 0. -1.
    9900012    2    1    2    0    0  0.46586739478E+00  0.47020712381E+00  0.97722771392E+00  0.90007702930E+02  0.89999963809E+02 0.  0.
         12    1    1    2    0    0 -0.46586739478E+00 -0.47020712381E+00 -0.97722771392E+00  0.11802970701E+01  0.00000000000E+00 0. -1.
         11    1    3    3    0    0  0.81521162140E+01  0.29073118475E+01  0.46406226057E+01  0.98206333490E+01  0.51100000000E-03 0. -1.
        -11    1    3    3    0    0  0.14266192483E+02 -0.35754655317E+02  0.64341307100E+01  0.39029702319E+02  0.51100000000E-03 0.  1.
         12    1    3    3    0    0 -0.21952441302E+02  0.33317550594E+02 -0.10097525602E+02  0.41157367262E+02  0.00000000000E+00 0. -1.
</event>
<event>
 7    1  0.4520336E-015  0.9000783E+02  0.7816164E-02  0.1186339E+00
        -11   -1    0    0    0    0  0.00000000000E+00  0.00000000000E+00  0.45593999997E+02  0.45594000000E+02  0.51100000000E-03 0.  1.
         11   -1    0    0    0    0 -0.00000000000E+00 -0.00000000000E+00 -0.45593999997E+02  0.45594000000E+02  0.51100000000E-03 0. -1.
    9900012    2    1    2    0    0 -0.95153812426E+00 -0.68346825791E+00 -0.14228159431E+00  0.90007831489E+02  0.90000094065E+02 0.  0.
         12    1    1    2    0    0  0.95153812426E+00  0.68346825791E+00  0.14228159431E+00  0.11801685107E+01  0.00000000000E+00 0. -1.
         11    1    3    3    0    0  0.58397481172E+01 -0.42853403868E+01 -0.18843577290E+01  0.74844909390E+01  0.51100000000E-03 0. -1.
        -11    1    3    3    0    0  0.20582618684E+02 -0.18589716401E+02  0.27358134390E+02  0.38957531561E+02  0.51100000000E-03 0.  1.
         12    1    3    3    0    0 -0.27373904926E+02  0.22191588530E+02 -0.25616058255E+02  0.43565808989E+02  0.00000000000E+00 0. -1.
</event>
<event>
 7    1  0.4520336E-015  0.9000813E+02  0.7816164E-02  0.1186338E+00
        -11   -1    0    0    0    0  0.00000000000E+00  0.00000000000E+00  0.45593999997E+02  0.45594000000E+02  0.51100000000E-03 0.  1.
         11   -1    0    0    0    0 -0.00000000000E+00 -0.00000000000E+00 -0.45593999997E+02  0.45594000000E+02  0.51100000000E-03 0. -1.
    9900012    2    1    2    0    0  0.93559857194E+00 -0.53462534132E+00  0.48055252397E+00  0.90008127265E+02  0.90000393744E+02 0.  0.
         12    1    1    2    0    0 -0.93559857194E+00  0.53462534132E+00 -0.48055252397E+00  0.11798727354E+01  0.00000000000E+00 0. -1.
         11    1    3    3    0    0 -0.50493640774E-01 -0.21878611913E+01 -0.10513028656E+02  0.10738391778E+02  0.51100000000E-03 0. -1.
        -11    1    3    3    0    0  0.23470000125E+02  0.54148729787E+01 -0.26235590270E+02  0.35615557729E+02  0.51100000000E-03 0.  1.
         12    1    3    3    0    0 -0.22483907913E+02 -0.37616371287E+01  0.37229171450E+02  0.43654177758E+02  0.00000000000E+00 0. -1.
</event>
<event>
 7    1  0.4520336E-015  0.9000777E+02  0.7816164E-02  0.1186339E+00
        -11   -1    0    0    0    0  0.00000000000E+00  0.00000000000E+00  0.45593999997E+02  0.45594000000E+02  0.51100000000E-03 0.  1.
         11   -1    0    0    0    0 -0.00000000000E+00 -0.00000000000E+00 -0.45593999997E+02  0.45594000000E+02  0.51100000000E-03 0. -1.
    9900012    2    1    2    0    0  0.24248847015E+00  0.11545329314E+01  0.34485326239E-01  0.90007772825E+02  0.90000034626E+02 0.  0.
         12    1    1    2    0    0 -0.24248847015E+00 -0.11545329314E+01 -0.34485326239E-01  0.11802271754E+01  0.00000000000E+00 0. -1.
         11    1    3    3    0    0 -0.41129646944E+01  0.46948828699E+01  0.81690979137E+01  0.10280688923E+02  0.51100000000E-03 0. -1.
        -11    1    3    3    0    0  0.93839945585E+01 -0.79850688653E+01  0.34465375184E+02  0.36601677086E+02  0.51100000000E-03 0.  1.
         12    1    3    3    0    0 -0.50285413939E+01  0.44447189268E+01 -0.42599987772E+02  0.43125406816E+02  0.00000000000E+00 0. -1.
</event>
<event>
 7    1  0.4520336E-015  0.9000757E+02  0.7816164E-02  0.1186339E+00
        -11   -1    0    0    0    0  0.00000000000E+00  0.00000000000E+00  0.45593999997E+02  0.45594000000E+02  0.51100000000E-03 0.  1.
         11   -1    0    0    0    0 -0.00000000000E+00 -0.00000000000E+00 -0.45593999997E+02  0.45594000000E+02  0.51100000000E-03 0. -1.
    9900012    2    1    2    0    0 -0.27346589150E+00  0.18530695925E+00  0.11332667435E+01  0.90007569665E+02  0.89999828785E+02 0.  0.
         12    1    1    2    0    0  0.27346589150E+00 -0.18530695925E+00 -0.11332667435E+01  0.11804303346E+01  0.00000000000E+00 0. -1.
         11    1    3    3    0    0  0.33903264152E+01  0.40501664821E+01  0.98781323471E+01  0.11201591881E+02  0.51100000000E-03 0. -1.
        -11    1    3    3    0    0  0.64406507536E+01 -0.98375453734E+01  0.33215235181E+02  0.35235083788E+02  0.51100000000E-03 0.  1.
         12    1    3    3    0    0 -0.10104443060E+02  0.59726858506E+01 -0.41960100785E+02  0.43570893997E+02  0.00000000000E+00 0. -1.
</event>
<event>
 7    1  0.4520336E-015  0.9000775E+02  0.7816164E-02  0.1186339E+00
        -11   -1    0    0    0    0  0.00000000000E+00  0.00000000000E+00  0.45593999997E+02  0.45594000000E+02  0.51100000000E-03 0. -1.
         11   -1    0    0    0    0 -0.00000000000E+00 -0.00000000000E+00 -0.45593999997E+02  0.45594000000E+02  0.51100000000E-03 0.  1.
    9900012    2    1    2    0    0 -0.10372663805E+01 -0.54342331817E+00  0.14748351040E+00  0.90007753486E+02  0.90000015032E+02 0.  0.
         12    1    1    2    0    0  0.10372663805E+01  0.54342331817E+00 -0.14748351040E+00  0.11802465135E+01  0.00000000000E+00 0. -1.
         11    1    3    3    0    0 -0.18391459894E+02  0.45820276566E+01  0.23532352183E+02  0.30216094619E+02  0.51100000000E-03 0. -1.
        -11    1    3    3    0    0 -0.15413740867E+02 -0.97929534181E+00  0.50076725559E+01  0.16236354626E+02  0.51100000000E-03 0.  1.
        -12    1    3    3    0    0  0.32767934380E+02 -0.41461556330E+01 -0.28392541229E+02  0.43555304241E+02  0.00000000000E+00 0.  1.
</event>
<event>
 7    1  0.4520336E-015  0.9000773E+02  0.7816164E-02  0.1186339E+00
        -11   -1    0    0    0    0  0.00000000000E+00  0.00000000000E+00  0.45593999997E+02  0.45594000000E+02  0.51100000000E-03 0. -1.
         11   -1    0    0    0    0 -0.00000000000E+00 -0.00000000000E+00 -0.45593999997E+02  0.45594000000E+02  0.51100000000E-03 0.  1.
    9900012    2    1    2    0    0  0.35189706706E+00  0.11264083917E+01 -0.20250232385E-01  0.90007729911E+02  0.89999991146E+02 0.  0.
         12    1    1    2    0    0 -0.35189706706E+00 -0.11264083917E+01  0.20250232385E-01  0.11802700888E+01  0.00000000000E+00 0. -1.
         11    1    3    3    0    0 -0.76514389677E+01  0.25328799020E+02  0.20156148326E+02  0.33262033817E+02  0.51100000000E-03 0. -1.
        -11    1    3    3    0    0  0.41539696487E+01  0.31152115065E+01  0.12763582713E+02  0.13779297896E+02  0.51100000000E-03 0.  1.
        -12    1    3    3    0    0  0.38493663861E+01 -0.27317602134E+02 -0.32939981271E+02  0.42966398198E+02  0.00000000000E+00 0.  1.
</event>
<event>
 7    1  0.4520336E-015  0.9000795E+02  0.7816164E-02  0.1186339E+00
        -11   -1    0    0    0    0  0.00000000000E+00  0.00000000000E+00  0.45593999997E+02  0.45594000000E+02  0.51100000000E-03 0.  1.
         11   -1    0    0    0    0 -0.00000000000E+00 -0.00000000000E+00 -0.45593999997E+02  0.45594000000E+02  0.51100000000E-03 0. -1.
    9900012    2    1    2    0    0  0.65460841401E+00  0.97509800201E+00  0.11482488700E+00  0.90007952101E+02  0.90000216268E+02 0.  0.
         12    1    1    2    0    0 -0.65460841401E+00 -0.97509800201E+00 -0.11482488700E+00  0.11800478990E+01  0.00000000000E+00 0. -1.
         11    1    3    3    0    0 -0.76936133787E+01  0.40461903528E+01  0.24350141308E+01  0.90273272496E+01  0.51100000000E-03 0. -1.
        -11    1    3    3    0    0  0.27521038007E+02  0.26547041446E+02  0.15732613849E+02  0.41348132743E+02  0.51100000000E-03 0.  1.
         12    1    3    3    0    0 -0.19172816214E+02 -0.29618133797E+02 -0.18052803093E+02  0.39632492108E+02  0.00000000000E+00 0. -1.
</event>
<event>
 7    1  0.4520336E-015  0.9000771E+02  0.7816164E-02  0.1186339E+00
        -11   -1    0    0    0    0  0.00000000000E+00  0.00000000000E+00  0.45593999997E+02  0.45594000000E+02  0.51100000000E-03 0.  1.
         11   -1    0    0    0    0 -0.00000000000E+00 -0.00000000000E+00 -0.45593999997E+02  0.45594000000E+02  0.51100000000E-03 0. -1.
    9900012    2    1    2    0    0 -0.45801817719E+00  0.58109230052E+00  0.91958941051E+00  0.90007706140E+02  0.89999967061E+02 0.  0.
         12    1    1    2    0    0  0.45801817719E+00 -0.58109230052E+00 -0.91958941051E+00  0.11802938601E+01  0.00000000000E+00 0. -1.
         11    1    3    3    0    0 -0.96429632059E+01 -0.69990136200E-01  0.69127327779E+01  0.11864969984E+02  0.51100000000E-03 0. -1.
        -11    1    3    3    0    0 -0.29541399929E+02  0.18533400003E+02  0.11517544507E+01  0.34892803900E+02  0.51100000000E-03 0.  1.
         12    1    3    3    0    0  0.38726344958E+02 -0.17882317566E+02 -0.71448978181E+01  0.43249932256E+02  0.00000000000E+00 0. -1.
</event>
<event>
 7    1  0.4520336E-015  0.9000774E+02  0.7816164E-02  0.1186339E+00
        -11   -1    0    0    0    0  0.00000000000E+00  0.00000000000E+00  0.45593999997E+02  0.45594000000E+02  0.51100000000E-03 0. -1.
         11   -1    0    0    0    0 -0.00000000000E+00 -0.00000000000E+00 -0.45593999997E+02  0.45594000000E+02  0.51100000000E-03 0.  1.
    9900012    2    1    2    0    0  0.54384202705E+00  0.10394252341E+01  0.12977113370E+00  0.90007741759E+02  0.90000003151E+02 0.  0.
         12    1    1    2    0    0 -0.54384202705E+00 -0.10394252341E+01 -0.12977113370E+00  0.11802582407E+01  0.00000000000E+00 0. -1.
         11    1    3    3    0    0  0.33790887379E+02 -0.54115162886E+00 -0.11002258493E+02  0.35541055234E+02  0.51100000000E-03 0. -1.
        -11    1    3    3    0    0 -0.69529564411E+01 -0.17842907969E+02  0.10348550916E+02  0.21767073170E+02  0.51100000000E-03 0.  1.
        -12    1    3    3    0    0 -0.26294088911E+02  0.19423484832E+02  0.78347870992E+00  0.32699613355E+02  0.00000000000E+00 0.  1.
</event>
<event>
 7    1  0.4520336E-015  0.9000777E+02  0.7816164E-02  0.1186339E+00
        -11   -1    0    0    0    0  0.00000000000E+00  0.00000000000E+00  0.45593999997E+02  0.45594000000E+02  0.51100000000E-03 0.  1.
         11   -1    0    0    0    0 -0.00000000000E+00 -0.00000000000E+00 -0.45593999997E+02  0.45594000000E+02  0.51100000000E-03 0. -1.
    9900012    2    1    2    0    0  0.17513978980E-01 -0.10382301056E+01  0.56099731280E+00  0.90007768465E+02  0.90000030209E+02 0.  0.
         12    1    1    2    0    0 -0.17513978980E-01  0.10382301056E+01 -0.56099731280E+00  0.11802315352E+01  0.00000000000E+00 0. -1.
         11    1    3    3    0    0 -0.95238394815E+01  0.30570315289E+02 -0.20133047255E+02  0.37823105205E+02  0.51100000000E-03 0. -1.
        -11    1    3    3    0    0  0.78712632821E+01  0.62252304024E+01  0.43068891832E+01  0.10920603185E+02  0.51100000000E-03 0.  1.
        -12    1    3    3    0    0  0.16700901784E+01 -0.37833775797E+02  0.16387155385E+02  0.41264060075E+02  0.00000000000E+00 0.  1.
</event>
<event>
 7    1  0.4520336E-015  0.9000775E+02  0.7816164E-02  0.1186339E+00
        -11   -1    0    0    0    0  0.00000000000E+00  0.00000000000E+00  0.45593999997E+02  0.45594000000E+02  0.51100000000E-03 0.  1.
         11   -1    0    0    0    0 -0.00000000000E+00 -0.00000000000E+00 -0.45593999997E+02  0.45594000000E+02  0.51100000000E-03 0. -1.
    9900012    2    1    2    0    0  0.14343786742E+00  0.10894715904E+01  0.43064829558E+00  0.90007753957E+02  0.90000015509E+02 0.  0.
         12    1    1    2    0    0 -0.14343786742E+00 -0.10894715904E+01 -0.43064829558E+00  0.11802460433E+01  0.00000000000E+00 0. -1.
         11    1    3    3    0    0  0.10837407448E+01  0.55520994327E+00  0.34751875090E+01  0.36823471546E+01  0.51100000000E-03 0. -1.
        -11    1    3    3    0    0 -0.42560610089E+02  0.18780496911E+01 -0.10841221527E+02  0.43959807623E+02  0.51100000000E-03 0.  1.
         12    1    3    3    0    0  0.41620307212E+02 -0.13437880439E+01  0.77966823140E+01  0.42365599179E+02  0.00000000000E+00 0. -1.
</event>
<event>
 7    1  0.4520336E-015  0.9000806E+02  0.7816164E-02  0.1186338E+00
        -11   -1    0    0    0    0  0.00000000000E+00  0.00000000000E+00  0.45593999997E+02  0.45594000000E+02  0.51100000000E-03 0.  1.
         11   -1    0    0    0    0 -0.00000000000E+00 -0.00000000000E+00 -0.45593999997E+02  0.45594000000E+02  0.51100000000E-03 0. -1.
    9900012    2    1    2    0    0  0.10505507724E+01  0.47104185114E+00 -0.25830295672E+00  0.90008060269E+02  0.90000325864E+02 0.  0.
         12    1    1    2    0    0 -0.10505507724E+01 -0.47104185114E+00  0.25830295672E+00  0.11799397308E+01  0.00000000000E+00 0. -1.
         11    1    3    3    0    0  0.45903179518E+01  0.32572884998E+01  0.83716651836E+01  0.10087899954E+02  0.51100000000E-03 0. -1.
        -11    1    3    3    0    0  0.27529881319E+02  0.11613281978E+02 -0.27683105461E+02  0.40732260089E+02  0.51100000000E-03 0.  1.
         12    1    3    3    0    0 -0.31069648498E+02 -0.14399528626E+02  0.19053137321E+02  0.39187900227E+02  0.00000000000E+00 0. -1.
</event>
<event>
 7    1  0.4520336E-015  0.9000775E+02  0.7816164E-02  0.1186339E+00
        -11   -1    0    0    0    0  0.00000000000E+00  0.00000000000E+00  0.45593999997E+02  0.45594000000E+02  0.51100000000E-03 0.  1.
         11   -1    0    0    0    0 -0.00000000000E+00 -0.00000000000E+00 -0.45593999997E+02  0.45594000000E+02  0.51100000000E-03 0. -1.
    9900012    2    1    2    0    0  0.30370672571E+00  0.11312060304E+01  0.14538407631E+00  0.90007745202E+02  0.90000006639E+02 0.  0.
         12    1    1    2    0    0 -0.30370672571E+00 -0.11312060304E+01 -0.14538407631E+00  0.11802547980E+01  0.00000000000E+00 0. -1.
         11    1    3    3    0    0 -0.31853345585E+01 -0.99362625492E+01  0.62748071934E+00  0.10453200563E+02  0.51100000000E-03 0. -1.
        -11    1    3    3    0    0 -0.30145044554E+02 -0.16846223119E+02  0.69320640761E+01  0.35221761131E+02  0.51100000000E-03 0.  1.
         12    1    3    3    0    0  0.33634085838E+02  0.27913691699E+02 -0.74141607191E+01  0.44332783508E+02  0.00000000000E+00 0. -1.
</event>
<event>
 7    1  0.4520336E-015  0.9000777E+02  0.7816164E-02  0.1186339E+00
        -11   -1    0    0    0    0  0.00000000000E+00  0.00000000000E+00  0.45593999997E+02  0.45594000000E+02  0.51100000000E-03 0.  1.
         11   -1    0    0    0    0 -0.00000000000E+00 -0.00000000000E+00 -0.45593999997E+02  0.45594000000E+02  0.51100000000E-03 0. -1.
    9900012    2    1    2    0    0  0.52774638044E+00  0.74163930798E+00  0.75125763228E+00  0.90007774117E+02  0.90000035935E+02 0.  0.
         12    1    1    2    0    0 -0.52774638044E+00 -0.74163930798E+00 -0.75125763228E+00  0.11802258832E+01  0.00000000000E+00 0. -1.
         11    1    3    3    0    0  0.56928067726E+01 -0.53287019110E+01 -0.40207799086E+01  0.87732425215E+01  0.51100000000E-03 0. -1.
        -11    1    3    3    0    0  0.10488383224E+02 -0.32471081531E+02  0.16656483311E+02  0.37971249058E+02  0.51100000000E-03 0.  1.
         12    1    3    3    0    0 -0.15653443616E+02  0.38541422750E+02 -0.11884445770E+02  0.43263282538E+02  0.00000000000E+00 0. -1.
</event>
<event>
 7    1  0.4520336E-015  0.9000708E+02  0.7816164E-02  0.1186340E+00
        -11   -1    0    0    0    0  0.00000000000E+00  0.00000000000E+00  0.45593999997E+02  0.45594000000E+02  0.51100000000E-03 0.  1.
         11   -1    0    0    0    0 -0.00000000000E+00 -0.00000000000E+00 -0.45593999997E+02  0.45594000000E+02  0.51100000000E-03 0. -1.
    9900012    2    1    2    0    0  0.84465057253E+00 -0.11210595858E+00  0.81766503952E+00  0.90007077288E+02  0.89999329905E+02 0.  0.
         12    1    1    2    0    0 -0.84465057253E+00  0.11210595858E+00 -0.81766503952E+00  0.11809227123E+01  0.00000000000E+00 0. -1.
         11    1    3    3    0    0 -0.17429836049E+01  0.32682454412E+01  0.10388107362E+02  0.11028698696E+02  0.51100000000E-03 0. -1.
        -11    1    3    3    0    0  0.14254241290E+02 -0.38677191539E+02 -0.52484930117E+01  0.41553041035E+02  0.51100000000E-03 0.  1.
         12    1    3    3    0    0 -0.11666607112E+02  0.35296840140E+02 -0.43219493106E+01  0.37425337556E+02  0.00000000000E+00 0. -1.
</event>
<event>
 7    1  0.4520336E-015  0.9000753E+02  0.7816164E-02  0.1186339E+00
        -11   -1    0    0    0    0  0.00000000000E+00  0.00000000000E+00  0.45593999997E+02  0.45594000000E+02  0.51100000000E-03 0. -1.
         11   -1    0    0    0    0 -0.00000000000E+00 -0.00000000000E+00 -0.45593999997E+02  0.45594000000E+02  0.51100000000E-03 0.  1.
    9900012    2    1    2    0    0 -0.37606003036E-01  0.44026240787E+00 -0.10946483729E+01  0.90007533880E+02  0.89999792527E+02 0.  0.
         12    1    1    2    0    0  0.37606003036E-01 -0.44026240787E+00  0.10946483729E+01  0.11804661196E+01  0.00000000000E+00 0. -1.
         11    1    3    3    0    0 -0.87354266907E+01  0.45805254772E+01 -0.27569263897E+01  0.10241559280E+02  0.51100000000E-03 0. -1.
        -11    1    3    3    0    0 -0.94495207635E+01 -0.37905667639E+02  0.10448313701E+02  0.40438846933E+02  0.51100000000E-03 0.  1.
         12    1    3    3    0    0  0.18147341451E+02  0.33765404570E+02 -0.87860356843E+01  0.39327127667E+02  0.00000000000E+00 0. -1.
</event>
<event>
 7    1  0.4520336E-015  0.9000766E+02  0.7816164E-02  0.1186339E+00
        -11   -1    0    0    0    0  0.00000000000E+00  0.00000000000E+00  0.45593999997E+02  0.45594000000E+02  0.51100000000E-03 0.  1.
         11   -1    0    0    0    0 -0.00000000000E+00 -0.00000000000E+00 -0.45593999997E+02  0.45594000000E+02  0.51100000000E-03 0. -1.
    9900012    2    1    2    0    0  0.31268780883E+00  0.63982536872E+00  0.94130791226E+00  0.90007656510E+02  0.89999916776E+02 0.  0.
         12    1    1    2    0    0 -0.31268780883E+00 -0.63982536872E+00 -0.94130791226E+00  0.11803434898E+01  0.00000000000E+00 0. -1.
         11    1    3    3    0    0 -0.27303062801E+01  0.14034042368E+02 -0.36831850789E+02  0.39509418502E+02  0.51100000000E-03 0. -1.
        -11    1    3    3    0    0  0.10457033733E+02 -0.97911744209E+00  0.49583265532E+00  0.10514469826E+02  0.51100000000E-03 0.  1.
        -12    1    3    3    0    0 -0.74140396436E+01 -0.12415099557E+02  0.37277326046E+02  0.39983768182E+02  0.00000000000E+00 0.  1.
</event>
<event>
 7    1  0.4520336E-015  0.9000776E+02  0.7816164E-02  0.1186339E+00
        -11   -1    0    0    0    0  0.00000000000E+00  0.00000000000E+00  0.45593999997E+02  0.45594000000E+02  0.51100000000E-03 0.  1.
         11   -1    0    0    0    0 -0.00000000000E+00 -0.00000000000E+00 -0.45593999997E+02  0.45594000000E+02  0.51100000000E-03 0. -1.
    9900012    2    1    2    0    0 -0.41507547365E+00  0.10225102306E+01  0.41850870812E+00  0.90007760889E+02  0.90000022533E+02 0.  0.
         12    1    1    2    0    0  0.41507547365E+00 -0.10225102306E+01 -0.41850870812E+00  0.11802391111E+01  0.00000000000E+00 0. -1.
         11    1    3    3    0    0  0.11911993872E+01 -0.13538372762E+02  0.10749221659E+02  0.17327788652E+02  0.51100000000E-03 0. -1.
        -11    1    3    3    0    0 -0.19984136557E+02 -0.22788692722E+02 -0.48151505781E+01  0.30689996828E+02  0.51100000000E-03 0.  1.
         12    1    3    3    0    0  0.18377861696E+02  0.37349575715E+02 -0.55155623725E+01  0.41989975410E+02  0.00000000000E+00 0. -1.
</event>
<event>
 7    1  0.4520336E-015  0.9000784E+02  0.7816164E-02  0.1186339E+00
        -11   -1    0    0    0    0  0.00000000000E+00  0.00000000000E+00  0.45593999997E+02  0.45594000000E+02  0.51100000000E-03 0. -1.
         11   -1    0    0    0    0 -0.00000000000E+00 -0.00000000000E+00 -0.45593999997E+02  0.45594000000E+02  0.51100000000E-03 0.  1.
    9900012    2    1    2    0    0  0.63400092676E+00 -0.97534643122E+00 -0.19879202956E+00  0.90007840643E+02  0.90000103340E+02 0.  0.
         12    1    1    2    0    0 -0.63400092676E+00  0.97534643122E+00  0.19879202956E+00  0.11801593566E+01  0.00000000000E+00 0. -1.
         11    1    3    3    0    0 -0.96607185279E+01 -0.61231160711E+01  0.35964893366E+01  0.11989861080E+02  0.51100000000E-03 0. -1.
        -11    1    3    3    0    0 -0.38732265695E+01  0.20842229531E+02 -0.34646119694E+02  0.40617164180E+02  0.51100000000E-03 0.  1.
         12    1    3    3    0    0  0.14167946024E+02 -0.15694459891E+02  0.30850838328E+02  0.37400815384E+02  0.00000000000E+00 0. -1.
</event>
<event>
 7    1  0.4520336E-015  0.9000769E+02  0.7816164E-02  0.1186339E+00
        -11   -1    0    0    0    0  0.00000000000E+00  0.00000000000E+00  0.45593999997E+02  0.45594000000E+02  0.51100000000E-03 0.  1.
         11   -1    0    0    0    0 -0.00000000000E+00 -0.00000000000E+00 -0.45593999997E+02  0.45594000000E+02  0.51100000000E-03 0. -1.
    9900012    2    1    2    0    0 -0.79615076637E+00  0.31146732201E+00  0.81379185051E+00  0.90007692789E+02  0.89999953534E+02 0.  0.
         12    1    1    2    0    0  0.79615076637E+00 -0.31146732201E+00 -0.81379185051E+00  0.11803072106E+01  0.00000000000E+00 0. -1.
         11    1    3    3    0    0  0.13728664931E+01  0.38646449553E+02 -0.54035262024E+01  0.39046522523E+02  0.51100000000E-03 0. -1.
        -11    1    3    3    0    0 -0.53584541918E+01  0.47464327790E+01 -0.77298308915E+00  0.71999415670E+01  0.51100000000E-03 0.  1.
        -12    1    3    3    0    0  0.31894369323E+01 -0.43081415010E+02  0.69903011421E+01  0.43761228699E+02  0.00000000000E+00 0.  1.
</event>
<event>
 7    1  0.4520336E-015  0.9000764E+02  0.7816164E-02  0.1186339E+00
        -11   -1    0    0    0    0  0.00000000000E+00  0.00000000000E+00  0.45593999997E+02  0.45594000000E+02  0.51100000000E-03 0.  1.
         11   -1    0    0    0    0 -0.00000000000E+00 -0.00000000000E+00 -0.45593999997E+02  0.45594000000E+02  0.51100000000E-03 0. -1.
    9900012    2    1    2    0    0 -0.45922213012E+00  0.92636775376E+00  0.56939268267E+00  0.90007639798E+02  0.89999899843E+02 0.  0.
         12    1    1    2    0    0  0.45922213012E+00 -0.92636775376E+00 -0.56939268267E+00  0.11803602023E+01  0.00000000000E+00 0. -1.
         11    1    3    3    0    0  0.22773649457E+02  0.20732493245E+02 -0.40136728835E+01  0.31057768046E+02  0.51100000000E-03 0. -1.
        -11    1    3    3    0    0  0.98193399113E+01 -0.37220806646E+01 -0.14207854030E+02  0.17667383428E+02  0.51100000000E-03 0.  1.
        -12    1    3    3    0    0 -0.33052211498E+02 -0.16084044827E+02  0.18790919596E+02  0.41282488324E+02  0.00000000000E+00 0.  1.
</event>
<event>
 7    1  0.4520336E-015  0.9000775E+02  0.7816164E-02  0.1186339E+00
        -11   -1    0    0    0    0  0.00000000000E+00  0.00000000000E+00  0.45593999997E+02  0.45594000000E+02  0.51100000000E-03 0. -1.
         11   -1    0    0    0    0 -0.00000000000E+00 -0.00000000000E+00 -0.45593999997E+02  0.45594000000E+02  0.51100000000E-03 0.  1.
    9900012    2    1    2    0    0 -0.38995745794E-02  0.10570765635E+01 -0.52494304874E+00  0.90007749487E+02  0.90000010981E+02 0.  0.
         12    1    1    2    0    0  0.38995745794E-02 -0.10570765635E+01  0.52494304874E+00  0.11802505125E+01  0.00000000000E+00 0. -1.
         11    1    3    3    0    0 -0.59825486405E+01 -0.79531022385E+01  0.17093990227E+01  0.10097760580E+02  0.51100000000E-03 0. -1.
        -11    1    3    3    0    0 -0.31126167750E+02 -0.15756632260E+02 -0.48475916516E+01  0.35222278802E+02  0.51100000000E-03 0.  1.
         12    1    3    3    0    0  0.37104816815E+02  0.24766811062E+02  0.26132495802E+01  0.44687710105E+02  0.00000000000E+00 0. -1.
</event>
<event>
 7    1  0.4520336E-015  0.9000736E+02  0.7816164E-02  0.1186340E+00
        -11   -1    0    0    0    0  0.00000000000E+00  0.00000000000E+00  0.45593999997E+02  0.45594000000E+02  0.51100000000E-03 0. -1.
         11   -1    0    0    0    0 -0.00000000000E+00 -0.00000000000E+00 -0.45593999997E+02  0.45594000000E+02  0.51100000000E-03 0.  1.
    9900012    2    1    2    0    0 -0.57681219270E+00  0.25721240658E+00 -0.99751189566E+00  0.90007364362E+02  0.89999620771E+02 0.  0.
         12    1    1    2    0    0  0.57681219270E+00 -0.25721240658E+00  0.99751189566E+00  0.11806356380E+01  0.00000000000E+00 0. -1.
         11    1    3    3    0    0 -0.31414662887E+01  0.55142129931E+01 -0.63446533801E+01  0.89738499069E+01  0.51100000000E-03 0. -1.
        -11    1    3    3    0    0 -0.46308634365E+01 -0.61374596576E+01 -0.37142498748E+02  0.37929915907E+02  0.51100000000E-03 0.  1.
         12    1    3    3    0    0  0.71955175324E+01  0.88045907104E+00  0.42489640232E+02  0.43103598548E+02  0.00000000000E+00 0. -1.
</event>
<event>
 7    1  0.4817077E-015  0.9000777E+02  0.7816164E-02  0.1186339E+00
        -11   -1    0    0    0    0  0.00000000000E+00  0.00000000000E+00  0.45593999997E+02  0.45594000000E+02  0.51100000000E-03 0. -1.
         11   -1    0    0    0    0 -0.00000000000E+00 -0.00000000000E+00 -0.45593999997E+02  0.45594000000E+02  0.51100000000E-03 0.  1.
    9900012    2    1    2    0    0  0.98522988198E+00 -0.21790198695E+00 -0.61219019850E+00  0.90007772888E+02  0.90000034690E+02 0.  0.
         12    1    1    2    0    0 -0.98522988198E+00  0.21790198695E+00  0.61219019850E+00  0.11802271118E+01  0.00000000000E+00 0. -1.
         11    1    3    3    0    0  0.28464266095E+02  0.12368128345E+02  0.27798151962E+02  0.41664400822E+02  0.51100000000E-03 0. -1.
        -11    1    3    3    0    0  0.24831806114E+00 -0.95373467028E+01 -0.16383891853E+01  0.96802357085E+01  0.51100000000E-03 0.  1.
        -12    1    3    3    0    0 -0.27727354275E+02 -0.30486836288E+01 -0.26771952975E+02  0.38663136358E+02  0.00000000000E+00 0.  1.
</event>
<event>
 7    1  0.4520336E-015  0.9000778E+02  0.7816164E-02  0.1186339E+00
        -11   -1    0    0    0    0  0.00000000000E+00  0.00000000000E+00  0.45593999997E+02  0.45594000000E+02  0.51100000000E-03 0.  1.
         11   -1    0    0    0    0 -0.00000000000E+00 -0.00000000000E+00 -0.45593999997E+02  0.45594000000E+02  0.51100000000E-03 0. -1.
    9900012    2    1    2    0    0 -0.30343993141E+00 -0.11033299692E+01 -0.28898699660E+00  0.90007777014E+02  0.90000038870E+02 0.  0.
         12    1    1    2    0    0  0.30343993141E+00  0.11033299692E+01  0.28898699660E+00  0.11802229862E+01  0.00000000000E+00 0. -1.
         11    1    3    3    0    0  0.47490893793E+01  0.36914866367E+02 -0.11460240975E+02  0.38943527476E+02  0.51100000000E-03 0. -1.
        -11    1    3    3    0    0  0.33558067426E+01 -0.33159568812E+01 -0.89219794598E+01  0.10092508443E+02  0.51100000000E-03 0.  1.
        -12    1    3    3    0    0 -0.84083360533E+01 -0.34702239455E+02  0.20093233438E+02  0.40971741095E+02  0.00000000000E+00 0.  1.
</event>
<event>
 7    1  0.4520336E-015  0.9000778E+02  0.7816164E-02  0.1186339E+00
        -11   -1    0    0    0    0  0.00000000000E+00  0.00000000000E+00  0.45593999997E+02  0.45594000000E+02  0.51100000000E-03 0. -1.
         11   -1    0    0    0    0 -0.00000000000E+00 -0.00000000000E+00 -0.45593999997E+02  0.45594000000E+02  0.51100000000E-03 0.  1.
    9900012    2    1    2    0    0  0.44893431868E+00 -0.41147877934E+00  0.10109708624E+01  0.90007780151E+02  0.90000042049E+02 0.  0.
         12    1    1    2    0    0 -0.44893431868E+00  0.41147877934E+00 -0.10109708624E+01  0.11802198494E+01  0.00000000000E+00 0. -1.
         11    1    3    3    0    0 -0.14895484555E+02  0.27849812701E+02 -0.17098943224E+02  0.35914640291E+02  0.51100000000E-03 0. -1.
        -11    1    3    3    0    0  0.43572566919E+00  0.96771325960E+01  0.53073287626E+00  0.97014653422E+01  0.51100000000E-03 0.  1.
        -12    1    3    3    0    0  0.14908693204E+02 -0.37938424076E+02  0.17579181210E+02  0.44391674517E+02  0.00000000000E+00 0.  1.
</event>
<event>
 7    1  0.4520336E-015  0.9000772E+02  0.7816164E-02  0.1186339E+00
        -11   -1    0    0    0    0  0.00000000000E+00  0.00000000000E+00  0.45593999997E+02  0.45594000000E+02  0.51100000000E-03 0.  1.
         11   -1    0    0    0    0 -0.00000000000E+00 -0.00000000000E+00 -0.45593999997E+02  0.45594000000E+02  0.51100000000E-03 0. -1.
    9900012    2    1    2    0    0 -0.47026454534E+00  0.37428264598E+00  0.10157847592E+01  0.90007722525E+02  0.89999983662E+02 0.  0.
         12    1    1    2    0    0  0.47026454534E+00 -0.37428264598E+00 -0.10157847592E+01  0.11802774753E+01  0.00000000000E+00 0. -1.
         11    1    3    3    0    0 -0.51938781603E+01  0.38975057276E+02 -0.95901658990E+00  0.39331300171E+02  0.51100000000E-03 0. -1.
        -11    1    3    3    0    0 -0.54476635518E+01 -0.33723998418E+00  0.89415819681E+01  0.10475812968E+02  0.51100000000E-03 0.  1.
        -12    1    3    3    0    0  0.10171277167E+02 -0.38263534646E+02 -0.69667806189E+01  0.40200609386E+02  0.00000000000E+00 0.  1.
</event>
<event>
 7    1  0.4520336E-015  0.9000790E+02  0.7816164E-02  0.1186339E+00
        -11   -1    0    0    0    0  0.00000000000E+00  0.00000000000E+00  0.45593999997E+02  0.45594000000E+02  0.51100000000E-03 0.  1.
         11   -1    0    0    0    0 -0.00000000000E+00 -0.00000000000E+00 -0.45593999997E+02  0.45594000000E+02  0.51100000000E-03 0. -1.
    9900012    2    1    2    0    0  0.89095577537E+00 -0.21565129925E+00  0.74318598366E+00  0.90007901240E+02  0.90000164736E+02 0.  0.
         12    1    1    2    0    0 -0.89095577537E+00  0.21565129925E+00 -0.74318598366E+00  0.11800987598E+01  0.00000000000E+00 0. -1.
         11    1    3    3    0    0  0.31796707361E+01 -0.51895190455E+01  0.52488295400E+01  0.80368915455E+01  0.51100000000E-03 0. -1.
        -11    1    3    3    0    0  0.13958768818E+02  0.76022684973E+01  0.35399899441E+02  0.38804569240E+02  0.51100000000E-03 0.  1.
         12    1    3    3    0    0 -0.16247483779E+02 -0.26284007510E+01 -0.39905542997E+02  0.43166440455E+02  0.00000000000E+00 0. -1.
</event>
<event>
 7    1  0.4520336E-015  0.9000773E+02  0.7816164E-02  0.1186339E+00
        -11   -1    0    0    0    0  0.00000000000E+00  0.00000000000E+00  0.45593999997E+02  0.45594000000E+02  0.51100000000E-03 0.  1.
         11   -1    0    0    0    0 -0.00000000000E+00 -0.00000000000E+00 -0.45593999997E+02  0.45594000000E+02  0.51100000000E-03 0. -1.
    9900012    2    1    2    0    0 -0.24822678508E+00 -0.95532885550E+00 -0.64711730193E+00  0.90007732843E+02  0.89999994117E+02 0.  0.
         12    1    1    2    0    0  0.24822678508E+00  0.95532885550E+00  0.64711730193E+00  0.11802671568E+01  0.00000000000E+00 0. -1.
         11    1    3    3    0    0 -0.31624226182E+01  0.87129142573E+01 -0.50392307179E+01  0.10550338296E+02  0.51100000000E-03 0. -1.
        -11    1    3    3    0    0 -0.25901111830E+01  0.25996403005E+02  0.26438710768E+02  0.37168899264E+02  0.51100000000E-03 0.  1.
         12    1    3    3    0    0  0.55043070161E+01 -0.35664646118E+02 -0.22046597352E+02  0.42288495283E+02  0.00000000000E+00 0. -1.
</event>
<event>
 7    1  0.4520336E-015  0.9000777E+02  0.7816164E-02  0.1186339E+00
        -11   -1    0    0    0    0  0.00000000000E+00  0.00000000000E+00  0.45593999997E+02  0.45594000000E+02  0.51100000000E-03 0.  1.
         11   -1    0    0    0    0 -0.00000000000E+00 -0.00000000000E+00 -0.45593999997E+02  0.45594000000E+02  0.51100000000E-03 0. -1.
    9900012    2    1    2    0    0  0.10961060728E+01  0.13030903566E+00  0.41774774396E+00  0.90007770300E+02  0.90000032068E+02 0.  0.
         12    1    1    2    0    0 -0.10961060728E+01 -0.13030903566E+00 -0.41774774396E+00  0.11802297002E+01  0.00000000000E+00 0. -1.
         11    1    3    3    0    0 -0.55037856633E+01 -0.46399784615E+01  0.60251872939E+01  0.93874351629E+01  0.51100000000E-03 0. -1.
        -11    1    3    3    0    0 -0.36662133569E+02  0.56366580074E+01 -0.41597304395E+01  0.37325424431E+02  0.51100000000E-03 0.  1.
         12    1    3    3    0    0  0.43262025305E+02 -0.86637051027E+00 -0.14477091105E+01  0.43294910706E+02  0.00000000000E+00 0. -1.
</event>
<event>
 7    1  0.5979779E-015  0.9000774E+02  0.7816164E-02  0.1186339E+00
        -11   -1    0    0    0    0  0.00000000000E+00  0.00000000000E+00  0.45593999997E+02  0.45594000000E+02  0.51100000000E-03 0.  1.
         11   -1    0    0    0    0 -0.00000000000E+00 -0.00000000000E+00 -0.45593999997E+02  0.45594000000E+02  0.51100000000E-03 0. -1.
    9900012    2    1    2    0    0  0.35682657621E+00 -0.74441636182E+00  0.84351830418E+00  0.90007744072E+02  0.90000005494E+02 0.  0.
         12    1    1    2    0    0 -0.35682657621E+00  0.74441636182E+00 -0.84351830418E+00  0.11802559276E+01  0.00000000000E+00 0. -1.
         11    1    3    3    0    0  0.15149203671E+02 -0.15792315636E+02 -0.29770588356E+02  0.36948390173E+02  0.51100000000E-03 0. -1.
        -11    1    3    3    0    0  0.12790505790E+01 -0.90468178634E+01 -0.20913199589E+01  0.93730733097E+01  0.51100000000E-03 0.  1.
        -12    1    3    3    0    0 -0.16071427673E+02  0.24094717138E+02  0.32705426620E+02  0.43686280590E+02  0.00000000000E+00 0.  1.
</event>
<event>
 7    1  0.4520336E-015  0.9000772E+02  0.7816164E-02  0.1186339E+00
        -11   -1    0    0    0    0  0.00000000000E+00  0.00000000000E+00  0.45593999997E+02  0.45594000000E+02  0.51100000000E-03 0.  1.
         11   -1    0    0    0    0 -0.00000000000E+00 -0.00000000000E+00 -0.45593999997E+02  0.45594000000E+02  0.51100000000E-03 0. -1.
    9900012    2    1    2    0    0  0.31459945072E+00 -0.42522126680E+00  0.10551136725E+01  0.90007724269E+02  0.89999985429E+02 0.  0.
         12    1    1    2    0    0 -0.31459945072E+00  0.42522126680E+00 -0.10551136725E+01  0.11802757314E+01  0.00000000000E+00 0. -1.
         11    1    3    3    0    0 -0.17119361186E+02  0.11467848673E+02 -0.30492942756E+02  0.36802223286E+02  0.51100000000E-03 0. -1.
        -11    1    3    3    0    0 -0.78331293189E+01 -0.27630155337E+01 -0.35266659671E+01  0.90238319394E+01  0.51100000000E-03 0.  1.
        -12    1    3    3    0    0  0.25267089956E+02 -0.91300544063E+01  0.35074722396E+02  0.44181669043E+02  0.00000000000E+00 0.  1.
</event>
<event>
 7    1  0.4520336E-015  0.9000764E+02  0.7816164E-02  0.1186339E+00
        -11   -1    0    0    0    0  0.00000000000E+00  0.00000000000E+00  0.45593999997E+02  0.45594000000E+02  0.51100000000E-03 0.  1.
         11   -1    0    0    0    0 -0.00000000000E+00 -0.00000000000E+00 -0.45593999997E+02  0.45594000000E+02  0.51100000000E-03 0. -1.
    9900012    2    1    2    0    0 -0.90224479493E+00 -0.49829292292E+00  0.57525293401E+00  0.90007636732E+02  0.89999896737E+02 0.  0.
         12    1    1    2    0    0  0.90224479493E+00  0.49829292292E+00 -0.57525293401E+00  0.11803632683E+01  0.00000000000E+00 0. -1.
         11    1    3    3    0    0 -0.18311651085E+02  0.13484211958E+01 -0.11233588000E+02  0.21525062249E+02  0.51100000000E-03 0. -1.
        -11    1    3    3    0    0  0.22413744049E+01  0.30720239403E+02  0.45523833299E+00  0.30805261084E+02  0.51100000000E-03 0.  1.
        -12    1    3    3    0    0  0.15168031886E+02 -0.32566953522E+02  0.11353602601E+02  0.37677313400E+02  0.00000000000E+00 0.  1.
</event>
<event>
 7    1  0.4520336E-015  0.9000778E+02  0.7816164E-02  0.1186339E+00
        -11   -1    0    0    0    0  0.00000000000E+00  0.00000000000E+00  0.45593999997E+02  0.45594000000E+02  0.51100000000E-03 0. -1.
         11   -1    0    0    0    0 -0.00000000000E+00 -0.00000000000E+00 -0.45593999997E+02  0.45594000000E+02  0.51100000000E-03 0.  1.
    9900012    2    1    2    0    0  0.11990073603E+00 -0.94412738545E+00 -0.69797364120E+00  0.90007779720E+02  0.90000041612E+02 0.  0.
         12    1    1    2    0    0 -0.11990073603E+00  0.94412738545E+00  0.69797364120E+00  0.11802202804E+01  0.00000000000E+00 0. -1.
         11    1    3    3    0    0 -0.36895054002E+02 -0.57655419722E-01  0.61572337355E+01  0.37405345360E+02  0.51100000000E-03 0. -1.
        -11    1    3    3    0    0 -0.58566152720E+01 -0.66681762357E+01 -0.63183224971E+00  0.88974001263E+01  0.51100000000E-03 0.  1.
        -12    1    3    3    0    0  0.42871570010E+02  0.57817042700E+01 -0.62233751270E+01  0.43705034234E+02  0.00000000000E+00 0.  1.
</event>
<event>
 7    1  0.4520336E-015  0.9000711E+02  0.7816164E-02  0.1186340E+00
        -11   -1    0    0    0    0  0.00000000000E+00  0.00000000000E+00  0.45593999997E+02  0.45594000000E+02  0.51100000000E-03 0. -1.
         11   -1    0    0    0    0 -0.00000000000E+00 -0.00000000000E+00 -0.45593999997E+02  0.45594000000E+02  0.51100000000E-03 0.  1.
    9900012    2    1    2    0    0  0.84738251506E+00  0.29759519992E+00 -0.76673273565E+00  0.90007110878E+02  0.89999363940E+02 0.  0.
         12    1    1    2    0    0 -0.84738251506E+00 -0.29759519992E+00  0.76673273565E+00  0.11808891217E+01  0.00000000000E+00 0. -1.
         11    1    3    3    0    0  0.12074923294E+02  0.37565610862E+02  0.12895973202E+02  0.41512468213E+02  0.51100000000E-03 0. -1.
        -11    1    3    3    0    0  0.70767415999E+01 -0.31317259429E+01 -0.31839563098E+01  0.83681274547E+01  0.51100000000E-03 0.  1.
        -12    1    3    3    0    0 -0.18304282379E+02 -0.34136289719E+02 -0.10478749628E+02  0.40126515211E+02  0.00000000000E+00 0.  1.
</event>
<event>
 7    1  0.4520336E-015  0.9000770E+02  0.7816164E-02  0.1186339E+00
        -11   -1    0    0    0    0  0.00000000000E+00  0.00000000000E+00  0.45593999997E+02  0.45594000000E+02  0.51100000000E-03 0. -1.
         11   -1    0    0    0    0 -0.00000000000E+00 -0.00000000000E+00 -0.45593999997E+02  0.45594000000E+02  0.51100000000E-03 0.  1.
    9900012    2    1    2    0    0  0.85273430453E+00  0.81600348303E+00  0.93423238979E-02  0.90007701412E+02  0.89999962270E+02 0.  0.
         12    1    1    2    0    0 -0.85273430453E+00 -0.81600348303E+00 -0.93423238979E-02  0.11802985883E+01  0.00000000000E+00 0. -1.
         11    1    3    3    0    0 -0.40258485268E+01  0.83084892739E+01  0.38806285481E+01  0.10014875364E+02  0.51100000000E-03 0. -1.
        -11    1    3    3    0    0 -0.35681124235E+02 -0.46735421834E-01 -0.12602143156E+02  0.37841231788E+02  0.51100000000E-03 0.  1.
         12    1    3    3    0    0  0.40559707066E+02 -0.74457503690E+01  0.87308569315E+01  0.42151594259E+02  0.00000000000E+00 0. -1.
</event>
<event>
 7    1  0.4520336E-015  0.9000778E+02  0.7816164E-02  0.1186339E+00
        -11   -1    0    0    0    0  0.00000000000E+00  0.00000000000E+00  0.45593999997E+02  0.45594000000E+02  0.51100000000E-03 0.  1.
         11   -1    0    0    0    0 -0.00000000000E+00 -0.00000000000E+00 -0.45593999997E+02  0.45594000000E+02  0.51100000000E-03 0. -1.
    9900012    2    1    2    0    0  0.78085227710E+00 -0.28047637801E+00 -0.83936474868E+00  0.90007775251E+02  0.90000037084E+02 0.  0.
         12    1    1    2    0    0 -0.78085227710E+00  0.28047637801E+00  0.83936474868E+00  0.11802247492E+01  0.00000000000E+00 0. -1.
         11    1    3    3    0    0 -0.97544334120E+01 -0.74890086307E+01 -0.36268132945E+02  0.38296366526E+02  0.51100000000E-03 0. -1.
        -11    1    3    3    0    0  0.13365663010E+01  0.71855464520E+01 -0.58864739254E+01  0.93845118587E+01  0.51100000000E-03 0.  1.
        -12    1    3    3    0    0  0.91987193881E+01  0.22985800665E-01  0.41315242122E+02  0.42326896866E+02  0.00000000000E+00 0.  1.
</event>
<event>
 7    1  0.4520336E-015  0.9000796E+02  0.7816164E-02  0.1186339E+00
        -11   -1    0    0    0    0  0.00000000000E+00  0.00000000000E+00  0.45593999997E+02  0.45594000000E+02  0.51100000000E-03 0.  1.
         11   -1    0    0    0    0 -0.00000000000E+00 -0.00000000000E+00 -0.45593999997E+02  0.45594000000E+02  0.51100000000E-03 0. -1.
    9900012    2    1    2    0    0  0.90304949523E+00  0.56308440593E+00 -0.50983934569E+00  0.90007958222E+02  0.90000222470E+02 0.  0.
         12    1    1    2    0    0 -0.90304949523E+00 -0.56308440593E+00  0.50983934569E+00  0.11800417778E+01  0.00000000000E+00 0. -1.
         11    1    3    3    0    0  0.46272705216E+01  0.83549660995E+01  0.49943766394E+01  0.10777796124E+02  0.51100000000E-03 0. -1.
        -11    1    3    3    0    0  0.22384159096E+02  0.21742241581E+01  0.27797821506E+02  0.35756072349E+02  0.51100000000E-03 0.  1.
         12    1    3    3    0    0 -0.26108380122E+02 -0.99661058517E+01 -0.33302037491E+02  0.43474089749E+02  0.00000000000E+00 0. -1.
</event>
<event>
 7    1  0.4520336E-015  0.9000771E+02  0.7816164E-02  0.1186339E+00
        -11   -1    0    0    0    0  0.00000000000E+00  0.00000000000E+00  0.45593999997E+02  0.45594000000E+02  0.51100000000E-03 0. -1.
         11   -1    0    0    0    0 -0.00000000000E+00 -0.00000000000E+00 -0.45593999997E+02  0.45594000000E+02  0.51100000000E-03 0.  1.
    9900012    2    1    2    0    0 -0.10833488017E+01  0.33000120582E+00  0.33248437434E+00  0.90007707121E+02  0.89999968055E+02 0.  0.
         12    1    1    2    0    0  0.10833488017E+01 -0.33000120582E+00 -0.33248437434E+00  0.11802928794E+01  0.00000000000E+00 0. -1.
         11    1    3    3    0    0 -0.25435912733E+02  0.33467711751E+02 -0.61146575566E+01  0.42478964485E+02  0.51100000000E-03 0. -1.
        -11    1    3    3    0    0  0.19981509831E+01  0.30354937048E+00  0.70145438198E+01  0.72999023852E+01  0.51100000000E-03 0.  1.
        -12    1    3    3    0    0  0.22354412948E+02 -0.33441259916E+02 -0.56740188885E+00  0.40228840251E+02  0.00000000000E+00 0.  1.
</event>
<event>
 7    1  0.4520336E-015  0.9000776E+02  0.7816164E-02  0.1186339E+00
        -11   -1    0    0    0    0  0.00000000000E+00  0.00000000000E+00  0.45593999997E+02  0.45594000000E+02  0.51100000000E-03 0.  1.
         11   -1    0    0    0    0 -0.00000000000E+00 -0.00000000000E+00 -0.45593999997E+02  0.45594000000E+02  0.51100000000E-03 0. -1.
    9900012    2    1    2    0    0  0.69269714689E+00  0.26722839938E+00  0.91745984385E+00  0.90007757262E+02  0.90000018858E+02 0.  0.
         12    1    1    2    0    0 -0.69269714689E+00 -0.26722839938E+00 -0.91745984385E+00  0.11802427377E+01  0.00000000000E+00 0. -1.
         11    1    3    3    0    0  0.12596568740E+02 -0.34934965807E+02 -0.84571654915E+01  0.38087386736E+02  0.51100000000E-03 0. -1.
        -11    1    3    3    0    0  0.71939357587E+01  0.47970250409E+00 -0.60343963269E+01  0.94019554074E+01  0.51100000000E-03 0.  1.
        -12    1    3    3    0    0 -0.19097807352E+02  0.34722491702E+02  0.15409021662E+02  0.42518415119E+02  0.00000000000E+00 0.  1.
</event>
<event>
 7    1  0.4520336E-015  0.9000713E+02  0.7816164E-02  0.1186340E+00
        -11   -1    0    0    0    0  0.00000000000E+00  0.00000000000E+00  0.45593999997E+02  0.45594000000E+02  0.51100000000E-03 0.  1.
         11   -1    0    0    0    0 -0.00000000000E+00 -0.00000000000E+00 -0.45593999997E+02  0.45594000000E+02  0.51100000000E-03 0. -1.
    9900012    2    1    2    0    0  0.38533397918E+00  0.73864085591E+00  0.83688708712E+00  0.90007130580E+02  0.89999383902E+02 0.  0.
         12    1    1    2    0    0 -0.38533397918E+00 -0.73864085591E+00 -0.83688708712E+00  0.11808694196E+01  0.00000000000E+00 0. -1.
         11    1    3    3    0    0  0.37703188867E+02 -0.40317668369E+01 -0.17969105946E+01  0.37960696549E+02  0.51100000000E-03 0. -1.
        -11    1    3    3    0    0  0.40463543906E+01 -0.70870208965E+01  0.37962034122E+01  0.90005560744E+01  0.51100000000E-03 0.  1.
        -12    1    3    3    0    0 -0.41364209278E+02  0.11857428589E+02 -0.11624057305E+01  0.43045877957E+02  0.00000000000E+00 0.  1.
</event>
<event>
 7    1  0.4520336E-015  0.9000776E+02  0.7816164E-02  0.1186339E+00
        -11   -1    0    0    0    0  0.00000000000E+00  0.00000000000E+00  0.45593999997E+02  0.45594000000E+02  0.51100000000E-03 0.  1.
         11   -1    0    0    0    0 -0.00000000000E+00 -0.00000000000E+00 -0.45593999997E+02  0.45594000000E+02  0.51100000000E-03 0. -1.
    9900012    2    1    2    0    0 -0.82549710686E+00  0.31855640536E+00  0.78105688799E+00  0.90007757008E+02  0.90000018601E+02 0.  0.
         12    1    1    2    0    0  0.82549710686E+00 -0.31855640536E+00 -0.78105688799E+00  0.11802429916E+01  0.00000000000E+00 0. -1.
         11    1    3    3    0    0  0.31552288181E+02  0.19649254830E+02  0.32413206598E+01  0.37311476314E+02  0.51100000000E-03 0. -1.
        -11    1    3    3    0    0  0.78718730320E+01 -0.49954757353E-01 -0.17352032437E+01  0.80610055867E+01  0.51100000000E-03 0.  1.
        -12    1    3    3    0    0 -0.40249658320E+02 -0.19280743667E+02 -0.72506052804E+00  0.44635275108E+02  0.00000000000E+00 0.  1.
</event>
<event>
 7    1  0.4520336E-015  0.9000776E+02  0.7816164E-02  0.1186339E+00
        -11   -1    0    0    0    0  0.00000000000E+00  0.00000000000E+00  0.45593999997E+02  0.45594000000E+02  0.51100000000E-03 0.  1.
         11   -1    0    0    0    0 -0.00000000000E+00 -0.00000000000E+00 -0.45593999997E+02  0.45594000000E+02  0.51100000000E-03 0. -1.
    9900012    2    1    2    0    0  0.89540343595E-02 -0.82114313844E+00  0.84771198813E+00  0.90007757718E+02  0.90000019320E+02 0.  0.
         12    1    1    2    0    0 -0.89540343595E-02  0.82114313844E+00 -0.84771198813E+00  0.11802422816E+01  0.00000000000E+00 0. -1.
         11    1    3    3    0    0  0.11608135842E+02  0.11489986435E+02  0.60574012110E+01  0.17420123871E+02  0.51100000000E-03 0. -1.
        -11    1    3    3    0    0  0.13316179443E+02  0.11874771436E+02  0.22105782744E+02  0.28407683161E+02  0.51100000000E-03 0.  1.
         12    1    3    3    0    0 -0.24915361250E+02 -0.24185901009E+02 -0.27315471967E+02  0.44179950686E+02  0.00000000000E+00 0. -1.
</event>
<event>
 7    1  0.4520336E-015  0.9000782E+02  0.7816164E-02  0.1186339E+00
        -11   -1    0    0    0    0  0.00000000000E+00  0.00000000000E+00  0.45593999997E+02  0.45594000000E+02  0.51100000000E-03 0. -1.
         11   -1    0    0    0    0 -0.00000000000E+00 -0.00000000000E+00 -0.45593999997E+02  0.45594000000E+02  0.51100000000E-03 0.  1.
    9900012    2    1    2    0    0  0.11429079710E+01 -0.77702945642E-01 -0.28381154906E+00  0.90007819771E+02  0.90000082192E+02 0.  0.
         12    1    1    2    0    0 -0.11429079710E+01  0.77702945642E-01  0.28381154906E+00  0.11801802291E+01  0.00000000000E+00 0. -1.
         11    1    3    3    0    0  0.14888071852E+02  0.43287485079E+01  0.59177598989E+01  0.16595560539E+02  0.51100000000E-03 0. -1.
        -11    1    3    3    0    0  0.26595213761E+02 -0.10695522728E+02 -0.13912027630E+02  0.31862895575E+02  0.51100000000E-03 0.  1.
         12    1    3    3    0    0 -0.40340377642E+02  0.62890712741E+01  0.77104561816E+01  0.41549363657E+02  0.00000000000E+00 0. -1.
</event>
<event>
 7    1  0.4520336E-015  0.9000775E+02  0.7816164E-02  0.1186339E+00
        -11   -1    0    0    0    0  0.00000000000E+00  0.00000000000E+00  0.45593999997E+02  0.45594000000E+02  0.51100000000E-03 0.  1.
         11   -1    0    0    0    0 -0.00000000000E+00 -0.00000000000E+00 -0.45593999997E+02  0.45594000000E+02  0.51100000000E-03 0. -1.
    9900012    2    1    2    0    0 -0.18378875397E+00  0.10848737859E+01 -0.42690669721E+00  0.90007754786E+02  0.90000016349E+02 0.  0.
         12    1    1    2    0    0  0.18378875397E+00 -0.10848737859E+01  0.42690669721E+00  0.11802452142E+01  0.00000000000E+00 0. -1.
         11    1    3    3    0    0  0.94851339268E+01 -0.48219656068E+00 -0.53241960837E+01  0.10887944863E+02  0.51100000000E-03 0. -1.
        -11    1    3    3    0    0  0.31485825144E+02 -0.14535143766E+02  0.40946971985E+01  0.34919824380E+02  0.51100000000E-03 0.  1.
         12    1    3    3    0    0 -0.41154747825E+02  0.16102214112E+02  0.80259218796E+00  0.44199985544E+02  0.00000000000E+00 0. -1.
</event>
<event>
 7    1  0.4520336E-015  0.9000770E+02  0.7816164E-02  0.1186339E+00
        -11   -1    0    0    0    0  0.00000000000E+00  0.00000000000E+00  0.45593999997E+02  0.45594000000E+02  0.51100000000E-03 0. -1.
         11   -1    0    0    0    0 -0.00000000000E+00 -0.00000000000E+00 -0.45593999997E+02  0.45594000000E+02  0.51100000000E-03 0.  1.
    9900012    2    1    2    0    0  0.22769760570E+00  0.25911490937E+00 -0.11287731572E+01  0.90007696829E+02  0.89999957627E+02 0.  0.
         12    1    1    2    0    0 -0.22769760570E+00 -0.25911490937E+00  0.11287731572E+01  0.11803031714E+01  0.00000000000E+00 0. -1.
         11    1    3    3    0    0  0.63166108386E+01 -0.36160033729E+01 -0.59169028735E+01  0.93800209358E+01  0.51100000000E-03 0. -1.
        -11    1    3    3    0    0 -0.28748930411E+02  0.19223610437E+02 -0.23071801463E+02  0.41573503834E+02  0.51100000000E-03 0.  1.
         12    1    3    3    0    0  0.22660017178E+02 -0.15348492155E+02  0.27859931179E+02  0.39054172059E+02  0.00000000000E+00 0. -1.
</event>
<event>
 7    1  0.4520336E-015  0.9000767E+02  0.7816164E-02  0.1186339E+00
        -11   -1    0    0    0    0  0.00000000000E+00  0.00000000000E+00  0.45593999997E+02  0.45594000000E+02  0.51100000000E-03 0.  1.
         11   -1    0    0    0    0 -0.00000000000E+00 -0.00000000000E+00 -0.45593999997E+02  0.45594000000E+02  0.51100000000E-03 0. -1.
    9900012    2    1    2    0    0 -0.19658970793E+00  0.28697506720E+00  0.11279097925E+01  0.90007668393E+02  0.89999928816E+02 0.  0.
         12    1    1    2    0    0  0.19658970793E+00 -0.28697506720E+00 -0.11279097925E+01  0.11803316070E+01  0.00000000000E+00 0. -1.
         11    1    3    3    0    0 -0.36930284630E+01  0.11610357290E+02 -0.29351724572E+02  0.31779908610E+02  0.51100000000E-03 0. -1.
        -11    1    3    3    0    0 -0.34623479831E+00  0.10770715872E+02 -0.81836090586E+01  0.13531432164E+02  0.51100000000E-03 0.  1.
        -12    1    3    3    0    0  0.38426735534E+01 -0.22094098095E+02  0.38663243423E+02  0.44696327619E+02  0.00000000000E+00 0.  1.
</event>
<event>
 7    1  0.4520336E-015  0.9000783E+02  0.7816164E-02  0.1186339E+00
        -11   -1    0    0    0    0  0.00000000000E+00  0.00000000000E+00  0.45593999997E+02  0.45594000000E+02  0.51100000000E-03 0.  1.
         11   -1    0    0    0    0 -0.00000000000E+00 -0.00000000000E+00 -0.45593999997E+02  0.45594000000E+02  0.51100000000E-03 0. -1.
    9900012    2    1    2    0    0  0.11325686665E+01 -0.33133688535E+00  0.17412322834E-01  0.90007830900E+02  0.90000093468E+02 0.  0.
         12    1    1    2    0    0 -0.11325686665E+01  0.33133688535E+00 -0.17412322834E-01  0.11801691001E+01  0.00000000000E+00 0. -1.
         11    1    3    3    0    0  0.38472223060E+02 -0.11714742351E+02 -0.82647424819E+01  0.41056705958E+02  0.51100000000E-03 0. -1.
        -11    1    3    3    0    0  0.99655242876E+00  0.96997479161E+01  0.30875522933E+01  0.10227961957E+02  0.51100000000E-03 0.  1.
        -12    1    3    3    0    0 -0.38336206823E+02  0.16836575495E+01  0.51946025115E+01  0.38723162985E+02  0.00000000000E+00 0.  1.
</event>
<event>
 7    1  0.4520336E-015  0.9000789E+02  0.7816164E-02  0.1186339E+00
        -11   -1    0    0    0    0  0.00000000000E+00  0.00000000000E+00  0.45593999997E+02  0.45594000000E+02  0.51100000000E-03 0. -1.
         11   -1    0    0    0    0 -0.00000000000E+00 -0.00000000000E+00 -0.45593999997E+02  0.45594000000E+02  0.51100000000E-03 0.  1.
    9900012    2    1    2    0    0  0.44732797324E+00  0.86522447279E+00 -0.66629716035E+00  0.90007886611E+02  0.90000149915E+02 0.  0.
         12    1    1    2    0    0 -0.44732797324E+00 -0.86522447279E+00  0.66629716035E+00  0.11801133886E+01  0.00000000000E+00 0. -1.
         11    1    3    3    0    0  0.53526548242E+01 -0.61534626075E+00 -0.59739383996E+01  0.80447190722E+01  0.51100000000E-03 0. -1.
        -11    1    3    3    0    0  0.55551018999E+01  0.10855752593E+02 -0.36170613236E+02  0.38170928514E+02  0.51100000000E-03 0.  1.
         12    1    3    3    0    0 -0.10460428751E+02 -0.93751818593E+01  0.41478254475E+02  0.43792239025E+02  0.00000000000E+00 0. -1.
</event>
<event>
 7    1  0.4520336E-015  0.9000761E+02  0.7816164E-02  0.1186339E+00
        -11   -1    0    0    0    0  0.00000000000E+00  0.00000000000E+00  0.45593999997E+02  0.45594000000E+02  0.51100000000E-03 0. -1.
         11   -1    0    0    0    0 -0.00000000000E+00 -0.00000000000E+00 -0.45593999997E+02  0.45594000000E+02  0.51100000000E-03 0.  1.
    9900012    2    1    2    0    0 -0.69560693554E-01  0.93701598146E-01 -0.11746038132E+01  0.90007613285E+02  0.89999872980E+02 0.  0.
         12    1    1    2    0    0  0.69560693554E-01 -0.93701598146E-01  0.11746038132E+01  0.11803867153E+01  0.00000000000E+00 0. -1.
         11    1    3    3    0    0  0.35372804314E+02  0.81148621212E+01 -0.59263761056E+01  0.36772383745E+02  0.51100000000E-03 0. -1.
        -11    1    3    3    0    0  0.59269065212E+01 -0.69481463818E+01 -0.54205803557E+01  0.10620153045E+02  0.51100000000E-03 0.  1.
        -12    1    3    3    0    0 -0.41369271529E+02 -0.10730141413E+01  0.10172352648E+02  0.42615076494E+02  0.00000000000E+00 0.  1.
</event>
<event>
 7    1  0.4520336E-015  0.9000768E+02  0.7816164E-02  0.1186339E+00
        -11   -1    0    0    0    0  0.00000000000E+00  0.00000000000E+00  0.45593999997E+02  0.45594000000E+02  0.51100000000E-03 0.  1.
         11   -1    0    0    0    0 -0.00000000000E+00 -0.00000000000E+00 -0.45593999997E+02  0.45594000000E+02  0.51100000000E-03 0. -1.
    9900012    2    1    2    0    0  0.58003441899E+00 -0.76693919614E+00 -0.68448847669E+00  0.90007677954E+02  0.89999938503E+02 0.  0.
         12    1    1    2    0    0 -0.58003441899E+00  0.76693919614E+00  0.68448847669E+00  0.11803220461E+01  0.00000000000E+00 0. -1.
         11    1    3    3    0    0  0.15546880669E+02  0.20232575881E+02 -0.25814874691E+02  0.36296974817E+02  0.51100000000E-03 0. -1.
        -11    1    3    3    0    0 -0.48497910481E+01  0.47313071679E+00 -0.10109239157E+02  0.11222345677E+02  0.51100000000E-03 0.  1.
        -12    1    3    3    0    0 -0.10117055202E+02 -0.21472645793E+02  0.35239625372E+02  0.42488357460E+02  0.00000000000E+00 0.  1.
</event>
<event>
 7    1  0.4520336E-015  0.9000774E+02  0.7816164E-02  0.1186339E+00
        -11   -1    0    0    0    0  0.00000000000E+00  0.00000000000E+00  0.45593999997E+02  0.45594000000E+02  0.51100000000E-03 0. -1.
         11   -1    0    0    0    0 -0.00000000000E+00 -0.00000000000E+00 -0.45593999997E+02  0.45594000000E+02  0.51100000000E-03 0.  1.
    9900012    2    1    2    0    0  0.41419454385E+00 -0.10022886099E+01  0.46569358686E+00  0.90007741514E+02  0.90000002902E+02 0.  0.
         12    1    1    2    0    0 -0.41419454385E+00  0.10022886099E+01 -0.46569358686E+00  0.11802584863E+01  0.00000000000E+00 0. -1.
         11    1    3    3    0    0 -0.34686983533E+01 -0.82636011568E+01 -0.38743915376E+01  0.97637022892E+01  0.51100000000E-03 0. -1.
        -11    1    3    3    0    0  0.19094285633E+02 -0.65375565304E+01 -0.32389223978E+02  0.38162720282E+02  0.51100000000E-03 0.  1.
         12    1    3    3    0    0 -0.15211392736E+02  0.13798869077E+02  0.36729309102E+02  0.42081318942E+02  0.00000000000E+00 0. -1.
</event>
<event>
 7    1  0.4520336E-015  0.9000782E+02  0.7816164E-02  0.1186339E+00
        -11   -1    0    0    0    0  0.00000000000E+00  0.00000000000E+00  0.45593999997E+02  0.45594000000E+02  0.51100000000E-03 0.  1.
         11   -1    0    0    0    0 -0.00000000000E+00 -0.00000000000E+00 -0.45593999997E+02  0.45594000000E+02  0.51100000000E-03 0. -1.
    9900012    2    1    2    0    0 -0.10543504310E+01  0.19731759774E+00  0.49218524133E+00  0.90007815532E+02  0.90000077897E+02 0.  0.
         12    1    1    2    0    0  0.10543504310E+01 -0.19731759774E+00 -0.49218524133E+00  0.11801844676E+01  0.00000000000E+00 0. -1.
         11    1    3    3    0    0 -0.44950597815E+01  0.89294511601E+01  0.56364678220E+00  0.10012909588E+02  0.51100000000E-03 0. -1.
        -11    1    3    3    0    0 -0.23355201734E+02  0.13091999915E+02  0.25522979294E+02  0.36990382292E+02  0.51100000000E-03 0.  1.
         12    1    3    3    0    0  0.26795911085E+02 -0.21824133478E+02 -0.25594440835E+02  0.43004523652E+02  0.00000000000E+00 0. -1.
</event>
<event>
 7    1  0.4520336E-015  0.9000802E+02  0.7816164E-02  0.1186338E+00
        -11   -1    0    0    0    0  0.00000000000E+00  0.00000000000E+00  0.45593999997E+02  0.45594000000E+02  0.51100000000E-03 0.  1.
         11   -1    0    0    0    0 -0.00000000000E+00 -0.00000000000E+00 -0.45593999997E+02  0.45594000000E+02  0.51100000000E-03 0. -1.
    9900012    2    1    2    0    0  0.17216579833E-02 -0.10981317530E+01 -0.43180156229E+00  0.90008021653E+02  0.90000286738E+02 0.  0.
         12    1    1    2    0    0 -0.17216579833E-02  0.10981317530E+01  0.43180156229E+00  0.11799783473E+01  0.00000000000E+00 0. -1.
         11    1    3    3    0    0  0.96480959173E+00  0.49374400672E+01 -0.75588373824E+01  0.90799336342E+01  0.51100000000E-03 0. -1.
        -11    1    3    3    0    0 -0.27661718959E+02 -0.30662678315E+02 -0.71314576333E+01  0.41907376743E+02  0.51100000000E-03 0.  1.
         12    1    3    3    0    0  0.26698631025E+02  0.24627106494E+02  0.14258493453E+02  0.39020711276E+02  0.00000000000E+00 0. -1.
</event>
<event>
 7    1  0.4520336E-015  0.9000803E+02  0.7816164E-02  0.1186338E+00
        -11   -1    0    0    0    0  0.00000000000E+00  0.00000000000E+00  0.45593999997E+02  0.45594000000E+02  0.51100000000E-03 0.  1.
         11   -1    0    0    0    0 -0.00000000000E+00 -0.00000000000E+00 -0.45593999997E+02  0.45594000000E+02  0.51100000000E-03 0. -1.
    9900012    2    1    2    0    0  0.66398142725E+00  0.87576886123E+00  0.42951988710E+00  0.90008029760E+02  0.90000294952E+02 0.  0.
         12    1    1    2    0    0 -0.66398142725E+00 -0.87576886123E+00 -0.42951988710E+00  0.11799702401E+01  0.00000000000E+00 0. -1.
         11    1    3    3    0    0 -0.84430949441E+00  0.94572613495E+01  0.22337670080E+01  0.97540948356E+01  0.51100000000E-03 0. -1.
        -11    1    3    3    0    0 -0.24289556035E+01  0.23517417799E+02  0.27741843171E+02  0.36449672537E+02  0.51100000000E-03 0.  1.
         12    1    3    3    0    0  0.39372465252E+01 -0.32098910287E+02 -0.29546090292E+02  0.43804262388E+02  0.00000000000E+00 0. -1.
</event>
<event>
 7    1  0.4520336E-015  0.9000770E+02  0.7816164E-02  0.1186339E+00
        -11   -1    0    0    0    0  0.00000000000E+00  0.00000000000E+00  0.45593999997E+02  0.45594000000E+02  0.51100000000E-03 0.  1.
         11   -1    0    0    0    0 -0.00000000000E+00 -0.00000000000E+00 -0.45593999997E+02  0.45594000000E+02  0.51100000000E-03 0. -1.
    9900012    2    1    2    0    0  0.27303880235E+00 -0.21643185342E+00 -0.11277034361E+01  0.90007700049E+02  0.89999960890E+02 0.  0.
         12    1    1    2    0    0 -0.27303880235E+00  0.21643185342E+00  0.11277034361E+01  0.11802999511E+01  0.00000000000E+00 0. -1.
         11    1    3    3    0    0 -0.24490485557E+02 -0.22771511989E+02 -0.27767600353E+02  0.43466829545E+02  0.51100000000E-03 0. -1.
        -11    1    3    3    0    0  0.10453963689E+02  0.72683898845E+00  0.20427010464E+01  0.10676435714E+02  0.51100000000E-03 0.  1.
        -12    1    3    3    0    0  0.14309560670E+02  0.21828241147E+02  0.24597195870E+02  0.35864434790E+02  0.00000000000E+00 0.  1.
</event>
<event>
 7    1  0.4520336E-015  0.9000774E+02  0.7816164E-02  0.1186339E+00
        -11   -1    0    0    0    0  0.00000000000E+00  0.00000000000E+00  0.45593999997E+02  0.45594000000E+02  0.51100000000E-03 0.  1.
         11   -1    0    0    0    0 -0.00000000000E+00 -0.00000000000E+00 -0.45593999997E+02  0.45594000000E+02  0.51100000000E-03 0. -1.
    9900012    2    1    2    0    0 -0.77058831473E-01 -0.49837295218E+00  0.10671006084E+01  0.90007738431E+02  0.89999999778E+02 0.  0.
         12    1    1    2    0    0  0.77058831473E-01  0.49837295218E+00 -0.10671006084E+01  0.11802615691E+01  0.00000000000E+00 0. -1.
         11    1    3    3    0    0  0.50956905945E+00  0.95843404902E+01  0.62838510038E+00  0.96184256172E+01  0.51100000000E-03 0. -1.
        -11    1    3    3    0    0  0.33425924483E+02 -0.24471617454E+02  0.91946685947E+01  0.42434589891E+02  0.51100000000E-03 0.  1.
         12    1    3    3    0    0 -0.34012552374E+02  0.14388904012E+02 -0.87559530867E+01  0.37954722923E+02  0.00000000000E+00 0. -1.
</event>
<event>
 7    1  0.4520336E-015  0.9000760E+02  0.7816164E-02  0.1186339E+00
        -11   -1    0    0    0    0  0.00000000000E+00  0.00000000000E+00  0.45593999997E+02  0.45594000000E+02  0.51100000000E-03 0.  1.
         11   -1    0    0    0    0 -0.00000000000E+00 -0.00000000000E+00 -0.45593999997E+02  0.45594000000E+02  0.51100000000E-03 0. -1.
    9900012    2    1    2    0    0  0.10927345306E+01 -0.37822522262E+00  0.23710222927E+00  0.90007601533E+02  0.89999861073E+02 0.  0.
         12    1    1    2    0    0 -0.10927345306E+01  0.37822522262E+00 -0.23710222927E+00  0.11803984668E+01  0.00000000000E+00 0. -1.
         11    1    3    3    0    0 -0.26804758875E+01  0.67249941119E+01 -0.49697433163E+01  0.87811642553E+01  0.51100000000E-03 0. -1.
        -11    1    3    3    0    0 -0.34701144317E+02  0.13178802878E+02 -0.18463583197E+01  0.37165297006E+02  0.51100000000E-03 0.  1.
         12    1    3    3    0    0  0.38474354735E+02 -0.20282022212E+02  0.70532038652E+01  0.44061140272E+02  0.00000000000E+00 0. -1.
</event>
<event>
 7    1  0.4520336E-015  0.9000774E+02  0.7816164E-02  0.1186339E+00
        -11   -1    0    0    0    0  0.00000000000E+00  0.00000000000E+00  0.45593999997E+02  0.45594000000E+02  0.51100000000E-03 0. -1.
         11   -1    0    0    0    0 -0.00000000000E+00 -0.00000000000E+00 -0.45593999997E+02  0.45594000000E+02  0.51100000000E-03 0.  1.
    9900012    2    1    2    0    0 -0.10591326165E+01  0.11303121367E-01 -0.52069406653E+00  0.90007740719E+02  0.90000002096E+02 0.  0.
         12    1    1    2    0    0  0.10591326165E+01 -0.11303121367E-01  0.52069406653E+00  0.11802592812E+01  0.00000000000E+00 0. -1.
         11    1    3    3    0    0  0.20243444845E+01  0.14598660003E+02  0.40273097085E+02  0.42885209497E+02  0.51100000000E-03 0. -1.
        -11    1    3    3    0    0  0.25119205142E+01 -0.79938451378E+01 -0.39246352359E+01  0.92527869722E+01  0.51100000000E-03 0.  1.
        -12    1    3    3    0    0 -0.55953976152E+01 -0.65935117434E+01 -0.36869155916E+02  0.37869744250E+02  0.00000000000E+00 0.  1.
</event>
<event>
 7    1  0.4520336E-015  0.9000759E+02  0.7816164E-02  0.1186339E+00
        -11   -1    0    0    0    0  0.00000000000E+00  0.00000000000E+00  0.45593999997E+02  0.45594000000E+02  0.51100000000E-03 0. -1.
         11   -1    0    0    0    0 -0.00000000000E+00 -0.00000000000E+00 -0.45593999997E+02  0.45594000000E+02  0.51100000000E-03 0.  1.
    9900012    2    1    2    0    0 -0.34547987623E+00  0.99200160300E+00 -0.53847247710E+00  0.90007586456E+02  0.89999845798E+02 0.  0.
         12    1    1    2    0    0  0.34547987623E+00 -0.99200160300E+00  0.53847247710E+00  0.11804135436E+01  0.00000000000E+00 0. -1.
         11    1    3    3    0    0 -0.29832536898E+02  0.21596703040E+02  0.11389882418E+02  0.38550321162E+02  0.51100000000E-03 0. -1.
        -11    1    3    3    0    0 -0.38970672130E+01  0.57200692055E+01 -0.46131266723E+01  0.83178881055E+01  0.51100000000E-03 0.  1.
        -12    1    3    3    0    0  0.33384124235E+02 -0.26324770642E+02 -0.73152282228E+01  0.43139377189E+02  0.00000000000E+00 0.  1.
</event>
<event>
 7    1  0.4520336E-015  0.9000771E+02  0.7816164E-02  0.1186339E+00
        -11   -1    0    0    0    0  0.00000000000E+00  0.00000000000E+00  0.45593999997E+02  0.45594000000E+02  0.51100000000E-03 0.  1.
         11   -1    0    0    0    0 -0.00000000000E+00 -0.00000000000E+00 -0.45593999997E+02  0.45594000000E+02  0.51100000000E-03 0. -1.
    9900012    2    1    2    0    0 -0.23867730855E+00 -0.53879038694E+00  0.10226554714E+01  0.90007709293E+02  0.89999970256E+02 0.  0.
         12    1    1    2    0    0  0.23867730855E+00  0.53879038694E+00 -0.10226554714E+01  0.11802907065E+01  0.00000000000E+00 0. -1.
         11    1    3    3    0    0  0.77194091362E+01 -0.28436553395E+02 -0.29660953061E+02  0.41809077760E+02  0.51100000000E-03 0. -1.
        -11    1    3    3    0    0  0.71721078477E+01  0.25064960001E+01  0.57231305439E+01  0.95118808161E+01  0.51100000000E-03 0.  1.
        -12    1    3    3    0    0 -0.15130194292E+02  0.25391267008E+02  0.24960477989E+02  0.38686750717E+02  0.00000000000E+00 0.  1.
</event>
<event>
 7    1  0.4520336E-015  0.9000777E+02  0.7816164E-02  0.1186339E+00
        -11   -1    0    0    0    0  0.00000000000E+00  0.00000000000E+00  0.45593999997E+02  0.45594000000E+02  0.51100000000E-03 0. -1.
         11   -1    0    0    0    0 -0.00000000000E+00 -0.00000000000E+00 -0.45593999997E+02  0.45594000000E+02  0.51100000000E-03 0.  1.
    9900012    2    1    2    0    0  0.52755917464E+00  0.70461979202E+00  0.78621494178E+00  0.90007770502E+02  0.90000032272E+02 0.  0.
         12    1    1    2    0    0 -0.52755917464E+00 -0.70461979202E+00 -0.78621494178E+00  0.11802294983E+01  0.00000000000E+00 0. -1.
         11    1    3    3    0    0  0.27623392160E+02  0.13848479721E+02 -0.30590572788E+02  0.43481206615E+02  0.51100000000E-03 0. -1.
        -11    1    3    3    0    0 -0.64434125399E+01  0.34484738513E+01  0.10521142498E+02  0.12810307443E+02  0.51100000000E-03 0.  1.
        -12    1    3    3    0    0 -0.20652420446E+02 -0.16592333780E+02  0.20855645231E+02  0.33716256443E+02  0.00000000000E+00 0.  1.
</event>
<event>
 7    1  0.4520336E-015  0.9000713E+02  0.7816164E-02  0.1186340E+00
        -11   -1    0    0    0    0  0.00000000000E+00  0.00000000000E+00  0.45593999997E+02  0.45594000000E+02  0.51100000000E-03 0. -1.
         11   -1    0    0    0    0 -0.00000000000E+00 -0.00000000000E+00 -0.45593999997E+02  0.45594000000E+02  0.51100000000E-03 0.  1.
    9900012    2    1    2    0    0 -0.98215960283E+00 -0.26583838632E+00  0.59928560924E+00  0.90007131347E+02  0.89999384679E+02 0.  0.
         12    1    1    2    0    0  0.98215960283E+00  0.26583838632E+00 -0.59928560924E+00  0.11808686525E+01  0.00000000000E+00 0. -1.
         11    1    3    3    0    0  0.33679772194E+02  0.61609174589E+01  0.17187979716E+02  0.38310711373E+02  0.51100000000E-03 0. -1.
        -11    1    3    3    0    0  0.45944708790E+01  0.54259291139E+01 -0.61037802047E+01  0.93704857108E+01  0.51100000000E-03 0.  1.
        -12    1    3    3    0    0 -0.39256402675E+02 -0.11852684959E+02 -0.10484913902E+02  0.42325934264E+02  0.00000000000E+00 0.  1.
</event>
<event>
 7    1  0.4520336E-015  0.9000767E+02  0.7816164E-02  0.1186339E+00
        -11   -1    0    0    0    0  0.00000000000E+00  0.00000000000E+00  0.45593999997E+02  0.45594000000E+02  0.51100000000E-03 0. -1.
         11   -1    0    0    0    0 -0.00000000000E+00 -0.00000000000E+00 -0.45593999997E+02  0.45594000000E+02  0.51100000000E-03 0.  1.
    9900012    2    1    2    0    0  0.92264716703E+00 -0.65382793942E+00 -0.33823845832E+00  0.90007672069E+02  0.89999932541E+02 0.  0.
         12    1    1    2    0    0 -0.92264716703E+00  0.65382793942E+00  0.33823845832E+00  0.11803279307E+01  0.00000000000E+00 0. -1.
         11    1    3    3    0    0 -0.31294799397E+01  0.65977889006E+01  0.40953071787E+02  0.41599021047E+02  0.51100000000E-03 0. -1.
        -11    1    3    3    0    0  0.72842859995E+01  0.33715443338E+01 -0.30480249951E+01  0.85859530834E+01  0.51100000000E-03 0.  1.
        -12    1    3    3    0    0 -0.32321588928E+01 -0.10623161174E+02 -0.38243285250E+02  0.39822697939E+02  0.00000000000E+00 0.  1.
</event>
<event>
 7    1  0.4520336E-015  0.9000769E+02  0.7816164E-02  0.1186339E+00
        -11   -1    0    0    0    0  0.00000000000E+00  0.00000000000E+00  0.45593999997E+02  0.45594000000E+02  0.51100000000E-03 0.  1.
         11   -1    0    0    0    0 -0.00000000000E+00 -0.00000000000E+00 -0.45593999997E+02  0.45594000000E+02  0.51100000000E-03 0. -1.
    9900012    2    1    2    0    0  0.35436212193E+00 -0.29344146998E+00  0.10869477211E+01  0.90007688279E+02  0.89999948964E+02 0.  0.
         12    1    1    2    0    0 -0.35436212193E+00  0.29344146998E+00 -0.10869477211E+01  0.11803117208E+01  0.00000000000E+00 0. -1.
         11    1    3    3    0    0 -0.66162113370E+01  0.87793684672E+00 -0.34387121128E+02  0.35028832771E+02  0.51100000000E-03 0. -1.
        -11    1    3    3    0    0 -0.83312212027E+01  0.29996027548E+01 -0.59193067808E+01  0.10651058935E+02  0.51100000000E-03 0.  1.
        -12    1    3    3    0    0  0.15301794662E+02 -0.41709810716E+01  0.41393375630E+02  0.44327796573E+02  0.00000000000E+00 0.  1.
</event>
<event>
 7    1  0.4520336E-015  0.9000770E+02  0.7816164E-02  0.1186339E+00
        -11   -1    0    0    0    0  0.00000000000E+00  0.00000000000E+00  0.45593999997E+02  0.45594000000E+02  0.51100000000E-03 0.  1.
         11   -1    0    0    0    0 -0.00000000000E+00 -0.00000000000E+00 -0.45593999997E+02  0.45594000000E+02  0.51100000000E-03 0. -1.
    9900012    2    1    2    0    0  0.82762885392E+00  0.26624631313E+00  0.79828335642E+00  0.90007697947E+02  0.89999958760E+02 0.  0.
         12    1    1    2    0    0 -0.82762885392E+00 -0.26624631313E+00 -0.79828335642E+00  0.11803020530E+01  0.00000000000E+00 0. -1.
         11    1    3    3    0    0  0.38528347933E+01  0.10470184601E+02 -0.25783776530E+01  0.11450638983E+02  0.51100000000E-03 0. -1.
        -11    1    3    3    0    0 -0.32650552409E+02 -0.87329808105E+01  0.24839683169E+02  0.41944408288E+02  0.51100000000E-03 0.  1.
         12    1    3    3    0    0  0.29625346469E+02 -0.14709574779E+01 -0.21463022159E+02  0.36612650676E+02  0.00000000000E+00 0. -1.
</event>
<event>
 7    1  0.4520336E-015  0.9000766E+02  0.7816164E-02  0.1186339E+00
        -11   -1    0    0    0    0  0.00000000000E+00  0.00000000000E+00  0.45593999997E+02  0.45594000000E+02  0.51100000000E-03 0. -1.
         11   -1    0    0    0    0 -0.00000000000E+00 -0.00000000000E+00 -0.45593999997E+02  0.45594000000E+02  0.51100000000E-03 0.  1.
    9900012    2    1    2    0    0 -0.25987642489E+00 -0.39950560742E+00 -0.10798416665E+01  0.90007661696E+02  0.89999922031E+02 0.  0.
         12    1    1    2    0    0  0.25987642489E+00  0.39950560742E+00  0.10798416665E+01  0.11803383037E+01  0.00000000000E+00 0. -1.
         11    1    3    3    0    0  0.83622012131E+01  0.19149024924E+01  0.41417035426E+00  0.85886435499E+01  0.51100000000E-03 0. -1.
        -11    1    3    3    0    0  0.23130822452E+02  0.23728259479E+02 -0.17341847515E+02  0.37400600540E+02  0.51100000000E-03 0.  1.
         12    1    3    3    0    0 -0.31752900090E+02 -0.26042667579E+02  0.15847835495E+02  0.44018417607E+02  0.00000000000E+00 0. -1.
</event>
<event>
 7    1  0.4520336E-015  0.9000758E+02  0.7816164E-02  0.1186339E+00
        -11   -1    0    0    0    0  0.00000000000E+00  0.00000000000E+00  0.45593999997E+02  0.45594000000E+02  0.51100000000E-03 0.  1.
         11   -1    0    0    0    0 -0.00000000000E+00 -0.00000000000E+00 -0.45593999997E+02  0.45594000000E+02  0.51100000000E-03 0. -1.
    9900012    2    1    2    0    0  0.67728364430E-01 -0.84165521969E+00  0.82488092788E+00  0.90007576692E+02  0.89999835904E+02 0.  0.
         12    1    1    2    0    0 -0.67728364430E-01  0.84165521969E+00 -0.82488092788E+00  0.11804233077E+01  0.00000000000E+00 0. -1.
         11    1    3    3    0    0 -0.34252753721E+02  0.12139918904E+02 -0.19960541418E+02  0.41461451765E+02  0.51100000000E-03 0. -1.
        -11    1    3    3    0    0  0.17316123717E+01  0.58766480348E+01  0.40386385672E+01  0.73378522245E+01  0.51100000000E-03 0.  1.
        -12    1    3    3    0    0  0.32588869714E+02 -0.18858222158E+02  0.16746783779E+02  0.41208272703E+02  0.00000000000E+00 0.  1.
</event>
<event>
 7    1  0.4520336E-015  0.9000774E+02  0.7816164E-02  0.1186339E+00
        -11   -1    0    0    0    0  0.00000000000E+00  0.00000000000E+00  0.45593999997E+02  0.45594000000E+02  0.51100000000E-03 0.  1.
         11   -1    0    0    0    0 -0.00000000000E+00 -0.00000000000E+00 -0.45593999997E+02  0.45594000000E+02  0.51100000000E-03 0. -1.
    9900012    2    1    2    0    0  0.36982868279E+00 -0.11158013175E+01  0.10600642061E+00  0.90007735963E+02  0.89999997278E+02 0.  0.
         12    1    1    2    0    0 -0.36982868279E+00  0.11158013175E+01 -0.10600642061E+00  0.11802640366E+01  0.00000000000E+00 0. -1.
         11    1    3    3    0    0  0.11087229244E+02  0.96836972805E+01 -0.39404434008E+02  0.42064356231E+02  0.51100000000E-03 0. -1.
        -11    1    3    3    0    0 -0.48852633272E+01  0.69332919667E+01  0.12888960374E+02  0.15429246094E+02  0.51100000000E-03 0.  1.
        -12    1    3    3    0    0 -0.58321372340E+01 -0.17732790565E+02  0.26621480055E+02  0.32514133638E+02  0.00000000000E+00 0.  1.
</event>
<event>
 7    1  0.4520336E-015  0.9000774E+02  0.7816164E-02  0.1186339E+00
        -11   -1    0    0    0    0  0.00000000000E+00  0.00000000000E+00  0.45593999997E+02  0.45594000000E+02  0.51100000000E-03 0.  1.
         11   -1    0    0    0    0 -0.00000000000E+00 -0.00000000000E+00 -0.45593999997E+02  0.45594000000E+02  0.51100000000E-03 0. -1.
    9900012    2    1    2    0    0  0.35296769277E+00 -0.10994782020E+01  0.24406142110E+00  0.90007743890E+02  0.90000005309E+02 0.  0.
         12    1    1    2    0    0 -0.35296769277E+00  0.10994782020E+01 -0.24406142110E+00  0.11802561104E+01  0.00000000000E+00 0. -1.
         11    1    3    3    0    0  0.21037315381E+02  0.27992036792E+02 -0.15314266361E+02  0.38218444718E+02  0.51100000000E-03 0. -1.
        -11    1    3    3    0    0 -0.56209119544E+01  0.72323822434E+01 -0.80932577870E+00  0.91954887087E+01  0.51100000000E-03 0.  1.
        -12    1    3    3    0    0 -0.15063435734E+02 -0.36323897238E+02  0.16367653561E+02  0.42593810463E+02  0.00000000000E+00 0.  1.
</event>
<event>
 7    1  0.4520336E-015  0.9000773E+02  0.7816164E-02  0.1186339E+00
        -11   -1    0    0    0    0  0.00000000000E+00  0.00000000000E+00  0.45593999997E+02  0.45594000000E+02  0.51100000000E-03 0. -1.
         11   -1    0    0    0    0 -0.00000000000E+00 -0.00000000000E+00 -0.45593999997E+02  0.45594000000E+02  0.51100000000E-03 0.  1.
    9900012    2    1    2    0    0 -0.17041091636E+00  0.11352004536E+01  0.27443799704E+00  0.90007730470E+02  0.89999991712E+02 0.  0.
         12    1    1    2    0    0  0.17041091636E+00 -0.11352004536E+01 -0.27443799704E+00  0.11802695305E+01  0.00000000000E+00 0. -1.
         11    1    3    3    0    0 -0.13050627441E+02 -0.18955727208E+02  0.25654651438E+02  0.34464468823E+02  0.51100000000E-03 0. -1.
        -11    1    3    3    0    0  0.54558949956E+01 -0.57035449534E+01  0.89709083143E+01  0.11948824690E+02  0.51100000000E-03 0.  1.
        -12    1    3    3    0    0  0.74243215290E+01  0.25794472615E+02 -0.34351121755E+02  0.43594436956E+02  0.00000000000E+00 0.  1.
</event>
<event>
 7    1  0.4520336E-015  0.9000781E+02  0.7816164E-02  0.1186339E+00
        -11   -1    0    0    0    0  0.00000000000E+00  0.00000000000E+00  0.45593999997E+02  0.45594000000E+02  0.51100000000E-03 0. -1.
         11   -1    0    0    0    0 -0.00000000000E+00 -0.00000000000E+00 -0.45593999997E+02  0.45594000000E+02  0.51100000000E-03 0.  1.
    9900012    2    1    2    0    0  0.48675524645E+00  0.95541723271E+00 -0.49305820467E+00  0.90007805460E+02  0.90000067692E+02 0.  0.
         12    1    1    2    0    0 -0.48675524645E+00 -0.95541723271E+00  0.49305820467E+00  0.11801945398E+01  0.00000000000E+00 0. -1.
         11    1    3    3    0    0 -0.33058076168E+02 -0.15497736492E+02  0.13048407931E+02  0.38772118669E+02  0.51100000000E-03 0. -1.
        -11    1    3    3    0    0  0.47297595687E+01  0.14498577855E+02  0.59742184437E+01  0.16378970409E+02  0.51100000000E-03 0.  1.
        -12    1    3    3    0    0  0.28815071846E+02  0.19545758697E+01 -0.19515684579E+02  0.34856716382E+02  0.00000000000E+00 0.  1.
</event>
<event>
 7    1  0.4520336E-015  0.9000774E+02  0.7816164E-02  0.1186339E+00
        -11   -1    0    0    0    0  0.00000000000E+00  0.00000000000E+00  0.45593999997E+02  0.45594000000E+02  0.51100000000E-03 0. -1.
         11   -1    0    0    0    0 -0.00000000000E+00 -0.00000000000E+00 -0.45593999997E+02  0.45594000000E+02  0.51100000000E-03 0.  1.
    9900012    2    1    2    0    0 -0.24740782195E+00  0.11520525840E+01 -0.67615637694E-01  0.90007742545E+02  0.90000003946E+02 0.  0.
         12    1    1    2    0    0  0.24740782195E+00 -0.11520525840E+01  0.67615637694E-01  0.11802574554E+01  0.00000000000E+00 0. -1.
         11    1    3    3    0    0  0.49994311142E+01 -0.19204163670E+02  0.10243907721E+02  0.22332305286E+02  0.51100000000E-03 0. -1.
        -11    1    3    3    0    0 -0.23360217741E+02  0.14975166251E+02  0.18406870808E+02  0.33298172178E+02  0.51100000000E-03 0.  1.
         12    1    3    3    0    0  0.18113378805E+02  0.53810500037E+01 -0.28718394167E+02  0.34377265081E+02  0.00000000000E+00 0. -1.
</event>
<event>
 7    1  0.4520336E-015  0.9000778E+02  0.7816164E-02  0.1186339E+00
        -11   -1    0    0    0    0  0.00000000000E+00  0.00000000000E+00  0.45593999997E+02  0.45594000000E+02  0.51100000000E-03 0. -1.
         11   -1    0    0    0    0 -0.00000000000E+00 -0.00000000000E+00 -0.45593999997E+02  0.45594000000E+02  0.51100000000E-03 0.  1.
    9900012    2    1    2    0    0  0.34595263852E+00  0.44085139117E+00 -0.10386966384E+01  0.90007778036E+02  0.90000039906E+02 0.  0.
         12    1    1    2    0    0 -0.34595263852E+00 -0.44085139117E+00  0.10386966384E+01  0.11802219638E+01  0.00000000000E+00 0. -1.
         11    1    3    3    0    0 -0.37350201016E+01 -0.40797433528E+01  0.83248412280E+01  0.99948818261E+01  0.51100000000E-03 0. -1.
        -11    1    3    3    0    0 -0.35413324040E+02 -0.98207465916E+01 -0.96449472860E+01  0.37994415268E+02  0.51100000000E-03 0.  1.
         12    1    3    3    0    0  0.39494296780E+02  0.14341341336E+02  0.28140941954E+00  0.42018480942E+02  0.00000000000E+00 0. -1.
</event>
<event>
 7    1  0.4520336E-015  0.9000778E+02  0.7816164E-02  0.1186339E+00
        -11   -1    0    0    0    0  0.00000000000E+00  0.00000000000E+00  0.45593999997E+02  0.45594000000E+02  0.51100000000E-03 0.  1.
         11   -1    0    0    0    0 -0.00000000000E+00 -0.00000000000E+00 -0.45593999997E+02  0.45594000000E+02  0.51100000000E-03 0. -1.
    9900012    2    1    2    0    0  0.74437716595E+00 -0.90506176405E+00 -0.14030519482E+00  0.90007779805E+02  0.90000041698E+02 0.  0.
         12    1    1    2    0    0 -0.74437716595E+00  0.90506176405E+00  0.14030519482E+00  0.11802201954E+01  0.00000000000E+00 0. -1.
         11    1    3    3    0    0 -0.92328466942E+01 -0.16928053161E+01 -0.41521945891E+01  0.10264100939E+02  0.51100000000E-03 0. -1.
        -11    1    3    3    0    0  0.17906948800E+02 -0.26252366227E+02 -0.24143517251E+02  0.39909334414E+02  0.51100000000E-03 0.  1.
         12    1    3    3    0    0 -0.79297249402E+01  0.27040109779E+02  0.28155406645E+02  0.39834344451E+02  0.00000000000E+00 0. -1.
</event>
<event>
 7    1  0.4520336E-015  0.9000774E+02  0.7816164E-02  0.1186339E+00
        -11   -1    0    0    0    0  0.00000000000E+00  0.00000000000E+00  0.45593999997E+02  0.45594000000E+02  0.51100000000E-03 0.  1.
         11   -1    0    0    0    0 -0.00000000000E+00 -0.00000000000E+00 -0.45593999997E+02  0.45594000000E+02  0.51100000000E-03 0. -1.
    9900012    2    1    2    0    0  0.53260319251E+00  0.54949585094E+00  0.89855176585E+00  0.90007742771E+02  0.90000004175E+02 0.  0.
         12    1    1    2    0    0 -0.53260319251E+00 -0.54949585094E+00 -0.89855176585E+00  0.11802572291E+01  0.00000000000E+00 0. -1.
         11    1    3    3    0    0 -0.17117930776E+02  0.98878804128E+01 -0.39803356251E+02  0.44442107311E+02  0.51100000000E-03 0. -1.
        -11    1    3    3    0    0  0.30963955883E+01 -0.20771041456E+00  0.88027090855E+01  0.93337289848E+01  0.51100000000E-03 0.  1.
        -12    1    3    3    0    0  0.14554138380E+02 -0.91306741473E+01  0.31899198931E+02  0.36231906475E+02  0.00000000000E+00 0.  1.
</event>
<event>
 7    1  0.4520336E-015  0.9000765E+02  0.7816164E-02  0.1186339E+00
        -11   -1    0    0    0    0  0.00000000000E+00  0.00000000000E+00  0.45593999997E+02  0.45594000000E+02  0.51100000000E-03 0. -1.
         11   -1    0    0    0    0 -0.00000000000E+00 -0.00000000000E+00 -0.45593999997E+02  0.45594000000E+02  0.51100000000E-03 0.  1.
    9900012    2    1    2    0    0 -0.72189768648E+00 -0.57067540942E+00 -0.73920236525E+00  0.90007649701E+02  0.89999909877E+02 0.  0.
         12    1    1    2    0    0  0.72189768648E+00  0.57067540942E+00  0.73920236525E+00  0.11803502995E+01  0.00000000000E+00 0. -1.
         11    1    3    3    0    0 -0.33465333151E+02 -0.17501086434E+02 -0.10762034720E+02  0.39268790927E+02  0.51100000000E-03 0. -1.
        -11    1    3    3    0    0 -0.29413472135E+01  0.39282370861E+01 -0.74592486363E+01  0.89287715008E+01  0.51100000000E-03 0.  1.
        -12    1    3    3    0    0  0.35684782678E+02  0.13002173939E+02  0.17482080991E+02  0.41810087272E+02  0.00000000000E+00 0.  1.
</event>
<event>
 7    1  0.5482199E-015  0.9000765E+02  0.7816164E-02  0.1186339E+00
        -11   -1    0    0    0    0  0.00000000000E+00  0.00000000000E+00  0.45593999997E+02  0.45594000000E+02  0.51100000000E-03 0. -1.
         11   -1    0    0    0    0 -0.00000000000E+00 -0.00000000000E+00 -0.45593999997E+02  0.45594000000E+02  0.51100000000E-03 0.  1.
    9900012    2    1    2    0    0 -0.59438250929E+00 -0.69262713878E+00 -0.74847311379E+00  0.90007646272E+02  0.89999906403E+02 0.  0.
         12    1    1    2    0    0  0.59438250929E+00  0.69262713878E+00  0.74847311379E+00  0.11803537278E+01  0.00000000000E+00 0. -1.
         11    1    3    3    0    0  0.28854384502E+02  0.11896178172E+02  0.21645572766E+02  0.37981908597E+02  0.51100000000E-03 0. -1.
        -11    1    3    3    0    0  0.78709318700E+01 -0.28288685595E+01 -0.45881976378E+01  0.95396867692E+01  0.51100000000E-03 0.  1.
        -12    1    3    3    0    0 -0.37319698881E+02 -0.97599367513E+01 -0.17805848242E+02  0.42486050906E+02  0.00000000000E+00 0.  1.
</event>
<event>
 7    1  0.4520336E-015  0.9000771E+02  0.7816164E-02  0.1186339E+00
        -11   -1    0    0    0    0  0.00000000000E+00  0.00000000000E+00  0.45593999997E+02  0.45594000000E+02  0.51100000000E-03 0. -1.
         11   -1    0    0    0    0 -0.00000000000E+00 -0.00000000000E+00 -0.45593999997E+02  0.45594000000E+02  0.51100000000E-03 0.  1.
    9900012    2    1    2    0    0 -0.25887456679E+00 -0.71544977262E+00 -0.90232706358E+00  0.90007712515E+02  0.89999973520E+02 0.  0.
         12    1    1    2    0    0  0.25887456679E+00  0.71544977262E+00  0.90232706358E+00  0.11802874854E+01  0.00000000000E+00 0. -1.
         11    1    3    3    0    0  0.38812037493E+01 -0.42969781375E+01  0.88268481283E+01  0.10556562499E+02  0.51100000000E-03 0. -1.
        -11    1    3    3    0    0  0.31543411287E+02  0.19732421848E+02 -0.14624801936E+02  0.39977995191E+02  0.51100000000E-03 0.  1.
         12    1    3    3    0    0 -0.35683489603E+02 -0.16150893483E+02  0.48956267444E+01  0.39473154824E+02  0.00000000000E+00 0. -1.
</event>
<event>
 7    1  0.4520336E-015  0.9000769E+02  0.7816164E-02  0.1186339E+00
        -11   -1    0    0    0    0  0.00000000000E+00  0.00000000000E+00  0.45593999997E+02  0.45594000000E+02  0.51100000000E-03 0. -1.
         11   -1    0    0    0    0 -0.00000000000E+00 -0.00000000000E+00 -0.45593999997E+02  0.45594000000E+02  0.51100000000E-03 0.  1.
    9900012    2    1    2    0    0  0.85533721539E+00 -0.32311358426E+00  0.74640459882E+00  0.90007693275E+02  0.89999954026E+02 0.  0.
         12    1    1    2    0    0 -0.85533721539E+00  0.32311358426E+00 -0.74640459882E+00  0.11803067252E+01  0.00000000000E+00 0. -1.
         11    1    3    3    0    0 -0.35187638312E+01 -0.93519003994E+01  0.90823769478E+00  0.10033176763E+02  0.51100000000E-03 0. -1.
        -11    1    3    3    0    0 -0.23860693435E+02 -0.83978015192E+01 -0.27221220938E+02  0.37159798589E+02  0.51100000000E-03 0.  1.
         12    1    3    3    0    0  0.28234794482E+02  0.17426588334E+02  0.27059387842E+02  0.42814717923E+02  0.00000000000E+00 0. -1.
</event>
<event>
 7    1  0.4520336E-015  0.9000788E+02  0.7816164E-02  0.1186339E+00
        -11   -1    0    0    0    0  0.00000000000E+00  0.00000000000E+00  0.45593999997E+02  0.45594000000E+02  0.51100000000E-03 0.  1.
         11   -1    0    0    0    0 -0.00000000000E+00 -0.00000000000E+00 -0.45593999997E+02  0.45594000000E+02  0.51100000000E-03 0. -1.
    9900012    2    1    2    0    0  0.10675917122E+01 -0.45890327033E+00  0.20574849971E+00  0.90007882751E+02  0.90000146004E+02 0.  0.
         12    1    1    2    0    0 -0.10675917122E+01  0.45890327033E+00 -0.20574849971E+00  0.11801172487E+01  0.00000000000E+00 0. -1.
         11    1    3    3    0    0 -0.17811188926E+02  0.32367298419E+02  0.37649439153E+01  0.37135633304E+02  0.51100000000E-03 0. -1.
        -11    1    3    3    0    0  0.61711575877E+01  0.75340166620E+01  0.26809918645E+01  0.10101104428E+02  0.51100000000E-03 0.  1.
        -12    1    3    3    0    0  0.12707623051E+02 -0.40360218351E+02 -0.62401872801E+01  0.42771145019E+02  0.00000000000E+00 0.  1.
</event>
<event>
 7    1  0.4520336E-015  0.9000765E+02  0.7816164E-02  0.1186339E+00
        -11   -1    0    0    0    0  0.00000000000E+00  0.00000000000E+00  0.45593999997E+02  0.45594000000E+02  0.51100000000E-03 0. -1.
         11   -1    0    0    0    0 -0.00000000000E+00 -0.00000000000E+00 -0.45593999997E+02  0.45594000000E+02  0.51100000000E-03 0.  1.
    9900012    2    1    2    0    0  0.91465821443E+00 -0.14469466339E+00  0.73191225538E+00  0.90007647619E+02  0.89999907767E+02 0.  0.
         12    1    1    2    0    0 -0.91465821443E+00  0.14469466339E+00 -0.73191225538E+00  0.11803523815E+01  0.00000000000E+00 0. -1.
         11    1    3    3    0    0  0.10634711172E+02 -0.25587449670E+02  0.19909856417E+02  0.34120624923E+02  0.51100000000E-03 0. -1.
        -11    1    3    3    0    0  0.83941788328E+01  0.32239716404E+01  0.11037335860E+02  0.14236538012E+02  0.51100000000E-03 0.  1.
        -12    1    3    3    0    0 -0.18114231790E+02  0.22218783366E+02 -0.30215280022E+02  0.41650484684E+02  0.00000000000E+00 0.  1.
</event>
<event>
 7    1  0.4520336E-015  0.9000778E+02  0.7816164E-02  0.1186339E+00
        -11   -1    0    0    0    0  0.00000000000E+00  0.00000000000E+00  0.45593999997E+02  0.45594000000E+02  0.51100000000E-03 0. -1.
         11   -1    0    0    0    0 -0.00000000000E+00 -0.00000000000E+00 -0.45593999997E+02  0.45594000000E+02  0.51100000000E-03 0.  1.
    9900012    2    1    2    0    0  0.53437870953E+00  0.68178076357E+00 -0.80158749339E+00  0.90007776240E+02  0.90000038086E+02 0.  0.
         12    1    1    2    0    0 -0.53437870953E+00 -0.68178076357E+00  0.80158749339E+00  0.11802237603E+01  0.00000000000E+00 0. -1.
         11    1    3    3    0    0  0.18906528319E+02  0.85241630703E+01  0.31745074464E+02  0.37919228923E+02  0.51100000000E-03 0. -1.
        -11    1    3    3    0    0 -0.73809837012E+01  0.11735233166E+02 -0.17454284498E+01  0.13972871522E+02  0.51100000000E-03 0.  1.
        -12    1    3    3    0    0 -0.10991165909E+02 -0.19577615472E+02 -0.30801233508E+02  0.38115675794E+02  0.00000000000E+00 0.  1.
</event>
<event>
 7    1  0.4520336E-015  0.9000767E+02  0.7816164E-02  0.1186339E+00
        -11   -1    0    0    0    0  0.00000000000E+00  0.00000000000E+00  0.45593999997E+02  0.45594000000E+02  0.51100000000E-03 0.  1.
         11   -1    0    0    0    0 -0.00000000000E+00 -0.00000000000E+00 -0.45593999997E+02  0.45594000000E+02  0.51100000000E-03 0. -1.
    9900012    2    1    2    0    0 -0.58873238782E+00  0.99806293117E+00 -0.22461237278E+00  0.90007666930E+02  0.89999927333E+02 0.  0.
         12    1    1    2    0    0  0.58873238782E+00 -0.99806293117E+00  0.22461237278E+00  0.11803330704E+01  0.00000000000E+00 0. -1.
         11    1    3    3    0    0 -0.16549045219E+02 -0.16294626117E+02 -0.28500656346E+02  0.36765107784E+02  0.51100000000E-03 0. -1.
        -11    1    3    3    0    0  0.30451557989E+01 -0.19855131214E+01 -0.87900925762E+01  0.95121482302E+01  0.51100000000E-03 0.  1.
        -12    1    3    3    0    0  0.12915157033E+02  0.19278202170E+02  0.37066136550E+02  0.43730410915E+02  0.00000000000E+00 0.  1.
</event>
<event>
 7    1  0.5414850E-015  0.9000761E+02  0.7816164E-02  0.1186339E+00
        -11   -1    0    0    0    0  0.00000000000E+00  0.00000000000E+00  0.45593999997E+02  0.45594000000E+02  0.51100000000E-03 0.  1.
         11   -1    0    0    0    0 -0.00000000000E+00 -0.00000000000E+00 -0.45593999997E+02  0.45594000000E+02  0.51100000000E-03 0. -1.
    9900012    2    1    2    0    0  0.59750646069E-01  0.10424484024E+01  0.55049965397E+00  0.90007610793E+02  0.89999870455E+02 0.  0.
         12    1    1    2    0    0 -0.59750646069E-01 -0.10424484024E+01 -0.55049965397E+00  0.11803892072E+01  0.00000000000E+00 0. -1.
         11    1    3    3    0    0  0.24721682294E+02 -0.13850814450E+02 -0.25429230914E+02  0.38074301326E+02  0.51100000000E-03 0. -1.
        -11    1    3    3    0    0  0.85061847928E+01 -0.14303911874E+00  0.40410629901E+01  0.94183772631E+01  0.51100000000E-03 0.  1.
        -12    1    3    3    0    0 -0.33168116441E+02  0.15036301971E+02  0.21938667578E+02  0.42514932203E+02  0.00000000000E+00 0.  1.
</event>
<event>
 7    1  0.4520336E-015  0.9000774E+02  0.7816164E-02  0.1186339E+00
        -11   -1    0    0    0    0  0.00000000000E+00  0.00000000000E+00  0.45593999997E+02  0.45594000000E+02  0.51100000000E-03 0.  1.
         11   -1    0    0    0    0 -0.00000000000E+00 -0.00000000000E+00 -0.45593999997E+02  0.45594000000E+02  0.51100000000E-03 0. -1.
    9900012    2    1    2    0    0 -0.51755787016E+00 -0.16529075323E+00  0.10477699528E+01  0.90007741954E+02  0.90000003347E+02 0.  0.
         12    1    1    2    0    0  0.51755787016E+00  0.16529075323E+00 -0.10477699528E+01  0.11802580464E+01  0.00000000000E+00 0. -1.
         11    1    3    3    0    0  0.23760638462E+01 -0.26428034602E+02 -0.23648739900E+02  0.35543629407E+02  0.51100000000E-03 0. -1.
        -11    1    3    3    0    0 -0.70638755956E+01 -0.51592396082E+01 -0.57860077767E+01  0.10487801391E+02  0.51100000000E-03 0.  1.
        -12    1    3    3    0    0  0.41702538792E+01  0.31421983457E+02  0.30482517629E+02  0.43976311155E+02  0.00000000000E+00 0.  1.
</event>
<event>
 7    1  0.4520336E-015  0.9000771E+02  0.7816164E-02  0.1186339E+00
        -11   -1    0    0    0    0  0.00000000000E+00  0.00000000000E+00  0.45593999997E+02  0.45594000000E+02  0.51100000000E-03 0.  1.
         11   -1    0    0    0    0 -0.00000000000E+00 -0.00000000000E+00 -0.45593999997E+02  0.45594000000E+02  0.51100000000E-03 0. -1.
    9900012    2    1    2    0    0 -0.87994994014E+00  0.62661088000E+00  0.47553121695E+00  0.90007710616E+02  0.89999971596E+02 0.  0.
         12    1    1    2    0    0  0.87994994014E+00 -0.62661088000E+00 -0.47553121695E+00  0.11802893842E+01  0.00000000000E+00 0. -1.
         11    1    3    3    0    0  0.17722542411E+00 -0.85729232667E+00  0.58331052508E+01  0.58984299701E+01  0.51100000000E-03 0. -1.
        -11    1    3    3    0    0  0.11525474272E+02 -0.39456862048E+02 -0.29172524235E+01  0.41209111636E+02  0.51100000000E-03 0.  1.
         12    1    3    3    0    0 -0.12582649636E+02  0.40940765255E+02 -0.24403216103E+01  0.42900169010E+02  0.00000000000E+00 0. -1.
</event>
<event>
 7    1  0.4520336E-015  0.9000783E+02  0.7816164E-02  0.1186339E+00
        -11   -1    0    0    0    0  0.00000000000E+00  0.00000000000E+00  0.45593999997E+02  0.45594000000E+02  0.51100000000E-03 0. -1.
         11   -1    0    0    0    0 -0.00000000000E+00 -0.00000000000E+00 -0.45593999997E+02  0.45594000000E+02  0.51100000000E-03 0.  1.
    9900012    2    1    2    0    0  0.14901709424E+00  0.70435560062E+00  0.93513169320E+00  0.90007832982E+02  0.90000095577E+02 0.  0.
         12    1    1    2    0    0 -0.14901709424E+00 -0.70435560062E+00 -0.93513169320E+00  0.11801670179E+01  0.00000000000E+00 0. -1.
         11    1    3    3    0    0 -0.83958536954E+01 -0.34598106242E+01  0.72381275480E+01  0.11612542335E+02  0.51100000000E-03 0. -1.
        -11    1    3    3    0    0 -0.33122838631E+02 -0.34527945640E+01 -0.12530624229E+02  0.35581747752E+02  0.51100000000E-03 0.  1.
         12    1    3    3    0    0  0.41667709421E+02  0.76169607888E+01  0.62276283741E+01  0.42813542895E+02  0.00000000000E+00 0. -1.
</event>
<event>
 7    1  0.4520336E-015  0.9000777E+02  0.7816164E-02  0.1186339E+00
        -11   -1    0    0    0    0  0.00000000000E+00  0.00000000000E+00  0.45593999997E+02  0.45594000000E+02  0.51100000000E-03 0.  1.
         11   -1    0    0    0    0 -0.00000000000E+00 -0.00000000000E+00 -0.45593999997E+02  0.45594000000E+02  0.51100000000E-03 0. -1.
    9900012    2    1    2    0    0  0.44013592688E+00 -0.98691877508E+00 -0.47455956407E+00  0.90007773292E+02  0.90000035099E+02 0.  0.
         12    1    1    2    0    0 -0.44013592688E+00  0.98691877508E+00  0.47455956407E+00  0.11802267081E+01  0.00000000000E+00 0. -1.
         11    1    3    3    0    0  0.40125120536E+02 -0.15143199341E+02 -0.54548791055E+01  0.43233060158E+02  0.51100000000E-03 0. -1.
        -11    1    3    3    0    0 -0.20518681395E+01  0.80187367343E+01  0.20788760418E+01  0.85341682392E+01  0.51100000000E-03 0.  1.
        -12    1    3    3    0    0 -0.37633116469E+02  0.61375438314E+01  0.29014434996E+01  0.38240544895E+02  0.00000000000E+00 0.  1.
</event>
<event>
 7    1  0.4520336E-015  0.9000774E+02  0.7816164E-02  0.1186339E+00
        -11   -1    0    0    0    0  0.00000000000E+00  0.00000000000E+00  0.45593999997E+02  0.45594000000E+02  0.51100000000E-03 0.  1.
         11   -1    0    0    0    0 -0.00000000000E+00 -0.00000000000E+00 -0.45593999997E+02  0.45594000000E+02  0.51100000000E-03 0. -1.
    9900012    2    1    2    0    0 -0.81848062143E+00 -0.76725336625E-01  0.84688846221E+00  0.90007738431E+02  0.89999999778E+02 0.  0.
         12    1    1    2    0    0  0.81848062143E+00  0.76725336625E-01 -0.84688846221E+00  0.11802615695E+01  0.00000000000E+00 0. -1.
         11    1    3    3    0    0 -0.72795884696E+01 -0.80565633461E+01 -0.67813641797E-01  0.10858417020E+02  0.51100000000E-03 0. -1.
        -11    1    3    3    0    0  0.44407606434E+01 -0.17053012436E+01  0.39260563041E+02  0.39547695482E+02  0.51100000000E-03 0.  1.
         12    1    3    3    0    0  0.20203472048E+01  0.96851392531E+01 -0.38345860937E+02  0.39601625928E+02  0.00000000000E+00 0. -1.
</event>
<event>
 7    1  0.4520336E-015  0.9000770E+02  0.7816164E-02  0.1186339E+00
        -11   -1    0    0    0    0  0.00000000000E+00  0.00000000000E+00  0.45593999997E+02  0.45594000000E+02  0.51100000000E-03 0. -1.
         11   -1    0    0    0    0 -0.00000000000E+00 -0.00000000000E+00 -0.45593999997E+02  0.45594000000E+02  0.51100000000E-03 0.  1.
    9900012    2    1    2    0    0 -0.92752652613E+00  0.55015590450E+00  0.47971547374E+00  0.90007701770E+02  0.89999962633E+02 0.  0.
         12    1    1    2    0    0  0.92752652613E+00 -0.55015590450E+00 -0.47971547374E+00  0.11802982300E+01  0.00000000000E+00 0. -1.
         11    1    3    3    0    0  0.36373558054E+02  0.15945465205E+02 -0.14216041611E+02  0.42182809597E+02  0.51100000000E-03 0. -1.
        -11    1    3    3    0    0 -0.10048696463E+02  0.40783903527E+00 -0.44097373248E+01  0.10981275738E+02  0.51100000000E-03 0.  1.
        -12    1    3    3    0    0 -0.27252388117E+02 -0.15803148335E+02  0.19105494410E+02  0.36843616435E+02  0.00000000000E+00 0.  1.
</event>
<event>
 7    1  0.4520336E-015  0.9000781E+02  0.7816164E-02  0.1186339E+00
        -11   -1    0    0    0    0  0.00000000000E+00  0.00000000000E+00  0.45593999997E+02  0.45594000000E+02  0.51100000000E-03 0.  1.
         11   -1    0    0    0    0 -0.00000000000E+00 -0.00000000000E+00 -0.45593999997E+02  0.45594000000E+02  0.51100000000E-03 0. -1.
    9900012    2    1    2    0    0  0.33974048821E+00  0.68578876678E+00  0.89839433711E+00  0.90007812635E+02  0.90000074962E+02 0.  0.
         12    1    1    2    0    0 -0.33974048821E+00 -0.68578876678E+00 -0.89839433711E+00  0.11801873652E+01  0.00000000000E+00 0. -1.
         11    1    3    3    0    0 -0.12608743790E+02  0.44943347791E+01  0.19997605097E+01  0.13534345475E+02  0.51100000000E-03 0. -1.
        -11    1    3    3    0    0 -0.18062477507E+02  0.11816939760E+02  0.25002825825E+02  0.33030810745E+02  0.51100000000E-03 0.  1.
         12    1    3    3    0    0  0.31010961786E+02 -0.15625485773E+02 -0.26104191998E+02  0.43442656415E+02  0.00000000000E+00 0. -1.
</event>
<event>
 7    1  0.4520336E-015  0.9000772E+02  0.7816164E-02  0.1186339E+00
        -11   -1    0    0    0    0  0.00000000000E+00  0.00000000000E+00  0.45593999997E+02  0.45594000000E+02  0.51100000000E-03 0.  1.
         11   -1    0    0    0    0 -0.00000000000E+00 -0.00000000000E+00 -0.45593999997E+02  0.45594000000E+02  0.51100000000E-03 0. -1.
    9900012    2    1    2    0    0  0.14051750240E+00  0.53072460550E+00  0.10448220211E+01  0.90007717478E+02  0.89999978549E+02 0.  0.
         12    1    1    2    0    0 -0.14051750240E+00 -0.53072460550E+00 -0.10448220211E+01  0.11802825217E+01  0.00000000000E+00 0. -1.
         11    1    3    3    0    0  0.96042178407E+01  0.13555320454E+01  0.76156985247E+00  0.97292577496E+01  0.51100000000E-03 0. -1.
        -11    1    3    3    0    0  0.11197740915E+02 -0.10314055776E+02  0.35348322683E+02  0.38487310440E+02  0.51100000000E-03 0.  1.
         12    1    3    3    0    0 -0.20661441253E+02  0.94892483357E+01 -0.35065070515E+02  0.41791149288E+02  0.00000000000E+00 0. -1.
</event>
<event>
 7    1  0.4520336E-015  0.9000780E+02  0.7816164E-02  0.1186339E+00
        -11   -1    0    0    0    0  0.00000000000E+00  0.00000000000E+00  0.45593999997E+02  0.45594000000E+02  0.51100000000E-03 0.  1.
         11   -1    0    0    0    0 -0.00000000000E+00 -0.00000000000E+00 -0.45593999997E+02  0.45594000000E+02  0.51100000000E-03 0. -1.
    9900012    2    1    2    0    0 -0.32583846187E-01 -0.58125565213E+00  0.10266266544E+01  0.90007795726E+02  0.90000057830E+02 0.  0.
         12    1    1    2    0    0  0.32583846187E-01  0.58125565213E+00 -0.10266266544E+01  0.11802042737E+01  0.00000000000E+00 0. -1.
         11    1    3    3    0    0 -0.10979564893E+02  0.14958128291E+02 -0.34475835023E+02  0.39152006947E+02  0.51100000000E-03 0. -1.
        -11    1    3    3    0    0  0.68515126244E+01  0.69077928714E+01  0.14084543745E+01  0.98307970980E+01  0.51100000000E-03 0.  1.
        -12    1    3    3    0    0  0.40954684224E+01 -0.22447176814E+02  0.34094007302E+02  0.41024991681E+02  0.00000000000E+00 0.  1.
</event>
<event>
 7    1  0.4520336E-015  0.9000793E+02  0.7816164E-02  0.1186339E+00
        -11   -1    0    0    0    0  0.00000000000E+00  0.00000000000E+00  0.45593999997E+02  0.45594000000E+02  0.51100000000E-03 0. -1.
         11   -1    0    0    0    0 -0.00000000000E+00 -0.00000000000E+00 -0.45593999997E+02  0.45594000000E+02  0.51100000000E-03 0.  1.
    9900012    2    1    2    0    0 -0.10045673423E+01  0.14668889254E+00  0.60157653834E+00  0.90007929024E+02  0.90000192887E+02 0.  0.
         12    1    1    2    0    0  0.10045673423E+01 -0.14668889254E+00 -0.60157653834E+00  0.11800709758E+01  0.00000000000E+00 0. -1.
         11    1    3    3    0    0 -0.54740931318E+01 -0.36947447622E+02  0.57646537039E+01  0.37792999536E+02  0.51100000000E-03 0. -1.
        -11    1    3    3    0    0 -0.86263285413E+01 -0.16818315572E+01  0.49080417987E+01  0.10066328827E+02  0.51100000000E-03 0.  1.
        -12    1    3    3    0    0  0.13095854331E+02  0.38775968071E+02 -0.10071118964E+02  0.42148600661E+02  0.00000000000E+00 0.  1.
</event>
<event>
 7    1  0.4520336E-015  0.9000766E+02  0.7816164E-02  0.1186339E+00
        -11   -1    0    0    0    0  0.00000000000E+00  0.00000000000E+00  0.45593999997E+02  0.45594000000E+02  0.51100000000E-03 0.  1.
         11   -1    0    0    0    0 -0.00000000000E+00 -0.00000000000E+00 -0.45593999997E+02  0.45594000000E+02  0.51100000000E-03 0. -1.
    9900012    2    1    2    0    0 -0.35114510572E+00 -0.36309015528E+00  0.10667976649E+01  0.90007663351E+02  0.89999923708E+02 0.  0.
         12    1    1    2    0    0  0.35114510572E+00  0.36309015528E+00 -0.10667976649E+01  0.11803366485E+01  0.00000000000E+00 0. -1.
         11    1    3    3    0    0  0.19401773951E+02 -0.33662114273E+02 -0.34175828477E+01  0.39003161956E+02  0.51100000000E-03 0. -1.
        -11    1    3    3    0    0  0.32061096210E+01  0.25922457686E+01 -0.93702309606E+01  0.10237192269E+02  0.51100000000E-03 0.  1.
        -12    1    3    3    0    0 -0.22959028677E+02  0.30706778349E+02  0.13854611473E+02  0.40767309127E+02  0.00000000000E+00 0.  1.
</event>
<event>
 7    1  0.4520336E-015  0.9000778E+02  0.7816164E-02  0.1186339E+00
        -11   -1    0    0    0    0  0.00000000000E+00  0.00000000000E+00  0.45593999997E+02  0.45594000000E+02  0.51100000000E-03 0.  1.
         11   -1    0    0    0    0 -0.00000000000E+00 -0.00000000000E+00 -0.45593999997E+02  0.45594000000E+02  0.51100000000E-03 0. -1.
    9900012    2    1    2    0    0 -0.72059213079E-01  0.77454604373E+00 -0.88758754649E+00  0.90007777243E+02  0.90000039102E+02 0.  0.
         12    1    1    2    0    0  0.72059213079E-01 -0.77454604373E+00  0.88758754649E+00  0.11802227573E+01  0.00000000000E+00 0. -1.
         11    1    3    3    0    0  0.62573579626E+01 -0.72793982146E+01  0.32876628799E+01  0.10146570579E+02  0.51100000000E-03 0. -1.
        -11    1    3    3    0    0 -0.17294203116E+02  0.50526950478E+01  0.34840259274E+02  0.39223243813E+02  0.51100000000E-03 0.  1.
         12    1    3    3    0    0  0.10964785941E+02  0.30012492105E+01 -0.39015509700E+02  0.40637962851E+02  0.00000000000E+00 0. -1.
</event>
<event>
 7    1  0.4520336E-015  0.9000824E+02  0.7816164E-02  0.1186338E+00
        -11   -1    0    0    0    0  0.00000000000E+00  0.00000000000E+00  0.45593999997E+02  0.45594000000E+02  0.51100000000E-03 0. -1.
         11   -1    0    0    0    0 -0.00000000000E+00 -0.00000000000E+00 -0.45593999997E+02  0.45594000000E+02  0.51100000000E-03 0.  1.
    9900012    2    1    2    0    0  0.87423533743E+00 -0.67791296788E+00 -0.40984105445E+00  0.90008244471E+02  0.90000512497E+02 0.  0.
         12    1    1    2    0    0 -0.87423533743E+00  0.67791296788E+00  0.40984105445E+00  0.11797555286E+01  0.00000000000E+00 0. -1.
         11    1    3    3    0    0 -0.35178651198E+02  0.14476876534E+02  0.10322498059E+02  0.39416638881E+02  0.51100000000E-03 0. -1.
        -11    1    3    3    0    0 -0.30044267384E+01  0.43724849832E+01 -0.34326581562E+01  0.63188881327E+01  0.51100000000E-03 0.  1.
        -12    1    3    3    0    0  0.39057313274E+02 -0.19527274486E+02 -0.72996809568E+01  0.44272717457E+02  0.00000000000E+00 0.  1.
</event>
<event>
 7    1  0.4520336E-015  0.9000770E+02  0.7816164E-02  0.1186339E+00
        -11   -1    0    0    0    0  0.00000000000E+00  0.00000000000E+00  0.45593999997E+02  0.45594000000E+02  0.51100000000E-03 0.  1.
         11   -1    0    0    0    0 -0.00000000000E+00 -0.00000000000E+00 -0.45593999997E+02  0.45594000000E+02  0.51100000000E-03 0. -1.
    9900012    2    1    2    0    0 -0.55120463329E+00  0.97543795069E+00 -0.37121033978E+00  0.90007702216E+02  0.89999963085E+02 0.  0.
         12    1    1    2    0    0  0.55120463329E+00 -0.97543795069E+00  0.37121033978E+00  0.11802977844E+01  0.00000000000E+00 0. -1.
         11    1    3    3    0    0 -0.35121842692E+01 -0.86877464378E+01 -0.18045444372E+01  0.95429952004E+01  0.51100000000E-03 0. -1.
        -11    1    3    3    0    0 -0.62400778538E+01 -0.24710683210E+02  0.26631875689E+02  0.36862084033E+02  0.51100000000E-03 0.  1.
         12    1    3    3    0    0  0.92010574897E+01  0.34373867598E+02 -0.25198541591E+02  0.43602622982E+02  0.00000000000E+00 0. -1.
</event>
<event>
 7    1  0.4520336E-015  0.9000776E+02  0.7816164E-02  0.1186339E+00
        -11   -1    0    0    0    0  0.00000000000E+00  0.00000000000E+00  0.45593999997E+02  0.45594000000E+02  0.51100000000E-03 0.  1.
         11   -1    0    0    0    0 -0.00000000000E+00 -0.00000000000E+00 -0.45593999997E+02  0.45594000000E+02  0.51100000000E-03 0. -1.
    9900012    2    1    2    0    0  0.33295355285E+00  0.25642695455E+00  0.11028793946E+01  0.90007764511E+02  0.90000026202E+02 0.  0.
         12    1    1    2    0    0 -0.33295355285E+00 -0.25642695455E+00 -0.11028793946E+01  0.11802354893E+01  0.00000000000E+00 0. -1.
         11    1    3    3    0    0 -0.19319068682E+01  0.99285789481E+01  0.21715543104E+01  0.10345269086E+02  0.51100000000E-03 0. -1.
        -11    1    3    3    0    0  0.89999325503E+01 -0.10457880319E+02  0.37783077704E+02  0.40223463398E+02  0.51100000000E-03 0.  1.
         12    1    3    3    0    0 -0.67350721292E+01  0.78572832569E+00 -0.38851752620E+02  0.39439032027E+02  0.00000000000E+00 0. -1.
</event>
<event>
 7    1  0.4520336E-015  0.9000767E+02  0.7816164E-02  0.1186339E+00
        -11   -1    0    0    0    0  0.00000000000E+00  0.00000000000E+00  0.45593999997E+02  0.45594000000E+02  0.51100000000E-03 0.  1.
         11   -1    0    0    0    0 -0.00000000000E+00 -0.00000000000E+00 -0.45593999997E+02  0.45594000000E+02  0.51100000000E-03 0. -1.
    9900012    2    1    2    0    0  0.19933598782E+00 -0.23129586680E+00  0.11401483662E+01  0.90007673388E+02  0.89999933877E+02 0.  0.
         12    1    1    2    0    0 -0.19933598782E+00  0.23129586680E+00 -0.11401483662E+01  0.11803266120E+01  0.00000000000E+00 0. -1.
         11    1    3    3    0    0  0.32313311677E+02 -0.12481353763E+02  0.18323629270E+02  0.39187876865E+02  0.51100000000E-03 0. -1.
        -11    1    3    3    0    0 -0.10339696479E+01  0.49896473077E+01  0.84609730034E+01  0.98769295793E+01  0.51100000000E-03 0.  1.
        -12    1    3    3    0    0 -0.31080006041E+02  0.72604105888E+01 -0.25644453907E+02  0.40942866944E+02  0.00000000000E+00 0.  1.
</event>
<event>
 7    1  0.4520336E-015  0.9000776E+02  0.7816164E-02  0.1186339E+00
        -11   -1    0    0    0    0  0.00000000000E+00  0.00000000000E+00  0.45593999997E+02  0.45594000000E+02  0.51100000000E-03 0. -1.
         11   -1    0    0    0    0 -0.00000000000E+00 -0.00000000000E+00 -0.45593999997E+02  0.45594000000E+02  0.51100000000E-03 0.  1.
    9900012    2    1    2    0    0 -0.85048852992E+00 -0.71350770487E-01 -0.81519569137E+00  0.90007760326E+02  0.90000021963E+02 0.  0.
         12    1    1    2    0    0  0.85048852992E+00  0.71350770486E-01  0.81519569137E+00  0.11802396736E+01  0.00000000000E+00 0. -1.
         11    1    3    3    0    0 -0.75991843156E+01 -0.34906216552E+01  0.51136892522E+01  0.98021354730E+01  0.51100000000E-03 0. -1.
        -11    1    3    3    0    0  0.29531928757E+02 -0.12715033846E+02 -0.29524686335E+02  0.43652193591E+02  0.51100000000E-03 0.  1.
         12    1    3    3    0    0 -0.22783232971E+02  0.16134304731E+02  0.23595801392E+02  0.36553431263E+02  0.00000000000E+00 0. -1.
</event>
<event>
 7    1  0.4520336E-015  0.9000773E+02  0.7816164E-02  0.1186339E+00
        -11   -1    0    0    0    0  0.00000000000E+00  0.00000000000E+00  0.45593999997E+02  0.45594000000E+02  0.51100000000E-03 0. -1.
         11   -1    0    0    0    0 -0.00000000000E+00 -0.00000000000E+00 -0.45593999997E+02  0.45594000000E+02  0.51100000000E-03 0.  1.
    9900012    2    1    2    0    0 -0.10265025628E+01  0.51617013351E+00 -0.26999717324E+00  0.90007729865E+02  0.89999991099E+02 0.  0.
         12    1    1    2    0    0  0.10265025628E+01 -0.51617013351E+00  0.26999717324E+00  0.11802701351E+01  0.00000000000E+00 0. -1.
         11    1    3    3    0    0 -0.54592267038E+01  0.50206977676E+01 -0.48275945168E+01  0.88496458323E+01  0.51100000000E-03 0. -1.
        -11    1    3    3    0    0 -0.14879200354E+01  0.37890366971E+02  0.56479340200E+01  0.38337879104E+02  0.51100000000E-03 0.  1.
         12    1    3    3    0    0  0.59206441764E+01 -0.42394894605E+02 -0.10903366764E+01  0.42820204929E+02  0.00000000000E+00 0. -1.
</event>
<event>
 7    1  0.4520336E-015  0.9000786E+02  0.7816164E-02  0.1186339E+00
        -11   -1    0    0    0    0  0.00000000000E+00  0.00000000000E+00  0.45593999997E+02  0.45594000000E+02  0.51100000000E-03 0. -1.
         11   -1    0    0    0    0 -0.00000000000E+00 -0.00000000000E+00 -0.45593999997E+02  0.45594000000E+02  0.51100000000E-03 0.  1.
    9900012    2    1    2    0    0 -0.32916780082E+00  0.97338961300E+00  0.58041851553E+00  0.90007862536E+02  0.90000125522E+02 0.  0.
         12    1    1    2    0    0  0.32916780082E+00 -0.97338961300E+00 -0.58041851553E+00  0.11801374636E+01  0.00000000000E+00 0. -1.
         11    1    3    3    0    0  0.26005673666E+01  0.12270426447E+02  0.17923306136E+02  0.21876270681E+02  0.51100000000E-03 0. -1.
        -11    1    3    3    0    0 -0.13335608123E+02  0.16868515798E+02  0.13256323743E+02  0.25260945918E+02  0.51100000000E-03 0.  1.
        -12    1    3    3    0    0  0.10405872955E+02 -0.28165552631E+02 -0.30599211364E+02  0.42870645937E+02  0.00000000000E+00 0.  1.
</event>
<event>
 7    1  0.4520336E-015  0.9000786E+02  0.7816164E-02  0.1186339E+00
        -11   -1    0    0    0    0  0.00000000000E+00  0.00000000000E+00  0.45593999997E+02  0.45594000000E+02  0.51100000000E-03 0.  1.
         11   -1    0    0    0    0 -0.00000000000E+00 -0.00000000000E+00 -0.45593999997E+02  0.45594000000E+02  0.51100000000E-03 0. -1.
    9900012    2    1    2    0    0  0.36617940950E+00  0.54557329473E+00  0.98029668791E+00  0.90007864764E+02  0.90000127778E+02 0.  0.
         12    1    1    2    0    0 -0.36617940950E+00 -0.54557329473E+00 -0.98029668791E+00  0.11801352364E+01  0.00000000000E+00 0. -1.
         11    1    3    3    0    0  0.10039056158E+02  0.32493848380E+02  0.13618443104E+02  0.36634612375E+02  0.51100000000E-03 0. -1.
        -11    1    3    3    0    0  0.33586919324E+01  0.79521171923E+01 -0.68118148345E+01  0.10996263044E+02  0.51100000000E-03 0.  1.
        -12    1    3    3    0    0 -0.13031568680E+02 -0.39900392277E+02 -0.58263315817E+01  0.42376989344E+02  0.00000000000E+00 0.  1.
</event>
<event>
 7    1  0.4520336E-015  0.9000780E+02  0.7816164E-02  0.1186339E+00
        -11   -1    0    0    0    0  0.00000000000E+00  0.00000000000E+00  0.45593999997E+02  0.45594000000E+02  0.51100000000E-03 0.  1.
         11   -1    0    0    0    0 -0.00000000000E+00 -0.00000000000E+00 -0.45593999997E+02  0.45594000000E+02  0.51100000000E-03 0. -1.
    9900012    2    1    2    0    0  0.85104944039E+00  0.77949827183E+00 -0.24690499700E+00  0.90007803074E+02  0.90000065275E+02 0.  0.
         12    1    1    2    0    0 -0.85104944039E+00 -0.77949827183E+00  0.24690499700E+00  0.11801969257E+01  0.00000000000E+00 0. -1.
         11    1    3    3    0    0 -0.55729949167E+01  0.84855612661E+01 -0.40399482054E+01  0.10926307890E+02  0.51100000000E-03 0. -1.
        -11    1    3    3    0    0 -0.30946898625E+02  0.11598601647E+02 -0.10467851468E+02  0.34667189232E+02  0.51100000000E-03 0.  1.
         12    1    3    3    0    0  0.37370942982E+02 -0.19304664641E+02  0.14260894677E+02  0.44414305952E+02  0.00000000000E+00 0. -1.
</event>
<event>
 7    1  0.4520336E-015  0.9000780E+02  0.7816164E-02  0.1186339E+00
        -11   -1    0    0    0    0  0.00000000000E+00  0.00000000000E+00  0.45593999997E+02  0.45594000000E+02  0.51100000000E-03 0.  1.
         11   -1    0    0    0    0 -0.00000000000E+00 -0.00000000000E+00 -0.45593999997E+02  0.45594000000E+02  0.51100000000E-03 0. -1.
    9900012    2    1    2    0    0  0.27899886462E+00  0.11211284937E+01  0.24103575781E+00  0.90007801838E+02  0.90000064022E+02 0.  0.
         12    1    1    2    0    0 -0.27899886462E+00 -0.11211284937E+01 -0.24103575781E+00  0.11801981623E+01  0.00000000000E+00 0. -1.
         11    1    3    3    0    0  0.86534215758E+00 -0.31595178826E+02 -0.20791256368E+02  0.37832267758E+02  0.51100000000E-03 0. -1.
        -11    1    3    3    0    0  0.15686462197E+01  0.12616180511E+01 -0.86452938954E+01  0.88765667838E+01  0.51100000000E-03 0.  1.
        -12    1    3    3    0    0 -0.21549895126E+01  0.31454689269E+02  0.29677586022E+02  0.43298967296E+02  0.00000000000E+00 0.  1.
</event>
<event>
 7    1  0.4520336E-015  0.9000781E+02  0.7816164E-02  0.1186339E+00
        -11   -1    0    0    0    0  0.00000000000E+00  0.00000000000E+00  0.45593999997E+02  0.45594000000E+02  0.51100000000E-03 0. -1.
         11   -1    0    0    0    0 -0.00000000000E+00 -0.00000000000E+00 -0.45593999997E+02  0.45594000000E+02  0.51100000000E-03 0.  1.
    9900012    2    1    2    0    0 -0.60624123781E+00  0.68944150170E+00  0.74162080366E+00  0.90007805338E+02  0.90000067569E+02 0.  0.
         12    1    1    2    0    0  0.60624123781E+00 -0.68944150170E+00 -0.74162080366E+00  0.11801946615E+01  0.00000000000E+00 0. -1.
         11    1    3    3    0    0  0.93124898408E+00  0.52478998806E+01 -0.92052678861E+01  0.10636946693E+02  0.51100000000E-03 0. -1.
        -11    1    3    3    0    0  0.71956107517E+00  0.17089894437E+02 -0.29624726359E+02  0.34208283677E+02  0.51100000000E-03 0.  1.
         12    1    3    3    0    0 -0.22570512971E+01 -0.21648352816E+02  0.39571615049E+02  0.45162574969E+02  0.00000000000E+00 0. -1.
</event>
<event>
 7    1  0.7529118E-015  0.9000776E+02  0.7816164E-02  0.1186339E+00
        -11   -1    0    0    0    0  0.00000000000E+00  0.00000000000E+00  0.45593999997E+02  0.45594000000E+02  0.51100000000E-03 0. -1.
         11   -1    0    0    0    0 -0.00000000000E+00 -0.00000000000E+00 -0.45593999997E+02  0.45594000000E+02  0.51100000000E-03 0.  1.
    9900012    2    1    2    0    0 -0.43771224038E+00 -0.21133440535E-01 -0.10958698790E+01  0.90007758745E+02  0.90000020361E+02 0.  0.
         12    1    1    2    0    0  0.43771224038E+00  0.21133440535E-01  0.10958698790E+01  0.11802412547E+01  0.00000000000E+00 0. -1.
         11    1    3    3    0    0 -0.80145132375E+01 -0.13427707665E+01 -0.52700789632E+01  0.96855143542E+01  0.51100000000E-03 0. -1.
        -11    1    3    3    0    0 -0.86575727710E+01  0.13274094131E+02 -0.33798700370E+02  0.37329710530E+02  0.51100000000E-03 0.  1.
         12    1    3    3    0    0  0.16234373768E+02 -0.11952456805E+02  0.37972909454E+02  0.42992533861E+02  0.00000000000E+00 0. -1.
</event>
<event>
 7    1  0.4520336E-015  0.9000765E+02  0.7816164E-02  0.1186339E+00
        -11   -1    0    0    0    0  0.00000000000E+00  0.00000000000E+00  0.45593999997E+02  0.45594000000E+02  0.51100000000E-03 0.  1.
         11   -1    0    0    0    0 -0.00000000000E+00 -0.00000000000E+00 -0.45593999997E+02  0.45594000000E+02  0.51100000000E-03 0. -1.
    9900012    2    1    2    0    0  0.92873910256E+00 -0.68461393852E+00  0.24892215233E+00  0.90007654795E+02  0.89999915038E+02 0.  0.
         12    1    1    2    0    0 -0.92873910256E+00  0.68461393852E+00 -0.24892215233E+00  0.11803452052E+01  0.00000000000E+00 0. -1.
         11    1    3    3    0    0 -0.23271117008E+02 -0.14097823792E+02  0.86897907189E+01  0.28562317579E+02  0.51100000000E-03 0. -1.
        -11    1    3    3    0    0  0.10306344924E+02 -0.41935440957E+01  0.21397522578E+02  0.24117639406E+02  0.51100000000E-03 0.  1.
        -12    1    3    3    0    0  0.13893511187E+02  0.17606753950E+02 -0.29838391145E+02  0.37327697810E+02  0.00000000000E+00 0.  1.
</event>
<event>
 7    1  0.4520336E-015  0.9000772E+02  0.7816164E-02  0.1186339E+00
        -11   -1    0    0    0    0  0.00000000000E+00  0.00000000000E+00  0.45593999997E+02  0.45594000000E+02  0.51100000000E-03 0.  1.
         11   -1    0    0    0    0 -0.00000000000E+00 -0.00000000000E+00 -0.45593999997E+02  0.45594000000E+02  0.51100000000E-03 0. -1.
    9900012    2    1    2    0    0 -0.85527800599E-01 -0.12085474051E+00  0.11709560910E+01  0.90007720779E+02  0.89999981893E+02 0.  0.
         12    1    1    2    0    0  0.85527800599E-01  0.12085474051E+00 -0.11709560910E+01  0.11802792212E+01  0.00000000000E+00 0. -1.
         11    1    3    3    0    0 -0.44306125005E+01  0.35722670657E+01  0.99890593352E+01  0.11496639760E+02  0.51100000000E-03 0. -1.
        -11    1    3    3    0    0 -0.17914982104E+02  0.25839309629E+02  0.14674508159E+02  0.34698093548E+02  0.51100000000E-03 0.  1.
         12    1    3    3    0    0  0.22260066804E+02 -0.29532431435E+02 -0.23492611403E+02  0.43812987471E+02  0.00000000000E+00 0. -1.
</event>
<event>
 7    1  0.4520336E-015  0.9000767E+02  0.7816164E-02  0.1186339E+00
        -11   -1    0    0    0    0  0.00000000000E+00  0.00000000000E+00  0.45593999997E+02  0.45594000000E+02  0.51100000000E-03 0.  1.
         11   -1    0    0    0    0 -0.00000000000E+00 -0.00000000000E+00 -0.45593999997E+02  0.45594000000E+02  0.51100000000E-03 0. -1.
    9900012    2    1    2    0    0  0.11504777944E+01 -0.25890861407E+00  0.50463112963E-01  0.90007669812E+02  0.89999930254E+02 0.  0.
         12    1    1    2    0    0 -0.11504777944E+01  0.25890861407E+00 -0.50463112963E-01  0.11803301875E+01  0.00000000000E+00 0. -1.
         11    1    3    3    0    0  0.26718448921E+02 -0.34080007542E+02  0.93052792551E+01  0.44293460569E+02  0.51100000000E-03 0. -1.
        -11    1    3    3    0    0 -0.89984964932E+01  0.25785212637E+01 -0.11318273144E+01  0.94288251853E+01  0.51100000000E-03 0.  1.
        -12    1    3    3    0    0 -0.16569474634E+02  0.31242577665E+02 -0.81229888278E+01  0.36285384059E+02  0.00000000000E+00 0.  1.
</event>
<event>
 7    1  0.4520336E-015  0.9000776E+02  0.7816164E-02  0.1186339E+00
        -11   -1    0    0    0    0  0.00000000000E+00  0.00000000000E+00  0.45593999997E+02  0.45594000000E+02  0.51100000000E-03 0.  1.
         11   -1    0    0    0    0 -0.00000000000E+00 -0.00000000000E+00 -0.45593999997E+02  0.45594000000E+02  0.51100000000E-03 0. -1.
    9900012    2    1    2    0    0 -0.42820445870E+00  0.10920443042E+01  0.13057514859E+00  0.90007758631E+02  0.90000020244E+02 0.  0.
         12    1    1    2    0    0  0.42820445870E+00 -0.10920443042E+01 -0.13057514859E+00  0.11802413695E+01  0.00000000000E+00 0. -1.
         11    1    3    3    0    0  0.47334932682E+01  0.64788618360E+01  0.25240066451E+01  0.84114338263E+01  0.51100000000E-03 0. -1.
        -11    1    3    3    0    0 -0.38957770391E+00  0.37647793528E+02 -0.60951157642E+01  0.38139986429E+02  0.51100000000E-03 0.  1.
         12    1    3    3    0    0 -0.47721200230E+01 -0.43034611060E+02  0.37016842677E+01  0.43456338376E+02  0.00000000000E+00 0. -1.
</event>
<event>
 7    1  0.4520336E-015  0.9000773E+02  0.7816164E-02  0.1186339E+00
        -11   -1    0    0    0    0  0.00000000000E+00  0.00000000000E+00  0.45593999997E+02  0.45594000000E+02  0.51100000000E-03 0.  1.
         11   -1    0    0    0    0 -0.00000000000E+00 -0.00000000000E+00 -0.45593999997E+02  0.45594000000E+02  0.51100000000E-03 0. -1.
    9900012    2    1    2    0    0 -0.65577381936E+00 -0.98123041598E+00  0.13498276010E-01  0.90007731118E+02  0.89999992368E+02 0.  0.
         12    1    1    2    0    0  0.65577381936E+00  0.98123041598E+00 -0.13498276010E-01  0.11802688824E+01  0.00000000000E+00 0. -1.
         11    1    3    3    0    0 -0.14846803013E+02  0.14771469130E+02 -0.29783456080E+02  0.36409862899E+02  0.51100000000E-03 0. -1.
        -11    1    3    3    0    0  0.14381766850E+01  0.49594766500E+01 -0.74787339911E+01  0.90882464309E+01  0.51100000000E-03 0.  1.
        -12    1    3    3    0    0  0.12752852509E+02 -0.20712176196E+02  0.37275688347E+02  0.44509621788E+02  0.00000000000E+00 0.  1.
</event>
<event>
 7    1  0.4520336E-015  0.9000773E+02  0.7816164E-02  0.1186339E+00
        -11   -1    0    0    0    0  0.00000000000E+00  0.00000000000E+00  0.45593999997E+02  0.45594000000E+02  0.51100000000E-03 0. -1.
         11   -1    0    0    0    0 -0.00000000000E+00 -0.00000000000E+00 -0.45593999997E+02  0.45594000000E+02  0.51100000000E-03 0.  1.
    9900012    2    1    2    0    0  0.54175396053E+00  0.84470011043E+00 -0.62130432119E+00  0.90007731094E+02  0.89999992345E+02 0.  0.
         12    1    1    2    0    0 -0.54175396053E+00 -0.84470011043E+00  0.62130432119E+00  0.11802689057E+01  0.00000000000E+00 0. -1.
         11    1    3    3    0    0 -0.14479347626E+01  0.44883721323E+01  0.85190501215E+01  0.97373617941E+01  0.51100000000E-03 0. -1.
        -11    1    3    3    0    0 -0.33271222589E+02 -0.19872710699E+02 -0.13881557733E+02  0.41165477386E+02  0.51100000000E-03 0.  1.
         12    1    3    3    0    0  0.35260911312E+02  0.16229038677E+02  0.47412032900E+01  0.39104891914E+02  0.00000000000E+00 0. -1.
</event>
<event>
 7    1  0.4520336E-015  0.9000796E+02  0.7816164E-02  0.1186339E+00
        -11   -1    0    0    0    0  0.00000000000E+00  0.00000000000E+00  0.45593999997E+02  0.45594000000E+02  0.51100000000E-03 0.  1.
         11   -1    0    0    0    0 -0.00000000000E+00 -0.00000000000E+00 -0.45593999997E+02  0.45594000000E+02  0.51100000000E-03 0. -1.
    9900012    2    1    2    0    0  0.11116273342E+01  0.37246927860E+00  0.13435652050E+00  0.90007957472E+02  0.90000221710E+02 0.  0.
         12    1    1    2    0    0 -0.11116273342E+01 -0.37246927860E+00 -0.13435652050E+00  0.11800425281E+01  0.00000000000E+00 0. -1.
         11    1    3    3    0    0 -0.44369477695E+01 -0.58187321221E+01  0.57094807116E+01  0.92812886646E+01  0.51100000000E-03 0. -1.
        -11    1    3    3    0    0  0.60182442107E+01 -0.33885698206E+02  0.12690410900E+02  0.36681144139E+02  0.51100000000E-03 0.  1.
         12    1    3    3    0    0 -0.46966910702E+00  0.40076899607E+02 -0.18265535091E+02  0.44045524668E+02  0.00000000000E+00 0. -1.
</event>
<event>
 7    1  0.4520336E-015  0.9000779E+02  0.7816164E-02  0.1186339E+00
        -11   -1    0    0    0    0  0.00000000000E+00  0.00000000000E+00  0.45593999997E+02  0.45594000000E+02  0.51100000000E-03 0. -1.
         11   -1    0    0    0    0 -0.00000000000E+00 -0.00000000000E+00 -0.45593999997E+02  0.45594000000E+02  0.51100000000E-03 0.  1.
    9900012    2    1    2    0    0  0.53804129979E+00  0.63801490911E+00  0.83447016552E+00  0.90007791577E+02  0.90000053626E+02 0.  0.
         12    1    1    2    0    0 -0.53804129979E+00 -0.63801490911E+00 -0.83447016552E+00  0.11802084230E+01  0.00000000000E+00 0. -1.
         11    1    3    3    0    0  0.94568801419E+01  0.17566394758E+01  0.12633923898E+01  0.97012640856E+01  0.51100000000E-03 0. -1.
        -11    1    3    3    0    0  0.64845861610E+01  0.19975744301E+02 -0.32654308568E+02  0.38825044577E+02  0.51100000000E-03 0.  1.
         12    1    3    3    0    0 -0.15403425003E+02 -0.21094368868E+02  0.32225386344E+02  0.41481482914E+02  0.00000000000E+00 0. -1.
</event>
<event>
 7    1  0.4520336E-015  0.9000775E+02  0.7816164E-02  0.1186339E+00
        -11   -1    0    0    0    0  0.00000000000E+00  0.00000000000E+00  0.45593999997E+02  0.45594000000E+02  0.51100000000E-03 0.  1.
         11   -1    0    0    0    0 -0.00000000000E+00 -0.00000000000E+00 -0.45593999997E+02  0.45594000000E+02  0.51100000000E-03 0. -1.
    9900012    2    1    2    0    0 -0.13988574925E+00  0.36856842347E+00  0.11124644637E+01  0.90007750921E+02  0.90000012433E+02 0.  0.
         12    1    1    2    0    0  0.13988574925E+00 -0.36856842347E+00 -0.11124644637E+01  0.11802490790E+01  0.00000000000E+00 0. -1.
         11    1    3    3    0    0 -0.25577991911E+02 -0.24415233143E+02  0.12272421925E+02  0.37429261545E+02  0.51100000000E-03 0. -1.
        -11    1    3    3    0    0 -0.44159039808E+01 -0.53505354772E+01 -0.71632483148E+01  0.99719889962E+01  0.51100000000E-03 0.  1.
        -12    1    3    3    0    0  0.29854010143E+02  0.30134337043E+02 -0.39967091464E+01  0.42606500380E+02  0.00000000000E+00 0.  1.
</event>
<event>
 7    1  0.4520336E-015  0.9000762E+02  0.7816164E-02  0.1186339E+00
        -11   -1    0    0    0    0  0.00000000000E+00  0.00000000000E+00  0.45593999997E+02  0.45594000000E+02  0.51100000000E-03 0.  1.
         11   -1    0    0    0    0 -0.00000000000E+00 -0.00000000000E+00 -0.45593999997E+02  0.45594000000E+02  0.51100000000E-03 0. -1.
    9900012    2    1    2    0    0  0.11017442544E+01  0.25982530945E-01 -0.42281997025E+00  0.90007622001E+02  0.89999881811E+02 0.  0.
         12    1    1    2    0    0 -0.11017442544E+01 -0.25982530945E-01  0.42281997025E+00  0.11803779993E+01  0.00000000000E+00 0. -1.
         11    1    3    3    0    0 -0.25338974136E+02  0.52571396397E+01 -0.27101891756E+02  0.37472839023E+02  0.51100000000E-03 0. -1.
        -11    1    3    3    0    0 -0.33974868507E+01 -0.10243528318E+02 -0.18495958935E+01  0.10949602483E+02  0.51100000000E-03 0.  1.
        -12    1    3    3    0    0  0.29838205241E+02  0.50123712098E+01  0.28528667680E+02  0.41585180494E+02  0.00000000000E+00 0.  1.
</event>
<event>
 7    1  0.4520336E-015  0.9000768E+02  0.7816164E-02  0.1186339E+00
        -11   -1    0    0    0    0  0.00000000000E+00  0.00000000000E+00  0.45593999997E+02  0.45594000000E+02  0.51100000000E-03 0.  1.
         11   -1    0    0    0    0 -0.00000000000E+00 -0.00000000000E+00 -0.45593999997E+02  0.45594000000E+02  0.51100000000E-03 0. -1.
    9900012    2    1    2    0    0 -0.99142239536E+00  0.63066548285E+00  0.11180943719E+00  0.90007678574E+02  0.89999939132E+02 0.  0.
         12    1    1    2    0    0  0.99142239536E+00 -0.63066548285E+00 -0.11180943719E+00  0.11803214255E+01  0.00000000000E+00 0. -1.
         11    1    3    3    0    0  0.31897029503E+01  0.19346101060E+01  0.83046681794E+01  0.91040889168E+01  0.51100000000E-03 0. -1.
        -11    1    3    3    0    0 -0.33208379406E+02 -0.15803568597E+02  0.16322396428E+02  0.40236424650E+02  0.51100000000E-03 0.  1.
         12    1    3    3    0    0  0.29027254061E+02  0.14499623974E+02 -0.24515255171E+02  0.40667165008E+02  0.00000000000E+00 0. -1.
</event>
<event>
 7    1  0.4520336E-015  0.9000772E+02  0.7816164E-02  0.1186339E+00
        -11   -1    0    0    0    0  0.00000000000E+00  0.00000000000E+00  0.45593999997E+02  0.45594000000E+02  0.51100000000E-03 0.  1.
         11   -1    0    0    0    0 -0.00000000000E+00 -0.00000000000E+00 -0.45593999997E+02  0.45594000000E+02  0.51100000000E-03 0. -1.
    9900012    2    1    2    0    0 -0.11107456198E+01 -0.80384430458E-01 -0.39095191627E+00  0.90007719995E+02  0.89999981099E+02 0.  0.
         12    1    1    2    0    0  0.11107456198E+01  0.80384430458E-01  0.39095191627E+00  0.11802800046E+01  0.00000000000E+00 0. -1.
         11    1    3    3    0    0 -0.52453748474E+00 -0.83134647798E+01 -0.24595475800E+00  0.83336264748E+01  0.51100000000E-03 0. -1.
        -11    1    3    3    0    0  0.36839493505E+02  0.10780566568E+02 -0.15158084940E+02  0.41269073609E+02  0.51100000000E-03 0.  1.
         12    1    3    3    0    0 -0.37425701640E+02 -0.25474862185E+01  0.15013087782E+02  0.40405019911E+02  0.00000000000E+00 0. -1.
</event>
<event>
 7    1  0.4520336E-015  0.9000802E+02  0.7816164E-02  0.1186338E+00
        -11   -1    0    0    0    0  0.00000000000E+00  0.00000000000E+00  0.45593999997E+02  0.45594000000E+02  0.51100000000E-03 0.  1.
         11   -1    0    0    0    0 -0.00000000000E+00 -0.00000000000E+00 -0.45593999997E+02  0.45594000000E+02  0.51100000000E-03 0. -1.
    9900012    2    1    2    0    0 -0.21572609186E+00 -0.11258090753E+01  0.27992618541E+00  0.90008024369E+02  0.90000289490E+02 0.  0.
         12    1    1    2    0    0  0.21572609186E+00  0.11258090753E+01 -0.27992618541E+00  0.11799756311E+01  0.00000000000E+00 0. -1.
         11    1    3    3    0    0  0.96526724603E+01  0.14751482145E+02 -0.31933745314E+02  0.36476628150E+02  0.51100000000E-03 0. -1.
        -11    1    3    3    0    0  0.12245715202E+01 -0.66348978793E+01 -0.81982325964E+01  0.10617554485E+02  0.51100000000E-03 0.  1.
        -12    1    3    3    0    0 -0.11092970072E+02 -0.92423933411E+01  0.40411904096E+02  0.42913841734E+02  0.00000000000E+00 0.  1.
</event>
<event>
 7    1  0.4520336E-015  0.9000778E+02  0.7816164E-02  0.1186339E+00
        -11   -1    0    0    0    0  0.00000000000E+00  0.00000000000E+00  0.45593999997E+02  0.45594000000E+02  0.51100000000E-03 0. -1.
         11   -1    0    0    0    0 -0.00000000000E+00 -0.00000000000E+00 -0.45593999997E+02  0.45594000000E+02  0.51100000000E-03 0.  1.
    9900012    2    1    2    0    0  0.64263268125E+00 -0.17981877255E+00 -0.97345697517E+00  0.90007775430E+02  0.90000037265E+02 0.  0.
         12    1    1    2    0    0 -0.64263268125E+00  0.17981877255E+00  0.97345697517E+00  0.11802245704E+01  0.00000000000E+00 0. -1.
         11    1    3    3    0    0 -0.52176674768E+01 -0.79323307572E+01  0.49858814265E+01  0.10724035574E+02  0.51100000000E-03 0. -1.
        -11    1    3    3    0    0  0.23628485323E+02 -0.35309417782E+01 -0.35634362564E+02  0.42901989046E+02  0.51100000000E-03 0.  1.
         12    1    3    3    0    0 -0.17768185165E+02  0.11283453763E+02  0.29675024163E+02  0.36381750809E+02  0.00000000000E+00 0. -1.
</event>
<event>
 7    1  0.4520336E-015  0.9000765E+02  0.7816164E-02  0.1186339E+00
        -11   -1    0    0    0    0  0.00000000000E+00  0.00000000000E+00  0.45593999997E+02  0.45594000000E+02  0.51100000000E-03 0.  1.
         11   -1    0    0    0    0 -0.00000000000E+00 -0.00000000000E+00 -0.45593999997E+02  0.45594000000E+02  0.51100000000E-03 0. -1.
    9900012    2    1    2    0    0  0.79975372698E+00  0.58135646637E+00  0.64470450801E+00  0.90007650362E+02  0.89999910547E+02 0.  0.
         12    1    1    2    0    0 -0.79975372698E+00 -0.58135646637E+00 -0.64470450801E+00  0.11803496378E+01  0.00000000000E+00 0. -1.
         11    1    3    3    0    0 -0.61488283163E+01  0.39926851063E+01  0.56942067285E+01  0.92829744451E+01  0.51100000000E-03 0. -1.
        -11    1    3    3    0    0 -0.10581264169E+02  0.97009456692E+00  0.35112567146E+02  0.36685100609E+02  0.51100000000E-03 0.  1.
         12    1    3    3    0    0  0.17529846212E+02 -0.43814232069E+01 -0.40162069366E+02  0.44039575308E+02  0.00000000000E+00 0. -1.
</event>
<event>
 7    1  0.4520336E-015  0.9000771E+02  0.7816164E-02  0.1186339E+00
        -11   -1    0    0    0    0  0.00000000000E+00  0.00000000000E+00  0.45593999997E+02  0.45594000000E+02  0.51100000000E-03 0.  1.
         11   -1    0    0    0    0 -0.00000000000E+00 -0.00000000000E+00 -0.45593999997E+02  0.45594000000E+02  0.51100000000E-03 0. -1.
    9900012    2    1    2    0    0 -0.62252830916E+00 -0.92485927229E+00  0.38752006463E+00  0.90007712760E+02  0.89999973768E+02 0.  0.
         12    1    1    2    0    0  0.62252830916E+00  0.92485927229E+00 -0.38752006463E+00  0.11802872404E+01  0.00000000000E+00 0. -1.
         11    1    3    3    0    0 -0.80149219828E+01  0.33685289087E+01 -0.10119107595E+01  0.87527095831E+01  0.51100000000E-03 0. -1.
        -11    1    3    3    0    0  0.45191481570E+01 -0.28861680111E+02 -0.29605344831E+02  0.41592015120E+02  0.51100000000E-03 0.  1.
         12    1    3    3    0    0  0.28732455167E+01  0.24568291930E+02  0.31004775655E+02  0.39662988057E+02  0.00000000000E+00 0. -1.
</event>
<event>
 7    1  0.4520336E-015  0.9000770E+02  0.7816164E-02  0.1186339E+00
        -11   -1    0    0    0    0  0.00000000000E+00  0.00000000000E+00  0.45593999997E+02  0.45594000000E+02  0.51100000000E-03 0.  1.
         11   -1    0    0    0    0 -0.00000000000E+00 -0.00000000000E+00 -0.45593999997E+02  0.45594000000E+02  0.51100000000E-03 0. -1.
    9900012    2    1    2    0    0  0.68113995670E+00  0.89989145892E+00  0.34546559682E+00  0.90007702259E+02  0.89999963129E+02 0.  0.
         12    1    1    2    0    0 -0.68113995670E+00 -0.89989145892E+00 -0.34546559682E+00  0.11802977408E+01  0.00000000000E+00 0. -1.
         11    1    3    3    0    0 -0.25011205807E+02 -0.11161101181E+02 -0.27476230197E+02  0.38795280919E+02  0.51100000000E-03 0. -1.
        -11    1    3    3    0    0 -0.45500294137E+00  0.15425754272E+02  0.46615266523E+01  0.16121127552E+02  0.51100000000E-03 0.  1.
        -12    1    3    3    0    0  0.26147348705E+02 -0.33647616325E+01  0.23160169141E+02  0.35091293789E+02  0.00000000000E+00 0.  1.
</event>
<event>
 7    1  0.4520336E-015  0.9000780E+02  0.7816164E-02  0.1186339E+00
        -11   -1    0    0    0    0  0.00000000000E+00  0.00000000000E+00  0.45593999997E+02  0.45594000000E+02  0.51100000000E-03 0.  1.
         11   -1    0    0    0    0 -0.00000000000E+00 -0.00000000000E+00 -0.45593999997E+02  0.45594000000E+02  0.51100000000E-03 0. -1.
    9900012    2    1    2    0    0  0.79467174882E+00  0.22126810330E+00  0.84403745913E+00  0.90007804256E+02  0.90000066472E+02 0.  0.
         12    1    1    2    0    0 -0.79467174882E+00 -0.22126810330E+00 -0.84403745913E+00  0.11801957441E+01  0.00000000000E+00 0. -1.
         11    1    3    3    0    0  0.30889446246E+02 -0.18420483413E+02  0.12972621655E+02  0.38232983292E+02  0.51100000000E-03 0. -1.
        -11    1    3    3    0    0  0.82237614437E+01  0.47704868023E+01 -0.34128443827E+01  0.10101252579E+02  0.51100000000E-03 0.  1.
        -12    1    3    3    0    0 -0.38318535941E+02  0.13871264714E+02 -0.87157398135E+01  0.41673568385E+02  0.00000000000E+00 0.  1.
</event>
<event>
 7    1  0.4520336E-015  0.9000770E+02  0.7816164E-02  0.1186339E+00
        -11   -1    0    0    0    0  0.00000000000E+00  0.00000000000E+00  0.45593999997E+02  0.45594000000E+02  0.51100000000E-03 0. -1.
         11   -1    0    0    0    0 -0.00000000000E+00 -0.00000000000E+00 -0.45593999997E+02  0.45594000000E+02  0.51100000000E-03 0.  1.
    9900012    2    1    2    0    0  0.82224673969E+00 -0.84554705986E+00  0.45444062851E-01  0.90007701439E+02  0.89999962298E+02 0.  0.
         12    1    1    2    0    0 -0.82224673969E+00  0.84554705986E+00 -0.45444062851E-01  0.11802985615E+01  0.00000000000E+00 0. -1.
         11    1    3    3    0    0 -0.31921348501E+02  0.30327096090E+01 -0.19774145114E+02  0.37672093557E+02  0.51100000000E-03 0. -1.
        -11    1    3    3    0    0 -0.67631239860E+01 -0.55046579596E+01  0.19020100057E+01  0.89251749352E+01  0.51100000000E-03 0.  1.
        -12    1    3    3    0    0  0.39506719227E+02  0.16264012908E+01  0.17917579171E+02  0.43410432946E+02  0.00000000000E+00 0.  1.
</event>
<event>
 7    1  0.4520336E-015  0.9000768E+02  0.7816164E-02  0.1186339E+00
        -11   -1    0    0    0    0  0.00000000000E+00  0.00000000000E+00  0.45593999997E+02  0.45594000000E+02  0.51100000000E-03 0. -1.
         11   -1    0    0    0    0 -0.00000000000E+00 -0.00000000000E+00 -0.45593999997E+02  0.45594000000E+02  0.51100000000E-03 0.  1.
    9900012    2    1    2    0    0 -0.20053846142E+00  0.32076082518E+00 -0.11180613380E+01  0.90007676173E+02  0.89999936698E+02 0.  0.
         12    1    1    2    0    0  0.20053846142E+00 -0.32076082518E+00  0.11180613380E+01  0.11803238272E+01  0.00000000000E+00 0. -1.
         11    1    3    3    0    0 -0.89765723941E+01 -0.21904484010E+01  0.26585766977E+01  0.96148295078E+01  0.51100000000E-03 0. -1.
        -11    1    3    3    0    0 -0.19711132198E+01 -0.14052454254E+02 -0.38176935499E+02  0.40728800157E+02  0.51100000000E-03 0.  1.
         12    1    3    3    0    0  0.10747147153E+02  0.16563663480E+02  0.34400297463E+02  0.39664046508E+02  0.00000000000E+00 0. -1.
</event>
<event>
 7    1  0.4520336E-015  0.9000769E+02  0.7816164E-02  0.1186339E+00
        -11   -1    0    0    0    0  0.00000000000E+00  0.00000000000E+00  0.45593999997E+02  0.45594000000E+02  0.51100000000E-03 0.  1.
         11   -1    0    0    0    0 -0.00000000000E+00 -0.00000000000E+00 -0.45593999997E+02  0.45594000000E+02  0.51100000000E-03 0. -1.
    9900012    2    1    2    0    0 -0.10571533452E+01  0.63545659061E-01 -0.52106737725E+00  0.90007693914E+02  0.89999954673E+02 0.  0.
         12    1    1    2    0    0  0.10571533452E+01 -0.63545659061E-01  0.52106737725E+00  0.11803060865E+01  0.00000000000E+00 0. -1.
         11    1    3    3    0    0 -0.39181743851E+02  0.99443493482E+01 -0.11727616715E+02  0.42090808132E+02  0.51100000000E-03 0. -1.
        -11    1    3    3    0    0 -0.13881961770E+00 -0.54747155000E+01  0.74097924449E+01  0.92139462246E+01  0.51100000000E-03 0.  1.
        -12    1    3    3    0    0  0.38263410123E+02 -0.44060881891E+01  0.37967568932E+01  0.38702939556E+02  0.00000000000E+00 0.  1.
</event>
<event>
 7    1  0.4520336E-015  0.9000773E+02  0.7816164E-02  0.1186339E+00
        -11   -1    0    0    0    0  0.00000000000E+00  0.00000000000E+00  0.45593999997E+02  0.45594000000E+02  0.51100000000E-03 0.  1.
         11   -1    0    0    0    0 -0.00000000000E+00 -0.00000000000E+00 -0.45593999997E+02  0.45594000000E+02  0.51100000000E-03 0. -1.
    9900012    2    1    2    0    0 -0.10590583162E+01 -0.37396675561E+00 -0.36273643157E+00  0.90007731653E+02  0.89999992911E+02 0.  0.
         12    1    1    2    0    0  0.10590583162E+01  0.37396675561E+00  0.36273643157E+00  0.11802683467E+01  0.00000000000E+00 0. -1.
         11    1    3    3    0    0 -0.28448067019E+01 -0.59070060611E+01  0.17077158659E+01  0.67750970116E+01  0.51100000000E-03 0. -1.
        -11    1    3    3    0    0  0.25288289119E+02 -0.25253789281E+02  0.17548827518E+02  0.39814730780E+02  0.51100000000E-03 0.  1.
         12    1    3    3    0    0 -0.23502540733E+02  0.30786828586E+02 -0.19619279815E+02  0.43417903862E+02  0.00000000000E+00 0. -1.
</event>
<event>
 7    1  0.4520336E-015  0.9000775E+02  0.7816164E-02  0.1186339E+00
        -11   -1    0    0    0    0  0.00000000000E+00  0.00000000000E+00  0.45593999997E+02  0.45594000000E+02  0.51100000000E-03 0. -1.
         11   -1    0    0    0    0 -0.00000000000E+00 -0.00000000000E+00 -0.45593999997E+02  0.45594000000E+02  0.51100000000E-03 0.  1.
    9900012    2    1    2    0    0 -0.82197285402E+00 -0.27311927744E+00 -0.80172730859E+00  0.90007745710E+02  0.90000007153E+02 0.  0.
         12    1    1    2    0    0  0.82197285402E+00  0.27311927744E+00  0.80172730859E+00  0.11802542903E+01  0.00000000000E+00 0. -1.
         11    1    3    3    0    0  0.82645645972E+01  0.29725246810E+02  0.20633744281E+02  0.37116636826E+02  0.51100000000E-03 0. -1.
        -11    1    3    3    0    0 -0.28332005090E+01  0.77647887025E+01  0.13054329176E+01  0.83679820794E+01  0.51100000000E-03 0.  1.
        -12    1    3    3    0    0 -0.62533369422E+01 -0.37763154790E+02 -0.22740904508E+02  0.44523126805E+02  0.00000000000E+00 0.  1.
</event>
<event>
 7    1  0.4520336E-015  0.9000777E+02  0.7816164E-02  0.1186339E+00
        -11   -1    0    0    0    0  0.00000000000E+00  0.00000000000E+00  0.45593999997E+02  0.45594000000E+02  0.51100000000E-03 0. -1.
         11   -1    0    0    0    0 -0.00000000000E+00 -0.00000000000E+00 -0.45593999997E+02  0.45594000000E+02  0.51100000000E-03 0.  1.
    9900012    2    1    2    0    0  0.76271040889E+00  0.69558262547E+00  0.57217753810E+00  0.90007767187E+02  0.90000028914E+02 0.  0.
         12    1    1    2    0    0 -0.76271040889E+00 -0.69558262547E+00 -0.57217753810E+00  0.11802328125E+01  0.00000000000E+00 0. -1.
         11    1    3    3    0    0 -0.20374228107E+02  0.12693178821E+02  0.31939376039E+02  0.39954345215E+02  0.51100000000E-03 0. -1.
        -11    1    3    3    0    0 -0.60932004160E+01  0.41012873030E+01 -0.51872406165E+01  0.89919471932E+01  0.51100000000E-03 0.  1.
        -12    1    3    3    0    0  0.27230138932E+02 -0.16098883498E+02 -0.26179957885E+02  0.41061474779E+02  0.00000000000E+00 0.  1.
</event>
<event>
 7    1  0.4520336E-015  0.9000764E+02  0.7816164E-02  0.1186339E+00
        -11   -1    0    0    0    0  0.00000000000E+00  0.00000000000E+00  0.45593999997E+02  0.45594000000E+02  0.51100000000E-03 0.  1.
         11   -1    0    0    0    0 -0.00000000000E+00 -0.00000000000E+00 -0.45593999997E+02  0.45594000000E+02  0.51100000000E-03 0. -1.
    9900012    2    1    2    0    0  0.85933268237E+00  0.32495051498E+00 -0.74107585692E+00  0.90007644578E+02  0.89999904687E+02 0.  0.
         12    1    1    2    0    0 -0.85933268237E+00 -0.32495051498E+00  0.74107585692E+00  0.11803554218E+01  0.00000000000E+00 0. -1.
         11    1    3    3    0    0  0.43309467353E+01 -0.32388325940E+02 -0.22914596876E+02  0.39910393472E+02  0.51100000000E-03 0. -1.
        -11    1    3    3    0    0 -0.84394140101E+01 -0.28937774051E+01  0.34866139471E+01  0.95788377992E+01  0.51100000000E-03 0.  1.
        -12    1    3    3    0    0  0.49677999572E+01  0.35607053860E+02  0.18686907072E+02  0.40518413307E+02  0.00000000000E+00 0.  1.
</event>
<event>
 7    1  0.4520336E-015  0.9000771E+02  0.7816164E-02  0.1186339E+00
        -11   -1    0    0    0    0  0.00000000000E+00  0.00000000000E+00  0.45593999997E+02  0.45594000000E+02  0.51100000000E-03 0. -1.
         11   -1    0    0    0    0 -0.00000000000E+00 -0.00000000000E+00 -0.45593999997E+02  0.45594000000E+02  0.51100000000E-03 0.  1.
    9900012    2    1    2    0    0  0.14514534535E+00  0.23951193593E+00 -0.11465821100E+01  0.90007710343E+02  0.89999971320E+02 0.  0.
         12    1    1    2    0    0 -0.14514534535E+00 -0.23951193593E+00  0.11465821100E+01  0.11802896567E+01  0.00000000000E+00 0. -1.
         11    1    3    3    0    0  0.19794800441E+02 -0.27628230684E+02 -0.19763286516E+02  0.39315909622E+02  0.51100000000E-03 0. -1.
        -11    1    3    3    0    0  0.64162056177E+01 -0.26265187101E+01  0.39437135134E+01  0.79761627114E+01  0.51100000000E-03 0.  1.
        -12    1    3    3    0    0 -0.26065860714E+02  0.30494261330E+02  0.14672990893E+02  0.42715638010E+02  0.00000000000E+00 0.  1.
</event>
<event>
 7    1  0.4520336E-015  0.9000769E+02  0.7816164E-02  0.1186339E+00
        -11   -1    0    0    0    0  0.00000000000E+00  0.00000000000E+00  0.45593999997E+02  0.45594000000E+02  0.51100000000E-03 0.  1.
         11   -1    0    0    0    0 -0.00000000000E+00 -0.00000000000E+00 -0.45593999997E+02  0.45594000000E+02  0.51100000000E-03 0. -1.
    9900012    2    1    2    0    0  0.37624483152E+00 -0.10572449831E+01 -0.36579953897E+00  0.90007687995E+02  0.89999948676E+02 0.  0.
         12    1    1    2    0    0 -0.37624483152E+00  0.10572449831E+01  0.36579953897E+00  0.11803120055E+01  0.00000000000E+00 0. -1.
         11    1    3    3    0    0 -0.96580676520E+01  0.98023973208E+00  0.15497951188E+01  0.98306157424E+01  0.51100000000E-03 0. -1.
        -11    1    3    3    0    0 -0.28423455331E+02 -0.20053008933E+02  0.97683110316E+01  0.36130816222E+02  0.51100000000E-03 0.  1.
         12    1    3    3    0    0  0.38457767814E+02  0.18015524218E+02 -0.11683905689E+02  0.44046256030E+02  0.00000000000E+00 0. -1.
</event>
<event>
 7    1  0.4520336E-015  0.9000748E+02  0.7816164E-02  0.1186340E+00
        -11   -1    0    0    0    0  0.00000000000E+00  0.00000000000E+00  0.45593999997E+02  0.45594000000E+02  0.51100000000E-03 0.  1.
         11   -1    0    0    0    0 -0.00000000000E+00 -0.00000000000E+00 -0.45593999997E+02  0.45594000000E+02  0.51100000000E-03 0. -1.
    9900012    2    1    2    0    0 -0.29297670738E+00 -0.11429749237E+01  0.37327015118E-01  0.90007483023E+02  0.89999740998E+02 0.  0.
         12    1    1    2    0    0  0.29297670738E+00  0.11429749237E+01 -0.37327015118E-01  0.11805169772E+01  0.00000000000E+00 0. -1.
         11    1    3    3    0    0  0.31422946943E+02 -0.21946704091E+02 -0.51664990247E+01  0.38674954783E+02  0.51100000000E-03 0. -1.
        -11    1    3    3    0    0 -0.84279924736E+01 -0.84574840778E+01 -0.43951667965E+01  0.12723112257E+02  0.51100000000E-03 0.  1.
        -12    1    3    3    0    0 -0.23287931177E+02  0.29261213246E+02  0.95989928364E+01  0.38609415983E+02  0.00000000000E+00 0.  1.
</event>
<event>
 7    1  0.4520336E-015  0.9000772E+02  0.7816164E-02  0.1186339E+00
        -11   -1    0    0    0    0  0.00000000000E+00  0.00000000000E+00  0.45593999997E+02  0.45594000000E+02  0.51100000000E-03 0.  1.
         11   -1    0    0    0    0 -0.00000000000E+00 -0.00000000000E+00 -0.45593999997E+02  0.45594000000E+02  0.51100000000E-03 0. -1.
    9900012    2    1    2    0    0 -0.10160291253E+01 -0.46051932365E+00 -0.38556797586E+00  0.90007722111E+02  0.89999983243E+02 0.  0.
         12    1    1    2    0    0  0.10160291253E+01  0.46051932365E+00  0.38556797586E+00  0.11802778888E+01  0.00000000000E+00 0. -1.
         11    1    3    3    0    0  0.16964985453E+02  0.72051095696E+01  0.30333939965E+02  0.35494679170E+02  0.51100000000E-03 0. -1.
        -11    1    3    3    0    0  0.47543850980E+01 -0.33372000212E+01  0.77095993485E+01  0.96529272253E+01  0.51100000000E-03 0.  1.
        -12    1    3    3    0    0 -0.22735399676E+02 -0.43284288720E+01 -0.38429107290E+02  0.44860115716E+02  0.00000000000E+00 0.  1.
</event>
<event>
 7    1  0.4520336E-015  0.9000775E+02  0.7816164E-02  0.1186339E+00
        -11   -1    0    0    0    0  0.00000000000E+00  0.00000000000E+00  0.45593999997E+02  0.45594000000E+02  0.51100000000E-03 0.  1.
         11   -1    0    0    0    0 -0.00000000000E+00 -0.00000000000E+00 -0.45593999997E+02  0.45594000000E+02  0.51100000000E-03 0. -1.
    9900012    2    1    2    0    0  0.28008773159E+00 -0.46432067460E-01  0.11455906388E+01  0.90007752998E+02  0.90000014537E+02 0.  0.
         12    1    1    2    0    0 -0.28008773159E+00  0.46432067460E-01 -0.11455906388E+01  0.11802470021E+01  0.00000000000E+00 0. -1.
         11    1    3    3    0    0 -0.44857823717E+01  0.10693788489E+02  0.90582936502E+00  0.11631847783E+02  0.51100000000E-03 0. -1.
        -11    1    3    3    0    0 -0.28179907444E+02  0.16251476267E+02  0.11188064737E+02  0.34400442689E+02  0.51100000000E-03 0.  1.
         12    1    3    3    0    0  0.32945777547E+02 -0.26991696824E+02 -0.10948303463E+02  0.43975462526E+02  0.00000000000E+00 0. -1.
</event>
<event>
 7    1  0.4520336E-015  0.9000772E+02  0.7816164E-02  0.1186339E+00
        -11   -1    0    0    0    0  0.00000000000E+00  0.00000000000E+00  0.45593999997E+02  0.45594000000E+02  0.51100000000E-03 0. -1.
         11   -1    0    0    0    0 -0.00000000000E+00 -0.00000000000E+00 -0.45593999997E+02  0.45594000000E+02  0.51100000000E-03 0.  1.
    9900012    2    1    2    0    0  0.32013492046E+00  0.50964941830E+00 -0.10152959605E+01  0.90007722582E+02  0.89999983720E+02 0.  0.
         12    1    1    2    0    0 -0.32013492046E+00 -0.50964941830E+00  0.10152959605E+01  0.11802774184E+01  0.00000000000E+00 0. -1.
         11    1    3    3    0    0 -0.10554659747E+02  0.76644079349E+01  0.28831855066E+02  0.31645218568E+02  0.51100000000E-03 0. -1.
        -11    1    3    3    0    0  0.63280263216E+00  0.10658715792E+02  0.92938781177E+01  0.14155734959E+02  0.51100000000E-03 0.  1.
        -12    1    3    3    0    0  0.10241992035E+02 -0.17813474308E+02 -0.39141029145E+02  0.44206769055E+02  0.00000000000E+00 0.  1.
</event>
<event>
 7    1  0.4520336E-015  0.9000772E+02  0.7816164E-02  0.1186339E+00
        -11   -1    0    0    0    0  0.00000000000E+00  0.00000000000E+00  0.45593999997E+02  0.45594000000E+02  0.51100000000E-03 0.  1.
         11   -1    0    0    0    0 -0.00000000000E+00 -0.00000000000E+00 -0.45593999997E+02  0.45594000000E+02  0.51100000000E-03 0. -1.
    9900012    2    1    2    0    0 -0.58017009035E+00 -0.10134179903E+01 -0.17157269530E+00  0.90007724377E+02  0.89999985539E+02 0.  0.
         12    1    1    2    0    0  0.58017009035E+00  0.10134179903E+01  0.17157269530E+00  0.11802756231E+01  0.00000000000E+00 0. -1.
         11    1    3    3    0    0 -0.29660477149E+01  0.51312404284E+00  0.94741219089E+01  0.99408109094E+01  0.51100000000E-03 0. -1.
        -11    1    3    3    0    0  0.24268533097E+02 -0.26723556194E+02  0.14472141633E+02  0.38891554842E+02  0.51100000000E-03 0.  1.
         12    1    3    3    0    0 -0.21882655473E+02  0.25197014161E+02 -0.24117836237E+02  0.41175358625E+02  0.00000000000E+00 0. -1.
</event>
<event>
 7    1  0.4520336E-015  0.9000768E+02  0.7816164E-02  0.1186339E+00
        -11   -1    0    0    0    0  0.00000000000E+00  0.00000000000E+00  0.45593999997E+02  0.45594000000E+02  0.51100000000E-03 0. -1.
         11   -1    0    0    0    0 -0.00000000000E+00 -0.00000000000E+00 -0.45593999997E+02  0.45594000000E+02  0.51100000000E-03 0.  1.
    9900012    2    1    2    0    0  0.10047473755E+01  0.33055202279E+00 -0.52380614244E+00  0.90007680211E+02  0.89999940790E+02 0.  0.
         12    1    1    2    0    0 -0.10047473755E+01 -0.33055202279E+00  0.52380614244E+00  0.11803197885E+01  0.00000000000E+00 0. -1.
         11    1    3    3    0    0  0.39729723536E+01  0.10199196073E+02  0.36975589467E+00  0.10951932686E+02  0.51100000000E-03 0. -1.
        -11    1    3    3    0    0 -0.34023248147E+02  0.55522821305E+01 -0.19602864577E+02  0.39657049199E+02  0.51100000000E-03 0.  1.
         12    1    3    3    0    0  0.31055023169E+02 -0.15420926181E+02  0.18709302540E+02  0.39398698327E+02  0.00000000000E+00 0. -1.
</event>
<event>
 7    1  0.4520336E-015  0.9000771E+02  0.7816164E-02  0.1186339E+00
        -11   -1    0    0    0    0  0.00000000000E+00  0.00000000000E+00  0.45593999997E+02  0.45594000000E+02  0.51100000000E-03 0.  1.
         11   -1    0    0    0    0 -0.00000000000E+00 -0.00000000000E+00 -0.45593999997E+02  0.45594000000E+02  0.51100000000E-03 0. -1.
    9900012    2    1    2    0    0  0.13113709017E-01 -0.36938515791E-01  0.11796376954E+01  0.90007711257E+02  0.89999972246E+02 0.  0.
         12    1    1    2    0    0 -0.13113709017E-01  0.36938515791E-01 -0.11796376954E+01  0.11802887425E+01  0.00000000000E+00 0. -1.
         11    1    3    3    0    0  0.18416148482E+02 -0.26186311968E+02 -0.26311966497E+02  0.41439076252E+02  0.51100000000E-03 0. -1.
        -11    1    3    3    0    0 -0.42152326563E+01 -0.42127062518E+01  0.73724934684E+01  0.94799124739E+01  0.51100000000E-03 0.  1.
        -12    1    3    3    0    0 -0.14187802117E+02  0.30362079704E+02  0.20119110724E+02  0.39088722532E+02  0.00000000000E+00 0.  1.
</event>
<event>
 7    1  0.4520336E-015  0.9000761E+02  0.7816164E-02  0.1186339E+00
        -11   -1    0    0    0    0  0.00000000000E+00  0.00000000000E+00  0.45593999997E+02  0.45594000000E+02  0.51100000000E-03 0. -1.
         11   -1    0    0    0    0 -0.00000000000E+00 -0.00000000000E+00 -0.45593999997E+02  0.45594000000E+02  0.51100000000E-03 0.  1.
    9900012    2    1    2    0    0  0.36530928402E-01  0.85329216776E+00 -0.81478299005E+00  0.90007613049E+02  0.89999872742E+02 0.  0.
         12    1    1    2    0    0 -0.36530928402E-01 -0.85329216776E+00  0.81478299005E+00  0.11803869506E+01  0.00000000000E+00 0. -1.
         11    1    3    3    0    0  0.82033316908E+00 -0.23406828393E+01 -0.92240801932E+01  0.95517222706E+01  0.51100000000E-03 0. -1.
        -11    1    3    3    0    0  0.18694140517E+02  0.31935889375E+02 -0.13511810997E+02  0.39394681830E+02  0.51100000000E-03 0.  1.
         12    1    3    3    0    0 -0.19477942757E+02 -0.28741914368E+02  0.21921108200E+02  0.41061208949E+02  0.00000000000E+00 0. -1.
</event>
<event>
 7    1  0.4520336E-015  0.9000773E+02  0.7816164E-02  0.1186339E+00
        -11   -1    0    0    0    0  0.00000000000E+00  0.00000000000E+00  0.45593999997E+02  0.45594000000E+02  0.51100000000E-03 0.  1.
         11   -1    0    0    0    0 -0.00000000000E+00 -0.00000000000E+00 -0.45593999997E+02  0.45594000000E+02  0.51100000000E-03 0. -1.
    9900012    2    1    2    0    0 -0.82745711425E+00  0.76741543682E+00  0.34559402293E+00  0.90007725897E+02  0.89999987079E+02 0.  0.
         12    1    1    2    0    0  0.82745711425E+00 -0.76741543682E+00 -0.34559402293E+00  0.11802741026E+01  0.00000000000E+00 0. -1.
         11    1    3    3    0    0  0.26860819800E+02 -0.12957518738E+02  0.16648639221E+02  0.34155206343E+02  0.51100000000E-03 0. -1.
        -11    1    3    3    0    0  0.92902934535E+01 -0.62404453895E+01 -0.54575905275E+01  0.12451425852E+02  0.51100000000E-03 0.  1.
        -12    1    3    3    0    0 -0.36978570368E+02  0.19965379564E+02 -0.10845454670E+02  0.43401093703E+02  0.00000000000E+00 0.  1.
</event>
<event>
 7    1  0.4520336E-015  0.9000767E+02  0.7816164E-02  0.1186339E+00
        -11   -1    0    0    0    0  0.00000000000E+00  0.00000000000E+00  0.45593999997E+02  0.45594000000E+02  0.51100000000E-03 0.  1.
         11   -1    0    0    0    0 -0.00000000000E+00 -0.00000000000E+00 -0.45593999997E+02  0.45594000000E+02  0.51100000000E-03 0. -1.
    9900012    2    1    2    0    0 -0.64958755130E+00 -0.73486081655E+00  0.65665133123E+00  0.90007671496E+02  0.89999931960E+02 0.  0.
         12    1    1    2    0    0  0.64958755130E+00  0.73486081655E+00 -0.65665133123E+00  0.11803285040E+01  0.00000000000E+00 0. -1.
         11    1    3    3    0    0 -0.66514225216E+01 -0.23116736289E+02  0.21640332796E+02  0.32356281029E+02  0.51100000000E-03 0. -1.
        -11    1    3    3    0    0 -0.15966058165E+02 -0.61553935774E+01 -0.29099682996E+01  0.17357182928E+02  0.51100000000E-03 0.  1.
        -12    1    3    3    0    0  0.21967893135E+02  0.28537269050E+02 -0.18073713166E+02  0.40294207539E+02  0.00000000000E+00 0.  1.
</event>
<event>
 7    1  0.4520336E-015  0.9000761E+02  0.7816164E-02  0.1186339E+00
        -11   -1    0    0    0    0  0.00000000000E+00  0.00000000000E+00  0.45593999997E+02  0.45594000000E+02  0.51100000000E-03 0. -1.
         11   -1    0    0    0    0 -0.00000000000E+00 -0.00000000000E+00 -0.45593999997E+02  0.45594000000E+02  0.51100000000E-03 0.  1.
    9900012    2    1    2    0    0  0.45087780228E+00 -0.78336267051E+00 -0.75918564544E+00  0.90007614169E+02  0.89999873876E+02 0.  0.
         12    1    1    2    0    0 -0.45087780228E+00  0.78336267051E+00  0.75918564544E+00  0.11803858312E+01  0.00000000000E+00 0. -1.
         11    1    3    3    0    0 -0.20615199257E+02 -0.19482659729E+02  0.12276461322E+02  0.30907474394E+02  0.51100000000E-03 0. -1.
        -11    1    3    3    0    0  0.40644083869E+00 -0.16527772861E+02 -0.11755359889E+01  0.16574509194E+02  0.51100000000E-03 0.  1.
        -12    1    3    3    0    0  0.20659636221E+02  0.35227069919E+02 -0.11860110979E+02  0.42525630581E+02  0.00000000000E+00 0.  1.
</event>
<event>
 7    1  0.4520336E-015  0.9000771E+02  0.7816164E-02  0.1186339E+00
        -11   -1    0    0    0    0  0.00000000000E+00  0.00000000000E+00  0.45593999997E+02  0.45594000000E+02  0.51100000000E-03 0. -1.
         11   -1    0    0    0    0 -0.00000000000E+00 -0.00000000000E+00 -0.45593999997E+02  0.45594000000E+02  0.51100000000E-03 0.  1.
    9900012    2    1    2    0    0 -0.10004168957E+01  0.15411328034E+00 -0.60704452991E+00  0.90007708540E+02  0.89999969493E+02 0.  0.
         12    1    1    2    0    0  0.10004168957E+01 -0.15411328034E+00  0.60704452991E+00  0.11802914596E+01  0.00000000000E+00 0. -1.
         11    1    3    3    0    0 -0.15560060792E+02  0.66082868847E+01 -0.61348306817E+00  0.16916303058E+02  0.51100000000E-03 0. -1.
        -11    1    3    3    0    0 -0.17696118422E+02 -0.28762858893E+02  0.19278450429E+01  0.33825600448E+02  0.51100000000E-03 0.  1.
         12    1    3    3    0    0  0.32255762319E+02  0.22308685288E+02 -0.19214065047E+01  0.39265805035E+02  0.00000000000E+00 0. -1.
</event>
<event>
 7    1  0.4520336E-015  0.9000749E+02  0.7816164E-02  0.1186340E+00
        -11   -1    0    0    0    0  0.00000000000E+00  0.00000000000E+00  0.45593999997E+02  0.45594000000E+02  0.51100000000E-03 0.  1.
         11   -1    0    0    0    0 -0.00000000000E+00 -0.00000000000E+00 -0.45593999997E+02  0.45594000000E+02  0.51100000000E-03 0. -1.
    9900012    2    1    2    0    0 -0.86254853392E+00  0.45188175071E+00  0.66740037610E+00  0.90007487250E+02  0.89999745282E+02 0.  0.
         12    1    1    2    0    0  0.86254853392E+00 -0.45188175071E+00 -0.66740037610E+00  0.11805127496E+01  0.00000000000E+00 0. -1.
         11    1    3    3    0    0  0.29631070283E+01  0.57592087844E+01  0.54277238583E+01  0.84503654138E+01  0.51100000000E-03 0. -1.
        -11    1    3    3    0    0  0.29913757986E+02 -0.30938064749E+01  0.22958789825E+02  0.37835308718E+02  0.51100000000E-03 0.  1.
         12    1    3    3    0    0 -0.33739413548E+02 -0.22135205589E+01 -0.27719113307E+02  0.43721813118E+02  0.00000000000E+00 0. -1.
</event>
<event>
 7    1  0.4520336E-015  0.9000776E+02  0.7816164E-02  0.1186339E+00
        -11   -1    0    0    0    0  0.00000000000E+00  0.00000000000E+00  0.45593999997E+02  0.45594000000E+02  0.51100000000E-03 0.  1.
         11   -1    0    0    0    0 -0.00000000000E+00 -0.00000000000E+00 -0.45593999997E+02  0.45594000000E+02  0.51100000000E-03 0. -1.
    9900012    2    1    2    0    0  0.11318110431E+01  0.63902147353E-01 -0.32844639309E+00  0.90007764110E+02  0.90000025797E+02 0.  0.
         12    1    1    2    0    0 -0.11318110431E+01 -0.63902147353E-01  0.32844639309E+00  0.11802358895E+01  0.00000000000E+00 0. -1.
         11    1    3    3    0    0 -0.97671480417E+01  0.34814017387E+01  0.23456759901E+00  0.10371709654E+02  0.51100000000E-03 0. -1.
        -11    1    3    3    0    0  0.25009772861E+01  0.35757810441E+02  0.11749186616E+02  0.37721602316E+02  0.51100000000E-03 0.  1.
         12    1    3    3    0    0  0.83979817987E+01 -0.39175310032E+02 -0.12312200608E+02  0.41914452140E+02  0.00000000000E+00 0. -1.
</event>
<event>
 7    1  0.4520336E-015  0.9000782E+02  0.7816164E-02  0.1186339E+00
        -11   -1    0    0    0    0  0.00000000000E+00  0.00000000000E+00  0.45593999997E+02  0.45594000000E+02  0.51100000000E-03 0.  1.
         11   -1    0    0    0    0 -0.00000000000E+00 -0.00000000000E+00 -0.45593999997E+02  0.45594000000E+02  0.51100000000E-03 0. -1.
    9900012    2    1    2    0    0  0.18672530140E+00 -0.68379224650E+00 -0.94360384707E+00  0.90007819338E+02  0.90000081753E+02 0.  0.
         12    1    1    2    0    0 -0.18672530140E+00  0.68379224650E+00  0.94360384707E+00  0.11801806619E+01  0.00000000000E+00 0. -1.
         11    1    3    3    0    0  0.25748204037E+02  0.25331915083E+02 -0.55274003111E+00  0.36124527052E+02  0.51100000000E-03 0. -1.
        -11    1    3    3    0    0  0.41996288839E+01  0.57506429883E+01  0.67030591785E+01  0.97794570479E+01  0.51100000000E-03 0.  1.
        -12    1    3    3    0    0 -0.29761107620E+02 -0.31766350318E+02 -0.70939229944E+01  0.44103835238E+02  0.00000000000E+00 0.  1.
</event>
<event>
 7    1  0.4520336E-015  0.9000760E+02  0.7816164E-02  0.1186339E+00
        -11   -1    0    0    0    0  0.00000000000E+00  0.00000000000E+00  0.45593999997E+02  0.45594000000E+02  0.51100000000E-03 0.  1.
         11   -1    0    0    0    0 -0.00000000000E+00 -0.00000000000E+00 -0.45593999997E+02  0.45594000000E+02  0.51100000000E-03 0. -1.
    9900012    2    1    2    0    0 -0.91117630618E+00  0.12859104402E+00  0.73929942616E+00  0.90007601102E+02  0.89999860636E+02 0.  0.
         12    1    1    2    0    0  0.91117630618E+00 -0.12859104402E+00 -0.73929942616E+00  0.11803988983E+01  0.00000000000E+00 0. -1.
         11    1    3    3    0    0 -0.62603744445E+01  0.91949222167E+01 -0.21116697693E+01  0.11322456987E+02  0.51100000000E-03 0. -1.
        -11    1    3    3    0    0 -0.71552857817E+01  0.31375785302E+02  0.13715215857E+02  0.34982069181E+02  0.51100000000E-03 0.  1.
         12    1    3    3    0    0  0.12504483920E+02 -0.40442116475E+02 -0.10864246662E+02  0.43703074933E+02  0.00000000000E+00 0. -1.
</event>
<event>
 7    1  0.4520336E-015  0.9000770E+02  0.7816164E-02  0.1186339E+00
        -11   -1    0    0    0    0  0.00000000000E+00  0.00000000000E+00  0.45593999997E+02  0.45594000000E+02  0.51100000000E-03 0. -1.
         11   -1    0    0    0    0 -0.00000000000E+00 -0.00000000000E+00 -0.45593999997E+02  0.45594000000E+02  0.51100000000E-03 0.  1.
    9900012    2    1    2    0    0  0.10848350216E+00 -0.90177432783E+00  0.75375932083E+00  0.90007695496E+02  0.89999956276E+02 0.  0.
         12    1    1    2    0    0 -0.10848350216E+00  0.90177432783E+00 -0.75375932083E+00  0.11803045041E+01  0.00000000000E+00 0. -1.
         11    1    3    3    0    0  0.11607575672E+02 -0.98859885746E+01  0.35082078579E+02  0.38252069497E+02  0.51100000000E-03 0. -1.
        -11    1    3    3    0    0 -0.90902859645E+01 -0.83915010567E+01  0.89729246054E+00  0.12403859195E+02  0.51100000000E-03 0.  1.
        -12    1    3    3    0    0 -0.24088062058E+01  0.17375715303E+02 -0.35225611719E+02  0.39351766804E+02  0.00000000000E+00 0.  1.
</event>
<event>
 7    1  0.4520336E-015  0.9000788E+02  0.7816164E-02  0.1186339E+00
        -11   -1    0    0    0    0  0.00000000000E+00  0.00000000000E+00  0.45593999997E+02  0.45594000000E+02  0.51100000000E-03 0.  1.
         11   -1    0    0    0    0 -0.00000000000E+00 -0.00000000000E+00 -0.45593999997E+02  0.45594000000E+02  0.51100000000E-03 0. -1.
    9900012    2    1    2    0    0 -0.38936307062E+00  0.13112781840E+00  0.11062952909E+01  0.90007878237E+02  0.90000141429E+02 0.  0.
         12    1    1    2    0    0  0.38936307062E+00 -0.13112781840E+00 -0.11062952909E+01  0.11801217633E+01  0.00000000000E+00 0. -1.
         11    1    3    3    0    0 -0.43063693564E+01  0.29048490852E+01 -0.74527638494E+01  0.90844182256E+01  0.51100000000E-03 0. -1.
        -11    1    3    3    0    0  0.15940116408E+02  0.36091604512E+02  0.54276686390E+00  0.39458659677E+02  0.51100000000E-03 0.  1.
         12    1    3    3    0    0 -0.12023110122E+02 -0.38865325779E+02  0.80162922764E+01  0.41464800334E+02  0.00000000000E+00 0. -1.
</event>
<event>
 7    1  0.4520336E-015  0.9000789E+02  0.7816164E-02  0.1186339E+00
        -11   -1    0    0    0    0  0.00000000000E+00  0.00000000000E+00  0.45593999997E+02  0.45594000000E+02  0.51100000000E-03 0.  1.
         11   -1    0    0    0    0 -0.00000000000E+00 -0.00000000000E+00 -0.45593999997E+02  0.45594000000E+02  0.51100000000E-03 0. -1.
    9900012    2    1    2    0    0  0.51855415404E+00 -0.81548382556E+00 -0.67730612332E+00  0.90007891588E+02  0.90000154956E+02 0.  0.
         12    1    1    2    0    0 -0.51855415404E+00  0.81548382556E+00  0.67730612332E+00  0.11801084124E+01  0.00000000000E+00 0. -1.
         11    1    3    3    0    0 -0.18866623194E+02  0.82890897959E+00 -0.32589042816E+02  0.37665398879E+02  0.51100000000E-03 0. -1.
        -11    1    3    3    0    0 -0.69789191808E+01 -0.31668196529E+01 -0.32867671741E+01  0.83388787234E+01  0.51100000000E-03 0.  1.
        -12    1    3    3    0    0  0.26364096528E+02  0.15224268478E+01  0.35198503867E+02  0.44003613985E+02  0.00000000000E+00 0.  1.
</event>
<event>
 7    1  0.4520336E-015  0.9000765E+02  0.7816164E-02  0.1186339E+00
        -11   -1    0    0    0    0  0.00000000000E+00  0.00000000000E+00  0.45593999997E+02  0.45594000000E+02  0.51100000000E-03 0.  1.
         11   -1    0    0    0    0 -0.00000000000E+00 -0.00000000000E+00 -0.45593999997E+02  0.45594000000E+02  0.51100000000E-03 0. -1.
    9900012    2    1    2    0    0 -0.80688004872E+00  0.80053954062E+00 -0.31827070002E+00  0.90007654624E+02  0.89999914865E+02 0.  0.
         12    1    1    2    0    0  0.80688004872E+00 -0.80053954062E+00  0.31827070002E+00  0.11803453764E+01  0.00000000000E+00 0. -1.
         11    1    3    3    0    0 -0.40420394129E+01  0.74676890443E+01 -0.50613276629E+01  0.98854185672E+01  0.51100000000E-03 0. -1.
        -11    1    3    3    0    0  0.34206077732E+02  0.15762766256E+02 -0.10273759750E+02  0.39039348016E+02  0.51100000000E-03 0.  1.
         12    1    3    3    0    0 -0.30970918368E+02 -0.22429915760E+02  0.15016816713E+02  0.41082888040E+02  0.00000000000E+00 0. -1.
</event>
<event>
 7    1  0.4520336E-015  0.9000768E+02  0.7816164E-02  0.1186339E+00
        -11   -1    0    0    0    0  0.00000000000E+00  0.00000000000E+00  0.45593999997E+02  0.45594000000E+02  0.51100000000E-03 0.  1.
         11   -1    0    0    0    0 -0.00000000000E+00 -0.00000000000E+00 -0.45593999997E+02  0.45594000000E+02  0.51100000000E-03 0. -1.
    9900012    2    1    2    0    0  0.64877331613E+00  0.12940968696E+00  0.97750195814E+00  0.90007676417E+02  0.89999936946E+02 0.  0.
         12    1    1    2    0    0 -0.64877331613E+00 -0.12940968696E+00 -0.97750195814E+00  0.11803235832E+01  0.00000000000E+00 0. -1.
         11    1    3    3    0    0  0.15284004452E+02  0.42504655697E+01 -0.31290965264E+02  0.35082641820E+02  0.51100000000E-03 0. -1.
        -11    1    3    3    0    0  0.36566305955E+01  0.10707586079E+01 -0.88432298498E+01  0.96291321388E+01  0.51100000000E-03 0.  1.
        -12    1    3    3    0    0 -0.18291861732E+02 -0.51918144907E+01  0.41111697072E+02  0.45295902458E+02  0.00000000000E+00 0.  1.
</event>
<event>
 7    1  0.4520336E-015  0.9000779E+02  0.7816164E-02  0.1186339E+00
        -11   -1    0    0    0    0  0.00000000000E+00  0.00000000000E+00  0.45593999997E+02  0.45594000000E+02  0.51100000000E-03 0. -1.
         11   -1    0    0    0    0 -0.00000000000E+00 -0.00000000000E+00 -0.45593999997E+02  0.45594000000E+02  0.51100000000E-03 0.  1.
    9900012    2    1    2    0    0  0.27887088730E+00 -0.10181906634E+01 -0.52765871045E+00  0.90007786073E+02  0.90000048049E+02 0.  0.
         12    1    1    2    0    0 -0.27887088730E+00  0.10181906634E+01  0.52765871045E+00  0.11802139270E+01  0.00000000000E+00 0. -1.
         11    1    3    3    0    0  0.18684625138E+02  0.26567554184E+02  0.18684594123E+02  0.37470844795E+02  0.51100000000E-03 0. -1.
        -11    1    3    3    0    0  0.40709756949E+00  0.82447406991E+01 -0.49666342255E+01  0.96337393268E+01  0.51100000000E-03 0.  1.
        -12    1    3    3    0    0 -0.18812851820E+02 -0.35830485547E+02 -0.14245618607E+02  0.42903201951E+02  0.00000000000E+00 0.  1.
</event>
<event>
 7    1  0.4520336E-015  0.9000779E+02  0.7816164E-02  0.1186339E+00
        -11   -1    0    0    0    0  0.00000000000E+00  0.00000000000E+00  0.45593999997E+02  0.45594000000E+02  0.51100000000E-03 0. -1.
         11   -1    0    0    0    0 -0.00000000000E+00 -0.00000000000E+00 -0.45593999997E+02  0.45594000000E+02  0.51100000000E-03 0.  1.
    9900012    2    1    2    0    0  0.76345534990E+00  0.52348353095E+00 -0.73211565295E+00  0.90007791371E+02  0.90000053417E+02 0.  0.
         12    1    1    2    0    0 -0.76345534990E+00 -0.52348353095E+00  0.73211565295E+00  0.11802086289E+01  0.00000000000E+00 0. -1.
         11    1    3    3    0    0 -0.19979239877E+01  0.19832316644E+01  0.86407953330E+01  0.90878078953E+01  0.51100000000E-03 0. -1.
        -11    1    3    3    0    0 -0.95657306577E+00 -0.35776827749E+02  0.14852837607E+02  0.38749235103E+02  0.51100000000E-03 0.  1.
         12    1    3    3    0    0  0.37179524033E+01  0.34317079616E+02 -0.24225748593E+02  0.42170748373E+02  0.00000000000E+00 0. -1.
</event>
<event>
 7    1  0.4520336E-015  0.9000774E+02  0.7816164E-02  0.1186339E+00
        -11   -1    0    0    0    0  0.00000000000E+00  0.00000000000E+00  0.45593999997E+02  0.45594000000E+02  0.51100000000E-03 0.  1.
         11   -1    0    0    0    0 -0.00000000000E+00 -0.00000000000E+00 -0.45593999997E+02  0.45594000000E+02  0.51100000000E-03 0. -1.
    9900012    2    1    2    0    0  0.11245923499E+01 -0.10695869346E-01  0.35802415561E+00  0.90007744243E+02  0.90000005667E+02 0.  0.
         12    1    1    2    0    0 -0.11245923499E+01  0.10695869346E-01 -0.35802415561E+00  0.11802557566E+01  0.00000000000E+00 0. -1.
         11    1    3    3    0    0  0.19328148712E+01 -0.47735595324E+01  0.83309511270E+01  0.97942529515E+01  0.51100000000E-03 0. -1.
        -11    1    3    3    0    0  0.21445344184E+02  0.18882025364E+01  0.29509666005E+02  0.36527913764E+02  0.51100000000E-03 0.  1.
         12    1    3    3    0    0 -0.22253566706E+02  0.28746611266E+01 -0.37482592976E+02  0.43685577528E+02  0.00000000000E+00 0. -1.
</event>
<event>
 7    1  0.4520336E-015  0.9000781E+02  0.7816164E-02  0.1186339E+00
        -11   -1    0    0    0    0  0.00000000000E+00  0.00000000000E+00  0.45593999997E+02  0.45594000000E+02  0.51100000000E-03 0.  1.
         11   -1    0    0    0    0 -0.00000000000E+00 -0.00000000000E+00 -0.45593999997E+02  0.45594000000E+02  0.51100000000E-03 0. -1.
    9900012    2    1    2    0    0  0.84838772529E+00  0.21221273163E+00  0.79249016772E+00  0.90007814997E+02  0.90000077355E+02 0.  0.
         12    1    1    2    0    0 -0.84838772529E+00 -0.21221273163E+00 -0.79249016772E+00  0.11801850032E+01  0.00000000000E+00 0. -1.
         11    1    3    3    0    0  0.15551093024E+02  0.21235856006E+02 -0.23367347244E+02  0.35197031012E+02  0.51100000000E-03 0. -1.
        -11    1    3    3    0    0 -0.14950327669E+01  0.11109395433E+02 -0.19159170880E+01  0.11372094284E+02  0.51100000000E-03 0.  1.
        -12    1    3    3    0    0 -0.13207672532E+02 -0.32133038707E+02  0.26075754500E+02  0.43438689701E+02  0.00000000000E+00 0.  1.
</event>
<event>
 7    1  0.4520336E-015  0.9000776E+02  0.7816164E-02  0.1186339E+00
        -11   -1    0    0    0    0  0.00000000000E+00  0.00000000000E+00  0.45593999997E+02  0.45594000000E+02  0.51100000000E-03 0.  1.
         11   -1    0    0    0    0 -0.00000000000E+00 -0.00000000000E+00 -0.45593999997E+02  0.45594000000E+02  0.51100000000E-03 0. -1.
    9900012    2    1    2    0    0 -0.64735742258E-01 -0.11765117013E+01 -0.67830515299E-01  0.90007757873E+02  0.90000019477E+02 0.  0.
         12    1    1    2    0    0  0.64735742258E-01  0.11765117013E+01  0.67830515299E-01  0.11802421270E+01  0.00000000000E+00 0. -1.
         11    1    3    3    0    0 -0.35457561476E+02  0.66771416814E+01  0.62164381294E+01  0.36612388479E+02  0.51100000000E-03 0. -1.
        -11    1    3    3    0    0 -0.75557038745E+01 -0.44040406040E+01  0.31359314126E+01  0.92907642724E+01  0.51100000000E-03 0.  1.
        -12    1    3    3    0    0  0.42948529608E+02 -0.34496127787E+01 -0.94202000573E+01  0.44104605122E+02  0.00000000000E+00 0.  1.
</event>
<event>
 7    1  0.4520336E-015  0.9000794E+02  0.7816164E-02  0.1186339E+00
        -11   -1    0    0    0    0  0.00000000000E+00  0.00000000000E+00  0.45593999997E+02  0.45594000000E+02  0.51100000000E-03 0. -1.
         11   -1    0    0    0    0 -0.00000000000E+00 -0.00000000000E+00 -0.45593999997E+02  0.45594000000E+02  0.51100000000E-03 0.  1.
    9900012    2    1    2    0    0  0.21515506223E+00  0.10906403307E+01 -0.39593258110E+00  0.90007936171E+02  0.90000200128E+02 0.  0.
         12    1    1    2    0    0 -0.21515506223E+00 -0.10906403307E+01  0.39593258110E+00  0.11800638290E+01  0.00000000000E+00 0. -1.
         11    1    3    3    0    0 -0.12063361473E+02 -0.24452252927E+01 -0.18209130805E+01  0.12442650098E+02  0.51100000000E-03 0. -1.
        -11    1    3    3    0    0 -0.16681308290E+02  0.32288645121E+02  0.45982467743E+01  0.36632861254E+02  0.51100000000E-03 0.  1.
         12    1    3    3    0    0  0.28959824825E+02 -0.28752779497E+02 -0.31732662749E+01  0.40932424819E+02  0.00000000000E+00 0. -1.
</event>
<event>
 7    1  0.7054160E-015  0.9000776E+02  0.7816164E-02  0.1186339E+00
        -11   -1    0    0    0    0  0.00000000000E+00  0.00000000000E+00  0.45593999997E+02  0.45594000000E+02  0.51100000000E-03 0. -1.
         11   -1    0    0    0    0 -0.00000000000E+00 -0.00000000000E+00 -0.45593999997E+02  0.45594000000E+02  0.51100000000E-03 0.  1.
    9900012    2    1    2    0    0  0.40315397562E+00  0.96805535685E+00 -0.54157881850E+00  0.90007757686E+02  0.90000019288E+02 0.  0.
         12    1    1    2    0    0 -0.40315397562E+00 -0.96805535685E+00  0.54157881850E+00  0.11802423135E+01  0.00000000000E+00 0. -1.
         11    1    3    3    0    0  0.76313419977E+01  0.13077902986E+02  0.35585409127E+02  0.38672862193E+02  0.51100000000E-03 0. -1.
        -11    1    3    3    0    0 -0.70755661344E+01 -0.34345559935E+01  0.49886087101E+01  0.93137547809E+01  0.51100000000E-03 0.  1.
        -12    1    3    3    0    0 -0.15262188765E+00 -0.86752916358E+01 -0.41115596656E+02  0.42021140712E+02  0.00000000000E+00 0.  1.
</event>
<event>
 7    1  0.4520336E-015  0.9000774E+02  0.7816164E-02  0.1186339E+00
        -11   -1    0    0    0    0  0.00000000000E+00  0.00000000000E+00  0.45593999997E+02  0.45594000000E+02  0.51100000000E-03 0. -1.
         11   -1    0    0    0    0 -0.00000000000E+00 -0.00000000000E+00 -0.45593999997E+02  0.45594000000E+02  0.51100000000E-03 0.  1.
    9900012    2    1    2    0    0  0.65163136948E+00  0.94573043984E+00 -0.27198514905E+00  0.90007743491E+02  0.90000004905E+02 0.  0.
         12    1    1    2    0    0 -0.65163136948E+00 -0.94573043984E+00  0.27198514905E+00  0.11802565093E+01  0.00000000000E+00 0. -1.
         11    1    3    3    0    0  0.30879073836E+02  0.36929828552E+01  0.22267951297E+02  0.38249404944E+02  0.51100000000E-03 0. -1.
        -11    1    3    3    0    0  0.79845716851E+01  0.59521887581E+00 -0.59046550137E+01  0.99484984594E+01  0.51100000000E-03 0.  1.
        -12    1    3    3    0    0 -0.38212014151E+02 -0.33424712912E+01 -0.16635281432E+02  0.41809840088E+02  0.00000000000E+00 0.  1.
</event>
<event>
 7    1  0.4520336E-015  0.9000774E+02  0.7816164E-02  0.1186339E+00
        -11   -1    0    0    0    0  0.00000000000E+00  0.00000000000E+00  0.45593999997E+02  0.45594000000E+02  0.51100000000E-03 0.  1.
         11   -1    0    0    0    0 -0.00000000000E+00 -0.00000000000E+00 -0.45593999997E+02  0.45594000000E+02  0.51100000000E-03 0. -1.
    9900012    2    1    2    0    0  0.84634788243E+00  0.73902672818E+00 -0.36132833069E+00  0.90007735875E+02  0.89999997188E+02 0.  0.
         12    1    1    2    0    0 -0.84634788243E+00 -0.73902672818E+00  0.36132833069E+00  0.11802641254E+01  0.00000000000E+00 0. -1.
         11    1    3    3    0    0 -0.75222911399E-01  0.36846695558E+02 -0.13957433083E+02  0.39401707711E+02  0.51100000000E-03 0. -1.
        -11    1    3    3    0    0 -0.95319204711E+01  0.11862486705E+01  0.53920528972E+01  0.11015395067E+02  0.51100000000E-03 0.  1.
        -12    1    3    3    0    0  0.10453491265E+02 -0.37293917500E+02  0.82040518554E+01  0.39590633096E+02  0.00000000000E+00 0.  1.
</event>
<event>
 7    1  0.4520336E-015  0.9000785E+02  0.7816164E-02  0.1186339E+00
        -11   -1    0    0    0    0  0.00000000000E+00  0.00000000000E+00  0.45593999997E+02  0.45594000000E+02  0.51100000000E-03 0. -1.
         11   -1    0    0    0    0 -0.00000000000E+00 -0.00000000000E+00 -0.45593999997E+02  0.45594000000E+02  0.51100000000E-03 0.  1.
    9900012    2    1    2    0    0  0.44468874012E+00 -0.88100797624E+00 -0.64716745331E+00  0.90007852195E+02  0.90000115044E+02 0.  0.
         12    1    1    2    0    0 -0.44468874012E+00  0.88100797624E+00  0.64716745331E+00  0.11801478053E+01  0.00000000000E+00 0. -1.
         11    1    3    3    0    0  0.24608755233E+02  0.23037267155E+02 -0.25680422602E+02  0.42376769785E+02  0.51100000000E-03 0. -1.
        -11    1    3    3    0    0 -0.78685861734E+01 -0.17789664088E+01 -0.27727344799E+01  0.85303825594E+01  0.51100000000E-03 0.  1.
        -12    1    3    3    0    0 -0.16295480320E+02 -0.22139308722E+02  0.27805989629E+02  0.39100699850E+02  0.00000000000E+00 0.  1.
</event>
<event>
 7    1  0.4520336E-015  0.9000782E+02  0.7816164E-02  0.1186339E+00
        -11   -1    0    0    0    0  0.00000000000E+00  0.00000000000E+00  0.45593999997E+02  0.45594000000E+02  0.51100000000E-03 0.  1.
         11   -1    0    0    0    0 -0.00000000000E+00 -0.00000000000E+00 -0.45593999997E+02  0.45594000000E+02  0.51100000000E-03 0. -1.
    9900012    2    1    2    0    0  0.43411693309E+00 -0.96622333753E+00  0.52037171031E+00  0.90007817062E+02  0.90000079447E+02 0.  0.
         12    1    1    2    0    0 -0.43411693309E+00  0.96622333753E+00 -0.52037171031E+00  0.11801829377E+01  0.00000000000E+00 0. -1.
         11    1    3    3    0    0 -0.10762974552E+02 -0.65790758814E+01  0.39546816945E+01  0.13219885333E+02  0.51100000000E-03 0. -1.
        -11    1    3    3    0    0  0.39049575536E+02  0.16395542676E+02  0.10793060061E+02  0.43705529569E+02  0.51100000000E-03 0.  1.
         12    1    3    3    0    0 -0.27852484051E+02 -0.10782690132E+02 -0.14227370045E+02  0.33082402160E+02  0.00000000000E+00 0. -1.
</event>
<event>
 7    1  0.4520336E-015  0.9000773E+02  0.7816164E-02  0.1186339E+00
        -11   -1    0    0    0    0  0.00000000000E+00  0.00000000000E+00  0.45593999997E+02  0.45594000000E+02  0.51100000000E-03 0. -1.
         11   -1    0    0    0    0 -0.00000000000E+00 -0.00000000000E+00 -0.45593999997E+02  0.45594000000E+02  0.51100000000E-03 0.  1.
    9900012    2    1    2    0    0  0.11563560745E+01  0.32916116268E-01 -0.23406268240E+00  0.90007733852E+02  0.89999995138E+02 0.  0.
         12    1    1    2    0    0 -0.11563560745E+01 -0.32916116268E-01  0.23406268240E+00  0.11802661483E+01  0.00000000000E+00 0. -1.
         11    1    3    3    0    0  0.43080533264E+01 -0.67318391412E+01  0.41873603455E+01  0.90228027026E+01  0.51100000000E-03 0. -1.
        -11    1    3    3    0    0 -0.58683455937E+01 -0.34255973394E+02  0.11924709713E+02  0.36743814380E+02  0.51100000000E-03 0.  1.
         12    1    3    3    0    0  0.27166483417E+01  0.41020728652E+02 -0.16346132741E+02  0.44241116769E+02  0.00000000000E+00 0. -1.
</event>
<event>
 7    1  0.4520336E-015  0.9000773E+02  0.7816164E-02  0.1186339E+00
        -11   -1    0    0    0    0  0.00000000000E+00  0.00000000000E+00  0.45593999997E+02  0.45594000000E+02  0.51100000000E-03 0.  1.
         11   -1    0    0    0    0 -0.00000000000E+00 -0.00000000000E+00 -0.45593999997E+02  0.45594000000E+02  0.51100000000E-03 0. -1.
    9900012    2    1    2    0    0  0.61612830464E+00  0.14639673441E-01  0.10065789403E+01  0.90007733263E+02  0.89999994542E+02 0.  0.
         12    1    1    2    0    0 -0.61612830464E+00 -0.14639673441E-01 -0.10065789403E+01  0.11802667372E+01  0.00000000000E+00 0. -1.
         11    1    3    3    0    0 -0.66539834654E+01  0.10062784573E+02 -0.35216502776E+02  0.37225491231E+02  0.51100000000E-03 0. -1.
        -11    1    3    3    0    0 -0.76835338028E+01 -0.25743878165E+01 -0.41360257152E+01  0.90978499277E+01  0.51100000000E-03 0.  1.
        -12    1    3    3    0    0  0.14953645573E+02 -0.74737570827E+01  0.40359107432E+02  0.43684392104E+02  0.00000000000E+00 0.  1.
</event>
<event>
 7    1  0.4520336E-015  0.9000773E+02  0.7816164E-02  0.1186339E+00
        -11   -1    0    0    0    0  0.00000000000E+00  0.00000000000E+00  0.45593999997E+02  0.45594000000E+02  0.51100000000E-03 0.  1.
         11   -1    0    0    0    0 -0.00000000000E+00 -0.00000000000E+00 -0.45593999997E+02  0.45594000000E+02  0.51100000000E-03 0. -1.
    9900012    2    1    2    0    0  0.51534746304E-01 -0.11763671065E+01 -0.80872769919E-01  0.90007730622E+02  0.89999991866E+02 0.  0.
         12    1    1    2    0    0 -0.51534746304E-01  0.11763671065E+01  0.80872769919E-01  0.11802693779E+01  0.00000000000E+00 0. -1.
         11    1    3    3    0    0  0.88851687124E+00 -0.36252514982E+01 -0.10161316251E+02  0.10825167845E+02  0.51100000000E-03 0. -1.
        -11    1    3    3    0    0 -0.15095613005E+02 -0.29995041056E+02 -0.13952919817E+02  0.36362948060E+02  0.51100000000E-03 0.  1.
         12    1    3    3    0    0  0.14258630880E+02  0.32443925448E+02  0.24033363298E+02  0.42819614717E+02  0.00000000000E+00 0. -1.
</event>
<event>
 7    1  0.4520336E-015  0.9000779E+02  0.7816164E-02  0.1186339E+00
        -11   -1    0    0    0    0  0.00000000000E+00  0.00000000000E+00  0.45593999997E+02  0.45594000000E+02  0.51100000000E-03 0.  1.
         11   -1    0    0    0    0 -0.00000000000E+00 -0.00000000000E+00 -0.45593999997E+02  0.45594000000E+02  0.51100000000E-03 0. -1.
    9900012    2    1    2    0    0 -0.22435102048E+00  0.71162397948E+00  0.91441064336E+00  0.90007792860E+02  0.90000054926E+02 0.  0.
         12    1    1    2    0    0  0.22435102048E+00 -0.71162397948E+00 -0.91441064336E+00  0.11802071400E+01  0.00000000000E+00 0. -1.
         11    1    3    3    0    0 -0.67538437684E+01 -0.69392507932E+01 -0.27349790467E+01  0.10062192498E+02  0.51100000000E-03 0. -1.
        -11    1    3    3    0    0 -0.21585839339E+02 -0.14540643333E+02  0.26751740789E+02  0.37323376107E+02  0.51100000000E-03 0.  1.
         12    1    3    3    0    0  0.28115332086E+02  0.22191518106E+02 -0.23102351099E+02  0.42622224255E+02  0.00000000000E+00 0. -1.
</event>
<event>
 7    1  0.4520336E-015  0.9000772E+02  0.7816164E-02  0.1186339E+00
        -11   -1    0    0    0    0  0.00000000000E+00  0.00000000000E+00  0.45593999997E+02  0.45594000000E+02  0.51100000000E-03 0. -1.
         11   -1    0    0    0    0 -0.00000000000E+00 -0.00000000000E+00 -0.45593999997E+02  0.45594000000E+02  0.51100000000E-03 0.  1.
    9900012    2    1    2    0    0  0.26455519896E+00  0.10325329884E+01 -0.50689373880E+00  0.90007722453E+02  0.89999983589E+02 0.  0.
         12    1    1    2    0    0 -0.26455519896E+00 -0.10325329884E+01  0.50689373880E+00  0.11802775470E+01  0.00000000000E+00 0. -1.
         11    1    3    3    0    0  0.18671207319E+02  0.24365911134E+02  0.21962777743E+02  0.37744870043E+02  0.51100000000E-03 0. -1.
        -11    1    3    3    0    0  0.10389218043E+01 -0.33252120990E-01  0.86983886083E+01  0.87602756156E+01  0.51100000000E-03 0.  1.
        -12    1    3    3    0    0 -0.19445573924E+02 -0.23300126025E+02 -0.31168060090E+02  0.43502576794E+02  0.00000000000E+00 0.  1.
</event>
<event>
 7    1  0.4520336E-015  0.9000753E+02  0.7816164E-02  0.1186339E+00
        -11   -1    0    0    0    0  0.00000000000E+00  0.00000000000E+00  0.45593999997E+02  0.45594000000E+02  0.51100000000E-03 0. -1.
         11   -1    0    0    0    0 -0.00000000000E+00 -0.00000000000E+00 -0.45593999997E+02  0.45594000000E+02  0.51100000000E-03 0.  1.
    9900012    2    1    2    0    0  0.42943307852E+00  0.61048274014E+00 -0.91455227549E+00  0.90007530683E+02  0.89999789287E+02 0.  0.
         12    1    1    2    0    0 -0.42943307852E+00 -0.61048274014E+00  0.91455227549E+00  0.11804693175E+01  0.00000000000E+00 0. -1.
         11    1    3    3    0    0  0.93885646290E+00 -0.59494914466E+01 -0.75494792702E+01  0.96577708320E+01  0.51100000000E-03 0. -1.
        -11    1    3    3    0    0 -0.35396222511E+02 -0.12852796286E+02 -0.67173506111E+01  0.38251924657E+02  0.51100000000E-03 0.  1.
         12    1    3    3    0    0  0.34886799127E+02  0.19412770473E+02  0.13352277606E+02  0.42097835194E+02  0.00000000000E+00 0. -1.
</event>
<event>
 7    1  0.4520336E-015  0.9000816E+02  0.7816164E-02  0.1186338E+00
        -11   -1    0    0    0    0  0.00000000000E+00  0.00000000000E+00  0.45593999997E+02  0.45594000000E+02  0.51100000000E-03 0.  1.
         11   -1    0    0    0    0 -0.00000000000E+00 -0.00000000000E+00 -0.45593999997E+02  0.45594000000E+02  0.51100000000E-03 0. -1.
    9900012    2    1    2    0    0 -0.33176387822E+00 -0.11103745734E+01  0.22140056778E+00  0.90008162225E+02  0.90000429165E+02 0.  0.
         12    1    1    2    0    0  0.33176387822E+00  0.11103745734E+01 -0.22140056778E+00  0.11798377751E+01  0.00000000000E+00 0. -1.
         11    1    3    3    0    0 -0.26384608278E+01  0.24519081642E+02 -0.22401135275E+02  0.33316027704E+02  0.51100000000E-03 0. -1.
        -11    1    3    3    0    0  0.10642628951E+02 -0.72934814825E+00 -0.10131470911E+02  0.14712042781E+02  0.51100000000E-03 0.  1.
        -12    1    3    3    0    0 -0.83359320010E+01 -0.24900108067E+02  0.32754006754E+02  0.41980091740E+02  0.00000000000E+00 0.  1.
</event>
<event>
 7    1  0.4520336E-015  0.9000775E+02  0.7816164E-02  0.1186339E+00
        -11   -1    0    0    0    0  0.00000000000E+00  0.00000000000E+00  0.45593999997E+02  0.45594000000E+02  0.51100000000E-03 0.  1.
         11   -1    0    0    0    0 -0.00000000000E+00 -0.00000000000E+00 -0.45593999997E+02  0.45594000000E+02  0.51100000000E-03 0. -1.
    9900012    2    1    2    0    0 -0.43318168659E+00  0.10910596380E+01 -0.12216110311E+00  0.90007753906E+02  0.90000015458E+02 0.  0.
         12    1    1    2    0    0  0.43318168659E+00 -0.10910596380E+01  0.12216110311E+00  0.11802460940E+01  0.00000000000E+00 0. -1.
         11    1    3    3    0    0 -0.43457967077E+01 -0.48508935323E+01 -0.55219762906E+01  0.85386965927E+01  0.51100000000E-03 0. -1.
        -11    1    3    3    0    0 -0.37832423867E+01  0.30856500502E+02  0.31723517050E+02  0.44416416790E+02  0.51100000000E-03 0.  1.
         12    1    3    3    0    0  0.76958574078E+01 -0.24914547332E+02 -0.26323701862E+02  0.37052640523E+02  0.00000000000E+00 0. -1.
</event>
<event>
 7    1  0.4520336E-015  0.9000789E+02  0.7816164E-02  0.1186339E+00
        -11   -1    0    0    0    0  0.00000000000E+00  0.00000000000E+00  0.45593999997E+02  0.45594000000E+02  0.51100000000E-03 0.  1.
         11   -1    0    0    0    0 -0.00000000000E+00 -0.00000000000E+00 -0.45593999997E+02  0.45594000000E+02  0.51100000000E-03 0. -1.
    9900012    2    1    2    0    0 -0.80114896761E+00 -0.85203810371E+00  0.15767059578E+00  0.90007886185E+02  0.90000149483E+02 0.  0.
         12    1    1    2    0    0  0.80114896761E+00  0.85203810371E+00 -0.15767059578E+00  0.11801138145E+01  0.00000000000E+00 0. -1.
         11    1    3    3    0    0 -0.73518089043E+01  0.35050161988E+01 -0.90818727072E+01  0.12198960810E+02  0.51100000000E-03 0. -1.
        -11    1    3    3    0    0 -0.10651765508E+02  0.33734789602E+02  0.60632967934E+01  0.35892334923E+02  0.51100000000E-03 0.  1.
         12    1    3    3    0    0  0.17202425445E+02 -0.38091843905E+02  0.31762465095E+01  0.41916590452E+02  0.00000000000E+00 0. -1.
</event>
<event>
 7    1  0.4520336E-015  0.9000781E+02  0.7816164E-02  0.1186339E+00
        -11   -1    0    0    0    0  0.00000000000E+00  0.00000000000E+00  0.45593999997E+02  0.45594000000E+02  0.51100000000E-03 0.  1.
         11   -1    0    0    0    0 -0.00000000000E+00 -0.00000000000E+00 -0.45593999997E+02  0.45594000000E+02  0.51100000000E-03 0. -1.
    9900012    2    1    2    0    0  0.60300647749E+00  0.95187414713E+00  0.35096065980E+00  0.90007807393E+02  0.90000069651E+02 0.  0.
         12    1    1    2    0    0 -0.60300647749E+00 -0.95187414713E+00 -0.35096065980E+00  0.11801926066E+01  0.00000000000E+00 0. -1.
         11    1    3    3    0    0 -0.29890827130E+01  0.21997072953E+01  0.95533312554E+01  0.10248876328E+02  0.51100000000E-03 0. -1.
        -11    1    3    3    0    0  0.28226243808E+02 -0.13335587299E+02  0.22012172629E+02  0.38198095139E+02  0.51100000000E-03 0.  1.
         12    1    3    3    0    0 -0.24634154618E+02  0.12087754151E+02 -0.31214543225E+02  0.41560835926E+02  0.00000000000E+00 0. -1.
</event>
<event>
 7    1  0.4520336E-015  0.9000841E+02  0.7816164E-02  0.1186338E+00
        -11   -1    0    0    0    0  0.00000000000E+00  0.00000000000E+00  0.45593999997E+02  0.45594000000E+02  0.51100000000E-03 0.  1.
         11   -1    0    0    0    0 -0.00000000000E+00 -0.00000000000E+00 -0.45593999997E+02  0.45594000000E+02  0.51100000000E-03 0. -1.
    9900012    2    1    2    0    0  0.86671227885E+00 -0.45537973793E+00 -0.65793278325E+00  0.90008408364E+02  0.90000678552E+02 0.  0.
         12    1    1    2    0    0 -0.86671227885E+00  0.45537973793E+00  0.65793278325E+00  0.11795916358E+01  0.00000000000E+00 0. -1.
         11    1    3    3    0    0  0.26726330727E+01 -0.25823026009E+02 -0.28816591193E+02  0.38786177538E+02  0.51100000000E-03 0. -1.
        -11    1    3    3    0    0  0.83524970918E+01 -0.31829486011E+01 -0.12126346326E+01  0.90203022388E+01  0.51100000000E-03 0.  1.
        -12    1    3    3    0    0 -0.10158417886E+02  0.28550594872E+02  0.29371293042E+02  0.42201928587E+02  0.00000000000E+00 0.  1.
</event>
<event>
 7    1  0.4520336E-015  0.9000788E+02  0.7816164E-02  0.1186339E+00
        -11   -1    0    0    0    0  0.00000000000E+00  0.00000000000E+00  0.45593999997E+02  0.45594000000E+02  0.51100000000E-03 0. -1.
         11   -1    0    0    0    0 -0.00000000000E+00 -0.00000000000E+00 -0.45593999997E+02  0.45594000000E+02  0.51100000000E-03 0.  1.
    9900012    2    1    2    0    0  0.86887998167E+00 -0.71735866124E-01  0.79534668517E+00  0.90007883562E+02  0.90000146825E+02 0.  0.
         12    1    1    2    0    0 -0.86887998167E+00  0.71735866124E-01 -0.79534668517E+00  0.11801164378E+01  0.00000000000E+00 0. -1.
         11    1    3    3    0    0 -0.24490807630E+02 -0.22394373977E+02  0.15407795764E+02  0.36588356273E+02  0.51100000000E-03 0. -1.
        -11    1    3    3    0    0 -0.61023084739E+01 -0.35243202845E+01  0.45809295617E+01  0.84049936400E+01  0.51100000000E-03 0.  1.
        -12    1    3    3    0    0  0.31461996086E+02  0.25846958396E+02 -0.19193378641E+02  0.45014533649E+02  0.00000000000E+00 0.  1.
</event>
<event>
 7    1  0.4520336E-015  0.9000773E+02  0.7816164E-02  0.1186339E+00
        -11   -1    0    0    0    0  0.00000000000E+00  0.00000000000E+00  0.45593999997E+02  0.45594000000E+02  0.51100000000E-03 0. -1.
         11   -1    0    0    0    0 -0.00000000000E+00 -0.00000000000E+00 -0.45593999997E+02  0.45594000000E+02  0.51100000000E-03 0.  1.
    9900012    2    1    2    0    0 -0.54659339321E+00 -0.58945503481E+00 -0.86418838153E+00  0.90007727517E+02  0.89999988720E+02 0.  0.
         12    1    1    2    0    0  0.54659339321E+00  0.58945503481E+00  0.86418838153E+00  0.11802724831E+01  0.00000000000E+00 0. -1.
         11    1    3    3    0    0  0.13623767114E+02  0.30408349550E+02  0.10874125004E+02  0.35050268867E+02  0.51100000000E-03 0. -1.
        -11    1    3    3    0    0  0.31142410606E+01  0.92898635669E+01 -0.30894325111E+01  0.10273492881E+02  0.51100000000E-03 0.  1.
        -12    1    3    3    0    0 -0.17284601568E+02 -0.40287668152E+02 -0.86488808740E+01  0.44683965769E+02  0.00000000000E+00 0.  1.
</event>
<event>
 7    1  0.4520336E-015  0.9000777E+02  0.7816164E-02  0.1186339E+00
        -11   -1    0    0    0    0  0.00000000000E+00  0.00000000000E+00  0.45593999997E+02  0.45594000000E+02  0.51100000000E-03 0. -1.
         11   -1    0    0    0    0 -0.00000000000E+00 -0.00000000000E+00 -0.45593999997E+02  0.45594000000E+02  0.51100000000E-03 0.  1.
    9900012    2    1    2    0    0 -0.10634923044E+01  0.48888505006E+00 -0.15140732630E+00  0.90007767543E+02  0.90000029275E+02 0.  0.
         12    1    1    2    0    0  0.10634923044E+01 -0.48888505006E+00  0.15140732630E+00  0.11802324568E+01  0.00000000000E+00 0. -1.
         11    1    3    3    0    0  0.33921989459E+02 -0.12877922879E+02 -0.14624113963E+01  0.36313646387E+02  0.51100000000E-03 0. -1.
        -11    1    3    3    0    0  0.84542005596E+01  0.27708584649E+01 -0.78834761995E+00  0.89315539502E+01  0.51100000000E-03 0.  1.
        -12    1    3    3    0    0 -0.43439682323E+02  0.10595949464E+02  0.20993516900E+01  0.44762567206E+02  0.00000000000E+00 0.  1.
</event>
<event>
 7    1  0.4520336E-015  0.9000769E+02  0.7816164E-02  0.1186339E+00
        -11   -1    0    0    0    0  0.00000000000E+00  0.00000000000E+00  0.45593999997E+02  0.45594000000E+02  0.51100000000E-03 0.  1.
         11   -1    0    0    0    0 -0.00000000000E+00 -0.00000000000E+00 -0.45593999997E+02  0.45594000000E+02  0.51100000000E-03 0. -1.
    9900012    2    1    2    0    0 -0.11730902847E+01 -0.12848911567E+00  0.21911755803E-01  0.90007690552E+02  0.89999951267E+02 0.  0.
         12    1    1    2    0    0  0.11730902847E+01  0.12848911567E+00 -0.21911755803E-01  0.11803094484E+01  0.00000000000E+00 0. -1.
         11    1    3    3    0    0  0.19859035142E+01  0.34422744018E+01  0.47422353536E+01  0.61872338112E+01  0.51100000000E-03 0. -1.
        -11    1    3    3    0    0  0.34232117171E+02 -0.16086995799E+02 -0.18429813045E+02  0.42074782102E+02  0.51100000000E-03 0.  1.
         12    1    3    3    0    0 -0.37391110970E+02  0.12516232281E+02  0.13709489447E+02  0.41745674638E+02  0.00000000000E+00 0. -1.
</event>
<event>
 7    1  0.4520337E-015  0.9000765E+02  0.7816164E-02  0.1186339E+00
        -11   -1    0    0    0    0  0.00000000000E+00  0.00000000000E+00  0.45593999997E+02  0.45594000000E+02  0.51100000000E-03 0.  1.
         11   -1    0    0    0    0 -0.00000000000E+00 -0.00000000000E+00 -0.45593999997E+02  0.45594000000E+02  0.51100000000E-03 0. -1.
    9900012    2    1    2    0    0  0.18997772872E+00  0.89956383645E+00  0.74022175380E+00  0.90007646291E+02  0.89999906422E+02 0.  0.
         12    1    1    2    0    0 -0.18997772872E+00 -0.89956383645E+00 -0.74022175380E+00  0.11803537089E+01  0.00000000000E+00 0. -1.
         11    1    3    3    0    0 -0.86711676107E+01 -0.15340310864E+02 -0.32334886577E+02  0.36824708761E+02  0.51100000000E-03 0. -1.
        -11    1    3    3    0    0 -0.71868528770E+01  0.30080939599E+01 -0.53766674047E+01  0.94661521321E+01  0.51100000000E-03 0.  1.
        -12    1    3    3    0    0  0.16047998216E+02  0.13231780740E+02  0.38451775736E+02  0.43716785398E+02  0.00000000000E+00 0.  1.
</event>
<event>
 7    1  0.4520336E-015  0.9000774E+02  0.7816164E-02  0.1186339E+00
        -11   -1    0    0    0    0  0.00000000000E+00  0.00000000000E+00  0.45593999997E+02  0.45594000000E+02  0.51100000000E-03 0. -1.
         11   -1    0    0    0    0 -0.00000000000E+00 -0.00000000000E+00 -0.45593999997E+02  0.45594000000E+02  0.51100000000E-03 0.  1.
    9900012    2    1    2    0    0  0.11269560571E+01 -0.28290330628E+00  0.20721663698E+00  0.90007744532E+02  0.90000005960E+02 0.  0.
         12    1    1    2    0    0 -0.11269560571E+01  0.28290330628E+00 -0.20721663698E+00  0.11802554681E+01  0.00000000000E+00 0. -1.
         11    1    3    3    0    0 -0.97079073285E+01  0.10475383692E+01  0.39119657144E+01  0.10518758356E+02  0.51100000000E-03 0. -1.
        -11    1    3    3    0    0 -0.24638913923E+02  0.20285959553E+02 -0.16623874748E+02  0.35985406017E+02  0.51100000000E-03 0.  1.
         12    1    3    3    0    0  0.35473777308E+02 -0.21616401228E+02  0.12919125671E+02  0.43503580160E+02  0.00000000000E+00 0. -1.
</event>
<event>
 7    1  0.4520336E-015  0.9000786E+02  0.7816164E-02  0.1186339E+00
        -11   -1    0    0    0    0  0.00000000000E+00  0.00000000000E+00  0.45593999997E+02  0.45594000000E+02  0.51100000000E-03 0.  1.
         11   -1    0    0    0    0 -0.00000000000E+00 -0.00000000000E+00 -0.45593999997E+02  0.45594000000E+02  0.51100000000E-03 0. -1.
    9900012    2    1    2    0    0 -0.10685444024E+01  0.32629890317E+00  0.38010204201E+00  0.90007857773E+02  0.90000120695E+02 0.  0.
         12    1    1    2    0    0  0.10685444024E+01 -0.32629890317E+00 -0.38010204201E+00  0.11801422272E+01  0.00000000000E+00 0. -1.
         11    1    3    3    0    0  0.10498368246E+02 -0.75240188315E+01 -0.22854358759E+00  0.12918158833E+02  0.51100000000E-03 0. -1.
        -11    1    3    3    0    0  0.16510901520E+02 -0.11826611035E+02  0.27026070622E+02  0.33806613126E+02  0.51100000000E-03 0.  1.
         12    1    3    3    0    0 -0.28077814169E+02  0.19676928769E+02 -0.26417424992E+02  0.43283085813E+02  0.00000000000E+00 0. -1.
</event>
<event>
 7    1  0.4520336E-015  0.9000778E+02  0.7816164E-02  0.1186339E+00
        -11   -1    0    0    0    0  0.00000000000E+00  0.00000000000E+00  0.45593999997E+02  0.45594000000E+02  0.51100000000E-03 0. -1.
         11   -1    0    0    0    0 -0.00000000000E+00 -0.00000000000E+00 -0.45593999997E+02  0.45594000000E+02  0.51100000000E-03 0.  1.
    9900012    2    1    2    0    0 -0.54564092369E-01  0.10960668594E+01 -0.43426263901E+00  0.90007778055E+02  0.90000039925E+02 0.  0.
         12    1    1    2    0    0  0.54564092369E-01 -0.10960668594E+01  0.43426263901E+00  0.11802219453E+01  0.00000000000E+00 0. -1.
         11    1    3    3    0    0 -0.85969064715E+00 -0.75662762258E+01  0.58183912211E+01  0.95833856542E+01  0.51100000000E-03 0. -1.
        -11    1    3    3    0    0  0.21368415600E+02 -0.23307631864E+02 -0.22783129776E+02  0.38973399788E+02  0.51100000000E-03 0.  1.
         12    1    3    3    0    0 -0.20563289045E+02  0.31969974949E+02  0.16530475916E+02  0.41450992613E+02  0.00000000000E+00 0. -1.
</event>
<event>
 7    1  0.4520336E-015  0.9000771E+02  0.7816164E-02  0.1186339E+00
        -11   -1    0    0    0    0  0.00000000000E+00  0.00000000000E+00  0.45593999997E+02  0.45594000000E+02  0.51100000000E-03 0. -1.
         11   -1    0    0    0    0 -0.00000000000E+00 -0.00000000000E+00 -0.45593999997E+02  0.45594000000E+02  0.51100000000E-03 0.  1.
    9900012    2    1    2    0    0  0.82124909901E+00 -0.82042762081E+00 -0.21336619034E+00  0.90007713300E+02  0.89999974315E+02 0.  0.
         12    1    1    2    0    0 -0.82124909901E+00  0.82042762081E+00  0.21336619034E+00  0.11802867003E+01  0.00000000000E+00 0. -1.
         11    1    3    3    0    0 -0.48324625244E+01  0.48825177302E+01 -0.72329185656E+01  0.99753087507E+01  0.51100000000E-03 0. -1.
        -11    1    3    3    0    0  0.24898370857E+02  0.23893726485E+02 -0.15844213713E+02  0.37972070593E+02  0.51100000000E-03 0.  1.
         12    1    3    3    0    0 -0.19244659233E+02 -0.29596671836E+02  0.22863766088E+02  0.42060333956E+02  0.00000000000E+00 0. -1.
</event>
<event>
 7    1  0.4520336E-015  0.9000771E+02  0.7816164E-02  0.1186339E+00
        -11   -1    0    0    0    0  0.00000000000E+00  0.00000000000E+00  0.45593999997E+02  0.45594000000E+02  0.51100000000E-03 0. -1.
         11   -1    0    0    0    0 -0.00000000000E+00 -0.00000000000E+00 -0.45593999997E+02  0.45594000000E+02  0.51100000000E-03 0.  1.
    9900012    2    1    2    0    0  0.77335656773E+00  0.71124492856E+00 -0.53772235856E+00  0.90007705518E+02  0.89999966431E+02 0.  0.
         12    1    1    2    0    0 -0.77335656773E+00 -0.71124492856E+00  0.53772235856E+00  0.11802944820E+01  0.00000000000E+00 0. -1.
         11    1    3    3    0    0 -0.33536223229E+01 -0.23226353658E+02  0.28723544740E+02  0.37091135189E+02  0.51100000000E-03 0. -1.
        -11    1    3    3    0    0 -0.84574159499E+01 -0.40882197928E+01  0.14174326252E+01  0.95000284806E+01  0.51100000000E-03 0.  1.
        -12    1    3    3    0    0  0.12584394840E+02  0.28025818379E+02 -0.30678699724E+02  0.43416541848E+02  0.00000000000E+00 0.  1.
</event>
<event>
 7    1  0.4520336E-015  0.9000749E+02  0.7816164E-02  0.1186340E+00
        -11   -1    0    0    0    0  0.00000000000E+00  0.00000000000E+00  0.45593999997E+02  0.45594000000E+02  0.51100000000E-03 0.  1.
         11   -1    0    0    0    0 -0.00000000000E+00 -0.00000000000E+00 -0.45593999997E+02  0.45594000000E+02  0.51100000000E-03 0. -1.
    9900012    2    1    2    0    0 -0.62021748740E+00 -0.96543956351E+00 -0.27723973759E+00  0.90007489452E+02  0.89999747512E+02 0.  0.
         12    1    1    2    0    0  0.62021748740E+00  0.96543956351E+00  0.27723973759E+00  0.11805105483E+01  0.00000000000E+00 0. -1.
         11    1    3    3    0    0 -0.27041767068E+01 -0.87521752104E+01  0.33778473494E+01  0.97633496072E+01  0.51100000000E-03 0. -1.
        -11    1    3    3    0    0 -0.37967201953E+02 -0.40262301031E+01 -0.47394640854E+01  0.38473126635E+02  0.51100000000E-03 0.  1.
         12    1    3    3    0    0  0.40051161173E+02  0.11812965750E+02  0.10843769984E+01  0.41771013210E+02  0.00000000000E+00 0. -1.
</event>
<event>
 7    1  0.4520336E-015  0.9000775E+02  0.7816164E-02  0.1186339E+00
        -11   -1    0    0    0    0  0.00000000000E+00  0.00000000000E+00  0.45593999997E+02  0.45594000000E+02  0.51100000000E-03 0. -1.
         11   -1    0    0    0    0 -0.00000000000E+00 -0.00000000000E+00 -0.45593999997E+02  0.45594000000E+02  0.51100000000E-03 0.  1.
    9900012    2    1    2    0    0  0.73951384427E+00  0.56814781724E+00 -0.72341315643E+00  0.90007746102E+02  0.90000007551E+02 0.  0.
         12    1    1    2    0    0 -0.73951384427E+00 -0.56814781724E+00  0.72341315643E+00  0.11802538977E+01  0.00000000000E+00 0. -1.
         11    1    3    3    0    0 -0.15756701051E+01 -0.69339783209E+01  0.65749412514E+01  0.96846602602E+01  0.51100000000E-03 0. -1.
        -11    1    3    3    0    0  0.76734109051E+01 -0.34767723175E+02  0.50521746200E+01  0.35961093954E+02  0.51100000000E-03 0.  1.
         12    1    3    3    0    0 -0.53582269557E+01  0.42269849313E+02 -0.12350529028E+02  0.44361991889E+02  0.00000000000E+00 0. -1.
</event>
<event>
 7    1  0.4520336E-015  0.9000797E+02  0.7816164E-02  0.1186339E+00
        -11   -1    0    0    0    0  0.00000000000E+00  0.00000000000E+00  0.45593999997E+02  0.45594000000E+02  0.51100000000E-03 0.  1.
         11   -1    0    0    0    0 -0.00000000000E+00 -0.00000000000E+00 -0.45593999997E+02  0.45594000000E+02  0.51100000000E-03 0. -1.
    9900012    2    1    2    0    0  0.71025558825E+00  0.43407482284E+00 -0.83641725752E+00  0.90007967042E+02  0.90000231407E+02 0.  0.
         12    1    1    2    0    0 -0.71025558825E+00 -0.43407482284E+00  0.83641725752E+00  0.11800329576E+01  0.00000000000E+00 0. -1.
         11    1    3    3    0    0 -0.40077804563E+02 -0.47187193621E+00  0.87608548758E+01  0.41026889477E+02  0.51100000000E-03 0. -1.
        -11    1    3    3    0    0  0.95523408025E+00 -0.25212747724E+01 -0.85740724392E+01  0.89879929395E+01  0.51100000000E-03 0.  1.
        -12    1    3    3    0    0  0.39832826071E+02  0.34272215314E+01 -0.10231996941E+01  0.39993084626E+02  0.00000000000E+00 0.  1.
</event>
<event>
 7    1  0.4520336E-015  0.9000775E+02  0.7816164E-02  0.1186339E+00
        -11   -1    0    0    0    0  0.00000000000E+00  0.00000000000E+00  0.45593999997E+02  0.45594000000E+02  0.51100000000E-03 0.  1.
         11   -1    0    0    0    0 -0.00000000000E+00 -0.00000000000E+00 -0.45593999997E+02  0.45594000000E+02  0.51100000000E-03 0. -1.
    9900012    2    1    2    0    0  0.38295603821E+00  0.12555157926E+00  0.11093082138E+01  0.90007752891E+02  0.90000014429E+02 0.  0.
         12    1    1    2    0    0 -0.38295603821E+00 -0.12555157926E+00 -0.11093082138E+01  0.11802471095E+01  0.00000000000E+00 0. -1.
         11    1    3    3    0    0  0.87163777157E+01 -0.39438348719E+02  0.10133624632E+02  0.41641913244E+02  0.51100000000E-03 0. -1.
        -11    1    3    3    0    0 -0.74967744838E+01  0.35758535078E+00 -0.48340853735E+01  0.89273667229E+01  0.51100000000E-03 0.  1.
        -12    1    3    3    0    0 -0.83664719366E+00  0.39206314948E+02 -0.41902310446E+01  0.39438472923E+02  0.00000000000E+00 0.  1.
</event>
<event>
 7    1  0.4520336E-015  0.9000801E+02  0.7816164E-02  0.1186339E+00
        -11   -1    0    0    0    0  0.00000000000E+00  0.00000000000E+00  0.45593999997E+02  0.45594000000E+02  0.51100000000E-03 0. -1.
         11   -1    0    0    0    0 -0.00000000000E+00 -0.00000000000E+00 -0.45593999997E+02  0.45594000000E+02  0.51100000000E-03 0.  1.
    9900012    2    1    2    0    0  0.19247407907E-01 -0.84208425408E+00 -0.82638271540E+00  0.90008006464E+02  0.90000271348E+02 0.  0.
         12    1    1    2    0    0 -0.19247407907E-01  0.84208425408E+00  0.82638271540E+00  0.11799935364E+01  0.00000000000E+00 0. -1.
         11    1    3    3    0    0 -0.24695897995E+02  0.95852679713E+01  0.26948957517E+02  0.37789033480E+02  0.51100000000E-03 0. -1.
        -11    1    3    3    0    0 -0.70530680983E+00  0.10350255134E+02 -0.22082891915E+01  0.10606685649E+02  0.51100000000E-03 0.  1.
        -12    1    3    3    0    0  0.25420452213E+02 -0.20777607359E+02 -0.25567051041E+02  0.41612287335E+02  0.00000000000E+00 0.  1.
</event>
<event>
 7    1  0.4520336E-015  0.9000760E+02  0.7816164E-02  0.1186339E+00
        -11   -1    0    0    0    0  0.00000000000E+00  0.00000000000E+00  0.45593999997E+02  0.45594000000E+02  0.51100000000E-03 0. -1.
         11   -1    0    0    0    0 -0.00000000000E+00 -0.00000000000E+00 -0.45593999997E+02  0.45594000000E+02  0.51100000000E-03 0.  1.
    9900012    2    1    2    0    0 -0.10871171335E+01  0.44639788962E+00 -0.11068693627E+00  0.90007599078E+02  0.89999858586E+02 0.  0.
         12    1    1    2    0    0  0.10871171335E+01 -0.44639788962E+00  0.11068693627E+00  0.11804009216E+01  0.00000000000E+00 0. -1.
         11    1    3    3    0    0 -0.12604271621E+02  0.78862048389E+01 -0.69968553999E+01  0.16432159798E+02  0.51100000000E-03 0. -1.
        -11    1    3    3    0    0  0.39853093695E+02 -0.16953569220E+02  0.54461796971E+01  0.43650354637E+02  0.51100000000E-03 0.  1.
         12    1    3    3    0    0 -0.28335939207E+02  0.95137622710E+01  0.14399887666E+01  0.29925084644E+02  0.00000000000E+00 0. -1.
</event>
<event>
 7    1  0.4520336E-015  0.9000768E+02  0.7816164E-02  0.1186339E+00
        -11   -1    0    0    0    0  0.00000000000E+00  0.00000000000E+00  0.45593999997E+02  0.45594000000E+02  0.51100000000E-03 0.  1.
         11   -1    0    0    0    0 -0.00000000000E+00 -0.00000000000E+00 -0.45593999997E+02  0.45594000000E+02  0.51100000000E-03 0. -1.
    9900012    2    1    2    0    0  0.10637945885E+01  0.48229202794E+00  0.16997447750E+00  0.90007679768E+02  0.89999940341E+02 0.  0.
         12    1    1    2    0    0 -0.10637945885E+01 -0.48229202794E+00 -0.16997447750E+00  0.11803202319E+01  0.00000000000E+00 0. -1.
         11    1    3    3    0    0  0.37468909575E+02 -0.12594896337E+02 -0.10463825015E+02  0.40890613014E+02  0.51100000000E-03 0. -1.
        -11    1    3    3    0    0  0.36546207407E+01  0.51463841070E+01  0.46586035694E+01  0.78450053928E+01  0.51100000000E-03 0.  1.
        -12    1    3    3    0    0 -0.40059735727E+02  0.79308042581E+01  0.59751959232E+01  0.41272061361E+02  0.00000000000E+00 0.  1.
</event>
<event>
 7    1  0.4520336E-015  0.9000769E+02  0.7816164E-02  0.1186339E+00
        -11   -1    0    0    0    0  0.00000000000E+00  0.00000000000E+00  0.45593999997E+02  0.45594000000E+02  0.51100000000E-03 0. -1.
         11   -1    0    0    0    0 -0.00000000000E+00 -0.00000000000E+00 -0.45593999997E+02  0.45594000000E+02  0.51100000000E-03 0.  1.
    9900012    2    1    2    0    0  0.65249819298E+00  0.84202834840E+00  0.50830370955E+00  0.90007687206E+02  0.89999947877E+02 0.  0.
         12    1    1    2    0    0 -0.65249819298E+00 -0.84202834840E+00 -0.50830370955E+00  0.11803127943E+01  0.00000000000E+00 0. -1.
         11    1    3    3    0    0  0.71243725097E+01 -0.66406923491E+01 -0.59670804632E+00  0.97576400469E+01  0.51100000000E-03 0. -1.
        -11    1    3    3    0    0  0.31481189219E+02 -0.32688381038E+01 -0.18010322044E+02  0.36415961852E+02  0.51100000000E-03 0.  1.
         12    1    3    3    0    0 -0.37953063536E+02  0.10751558801E+02  0.19115333800E+02  0.43834085307E+02  0.00000000000E+00 0. -1.
</event>
<event>
 7    1  0.4520336E-015  0.9000779E+02  0.7816164E-02  0.1186339E+00
        -11   -1    0    0    0    0  0.00000000000E+00  0.00000000000E+00  0.45593999997E+02  0.45594000000E+02  0.51100000000E-03 0.  1.
         11   -1    0    0    0    0 -0.00000000000E+00 -0.00000000000E+00 -0.45593999997E+02  0.45594000000E+02  0.51100000000E-03 0. -1.
    9900012    2    1    2    0    0 -0.84032626065E+00  0.21822599760E+00  0.79944622863E+00  0.90007794474E+02  0.90000056561E+02 0.  0.
         12    1    1    2    0    0  0.84032626065E+00 -0.21822599760E+00 -0.79944622863E+00  0.11802055257E+01  0.00000000000E+00 0. -1.
         11    1    3    3    0    0  0.84567578171E+01 -0.18499178546E+01  0.40763845154E+01  0.95684826292E+01  0.51100000000E-03 0. -1.
        -11    1    3    3    0    0 -0.64826842192E+01 -0.68019146144E+01  0.37476705359E+02  0.38636701230E+02  0.51100000000E-03 0.  1.
         12    1    3    3    0    0 -0.28143998585E+01  0.88700584666E+01 -0.40753643646E+02  0.41802610615E+02  0.00000000000E+00 0. -1.
</event>
<event>
 7    1  0.4520336E-015  0.9000770E+02  0.7816164E-02  0.1186339E+00
        -11   -1    0    0    0    0  0.00000000000E+00  0.00000000000E+00  0.45593999997E+02  0.45594000000E+02  0.51100000000E-03 0.  1.
         11   -1    0    0    0    0 -0.00000000000E+00 -0.00000000000E+00 -0.45593999997E+02  0.45594000000E+02  0.51100000000E-03 0. -1.
    9900012    2    1    2    0    0  0.10757949149E+00 -0.50925141898E+00  0.10593417116E+01  0.90007696981E+02  0.89999957781E+02 0.  0.
         12    1    1    2    0    0 -0.10757949149E+00  0.50925141898E+00 -0.10593417116E+01  0.11803030190E+01  0.00000000000E+00 0. -1.
         11    1    3    3    0    0 -0.97362500031E+01 -0.40603219386E+01  0.41262646902E+01  0.11327260875E+02  0.51100000000E-03 0. -1.
        -11    1    3    3    0    0  0.18411772654E+02 -0.34172362729E+02  0.50796232513E+01  0.39147749864E+02  0.51100000000E-03 0.  1.
         12    1    3    3    0    0 -0.85679431593E+01  0.37723433249E+02 -0.81465462300E+01  0.39532686242E+02  0.00000000000E+00 0. -1.
</event>
<event>
 7    1  0.4520336E-015  0.9000778E+02  0.7816164E-02  0.1186339E+00
        -11   -1    0    0    0    0  0.00000000000E+00  0.00000000000E+00  0.45593999997E+02  0.45594000000E+02  0.51100000000E-03 0.  1.
         11   -1    0    0    0    0 -0.00000000000E+00 -0.00000000000E+00 -0.45593999997E+02  0.45594000000E+02  0.51100000000E-03 0. -1.
    9900012    2    1    2    0    0  0.58165470980E+00  0.64049741655E-01  0.10249383825E+01  0.90007778301E+02  0.90000040175E+02 0.  0.
         12    1    1    2    0    0 -0.58165470980E+00 -0.64049741655E-01 -0.10249383825E+01  0.11802216990E+01  0.00000000000E+00 0. -1.
         11    1    3    3    0    0 -0.29759602285E+02  0.64296556016E+00  0.20461711033E+02  0.36121031983E+02  0.51100000000E-03 0. -1.
        -11    1    3    3    0    0 -0.52502522102E+01  0.51219982566E+01  0.62409539770E+01  0.96306552849E+01  0.51100000000E-03 0.  1.
        -12    1    3    3    0    0  0.35591509205E+02 -0.57009140751E+01 -0.25677726628E+02  0.44256091033E+02  0.00000000000E+00 0.  1.
</event>
<event>
 7    1  0.4520336E-015  0.9000862E+02  0.7816164E-02  0.1186337E+00
        -11   -1    0    0    0    0  0.00000000000E+00  0.00000000000E+00  0.45593999997E+02  0.45594000000E+02  0.51100000000E-03 0.  1.
         11   -1    0    0    0    0 -0.00000000000E+00 -0.00000000000E+00 -0.45593999997E+02  0.45594000000E+02  0.51100000000E-03 0. -1.
    9900012    2    1    2    0    0 -0.46600214679E+00 -0.60454246881E+00  0.89906315692E+00  0.90008617044E+02  0.90000889984E+02 0.  0.
         12    1    1    2    0    0  0.46600214679E+00  0.60454246881E+00 -0.89906315692E+00  0.11793829563E+01  0.00000000000E+00 0. -1.
         11    1    3    3    0    0  0.32072541435E+01  0.45801443452E+01 -0.99024448675E+01  0.11372010200E+02  0.51100000000E-03 0. -1.
        -11    1    3    3    0    0  0.15066864724E+02  0.31560711761E+02 -0.30975606187E+01  0.35109597285E+02  0.51100000000E-03 0.  1.
         12    1    3    3    0    0 -0.18740121014E+02 -0.36745398575E+02  0.13899068643E+02  0.43527009559E+02  0.00000000000E+00 0. -1.
</event>
<event>
 7    1  0.4520336E-015  0.9000758E+02  0.7816164E-02  0.1186339E+00
        -11   -1    0    0    0    0  0.00000000000E+00  0.00000000000E+00  0.45593999997E+02  0.45594000000E+02  0.51100000000E-03 0.  1.
         11   -1    0    0    0    0 -0.00000000000E+00 -0.00000000000E+00 -0.45593999997E+02  0.45594000000E+02  0.51100000000E-03 0. -1.
    9900012    2    1    2    0    0 -0.86068269610E+00 -0.64686830202E+00  0.48392019808E+00  0.90007579710E+02  0.89999838962E+02 0.  0.
         12    1    1    2    0    0  0.86068269610E+00  0.64686830202E+00 -0.48392019808E+00  0.11804202903E+01  0.00000000000E+00 0. -1.
         11    1    3    3    0    0  0.29997303481E+01 -0.78490483590E+00 -0.91131400407E+01  0.96262027521E+01  0.51100000000E-03 0. -1.
        -11    1    3    3    0    0  0.73558931755E+01 -0.99353912504E+01  0.42461307570E+02  0.44224244533E+02  0.51100000000E-03 0.  1.
         12    1    3    3    0    0 -0.11216306220E+02  0.10073427784E+02 -0.32864247331E+02  0.36157132425E+02  0.00000000000E+00 0. -1.
</event>
<event>
 7    1  0.4520336E-015  0.9000770E+02  0.7816164E-02  0.1186339E+00
        -11   -1    0    0    0    0  0.00000000000E+00  0.00000000000E+00  0.45593999997E+02  0.45594000000E+02  0.51100000000E-03 0.  1.
         11   -1    0    0    0    0 -0.00000000000E+00 -0.00000000000E+00 -0.45593999997E+02  0.45594000000E+02  0.51100000000E-03 0. -1.
    9900012    2    1    2    0    0 -0.63116373793E+00 -0.99720335443E+00  0.18302134714E-01  0.90007696157E+02  0.89999956946E+02 0.  0.
         12    1    1    2    0    0  0.63116373793E+00  0.99720335443E+00 -0.18302134714E-01  0.11803038432E+01  0.00000000000E+00 0. -1.
         11    1    3    3    0    0  0.66378813392E+01 -0.35396902543E+02  0.33732809403E+01  0.36171552398E+02  0.51100000000E-03 0. -1.
        -11    1    3    3    0    0 -0.73474439155E+01 -0.72940552999E+01  0.47021592354E+01  0.11370948797E+02  0.51100000000E-03 0.  1.
        -12    1    3    3    0    0  0.78398838388E-01  0.41693754489E+02 -0.80571380409E+01  0.42465194962E+02  0.00000000000E+00 0.  1.
</event>
<event>
 7    1  0.4520336E-015  0.9000776E+02  0.7816164E-02  0.1186339E+00
        -11   -1    0    0    0    0  0.00000000000E+00  0.00000000000E+00  0.45593999997E+02  0.45594000000E+02  0.51100000000E-03 0. -1.
         11   -1    0    0    0    0 -0.00000000000E+00 -0.00000000000E+00 -0.45593999997E+02  0.45594000000E+02  0.51100000000E-03 0.  1.
    9900012    2    1    2    0    0  0.48271391608E+00  0.33057019459E+00 -0.10250303482E+01  0.90007755706E+02  0.90000017282E+02 0.  0.
         12    1    1    2    0    0 -0.48271391608E+00 -0.33057019459E+00  0.10250303482E+01  0.11802442938E+01  0.00000000000E+00 0. -1.
         11    1    3    3    0    0 -0.24513307258E+01 -0.80834693242E+01  0.12434762540E+01  0.85380168715E+01  0.51100000000E-03 0. -1.
        -11    1    3    3    0    0 -0.30967162736E+01 -0.31744395308E+02 -0.19469881879E+02  0.37368069067E+02  0.51100000000E-03 0.  1.
         12    1    3    3    0    0  0.60307609154E+01  0.40158434827E+02  0.17201375276E+02  0.44101669768E+02  0.00000000000E+00 0. -1.
</event>
<event>
 7    1  0.4520336E-015  0.9000770E+02  0.7816164E-02  0.1186339E+00
        -11   -1    0    0    0    0  0.00000000000E+00  0.00000000000E+00  0.45593999997E+02  0.45594000000E+02  0.51100000000E-03 0.  1.
         11   -1    0    0    0    0 -0.00000000000E+00 -0.00000000000E+00 -0.45593999997E+02  0.45594000000E+02  0.51100000000E-03 0. -1.
    9900012    2    1    2    0    0  0.34267869933E+00 -0.12022458426E+00  0.11230401660E+01  0.90007702641E+02  0.89999963516E+02 0.  0.
         12    1    1    2    0    0 -0.34267869933E+00  0.12022458426E+00 -0.11230401660E+01  0.11802973592E+01  0.00000000000E+00 0. -1.
         11    1    3    3    0    0  0.69088808269E+01 -0.58154132550E+01 -0.20613517288E+01  0.92628741122E+01  0.51100000000E-03 0. -1.
        -11    1    3    3    0    0  0.77296556898E+01  0.25177280971E+02  0.33093094155E+02  0.42294159587E+02  0.51100000000E-03 0.  1.
         12    1    3    3    0    0 -0.14295857817E+02 -0.19482092301E+02 -0.29908702260E+02  0.38450668941E+02  0.00000000000E+00 0. -1.
</event>
<event>
 7    1  0.5286449E-015  0.9000774E+02  0.7816164E-02  0.1186339E+00
        -11   -1    0    0    0    0  0.00000000000E+00  0.00000000000E+00  0.45593999997E+02  0.45594000000E+02  0.51100000000E-03 0. -1.
         11   -1    0    0    0    0 -0.00000000000E+00 -0.00000000000E+00 -0.45593999997E+02  0.45594000000E+02  0.51100000000E-03 0.  1.
    9900012    2    1    2    0    0  0.96933442578E-01 -0.20481834297E+00 -0.11583021986E+01  0.90007741287E+02  0.90000002672E+02 0.  0.
         12    1    1    2    0    0 -0.96933442578E-01  0.20481834297E+00  0.11583021986E+01  0.11802587129E+01  0.00000000000E+00 0. -1.
         11    1    3    3    0    0 -0.12897611006E+01 -0.75937628442E+01 -0.52897763386E+01  0.93440061967E+01  0.51100000000E-03 0. -1.
        -11    1    3    3    0    0  0.27501122688E+02 -0.89012686389E+01 -0.25050434196E+02  0.38250079558E+02  0.51100000000E-03 0.  1.
         12    1    3    3    0    0 -0.26114428145E+02  0.16290213140E+02  0.29181908336E+02  0.42413655533E+02  0.00000000000E+00 0. -1.
</event>
<event>
 7    1  0.4520336E-015  0.9000785E+02  0.7816164E-02  0.1186339E+00
        -11   -1    0    0    0    0  0.00000000000E+00  0.00000000000E+00  0.45593999997E+02  0.45594000000E+02  0.51100000000E-03 0.  1.
         11   -1    0    0    0    0 -0.00000000000E+00 -0.00000000000E+00 -0.45593999997E+02  0.45594000000E+02  0.51100000000E-03 0. -1.
    9900012    2    1    2    0    0  0.29346211186E+00 -0.11428411831E+01  0.23272094686E-01  0.90007852733E+02  0.90000115589E+02 0.  0.
         12    1    1    2    0    0 -0.29346211186E+00  0.11428411831E+01 -0.23272094686E-01  0.11801472668E+01  0.00000000000E+00 0. -1.
         11    1    3    3    0    0 -0.91878144247E+01 -0.32416471275E+01 -0.25144857514E+01  0.10062149316E+02  0.51100000000E-03 0. -1.
        -11    1    3    3    0    0 -0.15900124118E+02  0.13614963520E+02  0.32732545377E+02  0.38853580346E+02  0.51100000000E-03 0.  1.
         12    1    3    3    0    0  0.25381400654E+02 -0.11516157575E+02 -0.30194787531E+02  0.41092123071E+02  0.00000000000E+00 0. -1.
</event>
<event>
 7    1  0.4520336E-015  0.9000792E+02  0.7816164E-02  0.1186339E+00
        -11   -1    0    0    0    0  0.00000000000E+00  0.00000000000E+00  0.45593999997E+02  0.45594000000E+02  0.51100000000E-03 0.  1.
         11   -1    0    0    0    0 -0.00000000000E+00 -0.00000000000E+00 -0.45593999997E+02  0.45594000000E+02  0.51100000000E-03 0. -1.
    9900012    2    1    2    0    0  0.72458972037E+00 -0.83377399308E+00  0.41517643853E+00  0.90007923388E+02  0.90000187177E+02 0.  0.
         12    1    1    2    0    0 -0.72458972037E+00  0.83377399308E+00 -0.41517643853E+00  0.11800766117E+01  0.00000000000E+00 0. -1.
         11    1    3    3    0    0 -0.27141006275E+00 -0.57165514703E+01 -0.85038212792E+01  0.10250248814E+02  0.51100000000E-03 0. -1.
        -11    1    3    3    0    0 -0.16467321463E+02  0.58537861073E+00  0.40327903756E+02  0.43564379554E+02  0.51100000000E-03 0.  1.
         12    1    3    3    0    0  0.17463321246E+02  0.42973988665E+01 -0.31408906038E+02  0.36193295021E+02  0.00000000000E+00 0. -1.
</event>
<event>
 7    1  0.4520336E-015  0.9000759E+02  0.7816164E-02  0.1186339E+00
        -11   -1    0    0    0    0  0.00000000000E+00  0.00000000000E+00  0.45593999997E+02  0.45594000000E+02  0.51100000000E-03 0. -1.
         11   -1    0    0    0    0 -0.00000000000E+00 -0.00000000000E+00 -0.45593999997E+02  0.45594000000E+02  0.51100000000E-03 0.  1.
    9900012    2    1    2    0    0  0.11432402035E+01 -0.28209127540E+00  0.82469575446E-01  0.90007586987E+02  0.89999846335E+02 0.  0.
         12    1    1    2    0    0 -0.11432402035E+01  0.28209127540E+00 -0.82469575446E-01  0.11804130131E+01  0.00000000000E+00 0. -1.
         11    1    3    3    0    0  0.13605909512E+02  0.20892122378E+02  0.27745740160E+02  0.37301845107E+02  0.51100000000E-03 0. -1.
        -11    1    3    3    0    0 -0.30856430275E+01  0.69175511589E+01  0.46388871675E+01  0.88821721072E+01  0.51100000000E-03 0.  1.
        -12    1    3    3    0    0 -0.93770262811E+01 -0.28091764812E+02 -0.32302157752E+02  0.43823569772E+02  0.00000000000E+00 0.  1.
</event>
<event>
 7    1  0.4520336E-015  0.9000770E+02  0.7816164E-02  0.1186339E+00
        -11   -1    0    0    0    0  0.00000000000E+00  0.00000000000E+00  0.45593999997E+02  0.45594000000E+02  0.51100000000E-03 0.  1.
         11   -1    0    0    0    0 -0.00000000000E+00 -0.00000000000E+00 -0.45593999997E+02  0.45594000000E+02  0.51100000000E-03 0. -1.
    9900012    2    1    2    0    0 -0.10186392858E+01  0.35040845276E+00 -0.48238792403E+00  0.90007699111E+02  0.89999959940E+02 0.  0.
         12    1    1    2    0    0  0.10186392858E+01 -0.35040845276E+00  0.48238792403E+00  0.11803008886E+01  0.00000000000E+00 0. -1.
         11    1    3    3    0    0  0.81409746821E+01 -0.13303185771E+01 -0.28414961868E+01  0.87246385101E+01  0.51100000000E-03 0. -1.
        -11    1    3    3    0    0  0.29119809981E+02  0.23204939185E+02  0.30723846132E+01  0.37361371541E+02  0.51100000000E-03 0.  1.
         12    1    3    3    0    0 -0.38279423949E+02 -0.21524212155E+02 -0.71327635041E+00  0.43921689061E+02  0.00000000000E+00 0. -1.
</event>
<event>
 7    1  0.4520336E-015  0.9000829E+02  0.7816164E-02  0.1186338E+00
        -11   -1    0    0    0    0  0.00000000000E+00  0.00000000000E+00  0.45593999997E+02  0.45594000000E+02  0.51100000000E-03 0. -1.
         11   -1    0    0    0    0 -0.00000000000E+00 -0.00000000000E+00 -0.45593999997E+02  0.45594000000E+02  0.51100000000E-03 0.  1.
    9900012    2    1    2    0    0 -0.37641032614E+00  0.81533425770E+00 -0.76501807650E+00  0.90008293535E+02  0.90000562208E+02 0.  0.
         12    1    1    2    0    0  0.37641032614E+00 -0.81533425770E+00  0.76501807650E+00  0.11797064647E+01  0.00000000000E+00 0. -1.
         11    1    3    3    0    0 -0.48084643009E+01  0.50682722504E+01  0.52081641954E+01  0.87139937506E+01  0.51100000000E-03 0. -1.
        -11    1    3    3    0    0 -0.29831141592E+02 -0.18581557868E+01 -0.27618842048E+02  0.40695825190E+02  0.51100000000E-03 0.  1.
         12    1    3    3    0    0  0.34263195566E+02 -0.23947822059E+01  0.21645659776E+02  0.40598474594E+02  0.00000000000E+00 0. -1.
</event>
<event>
 7    1  0.4520336E-015  0.9000777E+02  0.7816164E-02  0.1186339E+00
        -11   -1    0    0    0    0  0.00000000000E+00  0.00000000000E+00  0.45593999997E+02  0.45594000000E+02  0.51100000000E-03 0.  1.
         11   -1    0    0    0    0 -0.00000000000E+00 -0.00000000000E+00 -0.45593999997E+02  0.45594000000E+02  0.51100000000E-03 0. -1.
    9900012    2    1    2    0    0  0.15547875244E+00 -0.57923612305E+00  0.10164882521E+01  0.90007772693E+02  0.90000034493E+02 0.  0.
         12    1    1    2    0    0 -0.15547875244E+00  0.57923612305E+00 -0.10164882521E+01  0.11802273067E+01  0.00000000000E+00 0. -1.
         11    1    3    3    0    0  0.37964194133E+01  0.23507798345E+01 -0.11043207973E+02  0.11911818030E+02  0.51100000000E-03 0. -1.
        -11    1    3    3    0    0 -0.10071514393E+01  0.33594268423E+02  0.21977940082E+02  0.40157428646E+02  0.51100000000E-03 0.  1.
         12    1    3    3    0    0 -0.26337892216E+01 -0.36524284381E+02 -0.99182438576E+01  0.37938526018E+02  0.00000000000E+00 0. -1.
</event>
<event>
 7    1  0.4520336E-015  0.9000771E+02  0.7816164E-02  0.1186339E+00
        -11   -1    0    0    0    0  0.00000000000E+00  0.00000000000E+00  0.45593999997E+02  0.45594000000E+02  0.51100000000E-03 0.  1.
         11   -1    0    0    0    0 -0.00000000000E+00 -0.00000000000E+00 -0.45593999997E+02  0.45594000000E+02  0.51100000000E-03 0. -1.
    9900012    2    1    2    0    0  0.98324234886E+00 -0.59703151227E+00 -0.26431682218E+00  0.90007713795E+02  0.89999974817E+02 0.  0.
         12    1    1    2    0    0 -0.98324234886E+00  0.59703151227E+00  0.26431682218E+00  0.11802862050E+01  0.00000000000E+00 0. -1.
         11    1    3    3    0    0  0.24909841228E+02 -0.32082394108E+02  0.50039163407E+01  0.40924557184E+02  0.51100000000E-03 0. -1.
        -11    1    3    3    0    0  0.64359905917E+01  0.85824568744E+01 -0.19858182981E+01  0.10909812806E+02  0.51100000000E-03 0.  1.
        -12    1    3    3    0    0 -0.30362589471E+02  0.22902905721E+02 -0.32824148647E+01  0.38173343804E+02  0.00000000000E+00 0.  1.
</event>
<event>
 7    1  0.4520336E-015  0.9000774E+02  0.7816164E-02  0.1186339E+00
        -11   -1    0    0    0    0  0.00000000000E+00  0.00000000000E+00  0.45593999997E+02  0.45594000000E+02  0.51100000000E-03 0.  1.
         11   -1    0    0    0    0 -0.00000000000E+00 -0.00000000000E+00 -0.45593999997E+02  0.45594000000E+02  0.51100000000E-03 0. -1.
    9900012    2    1    2    0    0  0.98654765342E+00 -0.23013979493E+00 -0.60561455741E+00  0.90007741727E+02  0.90000003118E+02 0.  0.
         12    1    1    2    0    0 -0.98654765342E+00  0.23013979493E+00  0.60561455741E+00  0.11802582725E+01  0.00000000000E+00 0. -1.
         11    1    3    3    0    0  0.42222692159E+01 -0.23977032927E+02 -0.31219708348E+02  0.39590350528E+02  0.51100000000E-03 0. -1.
        -11    1    3    3    0    0  0.11008750599E+02  0.13810449132E+01  0.17674522796E+01  0.11234934918E+02  0.51100000000E-03 0.  1.
        -12    1    3    3    0    0 -0.14244472161E+02  0.22365848219E+02  0.28846641511E+02  0.39182456281E+02  0.00000000000E+00 0.  1.
</event>
