<event>
 7    1  0.1381607E-011  0.5052887E+02  0.7816164E-02  0.1300439E+00
        -11   -1    0    0    0    0  0.00000000000E+00  0.00000000000E+00  0.45593999997E+02  0.45594000000E+02  0.51100000000E-03 0.  1.
         11   -1    0    0    0    0 -0.00000000000E+00 -0.00000000000E+00 -0.45593999997E+02  0.45594000000E+02  0.51100000000E-03 0. -1.
    9900012    2    1    2    0    0  0.93977627155E+01  0.35198271738E+02  0.18053497675E+02  0.50528867500E+02  0.30000023252E+02 0.  0.
         12    1    1    2    0    0 -0.93977627155E+01 -0.35198271738E+02 -0.18053497675E+02  0.40659132500E+02  0.00000000000E+00 0. -1.
         11    1    3    3    0    0  0.40448671668E+01 -0.25746402637E+01  0.44904123303E+01  0.65691343450E+01  0.51100000000E-03 0. -1.
        -11    1    3    3    0    0 -0.60225047389E+01  0.12223003842E+02  0.23474355649E+01  0.13826888307E+02  0.51100000000E-03 0.  1.
         12    1    3    3    0    0  0.11375400288E+02  0.25549908159E+02  0.11215649780E+02  0.30132844848E+02  0.00000000000E+00 0. -1.
</event>
<event>
 7    1  0.1381607E-011  0.5052886E+02  0.7816164E-02  0.1300439E+00
        -11   -1    0    0    0    0  0.00000000000E+00  0.00000000000E+00  0.45593999997E+02  0.45594000000E+02  0.51100000000E-03 0.  1.
         11   -1    0    0    0    0 -0.00000000000E+00 -0.00000000000E+00 -0.45593999997E+02  0.45594000000E+02  0.51100000000E-03 0. -1.
    9900012    2    1    2    0    0  0.22969253302E+02 -0.20596564184E+02  0.26483215285E+02  0.50528859019E+02  0.29999997475E+02 0.  0.
         12    1    1    2    0    0 -0.22969253302E+02  0.20596564184E+02 -0.26483215285E+02  0.40659140981E+02  0.00000000000E+00 0. -1.
         11    1    3    3    0    0 -0.25574397354E+01  0.15611424081E+01  0.13448921776E+01  0.32842653439E+01  0.51100000000E-03 0. -1.
        -11    1    3    3    0    0  0.12266537797E+02 -0.13026531839E+02  0.60874996746E+00  0.17903325335E+02  0.51100000000E-03 0.  1.
         12    1    3    3    0    0  0.13260155241E+02 -0.91311747534E+01  0.24529573140E+02  0.29341268340E+02  0.00000000000E+00 0. -1.
</event>
<event>
 7    1  0.1381607E-011  0.5052887E+02  0.7816164E-02  0.1300439E+00
        -11   -1    0    0    0    0  0.00000000000E+00  0.00000000000E+00  0.45593999997E+02  0.45594000000E+02  0.51100000000E-03 0.  1.
         11   -1    0    0    0    0 -0.00000000000E+00 -0.00000000000E+00 -0.45593999997E+02  0.45594000000E+02  0.51100000000E-03 0. -1.
    9900012    2    1    2    0    0  0.75495438190E+01 -0.38795629497E+02  0.95429929988E+01  0.50528865782E+02  0.30000018032E+02 0.  0.
         12    1    1    2    0    0 -0.75495438190E+01  0.38795629497E+02 -0.95429929988E+01  0.40659134218E+02  0.00000000000E+00 0. -1.
         11    1    3    3    0    0  0.65164219447E+01 -0.16275208437E+02  0.95263013688E+01  0.19952357822E+02  0.51100000000E-03 0. -1.
        -11    1    3    3    0    0 -0.59583786323E+01 -0.15507480826E+02  0.74377367221E+01  0.18201762698E+02  0.51100000000E-03 0.  1.
         12    1    3    3    0    0  0.69915005066E+01 -0.70129402345E+01 -0.74210450922E+01  0.12374745263E+02  0.00000000000E+00 0. -1.
</event>
<event>
 7    1  0.1381607E-011  0.5052886E+02  0.7816164E-02  0.1300439E+00
        -11   -1    0    0    0    0  0.00000000000E+00  0.00000000000E+00  0.45593999997E+02  0.45594000000E+02  0.51100000000E-03 0.  1.
         11   -1    0    0    0    0 -0.00000000000E+00 -0.00000000000E+00 -0.45593999997E+02  0.45594000000E+02  0.51100000000E-03 0. -1.
    9900012    2    1    2    0    0  0.39552423586E+02 -0.44645058700E+01  0.82969432464E+01  0.50528864601E+02  0.30000014441E+02 0.  0.
         12    1    1    2    0    0 -0.39552423586E+02  0.44645058700E+01 -0.82969432464E+01  0.40659135399E+02  0.00000000000E+00 0. -1.
         11    1    3    3    0    0 -0.16632985964E+01  0.13949302967E+01  0.42306977378E+01  0.47551231702E+01  0.51100000000E-03 0. -1.
        -11    1    3    3    0    0  0.24984944653E+02 -0.10230419127E+02  0.86513553083E+01  0.28350571136E+02  0.51100000000E-03 0.  1.
        -12    1    3    3    0    0  0.16230777530E+02  0.43709829602E+01 -0.45851097997E+01  0.17423170295E+02  0.00000000000E+00 0.  1.
</event>
<event>
 7    1  0.1381607E-011  0.5052885E+02  0.7816164E-02  0.1300439E+00
        -11   -1    0    0    0    0  0.00000000000E+00  0.00000000000E+00  0.45593999997E+02  0.45594000000E+02  0.51100000000E-03 0.  1.
         11   -1    0    0    0    0 -0.00000000000E+00 -0.00000000000E+00 -0.45593999997E+02  0.45594000000E+02  0.51100000000E-03 0. -1.
    9900012    2    1    2    0    0  0.29978260164E+02 -0.70877101189E+01  0.26537415093E+02  0.50528854448E+02  0.29999983581E+02 0.  0.
         12    1    1    2    0    0 -0.29978260164E+02  0.70877101189E+01 -0.26537415093E+02  0.40659145552E+02  0.00000000000E+00 0. -1.
         11    1    3    3    0    0  0.22347150354E+02 -0.11259144261E+02  0.73912912302E+01  0.26092041789E+02  0.51100000000E-03 0. -1.
        -11    1    3    3    0    0 -0.32803056994E+01  0.25272961929E+01  0.48463147537E+01  0.63745116268E+01  0.51100000000E-03 0.  1.
        -12    1    3    3    0    0  0.10911415510E+02  0.16441379497E+01  0.14299809109E+02  0.18062301032E+02  0.00000000000E+00 0.  1.
</event>
<event>
 7    1  0.1381607E-011  0.5052886E+02  0.7816164E-02  0.1300439E+00
        -11   -1    0    0    0    0  0.00000000000E+00  0.00000000000E+00  0.45593999997E+02  0.45594000000E+02  0.51100000000E-03 0.  1.
         11   -1    0    0    0    0 -0.00000000000E+00 -0.00000000000E+00 -0.45593999997E+02  0.45594000000E+02  0.51100000000E-03 0. -1.
    9900012    2    1    2    0    0 -0.67911593269E+01  0.39247992251E+02  0.81633861634E+01  0.50528860629E+02  0.30000002368E+02 0.  0.
         12    1    1    2    0    0  0.67911593269E+01 -0.39247992251E+02 -0.81633861634E+01  0.40659139371E+02  0.00000000000E+00 0. -1.
         11    1    3    3    0    0  0.35790486209E+01 -0.19838634709E+01 -0.12207184457E+01  0.42702994142E+01  0.51100000000E-03 0. -1.
        -11    1    3    3    0    0 -0.86754745350E+01  0.77703001981E+01  0.40590506647E+01  0.12333584886E+02  0.51100000000E-03 0.  1.
        -12    1    3    3    0    0 -0.16947334128E+01  0.33461555524E+02  0.53250539443E+01  0.33924976329E+02  0.00000000000E+00 0.  1.
</event>
<event>
 7    1  0.1381607E-011  0.5052886E+02  0.7816164E-02  0.1300439E+00
        -11   -1    0    0    0    0  0.00000000000E+00  0.00000000000E+00  0.45593999997E+02  0.45594000000E+02  0.51100000000E-03 0.  1.
         11   -1    0    0    0    0 -0.00000000000E+00 -0.00000000000E+00 -0.45593999997E+02  0.45594000000E+02  0.51100000000E-03 0. -1.
    9900012    2    1    2    0    0  0.97563006832E+01 -0.37774004476E+02  0.11450095577E+02  0.50528861963E+02  0.30000006422E+02 0.  0.
         12    1    1    2    0    0 -0.97563006832E+01  0.37774004476E+02 -0.11450095577E+02  0.40659138037E+02  0.00000000000E+00 0. -1.
         11    1    3    3    0    0  0.22758446687E+01 -0.17260623578E+01 -0.37567956691E+01  0.47193510337E+01  0.51100000000E-03 0. -1.
        -11    1    3    3    0    0 -0.70070715798E+00 -0.26964398115E+02  0.89632090919E+00  0.26988389127E+02  0.51100000000E-03 0.  1.
         12    1    3    3    0    0  0.81811631725E+01 -0.90835440034E+01  0.14310570337E+02  0.18821121802E+02  0.00000000000E+00 0. -1.
</event>
<event>
 7    1  0.1381607E-011  0.5052886E+02  0.7816164E-02  0.1300439E+00
        -11   -1    0    0    0    0  0.00000000000E+00  0.00000000000E+00  0.45593999997E+02  0.45594000000E+02  0.51100000000E-03 0. -1.
         11   -1    0    0    0    0 -0.00000000000E+00 -0.00000000000E+00 -0.45593999997E+02  0.45594000000E+02  0.51100000000E-03 0.  1.
    9900012    2    1    2    0    0 -0.40625526832E+02  0.88439982417E+00 -0.13965550603E+01  0.50528856386E+02  0.29999989470E+02 0.  0.
         12    1    1    2    0    0  0.40625526832E+02 -0.88439982417E+00  0.13965550603E+01  0.40659143614E+02  0.00000000000E+00 0. -1.
         11    1    3    3    0    0 -0.99369879347E+01 -0.54881619209E+00 -0.94432207886E+01  0.13719305651E+02  0.51100000000E-03 0. -1.
        -11    1    3    3    0    0 -0.97064598494E+01  0.65516584656E+01  0.96194729020E+01  0.15154994247E+02  0.51100000000E-03 0.  1.
         12    1    3    3    0    0 -0.20982079047E+02 -0.51184424494E+01 -0.15728071736E+01  0.21654556487E+02  0.00000000000E+00 0. -1.
</event>
<event>
 7    1  0.1381607E-011  0.5052886E+02  0.7816164E-02  0.1300439E+00
        -11   -1    0    0    0    0  0.00000000000E+00  0.00000000000E+00  0.45593999997E+02  0.45594000000E+02  0.51100000000E-03 0.  1.
         11   -1    0    0    0    0 -0.00000000000E+00 -0.00000000000E+00 -0.45593999997E+02  0.45594000000E+02  0.51100000000E-03 0. -1.
    9900012    2    1    2    0    0  0.17884707667E+02  0.26751284508E+02  0.24853008905E+02  0.50528855361E+02  0.29999986355E+02 0.  0.
         12    1    1    2    0    0 -0.17884707667E+02 -0.26751284508E+02 -0.24853008905E+02  0.40659144639E+02  0.00000000000E+00 0. -1.
         11    1    3    3    0    0  0.13361494578E+02  0.43289982732E+01  0.12514452432E+02  0.18811732598E+02  0.51100000000E-03 0. -1.
        -11    1    3    3    0    0 -0.26283168272E+01  0.10603937713E+02  0.14050265378E+02  0.17797794859E+02  0.51100000000E-03 0.  1.
         12    1    3    3    0    0  0.71515299163E+01  0.11818348522E+02 -0.17117089061E+01  0.13919327904E+02  0.00000000000E+00 0. -1.
</event>
<event>
 7    1  0.1381607E-011  0.5052886E+02  0.7816164E-02  0.1300439E+00
        -11   -1    0    0    0    0  0.00000000000E+00  0.00000000000E+00  0.45593999997E+02  0.45594000000E+02  0.51100000000E-03 0. -1.
         11   -1    0    0    0    0 -0.00000000000E+00 -0.00000000000E+00 -0.45593999997E+02  0.45594000000E+02  0.51100000000E-03 0.  1.
    9900012    2    1    2    0    0 -0.28570035845E+02 -0.19579748947E+02 -0.21296768735E+02  0.50528857417E+02  0.29999992605E+02 0.  0.
         12    1    1    2    0    0  0.28570035845E+02  0.19579748947E+02  0.21296768735E+02  0.40659142583E+02  0.00000000000E+00 0. -1.
         11    1    3    3    0    0 -0.91394775060E+01 -0.17107036192E+02 -0.12023962923E+02  0.22820088102E+02  0.51100000000E-03 0. -1.
        -11    1    3    3    0    0 -0.86619441739E+01 -0.23202186690E+01 -0.13443384051E+02  0.16159742156E+02  0.51100000000E-03 0.  1.
        -12    1    3    3    0    0 -0.10768614165E+02 -0.15249408664E+00  0.41705782389E+01  0.11549027159E+02  0.00000000000E+00 0.  1.
</event>
<event>
 7    1  0.1381607E-011  0.5052884E+02  0.7816164E-02  0.1300439E+00
        -11   -1    0    0    0    0  0.00000000000E+00  0.00000000000E+00  0.45593999997E+02  0.45594000000E+02  0.51100000000E-03 0.  1.
         11   -1    0    0    0    0 -0.00000000000E+00 -0.00000000000E+00 -0.45593999997E+02  0.45594000000E+02  0.51100000000E-03 0. -1.
    9900012    2    1    2    0    0 -0.19921747814E+01 -0.24415246955E+02  0.32451416763E+02  0.50528837513E+02  0.29999932104E+02 0.  0.
         12    1    1    2    0    0  0.19921747814E+01  0.24415246955E+02 -0.32451416763E+02  0.40659162487E+02  0.00000000000E+00 0. -1.
         11    1    3    3    0    0  0.48697074495E+01 -0.78966011357E+01  0.14270846670E+02  0.17021381409E+02  0.51100000000E-03 0.  1.
        -11    1    3    3    0    0  0.21364488983E+01 -0.91599971422E+01 -0.25455454019E+01  0.97442169103E+01  0.51100000000E-03 0. -1.
         12    1    3    3    0    0 -0.89983311292E+01 -0.73586486775E+01  0.20726115495E+02  0.23763239194E+02  0.00000000000E+00 0. -1.
</event>
<event>
 7    1  0.1381607E-011  0.5052886E+02  0.7816164E-02  0.1300439E+00
        -11   -1    0    0    0    0  0.00000000000E+00  0.00000000000E+00  0.45593999997E+02  0.45594000000E+02  0.51100000000E-03 0.  1.
         11   -1    0    0    0    0 -0.00000000000E+00 -0.00000000000E+00 -0.45593999997E+02  0.45594000000E+02  0.51100000000E-03 0. -1.
    9900012    2    1    2    0    0 -0.37254007207E+02  0.16207237110E+02 -0.16217285079E+01  0.50528860916E+02  0.30000003239E+02 0.  0.
         12    1    1    2    0    0  0.37254007207E+02 -0.16207237110E+02  0.16217285079E+01  0.40659139084E+02  0.00000000000E+00 0. -1.
         11    1    3    3    0    0  0.42780104421E+01  0.28614439778E+01 -0.80676426085E+00  0.52096164748E+01  0.51100000000E-03 0. -1.
        -11    1    3    3    0    0 -0.57912802113E+01 -0.21043096234E+01  0.14010944471E+01  0.63190277249E+01  0.51100000000E-03 0.  1.
        -12    1    3    3    0    0 -0.35740737438E+02  0.15450102755E+02 -0.22160586941E+01  0.39000216716E+02  0.00000000000E+00 0.  1.
</event>
<event>
 7    1  0.1381607E-011  0.5052886E+02  0.7816164E-02  0.1300439E+00
        -11   -1    0    0    0    0  0.00000000000E+00  0.00000000000E+00  0.45593999997E+02  0.45594000000E+02  0.51100000000E-03 0.  1.
         11   -1    0    0    0    0 -0.00000000000E+00 -0.00000000000E+00 -0.45593999997E+02  0.45594000000E+02  0.51100000000E-03 0. -1.
    9900012    2    1    2    0    0  0.30899139379E+02 -0.45036964216E+01  0.26040843438E+02  0.50528860526E+02  0.30000002054E+02 0.  0.
         12    1    1    2    0    0 -0.30899139379E+02  0.45036964216E+01 -0.26040843438E+02  0.40659139474E+02  0.00000000000E+00 0. -1.
         11    1    3    3    0    0  0.32553927050E+01 -0.94719269250E+01  0.26783172075E+01  0.10367659556E+02  0.51100000000E-03 0. -1.
        -11    1    3    3    0    0  0.65341422729E+01  0.74056861069E+01  0.13518789793E+02  0.16742069158E+02  0.51100000000E-03 0.  1.
        -12    1    3    3    0    0  0.21109604401E+02 -0.24374556035E+01  0.98437364369E+01  0.23419131812E+02  0.00000000000E+00 0.  1.
</event>
<event>
 7    1  0.1381607E-011  0.5052884E+02  0.7816164E-02  0.1300439E+00
        -11   -1    0    0    0    0  0.00000000000E+00  0.00000000000E+00  0.45593999997E+02  0.45594000000E+02  0.51100000000E-03 0.  1.
         11   -1    0    0    0    0 -0.00000000000E+00 -0.00000000000E+00 -0.45593999997E+02  0.45594000000E+02  0.51100000000E-03 0. -1.
    9900012    2    1    2    0    0  0.17941565987E+02  0.15532250134E+02  0.33015406585E+02  0.50528835519E+02  0.29999926044E+02 0.  0.
         12    1    1    2    0    0 -0.17941565987E+02 -0.15532250134E+02 -0.33015406585E+02  0.40659164481E+02  0.00000000000E+00 0. -1.
         11    1    3    3    0    0  0.57695826452E+00 -0.24244854485E+01  0.91408297466E-01  0.24938657276E+01  0.51100000000E-03 0. -1.
        -11    1    3    3    0    0  0.17702294229E+02  0.14629420226E+01  0.21879619307E+02  0.28182071634E+02  0.51100000000E-03 0.  1.
        -12    1    3    3    0    0 -0.33768650626E+00  0.16493793560E+02  0.11044378980E+02  0.19852898157E+02  0.00000000000E+00 0.  1.
</event>
<event>
 7    1  0.1381607E-011  0.5052886E+02  0.7816164E-02  0.1300439E+00
        -11   -1    0    0    0    0  0.00000000000E+00  0.00000000000E+00  0.45593999997E+02  0.45594000000E+02  0.51100000000E-03 0.  1.
         11   -1    0    0    0    0 -0.00000000000E+00 -0.00000000000E+00 -0.45593999997E+02  0.45594000000E+02  0.51100000000E-03 0. -1.
    9900012    2    1    2    0    0 -0.22206600870E+02 -0.32308753518E+02  0.10778554882E+02  0.50528856853E+02  0.29999990890E+02 0.  0.
         12    1    1    2    0    0  0.22206600870E+02  0.32308753518E+02 -0.10778554882E+02  0.40659143147E+02  0.00000000000E+00 0. -1.
         11    1    3    3    0    0  0.45544168131E+01 -0.79093391708E+01  0.42575084694E+00  0.91368278233E+01  0.51100000000E-03 0. -1.
        -11    1    3    3    0    0 -0.11067724540E+02 -0.21788794175E+01  0.85024689603E+01  0.14125651160E+02  0.51100000000E-03 0.  1.
         12    1    3    3    0    0 -0.15693293143E+02 -0.22220534930E+02  0.18503350751E+01  0.27266377870E+02  0.00000000000E+00 0. -1.
</event>
<event>
 7    1  0.1381607E-011  0.5052886E+02  0.7816164E-02  0.1300439E+00
        -11   -1    0    0    0    0  0.00000000000E+00  0.00000000000E+00  0.45593999997E+02  0.45594000000E+02  0.51100000000E-03 0. -1.
         11   -1    0    0    0    0 -0.00000000000E+00 -0.00000000000E+00 -0.45593999997E+02  0.45594000000E+02  0.51100000000E-03 0.  1.
    9900012    2    1    2    0    0  0.30743918469E+02 -0.21556646427E+02 -0.15597704840E+02  0.50528856818E+02  0.29999990784E+02 0.  0.
         12    1    1    2    0    0 -0.30743918469E+02  0.21556646427E+02  0.15597704840E+02  0.40659143182E+02  0.00000000000E+00 0. -1.
         11    1    3    3    0    0  0.62608309137E+01 -0.16782095339E+02 -0.10638312240E+02  0.20832916629E+02  0.51100000000E-03 0. -1.
        -11    1    3    3    0    0  0.40959913765E+00 -0.34079052951E+01 -0.43957360427E+01  0.55771036903E+01  0.51100000000E-03 0.  1.
         12    1    3    3    0    0  0.24073488418E+02 -0.13666457923E+01 -0.56365655730E+00  0.24118836498E+02  0.00000000000E+00 0. -1.
</event>
<event>
 7    1  0.1381607E-011  0.5052886E+02  0.7816164E-02  0.1300439E+00
        -11   -1    0    0    0    0  0.00000000000E+00  0.00000000000E+00  0.45593999997E+02  0.45594000000E+02  0.51100000000E-03 0. -1.
         11   -1    0    0    0    0 -0.00000000000E+00 -0.00000000000E+00 -0.45593999997E+02  0.45594000000E+02  0.51100000000E-03 0.  1.
    9900012    2    1    2    0    0  0.23024067219E+01  0.32611777710E+02 -0.24173051322E+02  0.50528861637E+02  0.30000005433E+02 0.  0.
         12    1    1    2    0    0 -0.23024067219E+01 -0.32611777710E+02  0.24173051322E+02  0.40659138363E+02  0.00000000000E+00 0. -1.
         11    1    3    3    0    0 -0.42604215624E+01  0.33741299027E+02 -0.23874787976E+02  0.41552761077E+02  0.51100000000E-03 0.  1.
        -11    1    3    3    0    0  0.18654295454E+01  0.14629861002E+01  0.20360216993E+01  0.31249864542E+01  0.51100000000E-03 0. -1.
        -12    1    3    3    0    0  0.46973987389E+01 -0.25925074164E+01 -0.23342850452E+01  0.58511141066E+01  0.00000000000E+00 0.  1.
</event>
<event>
 7    1  0.1381607E-011  0.5052886E+02  0.7816164E-02  0.1300439E+00
        -11   -1    0    0    0    0  0.00000000000E+00  0.00000000000E+00  0.45593999997E+02  0.45594000000E+02  0.51100000000E-03 0. -1.
         11   -1    0    0    0    0 -0.00000000000E+00 -0.00000000000E+00 -0.45593999997E+02  0.45594000000E+02  0.51100000000E-03 0.  1.
    9900012    2    1    2    0    0 -0.10840166958E+02 -0.34282718814E+02 -0.18982928806E+02  0.50528860621E+02  0.30000002344E+02 0.  0.
         12    1    1    2    0    0  0.10840166958E+02  0.34282718814E+02  0.18982928806E+02  0.40659139379E+02  0.00000000000E+00 0. -1.
         11    1    3    3    0    0  0.79959314546E+00 -0.20051789544E+01 -0.12303877106E+02  0.12491816679E+02  0.51100000000E-03 0. -1.
        -11    1    3    3    0    0 -0.55776728905E+01 -0.10197421523E+02 -0.94404293748E+01  0.14973962322E+02  0.51100000000E-03 0.  1.
         12    1    3    3    0    0 -0.60620872133E+01 -0.22080118337E+02  0.27613776749E+01  0.23063081620E+02  0.00000000000E+00 0. -1.
</event>
<event>
 7    1  0.1381607E-011  0.5052887E+02  0.7816164E-02  0.1300439E+00
        -11   -1    0    0    0    0  0.00000000000E+00  0.00000000000E+00  0.45593999997E+02  0.45594000000E+02  0.51100000000E-03 0.  1.
         11   -1    0    0    0    0 -0.00000000000E+00 -0.00000000000E+00 -0.45593999997E+02  0.45594000000E+02  0.51100000000E-03 0. -1.
    9900012    2    1    2    0    0 -0.33227892370E+02  0.22235767976E+01 -0.23326547183E+02  0.50528869063E+02  0.30000028003E+02 0.  0.
         12    1    1    2    0    0  0.33227892370E+02 -0.22235767976E+01  0.23326547183E+02  0.40659130937E+02  0.00000000000E+00 0. -1.
         11    1    3    3    0    0 -0.97563746198E+01 -0.32716722572E+01 -0.22809577687E+01  0.10540087935E+02  0.51100000000E-03 0. -1.
        -11    1    3    3    0    0  0.18994856010E+01  0.98704240125E+00  0.36923272090E+01  0.42679712663E+01  0.51100000000E-03 0.  1.
        -12    1    3    3    0    0 -0.25371003351E+02  0.45082066536E+01 -0.24737916623E+02  0.35720809861E+02  0.00000000000E+00 0.  1.
</event>
<event>
 7    1  0.1381607E-011  0.5052887E+02  0.7816164E-02  0.1300439E+00
        -11   -1    0    0    0    0  0.00000000000E+00  0.00000000000E+00  0.45593999997E+02  0.45594000000E+02  0.51100000000E-03 0.  1.
         11   -1    0    0    0    0 -0.00000000000E+00 -0.00000000000E+00 -0.45593999997E+02  0.45594000000E+02  0.51100000000E-03 0. -1.
    9900012    2    1    2    0    0  0.30407980540E+01 -0.92408797018E+01  0.39478155629E+02  0.50528867172E+02  0.30000022255E+02 0.  0.
         12    1    1    2    0    0 -0.30407980540E+01  0.92408797018E+01 -0.39478155629E+02  0.40659132828E+02  0.00000000000E+00 0. -1.
         11    1    3    3    0    0 -0.16614463086E+01 -0.50205163025E+01 -0.22125701984E+01  0.57324911621E+01  0.51100000000E-03 0. -1.
        -11    1    3    3    0    0  0.64656498845E+01 -0.18458292237E+01  0.60866986901E+01  0.90697086588E+01  0.51100000000E-03 0.  1.
        -12    1    3    3    0    0 -0.17634055218E+01 -0.23745341756E+01  0.35604027137E+02  0.35726667351E+02  0.00000000000E+00 0.  1.
</event>
<event>
 7    1  0.1381607E-011  0.5052886E+02  0.7816164E-02  0.1300439E+00
        -11   -1    0    0    0    0  0.00000000000E+00  0.00000000000E+00  0.45593999997E+02  0.45594000000E+02  0.51100000000E-03 0.  1.
         11   -1    0    0    0    0 -0.00000000000E+00 -0.00000000000E+00 -0.45593999997E+02  0.45594000000E+02  0.51100000000E-03 0. -1.
    9900012    2    1    2    0    0 -0.25924841049E+02  0.11055341356E+02  0.29306107748E+02  0.50528857028E+02  0.29999991421E+02 0.  0.
         12    1    1    2    0    0  0.25924841049E+02 -0.11055341356E+02 -0.29306107748E+02  0.40659142972E+02  0.00000000000E+00 0. -1.
         11    1    3    3    0    0 -0.42127585366E+01 -0.17925957724E+01  0.70906731137E+01  0.84402831444E+01  0.51100000000E-03 0. -1.
        -11    1    3    3    0    0  0.51866521238E+01  0.53897365044E+01  0.72471739511E+01  0.10414996418E+02  0.51100000000E-03 0.  1.
        -12    1    3    3    0    0 -0.26898734637E+02  0.74582006239E+01  0.14968260683E+02  0.31673577466E+02  0.00000000000E+00 0.  1.
</event>
<event>
 7    1  0.1381607E-011  0.5052884E+02  0.7816164E-02  0.1300439E+00
        -11   -1    0    0    0    0  0.00000000000E+00  0.00000000000E+00  0.45593999997E+02  0.45594000000E+02  0.51100000000E-03 0. -1.
         11   -1    0    0    0    0 -0.00000000000E+00 -0.00000000000E+00 -0.45593999997E+02  0.45594000000E+02  0.51100000000E-03 0.  1.
    9900012    2    1    2    0    0  0.16043846809E+01 -0.35216378540E+02 -0.20258332972E+02  0.50528838394E+02  0.29999934783E+02 0.  0.
         12    1    1    2    0    0 -0.16043846809E+01  0.35216378540E+02  0.20258332972E+02  0.40659161606E+02  0.00000000000E+00 0. -1.
         11    1    3    3    0    0 -0.54868738156E+01 -0.23274141252E+01 -0.71655003811E+01  0.93202487495E+01  0.51100000000E-03 0. -1.
        -11    1    3    3    0    0  0.10103472391E+02 -0.13816668121E+02 -0.13648256621E+02  0.21891902188E+02  0.51100000000E-03 0.  1.
        -12    1    3    3    0    0 -0.30122138948E+01 -0.19072296294E+02  0.55542403059E+00  0.19316687457E+02  0.00000000000E+00 0.  1.
</event>
<event>
 7    1  0.1381607E-011  0.5052890E+02  0.7816164E-02  0.1300439E+00
        -11   -1    0    0    0    0  0.00000000000E+00  0.00000000000E+00  0.45593999997E+02  0.45594000000E+02  0.51100000000E-03 0. -1.
         11   -1    0    0    0    0 -0.00000000000E+00 -0.00000000000E+00 -0.45593999997E+02  0.45594000000E+02  0.51100000000E-03 0.  1.
    9900012    2    1    2    0    0 -0.30074440935E+02  0.10307033954E+02 -0.25346706847E+02  0.50528898996E+02  0.30000118988E+02 0.  0.
         12    1    1    2    0    0  0.30074440935E+02 -0.10307033954E+02  0.25346706847E+02  0.40659101004E+02  0.00000000000E+00 0. -1.
         11    1    3    3    0    0 -0.98913978511E+01  0.10906982826E+02 -0.23919493208E+02  0.28088150195E+02  0.51100000000E-03 0. -1.
        -11    1    3    3    0    0 -0.50637090095E+01  0.27667123597E+01 -0.35974592399E+01  0.67998205460E+01  0.51100000000E-03 0.  1.
        -12    1    3    3    0    0 -0.15119334074E+02 -0.33666612321E+01  0.21702456004E+01  0.15640928255E+02  0.00000000000E+00 0.  1.
</event>
<event>
 7    1  0.1381607E-011  0.5052890E+02  0.7816164E-02  0.1300439E+00
        -11   -1    0    0    0    0  0.00000000000E+00  0.00000000000E+00  0.45593999997E+02  0.45594000000E+02  0.51100000000E-03 0.  1.
         11   -1    0    0    0    0 -0.00000000000E+00 -0.00000000000E+00 -0.45593999997E+02  0.45594000000E+02  0.51100000000E-03 0. -1.
    9900012    2    1    2    0    0  0.40443714112E+01 -0.14605251183E+02  0.37729191591E+02  0.50528902613E+02  0.30000129983E+02 0.  0.
         12    1    1    2    0    0 -0.40443714112E+01  0.14605251183E+02 -0.37729191591E+02  0.40659097387E+02  0.00000000000E+00 0. -1.
         11    1    3    3    0    0 -0.10970902110E+01 -0.12273923437E+02  0.15904991391E+02  0.20120177804E+02  0.51100000000E-03 0.  1.
        -11    1    3    3    0    0 -0.54553855640E+01  0.24128841003E+01  0.16671061941E+02  0.17706144353E+02  0.51100000000E-03 0. -1.
         12    1    3    3    0    0  0.10596847186E+02 -0.47442118467E+01  0.51531382580E+01  0.12702580456E+02  0.00000000000E+00 0. -1.
</event>
<event>
 7    1  0.1381607E-011  0.5052886E+02  0.7816164E-02  0.1300439E+00
        -11   -1    0    0    0    0  0.00000000000E+00  0.00000000000E+00  0.45593999997E+02  0.45594000000E+02  0.51100000000E-03 0.  1.
         11   -1    0    0    0    0 -0.00000000000E+00 -0.00000000000E+00 -0.45593999997E+02  0.45594000000E+02  0.51100000000E-03 0. -1.
    9900012    2    1    2    0    0  0.10625647832E+02 -0.19354504711E+02  0.34141830200E+02  0.50528858176E+02  0.29999994911E+02 0.  0.
         12    1    1    2    0    0 -0.10625647832E+02  0.19354504711E+02 -0.34141830200E+02  0.40659141824E+02  0.00000000000E+00 0. -1.
         11    1    3    3    0    0 -0.35547946033E+01  0.10828826509E+01  0.13284046982E+01  0.39463728676E+01  0.51100000000E-03 0. -1.
        -11    1    3    3    0    0  0.35775941031E+01 -0.78064859212E+01  0.28170351914E+02  0.29450112551E+02  0.51100000000E-03 0.  1.
        -12    1    3    3    0    0  0.10602848332E+02 -0.12630901441E+02  0.46430735878E+01  0.17132372757E+02  0.00000000000E+00 0.  1.
</event>
<event>
 7    1  0.1381607E-011  0.5052883E+02  0.7816164E-02  0.1300439E+00
        -11   -1    0    0    0    0  0.00000000000E+00  0.00000000000E+00  0.45593999997E+02  0.45594000000E+02  0.51100000000E-03 0. -1.
         11   -1    0    0    0    0 -0.00000000000E+00 -0.00000000000E+00 -0.45593999997E+02  0.45594000000E+02  0.51100000000E-03 0.  1.
    9900012    2    1    2    0    0  0.17454500529E+02  0.15722752428E+02 -0.33185895459E+02  0.50528828956E+02  0.29999906093E+02 0.  0.
         12    1    1    2    0    0 -0.17454500529E+02 -0.15722752428E+02  0.33185895459E+02  0.40659171044E+02  0.00000000000E+00 0. -1.
         11    1    3    3    0    0 -0.24261322823E+01 -0.10757737858E+01 -0.86588025762E+01  0.90563938411E+01  0.51100000000E-03 0. -1.
        -11    1    3    3    0    0  0.29822688242E+01  0.86789502523E+01  0.15994119315E+01  0.93153756558E+01  0.51100000000E-03 0.  1.
        -12    1    3    3    0    0  0.16898363987E+02  0.81195759614E+01 -0.26126504814E+02  0.32157059459E+02  0.00000000000E+00 0.  1.
</event>
<event>
 7    1  0.1381607E-011  0.5052886E+02  0.7816164E-02  0.1300439E+00
        -11   -1    0    0    0    0  0.00000000000E+00  0.00000000000E+00  0.45593999997E+02  0.45594000000E+02  0.51100000000E-03 0.  1.
         11   -1    0    0    0    0 -0.00000000000E+00 -0.00000000000E+00 -0.45593999997E+02  0.45594000000E+02  0.51100000000E-03 0. -1.
    9900012    2    1    2    0    0 -0.17193274987E+02 -0.35279508397E+02  0.10626049230E+02  0.50528864007E+02  0.30000012634E+02 0.  0.
         12    1    1    2    0    0  0.17193274987E+02  0.35279508397E+02 -0.10626049230E+02  0.40659135993E+02  0.00000000000E+00 0. -1.
         11    1    3    3    0    0 -0.11455890503E+02 -0.13281478404E+02 -0.27738265418E+01  0.17757511362E+02  0.51100000000E-03 0. -1.
        -11    1    3    3    0    0 -0.10357030420E+02 -0.20010878689E+02  0.15471361865E+02  0.27332515129E+02  0.51100000000E-03 0.  1.
         12    1    3    3    0    0  0.46196459369E+01 -0.19871513038E+01 -0.20714860940E+01  0.54388375158E+01  0.00000000000E+00 0. -1.
</event>
<event>
 7    1  0.1381607E-011  0.5052886E+02  0.7816164E-02  0.1300439E+00
        -11   -1    0    0    0    0  0.00000000000E+00  0.00000000000E+00  0.45593999997E+02  0.45594000000E+02  0.51100000000E-03 0. -1.
         11   -1    0    0    0    0 -0.00000000000E+00 -0.00000000000E+00 -0.45593999997E+02  0.45594000000E+02  0.51100000000E-03 0.  1.
    9900012    2    1    2    0    0  0.38400808212E+02 -0.13057712578E+02  0.28354301416E+01  0.50528860890E+02  0.30000003161E+02 0.  0.
         12    1    1    2    0    0 -0.38400808212E+02  0.13057712578E+02 -0.28354301416E+01  0.40659139110E+02  0.00000000000E+00 0. -1.
         11    1    3    3    0    0  0.59312577507E+01 -0.39840201900E+00  0.25543204986E+01  0.64701697153E+01  0.51100000000E-03 0. -1.
        -11    1    3    3    0    0  0.49296463257E+01 -0.15368369509E+02 -0.21365751141E+01  0.16280452934E+02  0.51100000000E-03 0.  1.
        -12    1    3    3    0    0  0.27539904135E+02  0.27090589498E+01  0.24176847571E+01  0.27778238241E+02  0.00000000000E+00 0.  1.
</event>
<event>
 7    1  0.1381607E-011  0.5052884E+02  0.7816164E-02  0.1300439E+00
        -11   -1    0    0    0    0  0.00000000000E+00  0.00000000000E+00  0.45593999997E+02  0.45594000000E+02  0.51100000000E-03 0.  1.
         11   -1    0    0    0    0 -0.00000000000E+00 -0.00000000000E+00 -0.45593999997E+02  0.45594000000E+02  0.51100000000E-03 0. -1.
    9900012    2    1    2    0    0  0.17720745646E+02  0.29702163424E+02  0.21375788696E+02  0.50528835218E+02  0.29999925130E+02 0.  0.
         12    1    1    2    0    0 -0.17720745646E+02 -0.29702163424E+02 -0.21375788696E+02  0.40659164782E+02  0.00000000000E+00 0. -1.
         11    1    3    3    0    0  0.84471383886E+01  0.10362701863E+02 -0.15004553411E+01  0.13453293402E+02  0.51100000000E-03 0. -1.
        -11    1    3    3    0    0 -0.17442701602E+01  0.12043566356E+02  0.19475213887E+01  0.12324074358E+02  0.51100000000E-03 0.  1.
        -12    1    3    3    0    0  0.11017877418E+02  0.72958952052E+01  0.20928722649E+02  0.24751467459E+02  0.00000000000E+00 0.  1.
</event>
<event>
 7    1  0.1381607E-011  0.5052886E+02  0.7816164E-02  0.1300439E+00
        -11   -1    0    0    0    0  0.00000000000E+00  0.00000000000E+00  0.45593999997E+02  0.45594000000E+02  0.51100000000E-03 0.  1.
         11   -1    0    0    0    0 -0.00000000000E+00 -0.00000000000E+00 -0.45593999997E+02  0.45594000000E+02  0.51100000000E-03 0. -1.
    9900012    2    1    2    0    0  0.31964797486E+02  0.17097095089E+02  0.18414857327E+02  0.50528857003E+02  0.29999991348E+02 0.  0.
         12    1    1    2    0    0 -0.31964797486E+02 -0.17097095089E+02 -0.18414857327E+02  0.40659142997E+02  0.00000000000E+00 0. -1.
         11    1    3    3    0    0 -0.64352750734E+00 -0.46243394459E-01 -0.25846161116E+01  0.26639269528E+01  0.51100000000E-03 0. -1.
        -11    1    3    3    0    0  0.20256665431E+02  0.14021065459E+02  0.16410995044E+01  0.24690402565E+02  0.51100000000E-03 0.  1.
        -12    1    3    3    0    0  0.12351659562E+02  0.31222730250E+01  0.19358373935E+02  0.23174527486E+02  0.00000000000E+00 0.  1.
</event>
<event>
 7    1  0.1381607E-011  0.5052885E+02  0.7816164E-02  0.1300439E+00
        -11   -1    0    0    0    0  0.00000000000E+00  0.00000000000E+00  0.45593999997E+02  0.45594000000E+02  0.51100000000E-03 0. -1.
         11   -1    0    0    0    0 -0.00000000000E+00 -0.00000000000E+00 -0.45593999997E+02  0.45594000000E+02  0.51100000000E-03 0.  1.
    9900012    2    1    2    0    0 -0.18782716259E+02 -0.17026453577E+02 -0.31787988280E+02  0.50528846659E+02  0.29999959906E+02 0.  0.
         12    1    1    2    0    0  0.18782716259E+02  0.17026453577E+02  0.31787988280E+02  0.40659153341E+02  0.00000000000E+00 0. -1.
         11    1    3    3    0    0 -0.56137133445E+01  0.93567416364E+00  0.23765465462E+01  0.61674336155E+01  0.51100000000E-03 0.  1.
        -11    1    3    3    0    0  0.25030320216E+00 -0.87002372571E+01 -0.30307949140E+01  0.92164254510E+01  0.51100000000E-03 0. -1.
         12    1    3    3    0    0 -0.13419306116E+02 -0.92618904840E+01 -0.31133739912E+02  0.35144987593E+02  0.00000000000E+00 0. -1.
</event>
<event>
 7    1  0.1381607E-011  0.5052886E+02  0.7816164E-02  0.1300439E+00
        -11   -1    0    0    0    0  0.00000000000E+00  0.00000000000E+00  0.45593999997E+02  0.45594000000E+02  0.51100000000E-03 0.  1.
         11   -1    0    0    0    0 -0.00000000000E+00 -0.00000000000E+00 -0.45593999997E+02  0.45594000000E+02  0.51100000000E-03 0. -1.
    9900012    2    1    2    0    0  0.15321406901E+02  0.29369353277E+02  0.23576710630E+02  0.50528859509E+02  0.29999998964E+02 0.  0.
         12    1    1    2    0    0 -0.15321406901E+02 -0.29369353277E+02 -0.23576710630E+02  0.40659140491E+02  0.00000000000E+00 0. -1.
         11    1    3    3    0    0  0.12040167279E+02  0.35534855093E+01 -0.91391935602E+00  0.12586823914E+02  0.51100000000E-03 0. -1.
        -11    1    3    3    0    0 -0.41891977811E+01  0.10680905346E+02  0.61513347993E+01  0.13018065798E+02  0.51100000000E-03 0.  1.
        -12    1    3    3    0    0  0.74704374021E+01  0.15134962422E+02  0.18339295187E+02  0.24923969797E+02  0.00000000000E+00 0.  1.
</event>
<event>
 7    1  0.1381607E-011  0.5052888E+02  0.7816164E-02  0.1300439E+00
        -11   -1    0    0    0    0  0.00000000000E+00  0.00000000000E+00  0.45593999997E+02  0.45594000000E+02  0.51100000000E-03 0.  1.
         11   -1    0    0    0    0 -0.00000000000E+00 -0.00000000000E+00 -0.45593999997E+02  0.45594000000E+02  0.51100000000E-03 0. -1.
    9900012    2    1    2    0    0  0.36592301032E+02 -0.15856334723E+02 -0.79211323096E+01  0.50528878235E+02  0.30000055883E+02 0.  0.
         12    1    1    2    0    0 -0.36592301032E+02  0.15856334723E+02  0.79211323096E+01  0.40659121765E+02  0.00000000000E+00 0. -1.
         11    1    3    3    0    0  0.61774812664E+01  0.25241546753E+01  0.20651228369E+01  0.69855110202E+01  0.51100000000E-03 0. -1.
        -11    1    3    3    0    0  0.34091807424E+02 -0.14950764424E+02 -0.76731897202E+01  0.38008611275E+02  0.51100000000E-03 0.  1.
        -12    1    3    3    0    0 -0.36769876591E+01 -0.34297249747E+01 -0.23130654263E+01  0.55347559398E+01  0.00000000000E+00 0.  1.
</event>
<event>
 7    1  0.1381607E-011  0.5052880E+02  0.7816164E-02  0.1300439E+00
        -11   -1    0    0    0    0  0.00000000000E+00  0.00000000000E+00  0.45593999997E+02  0.45594000000E+02  0.51100000000E-03 0.  1.
         11   -1    0    0    0    0 -0.00000000000E+00 -0.00000000000E+00 -0.45593999997E+02  0.45594000000E+02  0.51100000000E-03 0. -1.
    9900012    2    1    2    0    0 -0.17249880280E+02  0.23077885073E+02 -0.28688387070E+02  0.50528798068E+02  0.29999812206E+02 0.  0.
         12    1    1    2    0    0  0.17249880280E+02 -0.23077885073E+02  0.28688387070E+02  0.40659201932E+02  0.00000000000E+00 0. -1.
         11    1    3    3    0    0 -0.44782238065E+01 -0.12857068565E+01  0.20972131081E+01  0.51093868187E+01  0.51100000000E-03 0. -1.
        -11    1    3    3    0    0 -0.15466145145E+02  0.92781280032E+01 -0.15616055887E+02  0.23856791625E+02  0.51100000000E-03 0.  1.
        -12    1    3    3    0    0  0.26944886716E+01  0.15085463926E+02 -0.15169544290E+02  0.21562619624E+02  0.00000000000E+00 0.  1.
</event>
<event>
 7    1  0.1381607E-011  0.5052886E+02  0.7816164E-02  0.1300439E+00
        -11   -1    0    0    0    0  0.00000000000E+00  0.00000000000E+00  0.45593999997E+02  0.45594000000E+02  0.51100000000E-03 0.  1.
         11   -1    0    0    0    0 -0.00000000000E+00 -0.00000000000E+00 -0.45593999997E+02  0.45594000000E+02  0.51100000000E-03 0. -1.
    9900012    2    1    2    0    0 -0.15702062565E+02 -0.24259063772E+02  0.28602603745E+02  0.50528857302E+02  0.29999992256E+02 0.  0.
         12    1    1    2    0    0  0.15702062565E+02  0.24259063772E+02 -0.28602603745E+02  0.40659142698E+02  0.00000000000E+00 0. -1.
         11    1    3    3    0    0  0.44296777548E+01 -0.10480324997E+02  0.17219748189E+02  0.20639258345E+02  0.51100000000E-03 0. -1.
        -11    1    3    3    0    0 -0.94273586808E+00 -0.70361859237E+01  0.14127616364E+01  0.72382704407E+01  0.51100000000E-03 0.  1.
         12    1    3    3    0    0 -0.19189004452E+02 -0.67425528513E+01  0.99700939197E+01  0.22651328517E+02  0.00000000000E+00 0. -1.
</event>
<event>
 7    1  0.1381607E-011  0.5052886E+02  0.7816164E-02  0.1300439E+00
        -11   -1    0    0    0    0  0.00000000000E+00  0.00000000000E+00  0.45593999997E+02  0.45594000000E+02  0.51100000000E-03 0.  1.
         11   -1    0    0    0    0 -0.00000000000E+00 -0.00000000000E+00 -0.45593999997E+02  0.45594000000E+02  0.51100000000E-03 0. -1.
    9900012    2    1    2    0    0 -0.15585624311E+02  0.13915149029E+01  0.37527556909E+02  0.50528861711E+02  0.30000005656E+02 0.  0.
         12    1    1    2    0    0  0.15585624311E+02 -0.13915149029E+01 -0.37527556909E+02  0.40659138289E+02  0.00000000000E+00 0. -1.
         11    1    3    3    0    0  0.18812769380E+01 -0.21360677133E+01  0.97593085981E+00  0.30090579086E+01  0.51100000000E-03 0.  1.
        -11    1    3    3    0    0 -0.20090568590E+02  0.10647001027E+02  0.28456097693E+02  0.36424429623E+02  0.51100000000E-03 0. -1.
         12    1    3    3    0    0  0.26236673412E+01 -0.71194184110E+01  0.80955283558E+01  0.11095374180E+02  0.00000000000E+00 0. -1.
</event>
<event>
 7    1  0.1381607E-011  0.5052886E+02  0.7816164E-02  0.1300439E+00
        -11   -1    0    0    0    0  0.00000000000E+00  0.00000000000E+00  0.45593999997E+02  0.45594000000E+02  0.51100000000E-03 0.  1.
         11   -1    0    0    0    0 -0.00000000000E+00 -0.00000000000E+00 -0.45593999997E+02  0.45594000000E+02  0.51100000000E-03 0. -1.
    9900012    2    1    2    0    0 -0.55773732283E+01  0.40148219790E+02 -0.31904177768E+01  0.50528863142E+02  0.30000010007E+02 0.  0.
         12    1    1    2    0    0  0.55773732283E+01 -0.40148219790E+02  0.31904177768E+01  0.40659136858E+02  0.00000000000E+00 0. -1.
         11    1    3    3    0    0 -0.38048736693E+01  0.15081976889E+01  0.19152866689E+01  0.45188546329E+01  0.51100000000E-03 0. -1.
        -11    1    3    3    0    0 -0.11526253001E+02  0.29882496681E+02 -0.24469542784E+00  0.32029330187E+02  0.51100000000E-03 0.  1.
        -12    1    3    3    0    0  0.97537534417E+01  0.87575254204E+01 -0.48610090178E+01  0.13980678323E+02  0.00000000000E+00 0.  1.
</event>
<event>
 7    1  0.1381607E-011  0.5052887E+02  0.7816164E-02  0.1300439E+00
        -11   -1    0    0    0    0  0.00000000000E+00  0.00000000000E+00  0.45593999997E+02  0.45594000000E+02  0.51100000000E-03 0. -1.
         11   -1    0    0    0    0 -0.00000000000E+00 -0.00000000000E+00 -0.45593999997E+02  0.45594000000E+02  0.51100000000E-03 0.  1.
    9900012    2    1    2    0    0  0.28108279901E+02 -0.29374430975E+02  0.48234969831E+00  0.50528865044E+02  0.30000015789E+02 0.  0.
         12    1    1    2    0    0 -0.28108279901E+02  0.29374430975E+02 -0.48234969831E+00  0.40659134956E+02  0.00000000000E+00 0. -1.
         11    1    3    3    0    0 -0.16016209943E+00  0.17134843907E+01 -0.78483057546E+00  0.18914650271E+01  0.51100000000E-03 0. -1.
        -11    1    3    3    0    0  0.22775301808E+02 -0.75977283265E+01  0.40682867347E+01  0.24351402535E+02  0.51100000000E-03 0.  1.
        -12    1    3    3    0    0  0.54931401921E+01 -0.23490187039E+02 -0.28011064610E+01  0.24285997483E+02  0.00000000000E+00 0.  1.
</event>
<event>
 7    1  0.1381607E-011  0.5052887E+02  0.7816164E-02  0.1300439E+00
        -11   -1    0    0    0    0  0.00000000000E+00  0.00000000000E+00  0.45593999997E+02  0.45594000000E+02  0.51100000000E-03 0.  1.
         11   -1    0    0    0    0 -0.00000000000E+00 -0.00000000000E+00 -0.45593999997E+02  0.45594000000E+02  0.51100000000E-03 0. -1.
    9900012    2    1    2    0    0  0.19101980148E+02 -0.25975978761E+02  0.24769493058E+02  0.50528869359E+02  0.30000028903E+02 0.  0.
         12    1    1    2    0    0 -0.19101980148E+02  0.25975978761E+02 -0.24769493058E+02  0.40659130641E+02  0.00000000000E+00 0. -1.
         11    1    3    3    0    0  0.91864540509E+00 -0.99528205084E+01 -0.53842069989E+00  0.10009617503E+02  0.51100000000E-03 0. -1.
        -11    1    3    3    0    0  0.12715268434E+02 -0.31931250793E+01  0.18658893742E+01  0.13242191757E+02  0.51100000000E-03 0.  1.
        -12    1    3    3    0    0  0.54680663088E+01 -0.12830033173E+02  0.23442024384E+02  0.27277060098E+02  0.00000000000E+00 0.  1.
</event>
<event>
 7    1  0.1381607E-011  0.5052887E+02  0.7816164E-02  0.1300439E+00
        -11   -1    0    0    0    0  0.00000000000E+00  0.00000000000E+00  0.45593999997E+02  0.45594000000E+02  0.51100000000E-03 0.  1.
         11   -1    0    0    0    0 -0.00000000000E+00 -0.00000000000E+00 -0.45593999997E+02  0.45594000000E+02  0.51100000000E-03 0. -1.
    9900012    2    1    2    0    0  0.13030953910E+02  0.38134566786E+02 -0.53957415532E+01  0.50528868545E+02  0.30000026430E+02 0.  0.
         12    1    1    2    0    0 -0.13030953910E+02 -0.38134566786E+02  0.53957415532E+01  0.40659131455E+02  0.00000000000E+00 0. -1.
         11    1    3    3    0    0 -0.39379580568E+01 -0.20536740093E+01  0.44212597035E+00  0.44632461537E+01  0.51100000000E-03 0. -1.
        -11    1    3    3    0    0  0.34699566069E+00  0.12960468905E+02 -0.57052356498E+01  0.14164881726E+02  0.51100000000E-03 0.  1.
        -12    1    3    3    0    0  0.16621916306E+02  0.27227771890E+02 -0.13263187371E+00  0.31900740665E+02  0.00000000000E+00 0.  1.
</event>
<event>
 7    1  0.1381607E-011  0.5052883E+02  0.7816164E-02  0.1300439E+00
        -11   -1    0    0    0    0  0.00000000000E+00  0.00000000000E+00  0.45593999997E+02  0.45594000000E+02  0.51100000000E-03 0.  1.
         11   -1    0    0    0    0 -0.00000000000E+00 -0.00000000000E+00 -0.45593999997E+02  0.45594000000E+02  0.51100000000E-03 0. -1.
    9900012    2    1    2    0    0  0.31447700121E+01  0.30726398565E+02  0.26441767076E+02  0.50528828915E+02  0.29999905970E+02 0.  0.
         12    1    1    2    0    0 -0.31447700121E+01 -0.30726398565E+02 -0.26441767076E+02  0.40659171085E+02  0.00000000000E+00 0. -1.
         11    1    3    3    0    0  0.25272116662E+01  0.14109248011E+01  0.76500447625E+01  0.81792843654E+01  0.51100000000E-03 0.  1.
        -11    1    3    3    0    0 -0.96798474877E+00 -0.16015787601E+01 -0.36578159762E+01  0.41087305796E+01  0.51100000000E-03 0. -1.
         12    1    3    3    0    0  0.15855430946E+01  0.30917052524E+02  0.22449538290E+02  0.38240813970E+02  0.00000000000E+00 0. -1.
</event>
<event>
 7    1  0.1381607E-011  0.5052886E+02  0.7816164E-02  0.1300439E+00
        -11   -1    0    0    0    0  0.00000000000E+00  0.00000000000E+00  0.45593999997E+02  0.45594000000E+02  0.51100000000E-03 0. -1.
         11   -1    0    0    0    0 -0.00000000000E+00 -0.00000000000E+00 -0.45593999997E+02  0.45594000000E+02  0.51100000000E-03 0.  1.
    9900012    2    1    2    0    0 -0.32247779307E+02 -0.23401619527E+02  0.81000456585E+01  0.50528858267E+02  0.29999995189E+02 0.  0.
         12    1    1    2    0    0  0.32247779307E+02  0.23401619527E+02 -0.81000456585E+01  0.40659141733E+02  0.00000000000E+00 0. -1.
         11    1    3    3    0    0 -0.89549668771E+00 -0.16908596138E+00  0.39390270499E+01  0.40430729330E+01  0.51100000000E-03 0. -1.
        -11    1    3    3    0    0 -0.32410874933E+02 -0.20445999931E+02  0.10282938779E+02  0.39676725637E+02  0.51100000000E-03 0.  1.
        -12    1    3    3    0    0  0.10585923131E+01 -0.27865336347E+01 -0.61219201705E+01  0.68090596969E+01  0.00000000000E+00 0.  1.
</event>
<event>
 7    1  0.1381607E-011  0.5052887E+02  0.7816164E-02  0.1300439E+00
        -11   -1    0    0    0    0  0.00000000000E+00  0.00000000000E+00  0.45593999997E+02  0.45594000000E+02  0.51100000000E-03 0. -1.
         11   -1    0    0    0    0 -0.00000000000E+00 -0.00000000000E+00 -0.45593999997E+02  0.45594000000E+02  0.51100000000E-03 0.  1.
    9900012    2    1    2    0    0  0.13363713192E+02 -0.23338426436E+02 -0.30494161637E+02  0.50528869749E+02  0.30000030090E+02 0.  0.
         12    1    1    2    0    0 -0.13363713192E+02  0.23338426436E+02  0.30494161637E+02  0.40659130251E+02  0.00000000000E+00 0. -1.
         11    1    3    3    0    0  0.23635074100E+01 -0.10921580045E+02 -0.13581540766E+02  0.17587647022E+02  0.51100000000E-03 0. -1.
        -11    1    3    3    0    0  0.63579601662E+01 -0.19001768566E+02 -0.13671400286E+02  0.24256917615E+02  0.51100000000E-03 0.  1.
         12    1    3    3    0    0  0.46422456155E+01  0.65849221744E+01 -0.32412205850E+01  0.86843051120E+01  0.00000000000E+00 0. -1.
</event>
<event>
 7    1  0.1381607E-011  0.5052885E+02  0.7816164E-02  0.1300439E+00
        -11   -1    0    0    0    0  0.00000000000E+00  0.00000000000E+00  0.45593999997E+02  0.45594000000E+02  0.51100000000E-03 0.  1.
         11   -1    0    0    0    0 -0.00000000000E+00 -0.00000000000E+00 -0.45593999997E+02  0.45594000000E+02  0.51100000000E-03 0. -1.
    9900012    2    1    2    0    0  0.18312684462E+02  0.29713846059E+02  0.20854245680E+02  0.50528848229E+02  0.29999964678E+02 0.  0.
         12    1    1    2    0    0 -0.18312684462E+02 -0.29713846059E+02 -0.20854245680E+02  0.40659151771E+02  0.00000000000E+00 0. -1.
         11    1    3    3    0    0  0.24674369450E+02  0.19669939632E+02  0.93984962542E+01  0.32925108428E+02  0.51100000000E-03 0. -1.
        -11    1    3    3    0    0 -0.52586963825E+00  0.39158386324E+01  0.85999281553E+00  0.40435033047E+01  0.51100000000E-03 0.  1.
         12    1    3    3    0    0 -0.58358153501E+01  0.61280677945E+01  0.10595756611E+02  0.13560236497E+02  0.00000000000E+00 0. -1.
</event>
<event>
 7    1  0.1381607E-011  0.5052886E+02  0.7816164E-02  0.1300439E+00
        -11   -1    0    0    0    0  0.00000000000E+00  0.00000000000E+00  0.45593999997E+02  0.45594000000E+02  0.51100000000E-03 0.  1.
         11   -1    0    0    0    0 -0.00000000000E+00 -0.00000000000E+00 -0.45593999997E+02  0.45594000000E+02  0.51100000000E-03 0. -1.
    9900012    2    1    2    0    0  0.29533167287E+02 -0.25665556534E+02  0.11056067142E+02  0.50528863476E+02  0.30000011022E+02 0.  0.
         12    1    1    2    0    0 -0.29533167287E+02  0.25665556534E+02 -0.11056067142E+02  0.40659136524E+02  0.00000000000E+00 0. -1.
         11    1    3    3    0    0  0.18164490415E+02 -0.12703616195E+02 -0.68582589571E+01  0.23202721665E+02  0.51100000000E-03 0. -1.
        -11    1    3    3    0    0 -0.69703546057E+00  0.13910587990E+01  0.27023029386E+00  0.15792174291E+01  0.51100000000E-03 0.  1.
        -12    1    3    3    0    0  0.12065712333E+02 -0.14352999138E+02  0.17644095805E+02  0.25746924382E+02  0.00000000000E+00 0.  1.
</event>
<event>
 7    1  0.1381607E-011  0.5052886E+02  0.7816164E-02  0.1300439E+00
        -11   -1    0    0    0    0  0.00000000000E+00  0.00000000000E+00  0.45593999997E+02  0.45594000000E+02  0.51100000000E-03 0. -1.
         11   -1    0    0    0    0 -0.00000000000E+00 -0.00000000000E+00 -0.45593999997E+02  0.45594000000E+02  0.51100000000E-03 0.  1.
    9900012    2    1    2    0    0 -0.18960129951E+02 -0.14664307813E+02  0.32842617102E+02  0.50528856508E+02  0.29999989843E+02 0.  0.
         12    1    1    2    0    0  0.18960129951E+02  0.14664307813E+02 -0.32842617102E+02  0.40659143492E+02  0.00000000000E+00 0. -1.
         11    1    3    3    0    0 -0.97164226101E+01 -0.19233430080E+02  0.25505112433E+02  0.33389286627E+02  0.51100000000E-03 0. -1.
        -11    1    3    3    0    0 -0.10916431334E+01 -0.36756509939E+01  0.24939432206E+01  0.45740406654E+01  0.51100000000E-03 0.  1.
        -12    1    3    3    0    0 -0.81520642075E+01  0.82447732615E+01  0.48435614485E+01  0.12565529216E+02  0.00000000000E+00 0.  1.
</event>
<event>
 7    1  0.1381607E-011  0.5052887E+02  0.7816164E-02  0.1300439E+00
        -11   -1    0    0    0    0  0.00000000000E+00  0.00000000000E+00  0.45593999997E+02  0.45594000000E+02  0.51100000000E-03 0. -1.
         11   -1    0    0    0    0 -0.00000000000E+00 -0.00000000000E+00 -0.45593999997E+02  0.45594000000E+02  0.51100000000E-03 0.  1.
    9900012    2    1    2    0    0 -0.78433768445E+01  0.39124708441E+02  0.78040566627E+01  0.50528872227E+02  0.30000037620E+02 0.  0.
         12    1    1    2    0    0  0.78433768445E+01 -0.39124708441E+02 -0.78040566627E+01  0.40659127773E+02  0.00000000000E+00 0. -1.
         11    1    3    3    0    0  0.49686840118E+01  0.51029865292E+01  0.32327539724E+01  0.78216999964E+01  0.51100000000E-03 0. -1.
        -11    1    3    3    0    0 -0.90917408150E+01  0.36701424760E+02  0.33296718949E+01  0.37957094800E+02  0.51100000000E-03 0.  1.
         12    1    3    3    0    0 -0.37203200413E+01 -0.26797028482E+01  0.12416307954E+01  0.47500774306E+01  0.00000000000E+00 0. -1.
</event>
<event>
 7    1  0.1381607E-011  0.5052886E+02  0.7816164E-02  0.1300439E+00
        -11   -1    0    0    0    0  0.00000000000E+00  0.00000000000E+00  0.45593999997E+02  0.45594000000E+02  0.51100000000E-03 0. -1.
         11   -1    0    0    0    0 -0.00000000000E+00 -0.00000000000E+00 -0.45593999997E+02  0.45594000000E+02  0.51100000000E-03 0.  1.
    9900012    2    1    2    0    0  0.32096180324E+00 -0.39991132610E+02  0.73329468037E+01  0.50528858190E+02  0.29999994954E+02 0.  0.
         12    1    1    2    0    0 -0.32096180324E+00  0.39991132610E+02 -0.73329468037E+01  0.40659141810E+02  0.00000000000E+00 0. -1.
         11    1    3    3    0    0 -0.43492999053E+01 -0.86717745196E+01  0.47735412332E+01  0.10812158857E+02  0.51100000000E-03 0. -1.
        -11    1    3    3    0    0 -0.74598537903E+01 -0.19169422914E+02 -0.46615391656E+01  0.21091375988E+02  0.51100000000E-03 0.  1.
         12    1    3    3    0    0  0.12130115499E+02 -0.12149935177E+02  0.72209447361E+01  0.18625323345E+02  0.00000000000E+00 0. -1.
</event>
<event>
 7    1  0.1381607E-011  0.5052885E+02  0.7816164E-02  0.1300439E+00
        -11   -1    0    0    0    0  0.00000000000E+00  0.00000000000E+00  0.45593999997E+02  0.45594000000E+02  0.51100000000E-03 0. -1.
         11   -1    0    0    0    0 -0.00000000000E+00 -0.00000000000E+00 -0.45593999997E+02  0.45594000000E+02  0.51100000000E-03 0.  1.
    9900012    2    1    2    0    0 -0.36987649104E+02 -0.92843729450E+01 -0.14102500147E+02  0.50528852473E+02  0.29999977578E+02 0.  0.
         12    1    1    2    0    0  0.36987649104E+02  0.92843729450E+01  0.14102500147E+02  0.40659147527E+02  0.00000000000E+00 0. -1.
         11    1    3    3    0    0 -0.78928347499E+01 -0.48872542964E+01  0.34171281995E+01  0.98923637387E+01  0.51100000000E-03 0. -1.
        -11    1    3    3    0    0 -0.57913293874E+01 -0.36932438254E+01 -0.15836225581E+02  0.17261679725E+02  0.51100000000E-03 0.  1.
         12    1    3    3    0    0 -0.23303484967E+02 -0.70387482319E+00 -0.16834027653E+01  0.23374809009E+02  0.00000000000E+00 0. -1.
</event>
<event>
 7    1  0.1381607E-011  0.5052886E+02  0.7816164E-02  0.1300439E+00
        -11   -1    0    0    0    0  0.00000000000E+00  0.00000000000E+00  0.45593999997E+02  0.45594000000E+02  0.51100000000E-03 0.  1.
         11   -1    0    0    0    0 -0.00000000000E+00 -0.00000000000E+00 -0.45593999997E+02  0.45594000000E+02  0.51100000000E-03 0. -1.
    9900012    2    1    2    0    0 -0.31836697106E+02  0.20376418375E+02  0.14979730822E+02  0.50528855347E+02  0.29999986313E+02 0.  0.
         12    1    1    2    0    0  0.31836697106E+02 -0.20376418375E+02 -0.14979730822E+02  0.40659144653E+02  0.00000000000E+00 0. -1.
         11    1    3    3    0    0 -0.12565877141E+02  0.11288924999E+01  0.10402276663E+02  0.16351850863E+02  0.51100000000E-03 0. -1.
        -11    1    3    3    0    0 -0.22522870489E+02  0.20299232504E+02  0.31888872536E+01  0.30487826054E+02  0.51100000000E-03 0.  1.
        -12    1    3    3    0    0  0.32520505238E+01 -0.10517066291E+01  0.13885669051E+01  0.36891784306E+01  0.00000000000E+00 0.  1.
</event>
<event>
 7    1  0.1381607E-011  0.5052886E+02  0.7816164E-02  0.1300439E+00
        -11   -1    0    0    0    0  0.00000000000E+00  0.00000000000E+00  0.45593999997E+02  0.45594000000E+02  0.51100000000E-03 0.  1.
         11   -1    0    0    0    0 -0.00000000000E+00 -0.00000000000E+00 -0.45593999997E+02  0.45594000000E+02  0.51100000000E-03 0. -1.
    9900012    2    1    2    0    0 -0.27141307317E+02 -0.16403224998E+02  0.25445020784E+02  0.50528862824E+02  0.30000009039E+02 0.  0.
         12    1    1    2    0    0  0.27141307317E+02  0.16403224998E+02 -0.25445020784E+02  0.40659137176E+02  0.00000000000E+00 0. -1.
         11    1    3    3    0    0 -0.43940752067E+01  0.27070979711E+01  0.46387670595E-01  0.51612429147E+01  0.51100000000E-03 0. -1.
        -11    1    3    3    0    0 -0.23329456550E+02 -0.62955985246E+01  0.20315576242E+02  0.31569300626E+02  0.51100000000E-03 0.  1.
         12    1    3    3    0    0  0.58222443923E+00 -0.12814724445E+02  0.50830568710E+01  0.13798319283E+02  0.00000000000E+00 0. -1.
</event>
<event>
 7    1  0.1381607E-011  0.5052887E+02  0.7816164E-02  0.1300439E+00
        -11   -1    0    0    0    0  0.00000000000E+00  0.00000000000E+00  0.45593999997E+02  0.45594000000E+02  0.51100000000E-03 0.  1.
         11   -1    0    0    0    0 -0.00000000000E+00 -0.00000000000E+00 -0.45593999997E+02  0.45594000000E+02  0.51100000000E-03 0. -1.
    9900012    2    1    2    0    0  0.33986813614E+02 -0.16685309103E+02  0.14820997618E+02  0.50528868063E+02  0.30000024963E+02 0.  0.
         12    1    1    2    0    0 -0.33986813614E+02  0.16685309103E+02 -0.14820997618E+02  0.40659131937E+02  0.00000000000E+00 0. -1.
         11    1    3    3    0    0 -0.22202070279E+00  0.25297038529E+01 -0.18677791937E+01  0.31523474037E+01  0.51100000000E-03 0. -1.
        -11    1    3    3    0    0  0.21060341887E+02 -0.29107652346E+01  0.15660761442E+02  0.26405870632E+02  0.51100000000E-03 0.  1.
         12    1    3    3    0    0  0.13148492430E+02 -0.16304247721E+02  0.10280153703E+01  0.20970650026E+02  0.00000000000E+00 0. -1.
</event>
<event>
 7    1  0.1381607E-011  0.5052886E+02  0.7816164E-02  0.1300439E+00
        -11   -1    0    0    0    0  0.00000000000E+00  0.00000000000E+00  0.45593999997E+02  0.45594000000E+02  0.51100000000E-03 0.  1.
         11   -1    0    0    0    0 -0.00000000000E+00 -0.00000000000E+00 -0.45593999997E+02  0.45594000000E+02  0.51100000000E-03 0. -1.
    9900012    2    1    2    0    0 -0.86662025169E+01  0.27022442234E+02  0.29117861195E+02  0.50528864607E+02  0.30000014459E+02 0.  0.
         12    1    1    2    0    0  0.86662025169E+01 -0.27022442234E+02 -0.29117861195E+02  0.40659135393E+02  0.00000000000E+00 0. -1.
         11    1    3    3    0    0 -0.53165212028E+01  0.11270650221E+02  0.44849668425E+01  0.13244164071E+02  0.51100000000E-03 0.  1.
        -11    1    3    3    0    0 -0.12753672841E+02  0.73305962853E+01  0.17211472066E+02  0.22641302608E+02  0.51100000000E-03 0. -1.
         12    1    3    3    0    0  0.94039915269E+01  0.84211957269E+01  0.74214222871E+01  0.14643397928E+02  0.00000000000E+00 0. -1.
</event>
<event>
 7    1  0.1381607E-011  0.5052885E+02  0.7816164E-02  0.1300439E+00
        -11   -1    0    0    0    0  0.00000000000E+00  0.00000000000E+00  0.45593999997E+02  0.45594000000E+02  0.51100000000E-03 0. -1.
         11   -1    0    0    0    0 -0.00000000000E+00 -0.00000000000E+00 -0.45593999997E+02  0.45594000000E+02  0.51100000000E-03 0.  1.
    9900012    2    1    2    0    0  0.85727109667E+01  0.16901415906E+02 -0.35972446935E+02  0.50528853778E+02  0.29999981545E+02 0.  0.
         12    1    1    2    0    0 -0.85727109667E+01 -0.16901415906E+02  0.35972446935E+02  0.40659146222E+02  0.00000000000E+00 0. -1.
         11    1    3    3    0    0  0.68100257796E+01 -0.11658456492E+01 -0.56253265640E+01  0.89095424355E+01  0.51100000000E-03 0. -1.
        -11    1    3    3    0    0 -0.40786161078E+01 -0.73614133208E+00  0.13029002800E+01  0.43444864847E+01  0.51100000000E-03 0.  1.
        -12    1    3    3    0    0  0.58413012950E+01  0.18803402888E+02 -0.31650020651E+02  0.37274824858E+02  0.00000000000E+00 0.  1.
</event>
<event>
 7    1  0.1381607E-011  0.5052885E+02  0.7816164E-02  0.1300439E+00
        -11   -1    0    0    0    0  0.00000000000E+00  0.00000000000E+00  0.45593999997E+02  0.45594000000E+02  0.51100000000E-03 0. -1.
         11   -1    0    0    0    0 -0.00000000000E+00 -0.00000000000E+00 -0.45593999997E+02  0.45594000000E+02  0.51100000000E-03 0.  1.
    9900012    2    1    2    0    0  0.25565335373E+02 -0.17325669159E+02 -0.26446203454E+02  0.50528845291E+02  0.29999955745E+02 0.  0.
         12    1    1    2    0    0 -0.25565335373E+02  0.17325669159E+02  0.26446203454E+02  0.40659154709E+02  0.00000000000E+00 0. -1.
         11    1    3    3    0    0  0.15437322547E+02 -0.42165936034E+00 -0.77254087240E+00  0.15462391267E+02  0.51100000000E-03 0. -1.
        -11    1    3    3    0    0 -0.21877065120E+01  0.65146513431E+00 -0.14038010483E+01  0.26797619760E+01  0.51100000000E-03 0.  1.
         12    1    3    3    0    0  0.12315719338E+02 -0.17555474933E+02 -0.24269861533E+02  0.32386692048E+02  0.00000000000E+00 0. -1.
</event>
<event>
 7    1  0.1381607E-011  0.5052887E+02  0.7816164E-02  0.1300439E+00
        -11   -1    0    0    0    0  0.00000000000E+00  0.00000000000E+00  0.45593999997E+02  0.45594000000E+02  0.51100000000E-03 0. -1.
         11   -1    0    0    0    0 -0.00000000000E+00 -0.00000000000E+00 -0.45593999997E+02  0.45594000000E+02  0.51100000000E-03 0.  1.
    9900012    2    1    2    0    0  0.19900254131E+02  0.24046666588E+02 -0.26055763122E+02  0.50528867196E+02  0.30000022330E+02 0.  0.
         12    1    1    2    0    0 -0.19900254131E+02 -0.24046666588E+02  0.26055763122E+02  0.40659132804E+02  0.00000000000E+00 0. -1.
         11    1    3    3    0    0  0.44174668095E+01  0.11142676075E+02 -0.91980867368E+01  0.15108872989E+02  0.51100000000E-03 0. -1.
        -11    1    3    3    0    0  0.16903750123E+02  0.15291809933E+02 -0.51256401400E+01  0.23363398862E+02  0.51100000000E-03 0.  1.
         12    1    3    3    0    0 -0.14209628019E+01 -0.23878194198E+01 -0.11732036245E+02  0.12056595345E+02  0.00000000000E+00 0. -1.
</event>
<event>
 7    1  0.1381607E-011  0.5052885E+02  0.7816164E-02  0.1300439E+00
        -11   -1    0    0    0    0  0.00000000000E+00  0.00000000000E+00  0.45593999997E+02  0.45594000000E+02  0.51100000000E-03 0.  1.
         11   -1    0    0    0    0 -0.00000000000E+00 -0.00000000000E+00 -0.45593999997E+02  0.45594000000E+02  0.51100000000E-03 0. -1.
    9900012    2    1    2    0    0 -0.23923091892E+02  0.12523234705E+02  0.30397704755E+02  0.50528853581E+02  0.29999980945E+02 0.  0.
         12    1    1    2    0    0  0.23923091892E+02 -0.12523234705E+02 -0.30397704755E+02  0.40659146419E+02  0.00000000000E+00 0. -1.
         11    1    3    3    0    0 -0.15635753718E+02  0.10012186919E+02  0.23484484144E+02  0.29937295752E+02  0.51100000000E-03 0.  1.
        -11    1    3    3    0    0 -0.39892565607E+01  0.92207492372E+01  0.66898863591E-02  0.10046712369E+02  0.51100000000E-03 0. -1.
        -12    1    3    3    0    0 -0.42980816139E+01 -0.67097014512E+01  0.69065307249E+01  0.10544845460E+02  0.00000000000E+00 0.  1.
</event>
<event>
 7    1  0.1381607E-011  0.5052887E+02  0.7816164E-02  0.1300439E+00
        -11   -1    0    0    0    0  0.00000000000E+00  0.00000000000E+00  0.45593999997E+02  0.45594000000E+02  0.51100000000E-03 0.  1.
         11   -1    0    0    0    0 -0.00000000000E+00 -0.00000000000E+00 -0.45593999997E+02  0.45594000000E+02  0.51100000000E-03 0. -1.
    9900012    2    1    2    0    0 -0.91363640469E+01  0.27591034454E+02  0.28432847502E+02  0.50528866373E+02  0.30000019828E+02 0.  0.
         12    1    1    2    0    0  0.91363640469E+01 -0.27591034454E+02 -0.28432847502E+02  0.40659133627E+02  0.00000000000E+00 0. -1.
         11    1    3    3    0    0 -0.52413556451E+01  0.20824095642E+02  0.12449685581E+02  0.24821551919E+02  0.51100000000E-03 0. -1.
        -11    1    3    3    0    0 -0.61898721595E+01  0.87723298969E+00 -0.20652542086E+01  0.65840208290E+01  0.51100000000E-03 0.  1.
         12    1    3    3    0    0  0.22948637577E+01  0.58897058216E+01  0.18048416129E+02  0.19123293626E+02  0.00000000000E+00 0. -1.
</event>
<event>
 7    1  0.1381607E-011  0.5052884E+02  0.7816164E-02  0.1300439E+00
        -11   -1    0    0    0    0  0.00000000000E+00  0.00000000000E+00  0.45593999997E+02  0.45594000000E+02  0.51100000000E-03 0.  1.
         11   -1    0    0    0    0 -0.00000000000E+00 -0.00000000000E+00 -0.45593999997E+02  0.45594000000E+02  0.51100000000E-03 0. -1.
    9900012    2    1    2    0    0 -0.26642548416E+02 -0.15636551637E+02  0.26435591871E+02  0.50528835587E+02  0.29999926250E+02 0.  0.
         12    1    1    2    0    0  0.26642548416E+02  0.15636551637E+02 -0.26435591871E+02  0.40659164413E+02  0.00000000000E+00 0. -1.
         11    1    3    3    0    0 -0.63000552914E+01 -0.18379959067E+01 -0.50587821066E+01  0.82861452009E+01  0.51100000000E-03 0.  1.
        -11    1    3    3    0    0 -0.60845073736E+01 -0.81746905971E+01  0.43711726821E+01  0.11088460092E+02  0.51100000000E-03 0. -1.
        -12    1    3    3    0    0 -0.14257985751E+02 -0.56238651335E+01  0.27123201295E+02  0.31154230294E+02  0.00000000000E+00 0.  1.
</event>
<event>
 7    1  0.1381607E-011  0.5052889E+02  0.7816164E-02  0.1300439E+00
        -11   -1    0    0    0    0  0.00000000000E+00  0.00000000000E+00  0.45593999997E+02  0.45594000000E+02  0.51100000000E-03 0.  1.
         11   -1    0    0    0    0 -0.00000000000E+00 -0.00000000000E+00 -0.45593999997E+02  0.45594000000E+02  0.51100000000E-03 0. -1.
    9900012    2    1    2    0    0 -0.13380778236E+02 -0.96244625137E+01  0.37168371149E+02  0.50528888859E+02  0.30000088177E+02 0.  0.
         12    1    1    2    0    0  0.13380778236E+02  0.96244625137E+01 -0.37168371149E+02  0.40659111141E+02  0.00000000000E+00 0. -1.
         11    1    3    3    0    0 -0.12003362357E+02 -0.40178553666E+01  0.28709892721E+01  0.12979462596E+02  0.51100000000E-03 0.  1.
        -11    1    3    3    0    0  0.27929850349E+01  0.19946641373E+01  0.17218298320E+01  0.38398110184E+01  0.51100000000E-03 0. -1.
        -12    1    3    3    0    0 -0.41704009143E+01 -0.76012712844E+01  0.32575552045E+02  0.33709615245E+02  0.00000000000E+00 0.  1.
</event>
<event>
 7    1  0.1381607E-011  0.5052897E+02  0.7816164E-02  0.1300438E+00
        -11   -1    0    0    0    0  0.00000000000E+00  0.00000000000E+00  0.45593999997E+02  0.45594000000E+02  0.51100000000E-03 0.  1.
         11   -1    0    0    0    0 -0.00000000000E+00 -0.00000000000E+00 -0.45593999997E+02  0.45594000000E+02  0.51100000000E-03 0. -1.
    9900012    2    1    2    0    0 -0.32368824843E+02 -0.20283549917E+02  0.13928169455E+02  0.50528965047E+02  0.30000319756E+02 0.  0.
         12    1    1    2    0    0  0.32368824843E+02  0.20283549917E+02 -0.13928169455E+02  0.40659034953E+02  0.00000000000E+00 0. -1.
         11    1    3    3    0    0 -0.22784516598E+02 -0.13523014758E+02  0.39374026934E+01  0.26786363415E+02  0.51100000000E-03 0. -1.
        -11    1    3    3    0    0 -0.56811391098E+01  0.56003894742E+01  0.65743904984E+01  0.10337423012E+02  0.51100000000E-03 0.  1.
         12    1    3    3    0    0 -0.39031691345E+01 -0.12360924633E+02  0.34163762634E+01  0.13405178620E+02  0.00000000000E+00 0. -1.
</event>
<event>
 7    1  0.1381607E-011  0.5052885E+02  0.7816164E-02  0.1300439E+00
        -11   -1    0    0    0    0  0.00000000000E+00  0.00000000000E+00  0.45593999997E+02  0.45594000000E+02  0.51100000000E-03 0.  1.
         11   -1    0    0    0    0 -0.00000000000E+00 -0.00000000000E+00 -0.45593999997E+02  0.45594000000E+02  0.51100000000E-03 0. -1.
    9900012    2    1    2    0    0 -0.12611444267E+02  0.13089467301E+02  0.36370090924E+02  0.50528853495E+02  0.29999980683E+02 0.  0.
         12    1    1    2    0    0  0.12611444267E+02 -0.13089467301E+02 -0.36370090924E+02  0.40659146505E+02  0.00000000000E+00 0. -1.
         11    1    3    3    0    0 -0.49944537590E+01 -0.18329679376E+01  0.24343150243E+00  0.53257486768E+01  0.51100000000E-03 0. -1.
        -11    1    3    3    0    0 -0.13572301467E+02  0.15986838014E+02  0.25955250089E+02  0.33368568507E+02  0.51100000000E-03 0.  1.
         12    1    3    3    0    0  0.59553109589E+01 -0.10644027754E+01  0.10171409333E+02  0.11834536311E+02  0.00000000000E+00 0. -1.
</event>
<event>
 7    1  0.1381607E-011  0.5052879E+02  0.7816164E-02  0.1300439E+00
        -11   -1    0    0    0    0  0.00000000000E+00  0.00000000000E+00  0.45593999997E+02  0.45594000000E+02  0.51100000000E-03 0. -1.
         11   -1    0    0    0    0 -0.00000000000E+00 -0.00000000000E+00 -0.45593999997E+02  0.45594000000E+02  0.51100000000E-03 0.  1.
    9900012    2    1    2    0    0 -0.96675549125E+01 -0.36400780210E+02 -0.15319681262E+02  0.50528793762E+02  0.29999799119E+02 0.  0.
         12    1    1    2    0    0  0.96675549125E+01  0.36400780210E+02  0.15319681262E+02  0.40659206238E+02  0.00000000000E+00 0. -1.
         11    1    3    3    0    0 -0.14587565059E+02 -0.26051898616E+02 -0.92235458088E+01  0.31250156374E+02  0.51100000000E-03 0. -1.
        -11    1    3    3    0    0 -0.29472031942E+00 -0.10041460804E+02  0.13989888547E+01  0.10142729673E+02  0.51100000000E-03 0.  1.
        -12    1    3    3    0    0  0.52147304664E+01 -0.30742079008E+00 -0.74951243078E+01  0.91359077146E+01  0.00000000000E+00 0.  1.
</event>
<event>
 7    1  0.1381607E-011  0.5052886E+02  0.7816164E-02  0.1300439E+00
        -11   -1    0    0    0    0  0.00000000000E+00  0.00000000000E+00  0.45593999997E+02  0.45594000000E+02  0.51100000000E-03 0.  1.
         11   -1    0    0    0    0 -0.00000000000E+00 -0.00000000000E+00 -0.45593999997E+02  0.45594000000E+02  0.51100000000E-03 0. -1.
    9900012    2    1    2    0    0 -0.20191578961E+01  0.21407412678E+02  0.34508134995E+02  0.50528859613E+02  0.29999999280E+02 0.  0.
         12    1    1    2    0    0  0.20191578961E+01 -0.21407412678E+02 -0.34508134995E+02  0.40659140387E+02  0.00000000000E+00 0. -1.
         11    1    3    3    0    0  0.21078457978E+01  0.79401534199E+01 -0.36259506758E+01  0.89797866792E+01  0.51100000000E-03 0. -1.
        -11    1    3    3    0    0  0.24600503428E+01  0.22623922169E+01  0.57002444364E+01  0.66078024432E+01  0.51100000000E-03 0.  1.
        -12    1    3    3    0    0 -0.65870540368E+01  0.11204867042E+02  0.32433841234E+02  0.34941270491E+02  0.00000000000E+00 0.  1.
</event>
<event>
 7    1  0.1381607E-011  0.5052886E+02  0.7816164E-02  0.1300439E+00
        -11   -1    0    0    0    0  0.00000000000E+00  0.00000000000E+00  0.45593999997E+02  0.45594000000E+02  0.51100000000E-03 0.  1.
         11   -1    0    0    0    0 -0.00000000000E+00 -0.00000000000E+00 -0.45593999997E+02  0.45594000000E+02  0.51100000000E-03 0. -1.
    9900012    2    1    2    0    0  0.35295255985E+02  0.15749210069E+02  0.12624298184E+02  0.50528860591E+02  0.30000002253E+02 0.  0.
         12    1    1    2    0    0 -0.35295255985E+02 -0.15749210069E+02 -0.12624298184E+02  0.40659139409E+02  0.00000000000E+00 0. -1.
         11    1    3    3    0    0  0.40600350782E+01  0.13125564704E+02  0.60274115061E+01  0.15003133785E+02  0.51100000000E-03 0. -1.
        -11    1    3    3    0    0  0.12455528067E+02 -0.43341156253E+01  0.80417610776E+01  0.15446509611E+02  0.51100000000E-03 0.  1.
         12    1    3    3    0    0  0.18779692840E+02  0.69577609906E+01 -0.14448743995E+01  0.20079217196E+02  0.00000000000E+00 0. -1.
</event>
<event>
 7    1  0.1381607E-011  0.5052886E+02  0.7816164E-02  0.1300439E+00
        -11   -1    0    0    0    0  0.00000000000E+00  0.00000000000E+00  0.45593999997E+02  0.45594000000E+02  0.51100000000E-03 0.  1.
         11   -1    0    0    0    0 -0.00000000000E+00 -0.00000000000E+00 -0.45593999997E+02  0.45594000000E+02  0.51100000000E-03 0. -1.
    9900012    2    1    2    0    0 -0.38987850285E+02  0.76444609181E+01  0.86414831993E+01  0.50528862227E+02  0.30000007224E+02 0.  0.
         12    1    1    2    0    0  0.38987850285E+02 -0.76444609181E+01 -0.86414831993E+01  0.40659137773E+02  0.00000000000E+00 0. -1.
         11    1    3    3    0    0  0.34359130667E+01 -0.51295452288E+00  0.11395325299E+01  0.36561120870E+01  0.51100000000E-03 0. -1.
        -11    1    3    3    0    0 -0.20771057497E+02 -0.40633243804E+01  0.58310069208E+01  0.21953315843E+02  0.51100000000E-03 0.  1.
        -12    1    3    3    0    0 -0.21652705855E+02  0.12220739821E+02  0.16709437486E+01  0.24919434296E+02  0.00000000000E+00 0.  1.
</event>
<event>
 7    1  0.1381607E-011  0.5052886E+02  0.7816164E-02  0.1300439E+00
        -11   -1    0    0    0    0  0.00000000000E+00  0.00000000000E+00  0.45593999997E+02  0.45594000000E+02  0.51100000000E-03 0.  1.
         11   -1    0    0    0    0 -0.00000000000E+00 -0.00000000000E+00 -0.45593999997E+02  0.45594000000E+02  0.51100000000E-03 0. -1.
    9900012    2    1    2    0    0 -0.27273715509E+01 -0.37399475374E+02  0.15716430257E+02  0.50528862111E+02  0.30000006873E+02 0.  0.
         12    1    1    2    0    0  0.27273715509E+01  0.37399475374E+02 -0.15716430257E+02  0.40659137889E+02  0.00000000000E+00 0. -1.
         11    1    3    3    0    0  0.50192057839E+01 -0.47628449862E+01  0.36369635130E+01  0.78169446026E+01  0.51100000000E-03 0. -1.
        -11    1    3    3    0    0 -0.26684835844E+01 -0.22450316769E+02 -0.40526793229E+01  0.22968712146E+02  0.51100000000E-03 0.  1.
        -12    1    3    3    0    0 -0.50780937504E+01 -0.10186313619E+02  0.16132146067E+02  0.19743205363E+02  0.00000000000E+00 0.  1.
</event>
<event>
 7    1  0.1381607E-011  0.5052886E+02  0.7816164E-02  0.1300439E+00
        -11   -1    0    0    0    0  0.00000000000E+00  0.00000000000E+00  0.45593999997E+02  0.45594000000E+02  0.51100000000E-03 0. -1.
         11   -1    0    0    0    0 -0.00000000000E+00 -0.00000000000E+00 -0.45593999997E+02  0.45594000000E+02  0.51100000000E-03 0.  1.
    9900012    2    1    2    0    0 -0.38886326043E+02  0.45720861749E+01  0.10959727659E+02  0.50528856435E+02  0.29999989619E+02 0.  0.
         12    1    1    2    0    0  0.38886326043E+02 -0.45720861749E+01 -0.10959727659E+02  0.40659143565E+02  0.00000000000E+00 0. -1.
         11    1    3    3    0    0 -0.58846752557E+01  0.69372107939E+01  0.88669806699E+01  0.12703450040E+02  0.51100000000E-03 0.  1.
        -11    1    3    3    0    0 -0.12201042456E+01 -0.46698398472E+01  0.34478745401E+01  0.59316016112E+01  0.51100000000E-03 0. -1.
        -12    1    3    3    0    0 -0.31781546542E+02  0.23047152282E+01 -0.13551275509E+01  0.31893804783E+02  0.00000000000E+00 0.  1.
</event>
<event>
 7    1  0.1381607E-011  0.5052887E+02  0.7816164E-02  0.1300439E+00
        -11   -1    0    0    0    0  0.00000000000E+00  0.00000000000E+00  0.45593999997E+02  0.45594000000E+02  0.51100000000E-03 0. -1.
         11   -1    0    0    0    0 -0.00000000000E+00 -0.00000000000E+00 -0.45593999997E+02  0.45594000000E+02  0.51100000000E-03 0.  1.
    9900012    2    1    2    0    0  0.68856776295E+01  0.35880415463E+02 -0.17842301377E+02  0.50528874473E+02  0.30000044448E+02 0.  0.
         12    1    1    2    0    0 -0.68856776295E+01 -0.35880415463E+02  0.17842301377E+02  0.40659125527E+02  0.00000000000E+00 0. -1.
         11    1    3    3    0    0  0.63339707795E+01 -0.95506024965E+00 -0.83555501121E+01  0.10528368528E+02  0.51100000000E-03 0. -1.
        -11    1    3    3    0    0  0.55129947234E+01  0.10545518186E+02 -0.48385635208E+01  0.12845729323E+02  0.51100000000E-03 0.  1.
         12    1    3    3    0    0 -0.49612878733E+01  0.26289957527E+02 -0.46481877445E+01  0.27154776623E+02  0.00000000000E+00 0. -1.
</event>
<event>
 7    1  0.1381607E-011  0.5052887E+02  0.7816164E-02  0.1300439E+00
        -11   -1    0    0    0    0  0.00000000000E+00  0.00000000000E+00  0.45593999997E+02  0.45594000000E+02  0.51100000000E-03 0.  1.
         11   -1    0    0    0    0 -0.00000000000E+00 -0.00000000000E+00 -0.45593999997E+02  0.45594000000E+02  0.51100000000E-03 0. -1.
    9900012    2    1    2    0    0 -0.20227590166E+02  0.28100985512E+02  0.21315349765E+02  0.50528869091E+02  0.30000028088E+02 0.  0.
         12    1    1    2    0    0  0.20227590166E+02 -0.28100985512E+02 -0.21315349765E+02  0.40659130909E+02  0.00000000000E+00 0. -1.
         11    1    3    3    0    0 -0.72195632128E+01  0.13519404029E+02  0.16760781977E+02  0.22711675214E+02  0.51100000000E-03 0. -1.
        -11    1    3    3    0    0 -0.32362601463E+01 -0.20423935263E+01  0.73943725579E+01  0.83259532089E+01  0.51100000000E-03 0.  1.
        -12    1    3    3    0    0 -0.97717668069E+01  0.16623975010E+02 -0.28398047694E+01  0.19491240668E+02  0.00000000000E+00 0.  1.
</event>
<event>
 7    1  0.1381607E-011  0.5052887E+02  0.7816164E-02  0.1300439E+00
        -11   -1    0    0    0    0  0.00000000000E+00  0.00000000000E+00  0.45593999997E+02  0.45594000000E+02  0.51100000000E-03 0.  1.
         11   -1    0    0    0    0 -0.00000000000E+00 -0.00000000000E+00 -0.45593999997E+02  0.45594000000E+02  0.51100000000E-03 0. -1.
    9900012    2    1    2    0    0  0.87623465048E+01 -0.21238631522E+02  0.33545594536E+02  0.50528866979E+02  0.30000021670E+02 0.  0.
         12    1    1    2    0    0 -0.87623465048E+01  0.21238631522E+02 -0.33545594536E+02  0.40659133021E+02  0.00000000000E+00 0. -1.
         11    1    3    3    0    0  0.77813525701E+01 -0.10405713525E+02  0.26164901941E+02  0.29213531379E+02  0.51100000000E-03 0. -1.
        -11    1    3    3    0    0 -0.39775930384E+01  0.37897793189E+00  0.81030531193E+01  0.90346190162E+01  0.51100000000E-03 0.  1.
         12    1    3    3    0    0  0.49585869731E+01 -0.11211895929E+02 -0.72236052415E+00  0.12280716584E+02  0.00000000000E+00 0. -1.
</event>
<event>
 7    1  0.1381607E-011  0.5052885E+02  0.7816164E-02  0.1300439E+00
        -11   -1    0    0    0    0  0.00000000000E+00  0.00000000000E+00  0.45593999997E+02  0.45594000000E+02  0.51100000000E-03 0. -1.
         11   -1    0    0    0    0 -0.00000000000E+00 -0.00000000000E+00 -0.45593999997E+02  0.45594000000E+02  0.51100000000E-03 0.  1.
    9900012    2    1    2    0    0  0.20371283047E+02 -0.24752287099E+02 -0.25010027487E+02  0.50528851405E+02  0.29999974330E+02 0.  0.
         12    1    1    2    0    0 -0.20371283047E+02  0.24752287099E+02  0.25010027487E+02  0.40659148595E+02  0.00000000000E+00 0. -1.
         11    1    3    3    0    0  0.84492891824E+01 -0.44414240096E+01 -0.27960478071E+01  0.99465882855E+01  0.51100000000E-03 0. -1.
        -11    1    3    3    0    0  0.18578905728E+02 -0.17959549844E+02 -0.21252180062E+02  0.33457081856E+02  0.51100000000E-03 0.  1.
         12    1    3    3    0    0 -0.66569118635E+01 -0.23513132446E+01 -0.96179961769E+00  0.71251812634E+01  0.00000000000E+00 0. -1.
</event>
<event>
 7    1  0.1381607E-011  0.5052889E+02  0.7816164E-02  0.1300439E+00
        -11   -1    0    0    0    0  0.00000000000E+00  0.00000000000E+00  0.45593999997E+02  0.45594000000E+02  0.51100000000E-03 0.  1.
         11   -1    0    0    0    0 -0.00000000000E+00 -0.00000000000E+00 -0.45593999997E+02  0.45594000000E+02  0.51100000000E-03 0. -1.
    9900012    2    1    2    0    0 -0.33306673140E+02  0.21050126620E+02  0.10035994051E+02  0.50528886840E+02  0.30000082038E+02 0.  0.
         12    1    1    2    0    0  0.33306673140E+02 -0.21050126620E+02 -0.10035994051E+02  0.40659113160E+02  0.00000000000E+00 0. -1.
         11    1    3    3    0    0 -0.99200523187E+01  0.39008016545E+01 -0.58165039441E+01  0.12143121919E+02  0.51100000000E-03 0. -1.
        -11    1    3    3    0    0 -0.10745468269E+02  0.15078482877E+02  0.67869989766E+00  0.18527988773E+02  0.51100000000E-03 0.  1.
         12    1    3    3    0    0 -0.12641152553E+02  0.20708420888E+01  0.15173798097E+02  0.19857776147E+02  0.00000000000E+00 0. -1.
</event>
<event>
 7    1  0.1381607E-011  0.5052884E+02  0.7816164E-02  0.1300439E+00
        -11   -1    0    0    0    0  0.00000000000E+00  0.00000000000E+00  0.45593999997E+02  0.45594000000E+02  0.51100000000E-03 0.  1.
         11   -1    0    0    0    0 -0.00000000000E+00 -0.00000000000E+00 -0.45593999997E+02  0.45594000000E+02  0.51100000000E-03 0. -1.
    9900012    2    1    2    0    0 -0.13645577510E+02  0.38123960252E+02  0.36781640564E+01  0.50528843323E+02  0.29999949765E+02 0.  0.
         12    1    1    2    0    0  0.13645577510E+02 -0.38123960252E+02 -0.36781640564E+01  0.40659156677E+02  0.00000000000E+00 0. -1.
         11    1    3    3    0    0 -0.12710906133E+01 -0.10396196850E+01  0.36681677115E+01  0.40189470085E+01  0.51100000000E-03 0. -1.
        -11    1    3    3    0    0  0.24654490214E+01  0.80818590447E+01 -0.74542728269E+01  0.11267700215E+02  0.51100000000E-03 0.  1.
        -12    1    3    3    0    0 -0.14839935918E+02  0.31081720892E+02  0.74642691717E+01  0.35242196100E+02  0.00000000000E+00 0.  1.
</event>
<event>
 7    1  0.1381607E-011  0.5052886E+02  0.7816164E-02  0.1300439E+00
        -11   -1    0    0    0    0  0.00000000000E+00  0.00000000000E+00  0.45593999997E+02  0.45594000000E+02  0.51100000000E-03 0. -1.
         11   -1    0    0    0    0 -0.00000000000E+00 -0.00000000000E+00 -0.45593999997E+02  0.45594000000E+02  0.51100000000E-03 0.  1.
    9900012    2    1    2    0    0 -0.14960584562E+02 -0.29782574945E+01 -0.37689205602E+02  0.50528864163E+02  0.30000013109E+02 0.  0.
         12    1    1    2    0    0  0.14960584562E+02  0.29782574945E+01  0.37689205602E+02  0.40659135837E+02  0.00000000000E+00 0. -1.
         11    1    3    3    0    0 -0.11215751575E+02 -0.52019898048E+01 -0.13275548675E+01  0.12434475602E+02  0.51100000000E-03 0. -1.
        -11    1    3    3    0    0 -0.28436634985E+01  0.33068397408E+01 -0.47394257611E+01  0.64407893903E+01  0.51100000000E-03 0.  1.
         12    1    3    3    0    0 -0.90116948900E+00 -0.10831074305E+01 -0.31622224973E+02  0.31653599170E+02  0.00000000000E+00 0. -1.
</event>
<event>
 7    1  0.1381607E-011  0.5052886E+02  0.7816164E-02  0.1300439E+00
        -11   -1    0    0    0    0  0.00000000000E+00  0.00000000000E+00  0.45593999997E+02  0.45594000000E+02  0.51100000000E-03 0.  1.
         11   -1    0    0    0    0 -0.00000000000E+00 -0.00000000000E+00 -0.45593999997E+02  0.45594000000E+02  0.51100000000E-03 0. -1.
    9900012    2    1    2    0    0 -0.30706710223E+01  0.21034709634E+02  0.34659450248E+02  0.50528861772E+02  0.30000005842E+02 0.  0.
         12    1    1    2    0    0  0.30706710223E+01 -0.21034709634E+02 -0.34659450248E+02  0.40659138228E+02  0.00000000000E+00 0. -1.
         11    1    3    3    0    0  0.68087612040E+01  0.83910581455E+01  0.18102044574E+02  0.21082056445E+02  0.51100000000E-03 0. -1.
        -11    1    3    3    0    0 -0.70376097285E+01  0.77401795264E+01  0.20173062891E+02  0.22724233683E+02  0.51100000000E-03 0.  1.
         12    1    3    3    0    0 -0.28418224977E+01  0.49034719626E+01 -0.36156572173E+01  0.67225716441E+01  0.00000000000E+00 0. -1.
</event>
<event>
 7    1  0.1381607E-011  0.5052886E+02  0.7816164E-02  0.1300439E+00
        -11   -1    0    0    0    0  0.00000000000E+00  0.00000000000E+00  0.45593999997E+02  0.45594000000E+02  0.51100000000E-03 0.  1.
         11   -1    0    0    0    0 -0.00000000000E+00 -0.00000000000E+00 -0.45593999997E+02  0.45594000000E+02  0.51100000000E-03 0. -1.
    9900012    2    1    2    0    0 -0.12670008807E+02  0.10768273286E+02  0.37103653473E+02  0.50528856701E+02  0.29999990429E+02 0.  0.
         12    1    1    2    0    0  0.12670008807E+02 -0.10768273286E+02 -0.37103653473E+02  0.40659143299E+02  0.00000000000E+00 0. -1.
         11    1    3    3    0    0 -0.30953946241E+01  0.71165445745E+01  0.80182026935E+01  0.11158774541E+02  0.51100000000E-03 0. -1.
        -11    1    3    3    0    0 -0.12423757412E+02  0.14914818498E+01  0.27739469912E+01  0.12816748749E+02  0.51100000000E-03 0.  1.
        -12    1    3    3    0    0  0.28491432288E+01  0.21602468617E+01  0.26311503788E+02  0.26553333411E+02  0.00000000000E+00 0.  1.
</event>
<event>
 7    1  0.1381607E-011  0.5052886E+02  0.7816164E-02  0.1300439E+00
        -11   -1    0    0    0    0  0.00000000000E+00  0.00000000000E+00  0.45593999997E+02  0.45594000000E+02  0.51100000000E-03 0. -1.
         11   -1    0    0    0    0 -0.00000000000E+00 -0.00000000000E+00 -0.45593999997E+02  0.45594000000E+02  0.51100000000E-03 0.  1.
    9900012    2    1    2    0    0  0.81732094907E+01  0.39790733376E+02 -0.17497117406E+01  0.50528864407E+02  0.30000013853E+02 0.  0.
         12    1    1    2    0    0 -0.81732094907E+01 -0.39790733376E+02  0.17497117406E+01  0.40659135593E+02  0.00000000000E+00 0. -1.
         11    1    3    3    0    0  0.11476042919E+02  0.23537910729E+02 -0.11680339352E+02  0.28673387142E+02  0.51100000000E-03 0. -1.
        -11    1    3    3    0    0 -0.38679165310E+01  0.77420635452E+01 -0.14321214943E+00  0.86556823075E+01  0.51100000000E-03 0.  1.
         12    1    3    3    0    0  0.56508310309E+00  0.85107591018E+01  0.10073839761E+02  0.13199794958E+02  0.00000000000E+00 0. -1.
</event>
<event>
 7    1  0.1381607E-011  0.5052886E+02  0.7816164E-02  0.1300439E+00
        -11   -1    0    0    0    0  0.00000000000E+00  0.00000000000E+00  0.45593999997E+02  0.45594000000E+02  0.51100000000E-03 0.  1.
         11   -1    0    0    0    0 -0.00000000000E+00 -0.00000000000E+00 -0.45593999997E+02  0.45594000000E+02  0.51100000000E-03 0. -1.
    9900012    2    1    2    0    0 -0.37475095490E+02 -0.14179226966E+02  0.69088758875E+01  0.50528858034E+02  0.29999994481E+02 0.  0.
         12    1    1    2    0    0  0.37475095490E+02  0.14179226966E+02 -0.69088758875E+01  0.40659141966E+02  0.00000000000E+00 0. -1.
         11    1    3    3    0    0 -0.17616982196E+02 -0.17054044468E+01 -0.16359541328E+01  0.17774780229E+02  0.51100000000E-03 0. -1.
        -11    1    3    3    0    0 -0.18168006394E+02 -0.72382621174E+01  0.14724558841E+02  0.24480227289E+02  0.51100000000E-03 0.  1.
         12    1    3    3    0    0 -0.16901069006E+01 -0.52355604022E+01 -0.61797288208E+01  0.82738505159E+01  0.00000000000E+00 0. -1.
</event>
<event>
 7    1  0.1381607E-011  0.5052885E+02  0.7816164E-02  0.1300439E+00
        -11   -1    0    0    0    0  0.00000000000E+00  0.00000000000E+00  0.45593999997E+02  0.45594000000E+02  0.51100000000E-03 0.  1.
         11   -1    0    0    0    0 -0.00000000000E+00 -0.00000000000E+00 -0.45593999997E+02  0.45594000000E+02  0.51100000000E-03 0. -1.
    9900012    2    1    2    0    0 -0.74269643825E+01 -0.16276314726E+01  0.39941926602E+02  0.50528849924E+02  0.29999969830E+02 0.  0.
         12    1    1    2    0    0  0.74269643825E+01  0.16276314726E+01 -0.39941926602E+02  0.40659150076E+02  0.00000000000E+00 0. -1.
         11    1    3    3    0    0  0.48393502583E+01 -0.44198282179E+01  0.34098158670E+01  0.73878980033E+01  0.51100000000E-03 0. -1.
        -11    1    3    3    0    0 -0.62821171698E+01 -0.67854394378E+01  0.72304288727E+01  0.11738240347E+02  0.51100000000E-03 0.  1.
         12    1    3    3    0    0 -0.59841974710E+01  0.95776361832E+01  0.29301681863E+02  0.31402711574E+02  0.00000000000E+00 0. -1.
</event>
<event>
 7    1  0.1381607E-011  0.5052886E+02  0.7816164E-02  0.1300439E+00
        -11   -1    0    0    0    0  0.00000000000E+00  0.00000000000E+00  0.45593999997E+02  0.45594000000E+02  0.51100000000E-03 0. -1.
         11   -1    0    0    0    0 -0.00000000000E+00 -0.00000000000E+00 -0.45593999997E+02  0.45594000000E+02  0.51100000000E-03 0.  1.
    9900012    2    1    2    0    0 -0.83132751456E+01 -0.73023688133E+01 -0.39124552077E+02  0.50528859464E+02  0.29999998826E+02 0.  0.
         12    1    1    2    0    0  0.83132751456E+01  0.73023688133E+01  0.39124552077E+02  0.40659140536E+02  0.00000000000E+00 0. -1.
         11    1    3    3    0    0  0.12468465727E+01 -0.61111201135E+01 -0.11343528342E+02  0.12945116876E+02  0.51100000000E-03 0.  1.
        -11    1    3    3    0    0 -0.13865108735E+02  0.47884285138E+01 -0.26231678769E+02  0.30054471533E+02  0.51100000000E-03 0. -1.
         12    1    3    3    0    0  0.43049870166E+01 -0.59796772135E+01 -0.15493449663E+01  0.75292710548E+01  0.00000000000E+00 0. -1.
</event>
<event>
 7    1  0.1381607E-011  0.5052880E+02  0.7816164E-02  0.1300439E+00
        -11   -1    0    0    0    0  0.00000000000E+00  0.00000000000E+00  0.45593999997E+02  0.45594000000E+02  0.51100000000E-03 0.  1.
         11   -1    0    0    0    0 -0.00000000000E+00 -0.00000000000E+00 -0.45593999997E+02  0.45594000000E+02  0.51100000000E-03 0. -1.
    9900012    2    1    2    0    0  0.18137639782E+02 -0.14153974276E+02  0.33524049516E+02  0.50528796114E+02  0.29999806269E+02 0.  0.
         12    1    1    2    0    0 -0.18137639782E+02  0.14153974276E+02 -0.33524049516E+02  0.40659203886E+02  0.00000000000E+00 0. -1.
         11    1    3    3    0    0  0.86870029472E+00  0.27145782863E+01  0.89832280144E+00  0.29884041881E+01  0.51100000000E-03 0. -1.
        -11    1    3    3    0    0  0.52711734652E+01  0.64456702719E+01  0.70123418350E+01  0.10885994361E+02  0.51100000000E-03 0.  1.
        -12    1    3    3    0    0  0.11997766022E+02 -0.23314222834E+02  0.25613384880E+02  0.36654397565E+02  0.00000000000E+00 0.  1.
</event>
<event>
 7    1  0.1381607E-011  0.5052887E+02  0.7816164E-02  0.1300439E+00
        -11   -1    0    0    0    0  0.00000000000E+00  0.00000000000E+00  0.45593999997E+02  0.45594000000E+02  0.51100000000E-03 0.  1.
         11   -1    0    0    0    0 -0.00000000000E+00 -0.00000000000E+00 -0.45593999997E+02  0.45594000000E+02  0.51100000000E-03 0. -1.
    9900012    2    1    2    0    0 -0.11759480368E+02  0.13974055733E+02  0.36326370238E+02  0.50528870805E+02  0.30000033300E+02 0.  0.
         12    1    1    2    0    0  0.11759480368E+02 -0.13974055733E+02 -0.36326370238E+02  0.40659129195E+02  0.00000000000E+00 0. -1.
         11    1    3    3    0    0  0.26175226765E+01 -0.26551156603E+01  0.20920329900E+01  0.42752387564E+01  0.51100000000E-03 0. -1.
        -11    1    3    3    0    0 -0.10602570709E+02 -0.17487421859E+01  0.58664114383E+01  0.12242850497E+02  0.51100000000E-03 0.  1.
        -12    1    3    3    0    0 -0.37744323351E+01  0.18377913580E+02  0.28367925810E+02  0.34010781552E+02  0.00000000000E+00 0.  1.
</event>
<event>
 7    1  0.1381607E-011  0.5052887E+02  0.7816164E-02  0.1300439E+00
        -11   -1    0    0    0    0  0.00000000000E+00  0.00000000000E+00  0.45593999997E+02  0.45594000000E+02  0.51100000000E-03 0. -1.
         11   -1    0    0    0    0 -0.00000000000E+00 -0.00000000000E+00 -0.45593999997E+02  0.45594000000E+02  0.51100000000E-03 0.  1.
    9900012    2    1    2    0    0  0.93162217226E+01 -0.15869003398E+02 -0.36256687887E+02  0.50528872211E+02  0.30000037572E+02 0.  0.
         12    1    1    2    0    0 -0.93162217226E+01  0.15869003398E+02  0.36256687887E+02  0.40659127789E+02  0.00000000000E+00 0. -1.
         11    1    3    3    0    0  0.13396081965E+02 -0.66046041540E+01 -0.12858045327E+02  0.19707996801E+02  0.51100000000E-03 0.  1.
        -11    1    3    3    0    0  0.27113175414E+01 -0.11538210752E+02 -0.95162462496E+01  0.15200016221E+02  0.51100000000E-03 0. -1.
         12    1    3    3    0    0 -0.67911777837E+01  0.22738115077E+01 -0.13882396311E+02  0.15620859189E+02  0.00000000000E+00 0. -1.
</event>
<event>
 7    1  0.1381607E-011  0.5052887E+02  0.7816164E-02  0.1300439E+00
        -11   -1    0    0    0    0  0.00000000000E+00  0.00000000000E+00  0.45593999997E+02  0.45594000000E+02  0.51100000000E-03 0.  1.
         11   -1    0    0    0    0 -0.00000000000E+00 -0.00000000000E+00 -0.45593999997E+02  0.45594000000E+02  0.51100000000E-03 0. -1.
    9900012    2    1    2    0    0 -0.32381966313E+01 -0.38630421878E+02 -0.12262537231E+02  0.50528865341E+02  0.30000016691E+02 0.  0.
         12    1    1    2    0    0  0.32381966313E+01  0.38630421878E+02  0.12262537231E+02  0.40659134659E+02  0.00000000000E+00 0. -1.
         11    1    3    3    0    0 -0.15810414436E+01 -0.13666144445E+00 -0.99161406712E+00  0.18712741958E+01  0.51100000000E-03 0. -1.
        -11    1    3    3    0    0  0.44852590984E+01 -0.26675266136E+02  0.51275274379E+01  0.27531416791E+02  0.51100000000E-03 0.  1.
        -12    1    3    3    0    0 -0.61424142861E+01 -0.11818494297E+02 -0.16398450602E+02  0.21126174355E+02  0.00000000000E+00 0.  1.
</event>
<event>
 7    1  0.1381607E-011  0.5052886E+02  0.7816164E-02  0.1300439E+00
        -11   -1    0    0    0    0  0.00000000000E+00  0.00000000000E+00  0.45593999997E+02  0.45594000000E+02  0.51100000000E-03 0.  1.
         11   -1    0    0    0    0 -0.00000000000E+00 -0.00000000000E+00 -0.45593999997E+02  0.45594000000E+02  0.51100000000E-03 0. -1.
    9900012    2    1    2    0    0 -0.21935278004E+00  0.18373791524E+02  0.36270115747E+02  0.50528860475E+02  0.30000001900E+02 0.  0.
         12    1    1    2    0    0  0.21935278004E+00 -0.18373791524E+02 -0.36270115747E+02  0.40659139525E+02  0.00000000000E+00 0. -1.
         11    1    3    3    0    0 -0.32677269575E+01  0.13115170497E+02  0.99673145077E+01  0.16793840996E+02  0.51100000000E-03 0. -1.
        -11    1    3    3    0    0  0.84724939855E+01  0.10387657728E+02  0.14302520649E+02  0.19602262231E+02  0.51100000000E-03 0.  1.
        -12    1    3    3    0    0 -0.54241198080E+01 -0.51290367010E+01  0.12000280590E+02  0.14132757248E+02  0.00000000000E+00 0.  1.
</event>
<event>
 7    1  0.1381607E-011  0.5052885E+02  0.7816164E-02  0.1300439E+00
        -11   -1    0    0    0    0  0.00000000000E+00  0.00000000000E+00  0.45593999997E+02  0.45594000000E+02  0.51100000000E-03 0.  1.
         11   -1    0    0    0    0 -0.00000000000E+00 -0.00000000000E+00 -0.45593999997E+02  0.45594000000E+02  0.51100000000E-03 0. -1.
    9900012    2    1    2    0    0  0.38159761105E+02 -0.43712919926E+01 -0.13337569023E+02  0.50528852090E+02  0.29999976414E+02 0.  0.
         12    1    1    2    0    0 -0.38159761105E+02  0.43712919926E+01  0.13337569023E+02  0.40659147910E+02  0.00000000000E+00 0. -1.
         11    1    3    3    0    0  0.17597447752E+02 -0.30192488264E+01 -0.70622483280E+01  0.19200556829E+02  0.51100000000E-03 0. -1.
        -11    1    3    3    0    0  0.18739424435E+02 -0.10409140161E+02 -0.38873680228E+01  0.21785955509E+02  0.51100000000E-03 0.  1.
         12    1    3    3    0    0  0.18228889189E+01  0.90570969946E+01 -0.23879526722E+01  0.95423397521E+01  0.00000000000E+00 0. -1.
</event>
<event>
 7    1  0.1381607E-011  0.5052886E+02  0.7816164E-02  0.1300439E+00
        -11   -1    0    0    0    0  0.00000000000E+00  0.00000000000E+00  0.45593999997E+02  0.45594000000E+02  0.51100000000E-03 0.  1.
         11   -1    0    0    0    0 -0.00000000000E+00 -0.00000000000E+00 -0.45593999997E+02  0.45594000000E+02  0.51100000000E-03 0. -1.
    9900012    2    1    2    0    0  0.50762184923E+01 -0.15848005196E+02  0.37097685222E+02  0.50528861892E+02  0.30000006208E+02 0.  0.
         12    1    1    2    0    0 -0.50762184923E+01  0.15848005196E+02 -0.37097685222E+02  0.40659138108E+02  0.00000000000E+00 0. -1.
         11    1    3    3    0    0  0.57957455516E+01 -0.13609873588E+02  0.13275177340E+02  0.19875856190E+02  0.51100000000E-03 0. -1.
        -11    1    3    3    0    0  0.43824138338E+01 -0.94718197825E+01  0.13070204418E+02  0.16725763504E+02  0.51100000000E-03 0.  1.
        -12    1    3    3    0    0 -0.51019408932E+01  0.72336881753E+01  0.10752303463E+02  0.13927242199E+02  0.00000000000E+00 0.  1.
</event>
<event>
 7    1  0.1381607E-011  0.5052886E+02  0.7816164E-02  0.1300439E+00
        -11   -1    0    0    0    0  0.00000000000E+00  0.00000000000E+00  0.45593999997E+02  0.45594000000E+02  0.51100000000E-03 0.  1.
         11   -1    0    0    0    0 -0.00000000000E+00 -0.00000000000E+00 -0.45593999997E+02  0.45594000000E+02  0.51100000000E-03 0. -1.
    9900012    2    1    2    0    0  0.32026900589E+02 -0.74438035425E+01  0.23917214117E+02  0.50528859532E+02  0.29999999033E+02 0.  0.
         12    1    1    2    0    0 -0.32026900589E+02  0.74438035425E+01 -0.23917214117E+02  0.40659140468E+02  0.00000000000E+00 0. -1.
         11    1    3    3    0    0  0.35416475927E+01  0.84657251550E+00  0.13813868094E+02  0.14285758806E+02  0.51100000000E-03 0. -1.
        -11    1    3    3    0    0  0.90011686065E+01 -0.87101551118E+01  0.11090058842E+02  0.16729532084E+02  0.51100000000E-03 0.  1.
         12    1    3    3    0    0  0.19484084390E+02  0.41977905379E+00 -0.98671281927E+00  0.19513568642E+02  0.00000000000E+00 0. -1.
</event>
<event>
 7    1  0.1381607E-011  0.5052886E+02  0.7816164E-02  0.1300439E+00
        -11   -1    0    0    0    0  0.00000000000E+00  0.00000000000E+00  0.45593999997E+02  0.45594000000E+02  0.51100000000E-03 0.  1.
         11   -1    0    0    0    0 -0.00000000000E+00 -0.00000000000E+00 -0.45593999997E+02  0.45594000000E+02  0.51100000000E-03 0. -1.
    9900012    2    1    2    0    0  0.19490029534E+02  0.11094292367E+02  0.33914907383E+02  0.50528861825E+02  0.30000006003E+02 0.  0.
         12    1    1    2    0    0 -0.19490029534E+02 -0.11094292367E+02 -0.33914907383E+02  0.40659138175E+02  0.00000000000E+00 0. -1.
         11    1    3    3    0    0  0.17791697990E+02  0.82697794443E+01  0.31896330891E+02  0.37447425733E+02  0.51100000000E-03 0. -1.
        -11    1    3    3    0    0 -0.63678087821E+00  0.66120886816E+01  0.44648606199E+01  0.80037608183E+01  0.51100000000E-03 0.  1.
         12    1    3    3    0    0  0.23351124218E+01 -0.37875757588E+01 -0.24462841282E+01  0.50776752739E+01  0.00000000000E+00 0. -1.
</event>
<event>
 7    1  0.1381607E-011  0.5052887E+02  0.7816164E-02  0.1300439E+00
        -11   -1    0    0    0    0  0.00000000000E+00  0.00000000000E+00  0.45593999997E+02  0.45594000000E+02  0.51100000000E-03 0.  1.
         11   -1    0    0    0    0 -0.00000000000E+00 -0.00000000000E+00 -0.45593999997E+02  0.45594000000E+02  0.51100000000E-03 0. -1.
    9900012    2    1    2    0    0  0.14506606633E+02  0.18908943808E+01  0.37936105482E+02  0.50528865520E+02  0.30000017234E+02 0.  0.
         12    1    1    2    0    0 -0.14506606633E+02 -0.18908943808E+01 -0.37936105482E+02  0.40659134480E+02  0.00000000000E+00 0. -1.
         11    1    3    3    0    0  0.14410466044E+02 -0.20442280455E+01  0.98833609583E+01  0.17593215283E+02  0.51100000000E-03 0. -1.
        -11    1    3    3    0    0 -0.74222474373E+00 -0.28155116262E+01 -0.10142376565E+01  0.30832907052E+01  0.51100000000E-03 0.  1.
        -12    1    3    3    0    0  0.83836533300E+00  0.67506340525E+01  0.29066982180E+02  0.29852359531E+02  0.00000000000E+00 0.  1.
</event>
<event>
 7    1  0.1381607E-011  0.5052887E+02  0.7816164E-02  0.1300439E+00
        -11   -1    0    0    0    0  0.00000000000E+00  0.00000000000E+00  0.45593999997E+02  0.45594000000E+02  0.51100000000E-03 0. -1.
         11   -1    0    0    0    0 -0.00000000000E+00 -0.00000000000E+00 -0.45593999997E+02  0.45594000000E+02  0.51100000000E-03 0.  1.
    9900012    2    1    2    0    0 -0.34489693109E+02 -0.21478923474E+02  0.15106318392E+01  0.50528867041E+02  0.30000021859E+02 0.  0.
         12    1    1    2    0    0  0.34489693109E+02  0.21478923474E+02 -0.15106318392E+01  0.40659132959E+02  0.00000000000E+00 0. -1.
         11    1    3    3    0    0 -0.86027106726E+01  0.12066582055E+01 -0.14587176013E+01  0.88085476807E+01  0.51100000000E-03 0. -1.
        -11    1    3    3    0    0 -0.19787163715E+02 -0.37252439711E+01 -0.41699806832E+01  0.20562053149E+02  0.51100000000E-03 0.  1.
         12    1    3    3    0    0 -0.60998187213E+01 -0.18960337709E+02  0.71393301236E+01  0.21158266212E+02  0.00000000000E+00 0. -1.
</event>
<event>
 7    1  0.1381607E-011  0.5052888E+02  0.7816164E-02  0.1300439E+00
        -11   -1    0    0    0    0  0.00000000000E+00  0.00000000000E+00  0.45593999997E+02  0.45594000000E+02  0.51100000000E-03 0.  1.
         11   -1    0    0    0    0 -0.00000000000E+00 -0.00000000000E+00 -0.45593999997E+02  0.45594000000E+02  0.51100000000E-03 0. -1.
    9900012    2    1    2    0    0  0.28951134157E+02  0.45802542673E+01  0.28178309508E+02  0.50528880176E+02  0.30000061784E+02 0.  0.
         12    1    1    2    0    0 -0.28951134157E+02 -0.45802542673E+01 -0.28178309508E+02  0.40659119824E+02  0.00000000000E+00 0. -1.
         11    1    3    3    0    0  0.13723966767E+02 -0.32927246196E+01  0.63738822470E+01  0.15485983159E+02  0.51100000000E-03 0. -1.
        -11    1    3    3    0    0  0.16359814167E+02  0.77206571519E+01  0.57991936087E+01  0.18996913255E+02  0.51100000000E-03 0.  1.
         12    1    3    3    0    0 -0.11326467778E+01  0.15232173506E+00  0.16005233652E+02  0.16045983762E+02  0.00000000000E+00 0. -1.
</event>
<event>
 7    1  0.1381607E-011  0.5052886E+02  0.7816164E-02  0.1300439E+00
        -11   -1    0    0    0    0  0.00000000000E+00  0.00000000000E+00  0.45593999997E+02  0.45594000000E+02  0.51100000000E-03 0.  1.
         11   -1    0    0    0    0 -0.00000000000E+00 -0.00000000000E+00 -0.45593999997E+02  0.45594000000E+02  0.51100000000E-03 0. -1.
    9900012    2    1    2    0    0 -0.36808006796E+02 -0.94308340480E+01  0.14470514007E+02  0.50528858705E+02  0.29999996521E+02 0.  0.
         12    1    1    2    0    0  0.36808006796E+02  0.94308340480E+01 -0.14470514007E+02  0.40659141295E+02  0.00000000000E+00 0. -1.
         11    1    3    3    0    0 -0.12571099737E+02 -0.13002932695E+01 -0.48294721029E+01  0.13529490465E+02  0.51100000000E-03 0. -1.
        -11    1    3    3    0    0 -0.36155455382E+01 -0.10138908714E+02  0.53380175560E+01  0.12015160055E+02  0.51100000000E-03 0.  1.
        -12    1    3    3    0    0 -0.20621361522E+02  0.20083679359E+01  0.13961968554E+02  0.24984208186E+02  0.00000000000E+00 0.  1.
</event>
<event>
 7    1  0.1381607E-011  0.5052886E+02  0.7816164E-02  0.1300439E+00
        -11   -1    0    0    0    0  0.00000000000E+00  0.00000000000E+00  0.45593999997E+02  0.45594000000E+02  0.51100000000E-03 0.  1.
         11   -1    0    0    0    0 -0.00000000000E+00 -0.00000000000E+00 -0.45593999997E+02  0.45594000000E+02  0.51100000000E-03 0. -1.
    9900012    2    1    2    0    0  0.32587144990E+02 -0.64101897429E+01  0.23455342128E+02  0.50528860493E+02  0.30000001954E+02 0.  0.
         12    1    1    2    0    0 -0.32587144990E+02  0.64101897429E+01 -0.23455342128E+02  0.40659139507E+02  0.00000000000E+00 0. -1.
         11    1    3    3    0    0  0.11224758336E+02  0.38060623315E+00 -0.26236788335E+01  0.11533592315E+02  0.51100000000E-03 0. -1.
        -11    1    3    3    0    0  0.16264517269E+00  0.48034583596E+01  0.37705403209E+01  0.61087347493E+01  0.51100000000E-03 0.  1.
        -12    1    3    3    0    0  0.21199741481E+02 -0.11594254336E+02  0.22308480640E+02  0.32886533429E+02  0.00000000000E+00 0.  1.
</event>
<event>
 7    1  0.1381607E-011  0.5052886E+02  0.7816164E-02  0.1300439E+00
        -11   -1    0    0    0    0  0.00000000000E+00  0.00000000000E+00  0.45593999997E+02  0.45594000000E+02  0.51100000000E-03 0. -1.
         11   -1    0    0    0    0 -0.00000000000E+00 -0.00000000000E+00 -0.45593999997E+02  0.45594000000E+02  0.51100000000E-03 0.  1.
    9900012    2    1    2    0    0  0.23456090662E+02 -0.29452562040E+02  0.15346782482E+02  0.50528864096E+02  0.30000012906E+02 0.  0.
         12    1    1    2    0    0 -0.23456090662E+02  0.29452562040E+02 -0.15346782482E+02  0.40659135904E+02  0.00000000000E+00 0. -1.
         11    1    3    3    0    0  0.91924391810E+01  0.33504152032E+01 -0.90173925946E+00  0.98254442182E+01  0.51100000000E-03 0. -1.
        -11    1    3    3    0    0 -0.12587686270E+01 -0.76833229965E+01  0.36675181401E+01  0.86063139784E+01  0.51100000000E-03 0.  1.
        -12    1    3    3    0    0  0.15522420108E+02 -0.25119654247E+02  0.12581003602E+02  0.32097105900E+02  0.00000000000E+00 0.  1.
</event>
<event>
 7    1  0.1381607E-011  0.5052887E+02  0.7816164E-02  0.1300439E+00
        -11   -1    0    0    0    0  0.00000000000E+00  0.00000000000E+00  0.45593999997E+02  0.45594000000E+02  0.51100000000E-03 0. -1.
         11   -1    0    0    0    0 -0.00000000000E+00 -0.00000000000E+00 -0.45593999997E+02  0.45594000000E+02  0.51100000000E-03 0.  1.
    9900012    2    1    2    0    0  0.40167088177E+01  0.35992985536E+02  0.18480696229E+02  0.50528867070E+02  0.30000021946E+02 0.  0.
         12    1    1    2    0    0 -0.40167088177E+01 -0.35992985536E+02 -0.18480696229E+02  0.40659132930E+02  0.00000000000E+00 0. -1.
         11    1    3    3    0    0 -0.63938415417E+01  0.55541089577E+01  0.12734639445E+02  0.15293801949E+02  0.51100000000E-03 0.  1.
        -11    1    3    3    0    0  0.88744277407E+01  0.72767341496E+01  0.29866911219E+01  0.11858610868E+02  0.51100000000E-03 0. -1.
        -12    1    3    3    0    0  0.15361226188E+01  0.23162142429E+02  0.27593656614E+01  0.23376454253E+02  0.00000000000E+00 0.  1.
</event>
<event>
 7    1  0.1381607E-011  0.5052889E+02  0.7816164E-02  0.1300439E+00
        -11   -1    0    0    0    0  0.00000000000E+00  0.00000000000E+00  0.45593999997E+02  0.45594000000E+02  0.51100000000E-03 0.  1.
         11   -1    0    0    0    0 -0.00000000000E+00 -0.00000000000E+00 -0.45593999997E+02  0.45594000000E+02  0.51100000000E-03 0. -1.
    9900012    2    1    2    0    0 -0.27563083215E+02 -0.24785805616E+02  0.16706388112E+02  0.50528891302E+02  0.30000095602E+02 0.  0.
         12    1    1    2    0    0  0.27563083215E+02  0.24785805616E+02 -0.16706388112E+02  0.40659108698E+02  0.00000000000E+00 0. -1.
         11    1    3    3    0    0  0.89513653781E-01 -0.30044624272E+01 -0.54066963611E+01  0.61860466352E+01  0.51100000000E-03 0. -1.
        -11    1    3    3    0    0 -0.22817281279E+01 -0.10257408065E+02  0.71955839339E+01  0.12735663779E+02  0.51100000000E-03 0.  1.
        -12    1    3    3    0    0 -0.25370868740E+02 -0.11523935123E+02  0.14917500539E+02  0.31607180888E+02  0.00000000000E+00 0.  1.
</event>
<event>
 7    1  0.1381607E-011  0.5052886E+02  0.7816164E-02  0.1300439E+00
        -11   -1    0    0    0    0  0.00000000000E+00  0.00000000000E+00  0.45593999997E+02  0.45594000000E+02  0.51100000000E-03 0. -1.
         11   -1    0    0    0    0 -0.00000000000E+00 -0.00000000000E+00 -0.45593999997E+02  0.45594000000E+02  0.51100000000E-03 0.  1.
    9900012    2    1    2    0    0  0.75492243499E+01 -0.22048259920E+02 -0.33317402068E+02  0.50528857924E+02  0.29999994146E+02 0.  0.
         12    1    1    2    0    0 -0.75492243499E+01  0.22048259920E+02  0.33317402068E+02  0.40659142076E+02  0.00000000000E+00 0. -1.
         11    1    3    3    0    0  0.53111864602E+01 -0.13803890398E+02 -0.82333387895E+01  0.16927609389E+02  0.51100000000E-03 0.  1.
        -11    1    3    3    0    0 -0.19307465664E+01 -0.57255288074E+01  0.17801381701E+01  0.62990756936E+01  0.51100000000E-03 0. -1.
         12    1    3    3    0    0  0.41687844561E+01 -0.25188407144E+01 -0.26864201449E+02  0.27302172842E+02  0.00000000000E+00 0. -1.
</event>
<event>
 7    1  0.1381607E-011  0.5052886E+02  0.7816164E-02  0.1300439E+00
        -11   -1    0    0    0    0  0.00000000000E+00  0.00000000000E+00  0.45593999997E+02  0.45594000000E+02  0.51100000000E-03 0. -1.
         11   -1    0    0    0    0 -0.00000000000E+00 -0.00000000000E+00 -0.45593999997E+02  0.45594000000E+02  0.51100000000E-03 0.  1.
    9900012    2    1    2    0    0 -0.10761720108E+01 -0.40624858952E+02 -0.12760866090E+01  0.50528859477E+02  0.29999998866E+02 0.  0.
         12    1    1    2    0    0  0.10761720108E+01  0.40624858952E+02  0.12760866090E+01  0.40659140523E+02  0.00000000000E+00 0. -1.
         11    1    3    3    0    0  0.41645883434E+01 -0.30117105698E+02 -0.13581595272E+01  0.30434001532E+02  0.51100000000E-03 0. -1.
        -11    1    3    3    0    0  0.40198074230E+01 -0.17317960618E+01 -0.47435502514E+01  0.64543968398E+01  0.51100000000E-03 0.  1.
         12    1    3    3    0    0 -0.92605677772E+01 -0.87759571919E+01  0.48256231695E+01  0.13640461105E+02  0.00000000000E+00 0. -1.
</event>
<event>
 7    1  0.1381607E-011  0.5052886E+02  0.7816164E-02  0.1300439E+00
        -11   -1    0    0    0    0  0.00000000000E+00  0.00000000000E+00  0.45593999997E+02  0.45594000000E+02  0.51100000000E-03 0.  1.
         11   -1    0    0    0    0 -0.00000000000E+00 -0.00000000000E+00 -0.45593999997E+02  0.45594000000E+02  0.51100000000E-03 0. -1.
    9900012    2    1    2    0    0 -0.28387043849E+02  0.16887103404E+01  0.29060105328E+02  0.50528859296E+02  0.29999998317E+02 0.  0.
         12    1    1    2    0    0  0.28387043849E+02 -0.16887103404E+01 -0.29060105328E+02  0.40659140704E+02  0.00000000000E+00 0. -1.
         11    1    3    3    0    0 -0.25802698510E+01  0.83263115021E+01  0.11387767157E+02  0.14341077254E+02  0.51100000000E-03 0. -1.
        -11    1    3    3    0    0 -0.21095813388E+02 -0.32481019366E+01  0.20620679786E+02  0.29678206546E+02  0.51100000000E-03 0.  1.
         12    1    3    3    0    0 -0.47109606097E+01 -0.33894992251E+01 -0.29483416146E+01  0.65095754961E+01  0.00000000000E+00 0. -1.
</event>
<event>
 7    1  0.1381607E-011  0.5052886E+02  0.7816164E-02  0.1300439E+00
        -11   -1    0    0    0    0  0.00000000000E+00  0.00000000000E+00  0.45593999997E+02  0.45594000000E+02  0.51100000000E-03 0. -1.
         11   -1    0    0    0    0 -0.00000000000E+00 -0.00000000000E+00 -0.45593999997E+02  0.45594000000E+02  0.51100000000E-03 0.  1.
    9900012    2    1    2    0    0  0.15953132426E+02 -0.35093348574E+02 -0.12927482418E+02  0.50528863880E+02  0.30000012250E+02 0.  0.
         12    1    1    2    0    0 -0.15953132426E+02  0.35093348574E+02  0.12927482418E+02  0.40659136120E+02  0.00000000000E+00 0. -1.
         11    1    3    3    0    0  0.18203261675E+01 -0.42221261959E+01  0.28678393110E+01  0.54188965247E+01  0.51100000000E-03 0. -1.
        -11    1    3    3    0    0 -0.61364638598E+01 -0.15826513784E+02 -0.72804531137E+01  0.18469968193E+02  0.51100000000E-03 0.  1.
        -12    1    3    3    0    0  0.20269270118E+02 -0.15044708594E+02 -0.85148686150E+01  0.26639999162E+02  0.00000000000E+00 0.  1.
</event>
<event>
 7    1  0.1381607E-011  0.5052886E+02  0.7816164E-02  0.1300439E+00
        -11   -1    0    0    0    0  0.00000000000E+00  0.00000000000E+00  0.45593999997E+02  0.45594000000E+02  0.51100000000E-03 0.  1.
         11   -1    0    0    0    0 -0.00000000000E+00 -0.00000000000E+00 -0.45593999997E+02  0.45594000000E+02  0.51100000000E-03 0. -1.
    9900012    2    1    2    0    0  0.34450108233E+02  0.15724493241E+02  0.14801897442E+02  0.50528858188E+02  0.29999994949E+02 0.  0.
         12    1    1    2    0    0 -0.34450108233E+02 -0.15724493241E+02 -0.14801897442E+02  0.40659141812E+02  0.00000000000E+00 0. -1.
         11    1    3    3    0    0  0.12967109356E+02  0.40120579729E+01 -0.17845603775E+01  0.13690405042E+02  0.51100000000E-03 0. -1.
        -11    1    3    3    0    0  0.25885807933E+02  0.86929277672E+01  0.12109850882E+02  0.29871232552E+02  0.51100000000E-03 0.  1.
         12    1    3    3    0    0 -0.44028090560E+01  0.30195075008E+01  0.44766069374E+01  0.69672205938E+01  0.00000000000E+00 0. -1.
</event>
<event>
 7    1  0.1381607E-011  0.5052886E+02  0.7816164E-02  0.1300439E+00
        -11   -1    0    0    0    0  0.00000000000E+00  0.00000000000E+00  0.45593999997E+02  0.45594000000E+02  0.51100000000E-03 0. -1.
         11   -1    0    0    0    0 -0.00000000000E+00 -0.00000000000E+00 -0.45593999997E+02  0.45594000000E+02  0.51100000000E-03 0.  1.
    9900012    2    1    2    0    0  0.37995610139E+02  0.34658161081E+01 -0.14053011530E+02  0.50528863214E+02  0.30000010225E+02 0.  0.
         12    1    1    2    0    0 -0.37995610139E+02 -0.34658161081E+01  0.14053011530E+02  0.40659136786E+02  0.00000000000E+00 0. -1.
         11    1    3    3    0    0  0.65588877248E+01  0.76091563563E+01 -0.65078966894E+01  0.11969585967E+02  0.51100000000E-03 0. -1.
        -11    1    3    3    0    0  0.30212991579E+02  0.31656897207E+01 -0.66161900616E+01  0.31090519821E+02  0.51100000000E-03 0.  1.
        -12    1    3    3    0    0  0.12237308358E+01 -0.73090299688E+01 -0.92892477878E+00  0.74687574260E+01  0.00000000000E+00 0.  1.
</event>
<event>
 7    1  0.1381607E-011  0.5052885E+02  0.7816164E-02  0.1300439E+00
        -11   -1    0    0    0    0  0.00000000000E+00  0.00000000000E+00  0.45593999997E+02  0.45594000000E+02  0.51100000000E-03 0. -1.
         11   -1    0    0    0    0 -0.00000000000E+00 -0.00000000000E+00 -0.45593999997E+02  0.45594000000E+02  0.51100000000E-03 0.  1.
    9900012    2    1    2    0    0 -0.19743851662E+02 -0.20048221852E+02 -0.29349878451E+02  0.50528852899E+02  0.29999978872E+02 0.  0.
         12    1    1    2    0    0  0.19743851662E+02  0.20048221852E+02  0.29349878451E+02  0.40659147101E+02  0.00000000000E+00 0. -1.
         11    1    3    3    0    0  0.63078307909E+01 -0.67025846477E+01 -0.10390007989E+02  0.13880404768E+02  0.51100000000E-03 0. -1.
        -11    1    3    3    0    0 -0.83568432911E+01 -0.98712510956E+01 -0.10824325854E+02  0.16865481269E+02  0.51100000000E-03 0.  1.
        -12    1    3    3    0    0 -0.17694839162E+02 -0.34743861090E+01 -0.81355446082E+01  0.19782966862E+02  0.00000000000E+00 0.  1.
</event>
<event>
 7    1  0.1381607E-011  0.5052886E+02  0.7816164E-02  0.1300439E+00
        -11   -1    0    0    0    0  0.00000000000E+00  0.00000000000E+00  0.45593999997E+02  0.45594000000E+02  0.51100000000E-03 0.  1.
         11   -1    0    0    0    0 -0.00000000000E+00 -0.00000000000E+00 -0.45593999997E+02  0.45594000000E+02  0.51100000000E-03 0. -1.
    9900012    2    1    2    0    0  0.62827677395E+01  0.12842684351E+02  0.38062553079E+02  0.50528860084E+02  0.30000000710E+02 0.  0.
         12    1    1    2    0    0 -0.62827677395E+01 -0.12842684351E+02 -0.38062553079E+02  0.40659139916E+02  0.00000000000E+00 0. -1.
         11    1    3    3    0    0 -0.11519224127E+01 -0.47980819622E+01  0.17544935931E+02  0.18225621878E+02  0.51100000000E-03 0. -1.
        -11    1    3    3    0    0 -0.49954491452E+01  0.44389011053E+01  0.70672683449E+01  0.97264915209E+01  0.51100000000E-03 0.  1.
        -12    1    3    3    0    0  0.12430139297E+02  0.13201865208E+02  0.13450348803E+02  0.22576746685E+02  0.00000000000E+00 0.  1.
</event>
<event>
 7    1  0.1381607E-011  0.5052887E+02  0.7816164E-02  0.1300439E+00
        -11   -1    0    0    0    0  0.00000000000E+00  0.00000000000E+00  0.45593999997E+02  0.45594000000E+02  0.51100000000E-03 0. -1.
         11   -1    0    0    0    0 -0.00000000000E+00 -0.00000000000E+00 -0.45593999997E+02  0.45594000000E+02  0.51100000000E-03 0.  1.
    9900012    2    1    2    0    0 -0.31195731296E+02 -0.18298751341E+02 -0.18578135018E+02  0.50528867539E+02  0.30000023372E+02 0.  0.
         12    1    1    2    0    0  0.31195731296E+02  0.18298751341E+02  0.18578135018E+02  0.40659132461E+02  0.00000000000E+00 0. -1.
         11    1    3    3    0    0  0.28890899953E+00 -0.33969409205E+01 -0.11372717643E+02  0.11872715901E+02  0.51100000000E-03 0. -1.
        -11    1    3    3    0    0  0.81834936365E+00 -0.24759202432E+00 -0.27813567215E+01  0.29098011899E+01  0.51100000000E-03 0.  1.
        -12    1    3    3    0    0 -0.32302989659E+02 -0.14654218396E+02 -0.44240606540E+01  0.35746350448E+02  0.00000000000E+00 0.  1.
</event>
<event>
 7    1  0.1381607E-011  0.5052886E+02  0.7816164E-02  0.1300439E+00
        -11   -1    0    0    0    0  0.00000000000E+00  0.00000000000E+00  0.45593999997E+02  0.45594000000E+02  0.51100000000E-03 0. -1.
         11   -1    0    0    0    0 -0.00000000000E+00 -0.00000000000E+00 -0.45593999997E+02  0.45594000000E+02  0.51100000000E-03 0.  1.
    9900012    2    1    2    0    0  0.25935930443E+02  0.12937227200E+02 -0.28515286413E+02  0.50528857181E+02  0.29999991886E+02 0.  0.
         12    1    1    2    0    0 -0.25935930443E+02 -0.12937227200E+02  0.28515286413E+02  0.40659142819E+02  0.00000000000E+00 0. -1.
         11    1    3    3    0    0  0.10445755248E+02 -0.14790986244E+01 -0.59771070567E+00  0.10566872469E+02  0.51100000000E-03 0. -1.
        -11    1    3    3    0    0  0.18756733508E+02  0.11874130457E+02 -0.28109461386E+02  0.35818317181E+02  0.51100000000E-03 0.  1.
         12    1    3    3    0    0 -0.32665583122E+01  0.25421953673E+01  0.19188567810E+00  0.41436675309E+01  0.00000000000E+00 0. -1.
</event>
<event>
 7    1  0.1381607E-011  0.5052886E+02  0.7816164E-02  0.1300439E+00
        -11   -1    0    0    0    0  0.00000000000E+00  0.00000000000E+00  0.45593999997E+02  0.45594000000E+02  0.51100000000E-03 0.  1.
         11   -1    0    0    0    0 -0.00000000000E+00 -0.00000000000E+00 -0.45593999997E+02  0.45594000000E+02  0.51100000000E-03 0. -1.
    9900012    2    1    2    0    0 -0.36716465274E+02 -0.14445892369E+02  0.98174667260E+01  0.50528864723E+02  0.30000014811E+02 0.  0.
         12    1    1    2    0    0  0.36716465274E+02  0.14445892369E+02 -0.98174667260E+01  0.40659135277E+02  0.00000000000E+00 0. -1.
         11    1    3    3    0    0 -0.27846862372E+01 -0.62515316405E+01 -0.45552528577E+01  0.82210981110E+01  0.51100000000E-03 0. -1.
        -11    1    3    3    0    0 -0.19602726170E+00  0.86949948867E+00 -0.31169488209E+01  0.32418862197E+01  0.51100000000E-03 0.  1.
        -12    1    3    3    0    0 -0.33735751775E+02 -0.90638602174E+01  0.17489668405E+02  0.39065880392E+02  0.00000000000E+00 0.  1.
</event>
<event>
 7    1  0.1381607E-011  0.5052886E+02  0.7816164E-02  0.1300439E+00
        -11   -1    0    0    0    0  0.00000000000E+00  0.00000000000E+00  0.45593999997E+02  0.45594000000E+02  0.51100000000E-03 0. -1.
         11   -1    0    0    0    0 -0.00000000000E+00 -0.00000000000E+00 -0.45593999997E+02  0.45594000000E+02  0.51100000000E-03 0.  1.
    9900012    2    1    2    0    0 -0.28189941126E+02  0.15211028582E+02 -0.25042320397E+02  0.50528856107E+02  0.29999988624E+02 0.  0.
         12    1    1    2    0    0  0.28189941126E+02 -0.15211028582E+02  0.25042320397E+02  0.40659143893E+02  0.00000000000E+00 0. -1.
         11    1    3    3    0    0 -0.10151677669E+02  0.19398296629E+02 -0.10618957108E+02  0.24333366432E+02  0.51100000000E-03 0. -1.
        -11    1    3    3    0    0 -0.22770590601E+01  0.81481536001E+00 -0.81637620300E+01  0.85144543441E+01  0.51100000000E-03 0.  1.
         12    1    3    3    0    0 -0.15761204397E+02 -0.50020834068E+01 -0.62596012594E+01  0.17681035331E+02  0.00000000000E+00 0. -1.
</event>
<event>
 7    1  0.1381607E-011  0.5052886E+02  0.7816164E-02  0.1300439E+00
        -11   -1    0    0    0    0  0.00000000000E+00  0.00000000000E+00  0.45593999997E+02  0.45594000000E+02  0.51100000000E-03 0. -1.
         11   -1    0    0    0    0 -0.00000000000E+00 -0.00000000000E+00 -0.45593999997E+02  0.45594000000E+02  0.51100000000E-03 0.  1.
    9900012    2    1    2    0    0 -0.15379957516E+02  0.26803705561E+02 -0.26423169274E+02  0.50528860813E+02  0.30000002926E+02 0.  0.
         12    1    1    2    0    0  0.15379957516E+02 -0.26803705561E+02  0.26423169274E+02  0.40659139187E+02  0.00000000000E+00 0. -1.
         11    1    3    3    0    0  0.64914430240E+00 -0.25335155600E+01  0.61863413429E+00  0.26875263480E+01  0.51100000000E-03 0. -1.
        -11    1    3    3    0    0 -0.70488151478E+01  0.14251938469E+02 -0.36247402494E+00  0.15903928219E+02  0.51100000000E-03 0.  1.
        -12    1    3    3    0    0 -0.89802866706E+01  0.15085282652E+02 -0.26679329383E+02  0.31937406246E+02  0.00000000000E+00 0.  1.
</event>
<event>
 7    1  0.1381607E-011  0.5052887E+02  0.7816164E-02  0.1300439E+00
        -11   -1    0    0    0    0  0.00000000000E+00  0.00000000000E+00  0.45593999997E+02  0.45594000000E+02  0.51100000000E-03 0.  1.
         11   -1    0    0    0    0 -0.00000000000E+00 -0.00000000000E+00 -0.45593999997E+02  0.45594000000E+02  0.51100000000E-03 0. -1.
    9900012    2    1    2    0    0 -0.34333055080E+02  0.91210342223E+01  0.19779110606E+02  0.50528866305E+02  0.30000019621E+02 0.  0.
         12    1    1    2    0    0  0.34333055080E+02 -0.91210342223E+01 -0.19779110606E+02  0.40659133695E+02  0.00000000000E+00 0. -1.
         11    1    3    3    0    0 -0.44795494185E+01 -0.44527151843E+01  0.11409665530E+02  0.13041223228E+02  0.51100000000E-03 0. -1.
        -11    1    3    3    0    0 -0.10452703294E+01  0.57938468254E+01  0.44734522354E+01  0.73941210607E+01  0.51100000000E-03 0.  1.
        -12    1    3    3    0    0 -0.28808235332E+02  0.77799025813E+01  0.38959928405E+01  0.30093522017E+02  0.00000000000E+00 0.  1.
</event>
<event>
 7    1  0.1381607E-011  0.5052886E+02  0.7816164E-02  0.1300439E+00
        -11   -1    0    0    0    0  0.00000000000E+00  0.00000000000E+00  0.45593999997E+02  0.45594000000E+02  0.51100000000E-03 0.  1.
         11   -1    0    0    0    0 -0.00000000000E+00 -0.00000000000E+00 -0.45593999997E+02  0.45594000000E+02  0.51100000000E-03 0. -1.
    9900012    2    1    2    0    0  0.36903317877E+02  0.43272435358E+00 -0.17062342151E+02  0.50528860309E+02  0.30000001396E+02 0.  0.
         12    1    1    2    0    0 -0.36903317877E+02 -0.43272435358E+00  0.17062342151E+02  0.40659139691E+02  0.00000000000E+00 0. -1.
         11    1    3    3    0    0  0.14812115276E+02 -0.44615113800E+01 -0.30211022226E+01  0.15761690951E+02  0.51100000000E-03 0.  1.
        -11    1    3    3    0    0 -0.19773931678E+01  0.55245161074E+01 -0.80403293375E+01  0.99537559784E+01  0.51100000000E-03 0. -1.
         12    1    3    3    0    0  0.24068595769E+02 -0.63028037386E+00 -0.60009105913E+01  0.24813413380E+02  0.00000000000E+00 0. -1.
</event>
<event>
 7    1  0.1381607E-011  0.5052888E+02  0.7816164E-02  0.1300439E+00
        -11   -1    0    0    0    0  0.00000000000E+00  0.00000000000E+00  0.45593999997E+02  0.45594000000E+02  0.51100000000E-03 0.  1.
         11   -1    0    0    0    0 -0.00000000000E+00 -0.00000000000E+00 -0.45593999997E+02  0.45594000000E+02  0.51100000000E-03 0. -1.
    9900012    2    1    2    0    0  0.26288695130E+02  0.16727536950E+02  0.26120076188E+02  0.50528876004E+02  0.30000049102E+02 0.  0.
         12    1    1    2    0    0 -0.26288695130E+02 -0.16727536950E+02 -0.26120076188E+02  0.40659123996E+02  0.00000000000E+00 0. -1.
         11    1    3    3    0    0  0.46607129872E+01  0.17163331352E+02  0.15548018656E+02  0.23622935317E+02  0.51100000000E-03 0. -1.
        -11    1    3    3    0    0  0.20815408836E+01  0.41688835932E+01  0.19098872583E+01  0.50358785196E+01  0.51100000000E-03 0.  1.
        -12    1    3    3    0    0  0.19546441260E+02 -0.46046779943E+01  0.86621702737E+01  0.21870062167E+02  0.00000000000E+00 0.  1.
</event>
<event>
 7    1  0.1381607E-011  0.5052886E+02  0.7816164E-02  0.1300439E+00
        -11   -1    0    0    0    0  0.00000000000E+00  0.00000000000E+00  0.45593999997E+02  0.45594000000E+02  0.51100000000E-03 0. -1.
         11   -1    0    0    0    0 -0.00000000000E+00 -0.00000000000E+00 -0.45593999997E+02  0.45594000000E+02  0.51100000000E-03 0.  1.
    9900012    2    1    2    0    0  0.28548273277E+02 -0.28358861069E+02  0.58255407178E+01  0.50528857942E+02  0.29999994202E+02 0.  0.
         12    1    1    2    0    0 -0.28548273277E+02  0.28358861069E+02 -0.58255407178E+01  0.40659142058E+02  0.00000000000E+00 0. -1.
         11    1    3    3    0    0 -0.78887281290E+00 -0.38220326784E+01 -0.14421143177E+01  0.41605225725E+01  0.51100000000E-03 0. -1.
        -11    1    3    3    0    0  0.27351915008E+02 -0.81404718906E+01  0.56275395492E+00  0.28543146804E+02  0.51100000000E-03 0.  1.
         12    1    3    3    0    0  0.19852310819E+01 -0.16396356500E+02  0.67049010806E+01  0.17825188566E+02  0.00000000000E+00 0. -1.
</event>
<event>
 7    1  0.1381607E-011  0.5052886E+02  0.7816164E-02  0.1300439E+00
        -11   -1    0    0    0    0  0.00000000000E+00  0.00000000000E+00  0.45593999997E+02  0.45594000000E+02  0.51100000000E-03 0. -1.
         11   -1    0    0    0    0 -0.00000000000E+00 -0.00000000000E+00 -0.45593999997E+02  0.45594000000E+02  0.51100000000E-03 0.  1.
    9900012    2    1    2    0    0 -0.39123715928E+02  0.40411530856E+00  0.11060629313E+02  0.50528856158E+02  0.29999988778E+02 0.  0.
         12    1    1    2    0    0  0.39123715928E+02 -0.40411530856E+00 -0.11060629313E+02  0.40659143842E+02  0.00000000000E+00 0. -1.
         11    1    3    3    0    0 -0.17560504953E+02  0.54610310808E+01  0.41343512867E+01  0.18849059804E+02  0.51100000000E-03 0. -1.
        -11    1    3    3    0    0 -0.24987091018E+02 -0.67380875531E+01  0.89226037671E+01  0.27374612320E+02  0.51100000000E-03 0.  1.
        -12    1    3    3    0    0  0.34238800432E+01  0.16811717809E+01 -0.19963257411E+01  0.43051840346E+01  0.00000000000E+00 0.  1.
</event>
<event>
 7    1  0.1381607E-011  0.5052886E+02  0.7816164E-02  0.1300439E+00
        -11   -1    0    0    0    0  0.00000000000E+00  0.00000000000E+00  0.45593999997E+02  0.45594000000E+02  0.51100000000E-03 0.  1.
         11   -1    0    0    0    0 -0.00000000000E+00 -0.00000000000E+00 -0.45593999997E+02  0.45594000000E+02  0.51100000000E-03 0. -1.
    9900012    2    1    2    0    0  0.28575289658E+02 -0.11740263369E+01  0.28900525049E+02  0.50528857547E+02  0.29999993001E+02 0.  0.
         12    1    1    2    0    0 -0.28575289658E+02  0.11740263369E+01 -0.28900525049E+02  0.40659142453E+02  0.00000000000E+00 0. -1.
         11    1    3    3    0    0  0.75768184266E+01  0.93300701438E+01  0.11641350716E+01  0.12075330102E+02  0.51100000000E-03 0. -1.
        -11    1    3    3    0    0  0.56829484384E+01  0.24728216516E+01  0.94387247642E+01  0.11291601982E+02  0.51100000000E-03 0.  1.
         12    1    3    3    0    0  0.15315522793E+02 -0.12976918132E+02  0.18297665213E+02  0.27161925463E+02  0.00000000000E+00 0. -1.
</event>
<event>
 7    1  0.1381607E-011  0.5052887E+02  0.7816164E-02  0.1300439E+00
        -11   -1    0    0    0    0  0.00000000000E+00  0.00000000000E+00  0.45593999997E+02  0.45594000000E+02  0.51100000000E-03 0.  1.
         11   -1    0    0    0    0 -0.00000000000E+00 -0.00000000000E+00 -0.45593999997E+02  0.45594000000E+02  0.51100000000E-03 0. -1.
    9900012    2    1    2    0    0 -0.18106583660E+02 -0.46922475059E+01  0.36101239442E+02  0.50528867597E+02  0.30000023548E+02 0.  0.
         12    1    1    2    0    0  0.18106583660E+02  0.46922475059E+01 -0.36101239442E+02  0.40659132403E+02  0.00000000000E+00 0. -1.
         11    1    3    3    0    0 -0.45854398902E+01 -0.73052178820E+01  0.29492437897E+01  0.91153994143E+01  0.51100000000E-03 0. -1.
        -11    1    3    3    0    0 -0.15283841374E+02 -0.12544928557E+01  0.11037724225E+02  0.18894467862E+02  0.51100000000E-03 0.  1.
         12    1    3    3    0    0  0.17626976036E+01  0.38674632317E+01  0.22114271427E+02  0.22519000321E+02  0.00000000000E+00 0. -1.
</event>
<event>
 7    1  0.1381607E-011  0.5052884E+02  0.7816164E-02  0.1300439E+00
        -11   -1    0    0    0    0  0.00000000000E+00  0.00000000000E+00  0.45593999997E+02  0.45594000000E+02  0.51100000000E-03 0.  1.
         11   -1    0    0    0    0 -0.00000000000E+00 -0.00000000000E+00 -0.45593999997E+02  0.45594000000E+02  0.51100000000E-03 0. -1.
    9900012    2    1    2    0    0  0.39371535041E+02 -0.97130108857E+01 -0.29508183657E+01  0.50528835216E+02  0.29999925122E+02 0.  0.
         12    1    1    2    0    0 -0.39371535041E+02  0.97130108857E+01  0.29508183657E+01  0.40659164784E+02  0.00000000000E+00 0. -1.
         11    1    3    3    0    0 -0.15336302235E+01 -0.15751432107E+01  0.40169938391E+01  0.45792289265E+01  0.51100000000E-03 0. -1.
        -11    1    3    3    0    0  0.14731925049E+02  0.56366008228E+01 -0.12274424897E+01  0.15821109310E+02  0.51100000000E-03 0.  1.
        -12    1    3    3    0    0  0.26173240215E+02 -0.13774468498E+02 -0.57403697151E+01  0.30128496979E+02  0.00000000000E+00 0.  1.
</event>
<event>
 7    1  0.1381607E-011  0.5052885E+02  0.7816164E-02  0.1300439E+00
        -11   -1    0    0    0    0  0.00000000000E+00  0.00000000000E+00  0.45593999997E+02  0.45594000000E+02  0.51100000000E-03 0. -1.
         11   -1    0    0    0    0 -0.00000000000E+00 -0.00000000000E+00 -0.45593999997E+02  0.45594000000E+02  0.51100000000E-03 0.  1.
    9900012    2    1    2    0    0  0.21823673296E+02  0.15648670036E+02 -0.30528891942E+02  0.50528845641E+02  0.29999956810E+02 0.  0.
         12    1    1    2    0    0 -0.21823673296E+02 -0.15648670036E+02  0.30528891942E+02  0.40659154359E+02  0.00000000000E+00 0. -1.
         11    1    3    3    0    0  0.19266033058E+02  0.95744117031E+01 -0.55483831825E+01  0.22217874458E+02  0.51100000000E-03 0. -1.
        -11    1    3    3    0    0 -0.73474836476E+00  0.87627045251E+01 -0.13954625205E+02  0.16494132612E+02  0.51100000000E-03 0.  1.
        -12    1    3    3    0    0  0.32923886027E+01 -0.26884461924E+01 -0.11025883555E+02  0.11816838571E+02  0.00000000000E+00 0.  1.
</event>
<event>
 7    1  0.1381607E-011  0.5052887E+02  0.7816164E-02  0.1300439E+00
        -11   -1    0    0    0    0  0.00000000000E+00  0.00000000000E+00  0.45593999997E+02  0.45594000000E+02  0.51100000000E-03 0.  1.
         11   -1    0    0    0    0 -0.00000000000E+00 -0.00000000000E+00 -0.45593999997E+02  0.45594000000E+02  0.51100000000E-03 0. -1.
    9900012    2    1    2    0    0 -0.14478237360E+02 -0.13318463996E+02  0.35583193931E+02  0.50528873957E+02  0.30000042879E+02 0.  0.
         12    1    1    2    0    0  0.14478237360E+02  0.13318463996E+02 -0.35583193931E+02  0.40659126043E+02  0.00000000000E+00 0. -1.
         11    1    3    3    0    0 -0.10590826920E+02 -0.14904699692E+02  0.17331921008E+02  0.25193474826E+02  0.51100000000E-03 0. -1.
        -11    1    3    3    0    0 -0.88392730081E+01 -0.81201732474E+00  0.17705960017E+02  0.19806391388E+02  0.51100000000E-03 0.  1.
         12    1    3    3    0    0  0.49518625685E+01  0.23982530201E+01  0.54531290678E+00  0.55290077421E+01  0.00000000000E+00 0. -1.
</event>
<event>
 7    1  0.1381607E-011  0.5052886E+02  0.7816164E-02  0.1300439E+00
        -11   -1    0    0    0    0  0.00000000000E+00  0.00000000000E+00  0.45593999997E+02  0.45594000000E+02  0.51100000000E-03 0. -1.
         11   -1    0    0    0    0 -0.00000000000E+00 -0.00000000000E+00 -0.45593999997E+02  0.45594000000E+02  0.51100000000E-03 0.  1.
    9900012    2    1    2    0    0  0.28391517646E+02  0.54869531066E+01 -0.28582878100E+02  0.50528857742E+02  0.29999993594E+02 0.  0.
         12    1    1    2    0    0 -0.28391517646E+02 -0.54869531066E+01  0.28582878100E+02  0.40659142258E+02  0.00000000000E+00 0. -1.
         11    1    3    3    0    0  0.74477304507E+01 -0.51066789665E+00  0.33472169102E+01  0.81812793542E+01  0.51100000000E-03 0. -1.
        -11    1    3    3    0    0  0.13805243411E+02  0.93240544916E+01 -0.10943562102E+02  0.19931991610E+02  0.51100000000E-03 0.  1.
         12    1    3    3    0    0  0.71385437847E+01 -0.33264334884E+01 -0.20986532908E+02  0.22415586778E+02  0.00000000000E+00 0. -1.
</event>
<event>
 7    1  0.1381607E-011  0.5052887E+02  0.7816164E-02  0.1300439E+00
        -11   -1    0    0    0    0  0.00000000000E+00  0.00000000000E+00  0.45593999997E+02  0.45594000000E+02  0.51100000000E-03 0.  1.
         11   -1    0    0    0    0 -0.00000000000E+00 -0.00000000000E+00 -0.45593999997E+02  0.45594000000E+02  0.51100000000E-03 0. -1.
    9900012    2    1    2    0    0  0.11154043565E+02  0.27461017723E+02  0.27832437095E+02  0.50528871420E+02  0.30000035167E+02 0.  0.
         12    1    1    2    0    0 -0.11154043565E+02 -0.27461017723E+02 -0.27832437095E+02  0.40659128580E+02  0.00000000000E+00 0. -1.
         11    1    3    3    0    0  0.64649412642E+01  0.67049114159E+01  0.10210010548E+02  0.13820116435E+02  0.51100000000E-03 0. -1.
        -11    1    3    3    0    0  0.53620498924E+01  0.26096666958E+02  0.13150218317E+02  0.29710534283E+02  0.51100000000E-03 0.  1.
         12    1    3    3    0    0 -0.67294759159E+00 -0.53405606503E+01  0.44722082309E+01  0.69982207011E+01  0.00000000000E+00 0. -1.
</event>
<event>
 7    1  0.1381607E-011  0.5052886E+02  0.7816164E-02  0.1300439E+00
        -11   -1    0    0    0    0  0.00000000000E+00  0.00000000000E+00  0.45593999997E+02  0.45594000000E+02  0.51100000000E-03 0.  1.
         11   -1    0    0    0    0 -0.00000000000E+00 -0.00000000000E+00 -0.45593999997E+02  0.45594000000E+02  0.51100000000E-03 0. -1.
    9900012    2    1    2    0    0 -0.58140586432E+01 -0.92366934093E+01  0.39166898384E+02  0.50528859428E+02  0.29999998716E+02 0.  0.
         12    1    1    2    0    0  0.58140586432E+01  0.92366934093E+01 -0.39166898384E+02  0.40659140572E+02  0.00000000000E+00 0. -1.
         11    1    3    3    0    0  0.95230958288E+00  0.85578623869E+01  0.52008263364E+01  0.10059448147E+02  0.51100000000E-03 0. -1.
        -11    1    3    3    0    0 -0.47334031947E+01 -0.58063254629E+01  0.48707201337E+01  0.89354594771E+01  0.51100000000E-03 0.  1.
        -12    1    3    3    0    0 -0.20329650314E+01 -0.11988230333E+02  0.29095351914E+02  0.31533951804E+02  0.00000000000E+00 0.  1.
</event>
<event>
 7    1  0.1381607E-011  0.5052885E+02  0.7816164E-02  0.1300439E+00
        -11   -1    0    0    0    0  0.00000000000E+00  0.00000000000E+00  0.45593999997E+02  0.45594000000E+02  0.51100000000E-03 0. -1.
         11   -1    0    0    0    0 -0.00000000000E+00 -0.00000000000E+00 -0.45593999997E+02  0.45594000000E+02  0.51100000000E-03 0.  1.
    9900012    2    1    2    0    0 -0.13587339273E+02  0.46523050331E+01 -0.38038223479E+02  0.50528853721E+02  0.29999981372E+02 0.  0.
         12    1    1    2    0    0  0.13587339273E+02 -0.46523050331E+01  0.38038223479E+02  0.40659146279E+02  0.00000000000E+00 0. -1.
         11    1    3    3    0    0 -0.68454966925E+01 -0.29281645626E+01 -0.21806548861E+01  0.77582361826E+01  0.51100000000E-03 0. -1.
        -11    1    3    3    0    0 -0.11119305750E+01 -0.67143546799E+01 -0.17828655803E+02  0.19083498536E+02  0.51100000000E-03 0.  1.
        -12    1    3    3    0    0 -0.56299120059E+01  0.14294824276E+02 -0.18028912790E+02  0.23687119003E+02  0.00000000000E+00 0.  1.
</event>
<event>
 7    1  0.1381607E-011  0.5052886E+02  0.7816164E-02  0.1300439E+00
        -11   -1    0    0    0    0  0.00000000000E+00  0.00000000000E+00  0.45593999997E+02  0.45594000000E+02  0.51100000000E-03 0. -1.
         11   -1    0    0    0    0 -0.00000000000E+00 -0.00000000000E+00 -0.45593999997E+02  0.45594000000E+02  0.51100000000E-03 0.  1.
    9900012    2    1    2    0    0 -0.19987054516E+02  0.34191496222E+02  0.91991946046E+01  0.50528856581E+02  0.29999990065E+02 0.  0.
         12    1    1    2    0    0  0.19987054516E+02 -0.34191496222E+02 -0.91991946046E+01  0.40659143419E+02  0.00000000000E+00 0. -1.
         11    1    3    3    0    0  0.51454502206E+00 -0.33728212925E+01 -0.74733210869E+00  0.34927332553E+01  0.51100000000E-03 0. -1.
        -11    1    3    3    0    0 -0.86142163431E+00  0.51734643441E+01 -0.40775880129E+01  0.66433052629E+01  0.51100000000E-03 0.  1.
        -12    1    3    3    0    0 -0.19640177904E+02  0.32390853171E+02  0.14024114726E+02  0.40392818063E+02  0.00000000000E+00 0.  1.
</event>
<event>
 7    1  0.1381607E-011  0.5052886E+02  0.7816164E-02  0.1300439E+00
        -11   -1    0    0    0    0  0.00000000000E+00  0.00000000000E+00  0.45593999997E+02  0.45594000000E+02  0.51100000000E-03 0. -1.
         11   -1    0    0    0    0 -0.00000000000E+00 -0.00000000000E+00 -0.45593999997E+02  0.45594000000E+02  0.51100000000E-03 0.  1.
    9900012    2    1    2    0    0  0.71419226103E+01  0.57810491772E+01 -0.39607293781E+02  0.50528864387E+02  0.30000013790E+02 0.  0.
         12    1    1    2    0    0 -0.71419226103E+01 -0.57810491772E+01  0.39607293781E+02  0.40659135613E+02  0.00000000000E+00 0. -1.
         11    1    3    3    0    0 -0.42843607098E+01 -0.43728633124E+01 -0.22163757484E+02  0.22993691011E+02  0.51100000000E-03 0. -1.
        -11    1    3    3    0    0  0.10670947948E+02 -0.23720804863E+00 -0.68832828590E+01  0.12700589787E+02  0.51100000000E-03 0.  1.
         12    1    3    3    0    0  0.75533537213E+00  0.10391120538E+02 -0.10560253438E+02  0.14834583588E+02  0.00000000000E+00 0. -1.
</event>
<event>
 7    1  0.1381607E-011  0.5052886E+02  0.7816164E-02  0.1300439E+00
        -11   -1    0    0    0    0  0.00000000000E+00  0.00000000000E+00  0.45593999997E+02  0.45594000000E+02  0.51100000000E-03 0.  1.
         11   -1    0    0    0    0 -0.00000000000E+00 -0.00000000000E+00 -0.45593999997E+02  0.45594000000E+02  0.51100000000E-03 0. -1.
    9900012    2    1    2    0    0 -0.11674530028E+02 -0.28315971516E+02  0.26740919660E+02  0.50528859840E+02  0.29999999968E+02 0.  0.
         12    1    1    2    0    0  0.11674530028E+02  0.28315971516E+02 -0.26740919660E+02  0.40659140160E+02  0.00000000000E+00 0. -1.
         11    1    3    3    0    0 -0.56039929714E+01 -0.47108261475E+01  0.17928346476E+02  0.19365490643E+02  0.51100000000E-03 0. -1.
        -11    1    3    3    0    0  0.44273508990E+01 -0.45776878045E+00  0.87548327965E+00  0.45362384718E+01  0.51100000000E-03 0.  1.
        -12    1    3    3    0    0 -0.10497887956E+02 -0.23147376588E+02  0.79370899044E+01  0.26627130724E+02  0.00000000000E+00 0.  1.
</event>
<event>
 7    1  0.1381607E-011  0.5052886E+02  0.7816164E-02  0.1300439E+00
        -11   -1    0    0    0    0  0.00000000000E+00  0.00000000000E+00  0.45593999997E+02  0.45594000000E+02  0.51100000000E-03 0. -1.
         11   -1    0    0    0    0 -0.00000000000E+00 -0.00000000000E+00 -0.45593999997E+02  0.45594000000E+02  0.51100000000E-03 0.  1.
    9900012    2    1    2    0    0  0.18173853011E+02 -0.28537183500E+02 -0.22550080294E+02  0.50528857158E+02  0.29999991818E+02 0.  0.
         12    1    1    2    0    0 -0.18173853011E+02  0.28537183500E+02  0.22550080294E+02  0.40659142842E+02  0.00000000000E+00 0. -1.
         11    1    3    3    0    0  0.79059849598E+01  0.26144189112E+00 -0.29983943421E+01  0.84595105614E+01  0.51100000000E-03 0. -1.
        -11    1    3    3    0    0  0.16261312009E+02 -0.15108348496E+02 -0.13247646339E+02  0.25849421585E+02  0.51100000000E-03 0.  1.
        -12    1    3    3    0    0 -0.59934439576E+01 -0.13690276896E+02 -0.63040396126E+01  0.16219925012E+02  0.00000000000E+00 0.  1.
</event>
<event>
 7    1  0.1381607E-011  0.5052888E+02  0.7816164E-02  0.1300439E+00
        -11   -1    0    0    0    0  0.00000000000E+00  0.00000000000E+00  0.45593999997E+02  0.45594000000E+02  0.51100000000E-03 0. -1.
         11   -1    0    0    0    0 -0.00000000000E+00 -0.00000000000E+00 -0.45593999997E+02  0.45594000000E+02  0.51100000000E-03 0.  1.
    9900012    2    1    2    0    0 -0.11151383907E+02 -0.24669371914E+02 -0.30335343418E+02  0.50528876375E+02  0.30000050230E+02 0.  0.
         12    1    1    2    0    0  0.11151383907E+02  0.24669371914E+02  0.30335343418E+02  0.40659123625E+02  0.00000000000E+00 0. -1.
         11    1    3    3    0    0  0.29007373326E+01  0.26295448256E+01 -0.34965762885E+01  0.52492693839E+01  0.51100000000E-03 0. -1.
        -11    1    3    3    0    0 -0.13010548750E+02 -0.57545248856E+01 -0.15005314035E+02  0.20677243167E+02  0.51100000000E-03 0.  1.
        -12    1    3    3    0    0 -0.10415724893E+01 -0.21544391854E+02 -0.11833453094E+02  0.24602363824E+02  0.00000000000E+00 0.  1.
</event>
<event>
 7    1  0.1381607E-011  0.5052886E+02  0.7816164E-02  0.1300439E+00
        -11   -1    0    0    0    0  0.00000000000E+00  0.00000000000E+00  0.45593999997E+02  0.45594000000E+02  0.51100000000E-03 0.  1.
         11   -1    0    0    0    0 -0.00000000000E+00 -0.00000000000E+00 -0.45593999997E+02  0.45594000000E+02  0.51100000000E-03 0. -1.
    9900012    2    1    2    0    0 -0.12068566258E+01 -0.35151356179E+02  0.20398307991E+02  0.50528864335E+02  0.30000013633E+02 0.  0.
         12    1    1    2    0    0  0.12068566258E+01  0.35151356179E+02 -0.20398307991E+02  0.40659135665E+02  0.00000000000E+00 0. -1.
         11    1    3    3    0    0  0.69701977232E+01 -0.19902254403E+02  0.16447665372E+02  0.26743393260E+02  0.51100000000E-03 0. -1.
        -11    1    3    3    0    0 -0.40672927955E+01 -0.15957402114E+02  0.76987255410E+01  0.18178336781E+02  0.51100000000E-03 0.  1.
         12    1    3    3    0    0 -0.41097615535E+01  0.70830033738E+00 -0.37480829227E+01  0.56071342940E+01  0.00000000000E+00 0. -1.
</event>
<event>
 7    1  0.1381607E-011  0.5052886E+02  0.7816164E-02  0.1300439E+00
        -11   -1    0    0    0    0  0.00000000000E+00  0.00000000000E+00  0.45593999997E+02  0.45594000000E+02  0.51100000000E-03 0.  1.
         11   -1    0    0    0    0 -0.00000000000E+00 -0.00000000000E+00 -0.45593999997E+02  0.45594000000E+02  0.51100000000E-03 0. -1.
    9900012    2    1    2    0    0 -0.36052772503E+02 -0.82371574031E+01  0.16897106072E+02  0.50528863747E+02  0.30000011845E+02 0.  0.
         12    1    1    2    0    0  0.36052772503E+02  0.82371574031E+01 -0.16897106072E+02  0.40659136253E+02  0.00000000000E+00 0. -1.
         11    1    3    3    0    0  0.17746038588E+01 -0.28685206639E+01  0.46925163141E+01  0.57790431105E+01  0.51100000000E-03 0.  1.
        -11    1    3    3    0    0 -0.72973478475E+01 -0.77630216616E+01 -0.22448580618E+01  0.10888304685E+02  0.51100000000E-03 0. -1.
        -12    1    3    3    0    0 -0.30530028514E+02  0.23943849224E+01  0.14449447820E+02  0.33861515952E+02  0.00000000000E+00 0.  1.
</event>
<event>
 7    1  0.1381607E-011  0.5052886E+02  0.7816164E-02  0.1300439E+00
        -11   -1    0    0    0    0  0.00000000000E+00  0.00000000000E+00  0.45593999997E+02  0.45594000000E+02  0.51100000000E-03 0.  1.
         11   -1    0    0    0    0 -0.00000000000E+00 -0.00000000000E+00 -0.45593999997E+02  0.45594000000E+02  0.51100000000E-03 0. -1.
    9900012    2    1    2    0    0 -0.13560297675E+01 -0.25411562281E+02  0.31710876322E+02  0.50528855993E+02  0.29999988277E+02 0.  0.
         12    1    1    2    0    0  0.13560297675E+01  0.25411562281E+02 -0.31710876322E+02  0.40659144007E+02  0.00000000000E+00 0. -1.
         11    1    3    3    0    0 -0.73729731381E+00  0.20019157835E+01  0.61840428534E+00  0.22211929800E+01  0.51100000000E-03 0. -1.
        -11    1    3    3    0    0  0.93081938052E+01 -0.74323731881E+01  0.20268692193E+02  0.23509626254E+02  0.51100000000E-03 0.  1.
        -12    1    3    3    0    0 -0.99269262588E+01 -0.19981104876E+02  0.10823779843E+02  0.24798036759E+02  0.00000000000E+00 0.  1.
</event>
<event>
 7    1  0.1381607E-011  0.5052886E+02  0.7816164E-02  0.1300439E+00
        -11   -1    0    0    0    0  0.00000000000E+00  0.00000000000E+00  0.45593999997E+02  0.45594000000E+02  0.51100000000E-03 0.  1.
         11   -1    0    0    0    0 -0.00000000000E+00 -0.00000000000E+00 -0.45593999997E+02  0.45594000000E+02  0.51100000000E-03 0. -1.
    9900012    2    1    2    0    0 -0.37777498857E+02 -0.13865821912E+01  0.14970079279E+02  0.50528864450E+02  0.30000013981E+02 0.  0.
         12    1    1    2    0    0  0.37777498857E+02  0.13865821912E+01 -0.14970079279E+02  0.40659135550E+02  0.00000000000E+00 0. -1.
         11    1    3    3    0    0  0.33336682724E+00 -0.29653048146E+01  0.17385848289E+01  0.34535262491E+01  0.51100000000E-03 0. -1.
        -11    1    3    3    0    0 -0.98982067263E+01  0.98258905359E+00 -0.71633753879E+01  0.12257810769E+02  0.51100000000E-03 0.  1.
        -12    1    3    3    0    0 -0.28212658958E+02  0.59613356982E+00  0.20394869838E+02  0.34817527431E+02  0.00000000000E+00 0.  1.
</event>
<event>
 7    1  0.1381607E-011  0.5052886E+02  0.7816164E-02  0.1300439E+00
        -11   -1    0    0    0    0  0.00000000000E+00  0.00000000000E+00  0.45593999997E+02  0.45594000000E+02  0.51100000000E-03 0.  1.
         11   -1    0    0    0    0 -0.00000000000E+00 -0.00000000000E+00 -0.45593999997E+02  0.45594000000E+02  0.51100000000E-03 0. -1.
    9900012    2    1    2    0    0 -0.21219651273E+02 -0.36677073288E+01  0.34488260667E+02  0.50528858334E+02  0.29999995392E+02 0.  0.
         12    1    1    2    0    0  0.21219651273E+02  0.36677073288E+01 -0.34488260667E+02  0.40659141666E+02  0.00000000000E+00 0. -1.
         11    1    3    3    0    0 -0.23960784622E+01 -0.15642155904E+01 -0.67037111252E+00  0.29389386009E+01  0.51100000000E-03 0. -1.
        -11    1    3    3    0    0  0.27408812707E-01  0.25741803741E+01 -0.34891918191E+01  0.43360829850E+01  0.51100000000E-03 0.  1.
        -12    1    3    3    0    0 -0.18850981624E+02 -0.46776721125E+01  0.38647823598E+02  0.43253836748E+02  0.00000000000E+00 0.  1.
</event>
<event>
 7    1  0.1381607E-011  0.5052884E+02  0.7816164E-02  0.1300439E+00
        -11   -1    0    0    0    0  0.00000000000E+00  0.00000000000E+00  0.45593999997E+02  0.45594000000E+02  0.51100000000E-03 0. -1.
         11   -1    0    0    0    0 -0.00000000000E+00 -0.00000000000E+00 -0.45593999997E+02  0.45594000000E+02  0.51100000000E-03 0.  1.
    9900012    2    1    2    0    0 -0.35375991900E+02  0.13949995336E+02 -0.14391123453E+02  0.50528836125E+02  0.29999927885E+02 0.  0.
         12    1    1    2    0    0  0.35375991900E+02 -0.13949995336E+02  0.14391123453E+02  0.40659163875E+02  0.00000000000E+00 0. -1.
         11    1    3    3    0    0  0.15814971109E+01  0.78469737980E+01 -0.43859848644E+01  0.91275952139E+01  0.51100000000E-03 0. -1.
        -11    1    3    3    0    0 -0.25845975885E+02  0.95785917442E+01 -0.11084137896E+02  0.29708954919E+02  0.51100000000E-03 0.  1.
         12    1    3    3    0    0 -0.11111513126E+02 -0.34755702061E+01  0.10789993075E+01  0.11692285992E+02  0.00000000000E+00 0. -1.
</event>
<event>
 7    1  0.1381607E-011  0.5052885E+02  0.7816164E-02  0.1300439E+00
        -11   -1    0    0    0    0  0.00000000000E+00  0.00000000000E+00  0.45593999997E+02  0.45594000000E+02  0.51100000000E-03 0.  1.
         11   -1    0    0    0    0 -0.00000000000E+00 -0.00000000000E+00 -0.45593999997E+02  0.45594000000E+02  0.51100000000E-03 0. -1.
    9900012    2    1    2    0    0  0.15515235292E+02  0.30976806003E+02  0.21281019946E+02  0.50528845481E+02  0.29999956323E+02 0.  0.
         12    1    1    2    0    0 -0.15515235292E+02 -0.30976806003E+02 -0.21281019946E+02  0.40659154519E+02  0.00000000000E+00 0. -1.
         11    1    3    3    0    0 -0.92167906412E+00  0.14741740310E+01  0.72466387839E+01  0.74522785305E+01  0.51100000000E-03 0.  1.
        -11    1    3    3    0    0  0.53763014818E+01 -0.18177619431E+01 -0.22233366973E+01  0.60952524505E+01  0.51100000000E-03 0. -1.
         12    1    3    3    0    0  0.11060612874E+02  0.31320393915E+02  0.16257717859E+02  0.36981314500E+02  0.00000000000E+00 0. -1.
</event>
<event>
 7    1  0.1381607E-011  0.5052886E+02  0.7816164E-02  0.1300439E+00
        -11   -1    0    0    0    0  0.00000000000E+00  0.00000000000E+00  0.45593999997E+02  0.45594000000E+02  0.51100000000E-03 0.  1.
         11   -1    0    0    0    0 -0.00000000000E+00 -0.00000000000E+00 -0.45593999997E+02  0.45594000000E+02  0.51100000000E-03 0. -1.
    9900012    2    1    2    0    0 -0.27678827244E+02 -0.28716438918E+02  0.79002867902E+01  0.50528857448E+02  0.29999992698E+02 0.  0.
         12    1    1    2    0    0  0.27678827244E+02  0.28716438918E+02 -0.79002867902E+01  0.40659142552E+02  0.00000000000E+00 0. -1.
         11    1    3    3    0    0  0.70372474484E+00 -0.22143678650E+01 -0.27178289323E+01  0.35756465044E+01  0.51100000000E-03 0. -1.
        -11    1    3    3    0    0 -0.19117057382E+02 -0.25654301817E+02 -0.10727936958E+01  0.32011809871E+02  0.51100000000E-03 0.  1.
         12    1    3    3    0    0 -0.92654946066E+01 -0.84776923644E+00  0.11690909418E+02  0.14941401073E+02  0.00000000000E+00 0. -1.
</event>
<event>
 7    1  0.1381607E-011  0.5052885E+02  0.7816164E-02  0.1300439E+00
        -11   -1    0    0    0    0  0.00000000000E+00  0.00000000000E+00  0.45593999997E+02  0.45594000000E+02  0.51100000000E-03 0. -1.
         11   -1    0    0    0    0 -0.00000000000E+00 -0.00000000000E+00 -0.45593999997E+02  0.45594000000E+02  0.51100000000E-03 0.  1.
    9900012    2    1    2    0    0  0.23322060721E+02  0.26377337482E+02  0.20334299834E+02  0.50528853444E+02  0.29999980527E+02 0.  0.
         12    1    1    2    0    0 -0.23322060721E+02 -0.26377337482E+02 -0.20334299834E+02  0.40659146556E+02  0.00000000000E+00 0. -1.
         11    1    3    3    0    0  0.35464031405E+01  0.18586236730E+02  0.15749374887E+01  0.18986984999E+02  0.51100000000E-03 0. -1.
        -11    1    3    3    0    0  0.10197900827E+02  0.10990893065E+02  0.89375457407E+01  0.17454988850E+02  0.51100000000E-03 0.  1.
        -12    1    3    3    0    0  0.95777567537E+01 -0.31997923120E+01  0.98218166049E+01  0.14086879594E+02  0.00000000000E+00 0.  1.
</event>
<event>
 7    1  0.1381607E-011  0.5052883E+02  0.7816164E-02  0.1300439E+00
        -11   -1    0    0    0    0  0.00000000000E+00  0.00000000000E+00  0.45593999997E+02  0.45594000000E+02  0.51100000000E-03 0.  1.
         11   -1    0    0    0    0 -0.00000000000E+00 -0.00000000000E+00 -0.45593999997E+02  0.45594000000E+02  0.51100000000E-03 0. -1.
    9900012    2    1    2    0    0 -0.10609273046E+02 -0.17892176053E+02  0.34935387257E+02  0.50528832260E+02  0.29999916137E+02 0.  0.
         12    1    1    2    0    0  0.10609273046E+02  0.17892176053E+02 -0.34935387257E+02  0.40659167740E+02  0.00000000000E+00 0. -1.
         11    1    3    3    0    0 -0.27678713078E+01 -0.74276280324E+01 -0.27739910833E+01  0.83979638339E+01  0.51100000000E-03 0. -1.
        -11    1    3    3    0    0  0.22394440878E+00  0.11549030874E+01  0.17066988331E+02  0.17107485005E+02  0.51100000000E-03 0.  1.
        -12    1    3    3    0    0 -0.80653461468E+01 -0.11619451108E+02  0.20642390010E+02  0.25023383421E+02  0.00000000000E+00 0.  1.
</event>
<event>
 7    1  0.1381607E-011  0.5052887E+02  0.7816164E-02  0.1300439E+00
        -11   -1    0    0    0    0  0.00000000000E+00  0.00000000000E+00  0.45593999997E+02  0.45594000000E+02  0.51100000000E-03 0.  1.
         11   -1    0    0    0    0 -0.00000000000E+00 -0.00000000000E+00 -0.45593999997E+02  0.45594000000E+02  0.51100000000E-03 0. -1.
    9900012    2    1    2    0    0  0.13097622482E+02 -0.90507764391E+00  0.38481135183E+02  0.50528872547E+02  0.30000038595E+02 0.  0.
         12    1    1    2    0    0 -0.13097622482E+02  0.90507764391E+00 -0.38481135183E+02  0.40659127453E+02  0.00000000000E+00 0. -1.
         11    1    3    3    0    0 -0.64278858325E+01 -0.32708216500E+01  0.89295353304E+01  0.11478353193E+02  0.51100000000E-03 0. -1.
        -11    1    3    3    0    0  0.17243779993E+01  0.27178950893E+01  0.16912048987E+02  0.17215627621E+02  0.51100000000E-03 0.  1.
         12    1    3    3    0    0  0.17801130316E+02 -0.35215108317E+00  0.12639550866E+02  0.21834891733E+02  0.00000000000E+00 0. -1.
</event>
<event>
 7    1  0.1381607E-011  0.5052887E+02  0.7816164E-02  0.1300439E+00
        -11   -1    0    0    0    0  0.00000000000E+00  0.00000000000E+00  0.45593999997E+02  0.45594000000E+02  0.51100000000E-03 0.  1.
         11   -1    0    0    0    0 -0.00000000000E+00 -0.00000000000E+00 -0.45593999997E+02  0.45594000000E+02  0.51100000000E-03 0. -1.
    9900012    2    1    2    0    0 -0.85789136096E+01  0.12599774483E+01  0.39723791109E+02  0.50528869636E+02  0.30000029745E+02 0.  0.
         12    1    1    2    0    0  0.85789136096E+01 -0.12599774483E+01 -0.39723791109E+02  0.40659130364E+02  0.00000000000E+00 0. -1.
         11    1    3    3    0    0 -0.11250384313E+01  0.12651552752E+02  0.15117740149E+02  0.19745216281E+02  0.51100000000E-03 0. -1.
        -11    1    3    3    0    0 -0.16977362046E+01 -0.31350200268E+00 -0.12094533059E+01  0.21079300952E+01  0.51100000000E-03 0.  1.
        -12    1    3    3    0    0 -0.57561389738E+01 -0.11078073301E+02  0.25815504266E+02  0.28675723259E+02  0.00000000000E+00 0.  1.
</event>
<event>
 7    1  0.1381607E-011  0.5052887E+02  0.7816164E-02  0.1300439E+00
        -11   -1    0    0    0    0  0.00000000000E+00  0.00000000000E+00  0.45593999997E+02  0.45594000000E+02  0.51100000000E-03 0.  1.
         11   -1    0    0    0    0 -0.00000000000E+00 -0.00000000000E+00 -0.45593999997E+02  0.45594000000E+02  0.51100000000E-03 0. -1.
    9900012    2    1    2    0    0  0.21495484945E+02 -0.14243690560E+02  0.31436071151E+02  0.50528866177E+02  0.30000019232E+02 0.  0.
         12    1    1    2    0    0 -0.21495484945E+02  0.14243690560E+02 -0.31436071151E+02  0.40659133823E+02  0.00000000000E+00 0. -1.
         11    1    3    3    0    0  0.76310260163E+01 -0.82248098058E+01  0.29901268380E+01  0.11611240811E+02  0.51100000000E-03 0. -1.
        -11    1    3    3    0    0 -0.54876246135E+01 -0.16778064192E+01  0.24990326299E+01  0.62589314284E+01  0.51100000000E-03 0.  1.
         12    1    3    3    0    0  0.19352083542E+02 -0.43410743346E+01  0.25946911684E+02  0.32658693938E+02  0.00000000000E+00 0. -1.
</event>
<event>
 7    1  0.1381607E-011  0.5052885E+02  0.7816164E-02  0.1300439E+00
        -11   -1    0    0    0    0  0.00000000000E+00  0.00000000000E+00  0.45593999997E+02  0.45594000000E+02  0.51100000000E-03 0.  1.
         11   -1    0    0    0    0 -0.00000000000E+00 -0.00000000000E+00 -0.45593999997E+02  0.45594000000E+02  0.51100000000E-03 0. -1.
    9900012    2    1    2    0    0 -0.40526488323E+01 -0.50208299347E+01  0.40143911856E+02  0.50528851523E+02  0.29999974690E+02 0.  0.
         12    1    1    2    0    0  0.40526488323E+01  0.50208299347E+01 -0.40143911856E+02  0.40659148477E+02  0.00000000000E+00 0. -1.
         11    1    3    3    0    0  0.51700327773E+00  0.95437736636E+01  0.14520691823E+02  0.17383940848E+02  0.51100000000E-03 0. -1.
        -11    1    3    3    0    0 -0.46371067702E+01 -0.11689873720E+01  0.15869508133E+02  0.16574395292E+02  0.51100000000E-03 0.  1.
         12    1    3    3    0    0  0.67454660145E-01 -0.13395616226E+02  0.97537118996E+01  0.16570515382E+02  0.00000000000E+00 0. -1.
</event>
<event>
 7    1  0.1381607E-011  0.5052884E+02  0.7816164E-02  0.1300439E+00
        -11   -1    0    0    0    0  0.00000000000E+00  0.00000000000E+00  0.45593999997E+02  0.45594000000E+02  0.51100000000E-03 0. -1.
         11   -1    0    0    0    0 -0.00000000000E+00 -0.00000000000E+00 -0.45593999997E+02  0.45594000000E+02  0.51100000000E-03 0.  1.
    9900012    2    1    2    0    0 -0.32797848312E+02  0.95431861005E+01  0.22054391209E+02  0.50528838346E+02  0.29999934636E+02 0.  0.
         12    1    1    2    0    0  0.32797848312E+02 -0.95431861005E+01 -0.22054391209E+02  0.40659161654E+02  0.00000000000E+00 0. -1.
         11    1    3    3    0    0 -0.59651702595E+01 -0.17815161444E+00  0.81800673943E+00  0.60236309241E+01  0.51100000000E-03 0.  1.
        -11    1    3    3    0    0 -0.44421023839E+01  0.15364992350E+02  0.78851772108E+01  0.17832310098E+02  0.51100000000E-03 0. -1.
         12    1    3    3    0    0 -0.22390575668E+02 -0.56436546355E+01  0.13351207258E+02  0.26672897324E+02  0.00000000000E+00 0. -1.
</event>
<event>
 7    1  0.1381607E-011  0.5052888E+02  0.7816164E-02  0.1300439E+00
        -11   -1    0    0    0    0  0.00000000000E+00  0.00000000000E+00  0.45593999997E+02  0.45594000000E+02  0.51100000000E-03 0.  1.
         11   -1    0    0    0    0 -0.00000000000E+00 -0.00000000000E+00 -0.45593999997E+02  0.45594000000E+02  0.51100000000E-03 0. -1.
    9900012    2    1    2    0    0  0.18752230285E+02  0.34819313532E+02  0.94410638256E+01  0.50528875297E+02  0.30000046952E+02 0.  0.
         12    1    1    2    0    0 -0.18752230285E+02 -0.34819313532E+02 -0.94410638256E+01  0.40659124703E+02  0.00000000000E+00 0. -1.
         11    1    3    3    0    0  0.10699882619E+02  0.20408940534E+01  0.84873284307E+01  0.13808963783E+02  0.51100000000E-03 0.  1.
        -11    1    3    3    0    0 -0.26631150368E+01  0.30702198192E+01 -0.27715553615E+01  0.49193445519E+01  0.51100000000E-03 0. -1.
        -12    1    3    3    0    0  0.10715462703E+02  0.29708199659E+02  0.37252907564E+01  0.31800566962E+02  0.00000000000E+00 0.  1.
</event>
<event>
 7    1  0.1381607E-011  0.5052886E+02  0.7816164E-02  0.1300439E+00
        -11   -1    0    0    0    0  0.00000000000E+00  0.00000000000E+00  0.45593999997E+02  0.45594000000E+02  0.51100000000E-03 0.  1.
         11   -1    0    0    0    0 -0.00000000000E+00 -0.00000000000E+00 -0.45593999997E+02  0.45594000000E+02  0.51100000000E-03 0. -1.
    9900012    2    1    2    0    0  0.17844957641E+02 -0.33476288960E+02 -0.14630839757E+02  0.50528857021E+02  0.29999991402E+02 0.  0.
         12    1    1    2    0    0 -0.17844957641E+02  0.33476288960E+02  0.14630839757E+02  0.40659142979E+02  0.00000000000E+00 0. -1.
         11    1    3    3    0    0  0.11800731584E+02 -0.87896604622E+01 -0.27260857947E-01  0.14714487432E+02  0.51100000000E-03 0. -1.
        -11    1    3    3    0    0  0.11128126035E+02 -0.68221020873E+01 -0.10598059000E+02  0.16813539805E+02  0.51100000000E-03 0.  1.
        -12    1    3    3    0    0 -0.50838999781E+01 -0.17864526411E+02 -0.40055198997E+01  0.19000829785E+02  0.00000000000E+00 0.  1.
</event>
<event>
 7    1  0.1381607E-011  0.5052886E+02  0.7816164E-02  0.1300439E+00
        -11   -1    0    0    0    0  0.00000000000E+00  0.00000000000E+00  0.45593999997E+02  0.45594000000E+02  0.51100000000E-03 0.  1.
         11   -1    0    0    0    0 -0.00000000000E+00 -0.00000000000E+00 -0.45593999997E+02  0.45594000000E+02  0.51100000000E-03 0. -1.
    9900012    2    1    2    0    0 -0.13476430059E+02 -0.31989515270E+02  0.21171268224E+02  0.50528857700E+02  0.29999993465E+02 0.  0.
         12    1    1    2    0    0  0.13476430059E+02  0.31989515270E+02 -0.21171268224E+02  0.40659142300E+02  0.00000000000E+00 0. -1.
         11    1    3    3    0    0  0.27703107294E+01 -0.75993938849E+00 -0.83251385222E+00  0.29908542236E+01  0.51100000000E-03 0. -1.
        -11    1    3    3    0    0 -0.20017844559E+02 -0.27823624640E+02  0.11997544013E+02  0.36315413415E+02  0.51100000000E-03 0.  1.
         12    1    3    3    0    0  0.37711037703E+01 -0.34059512413E+01  0.10006238063E+02  0.11222590061E+02  0.00000000000E+00 0. -1.
</event>
<event>
 7    1  0.1381607E-011  0.5052886E+02  0.7816164E-02  0.1300439E+00
        -11   -1    0    0    0    0  0.00000000000E+00  0.00000000000E+00  0.45593999997E+02  0.45594000000E+02  0.51100000000E-03 0.  1.
         11   -1    0    0    0    0 -0.00000000000E+00 -0.00000000000E+00 -0.45593999997E+02  0.45594000000E+02  0.51100000000E-03 0. -1.
    9900012    2    1    2    0    0 -0.19656677272E+02  0.13000937235E+02  0.33132408418E+02  0.50528858126E+02  0.29999994760E+02 0.  0.
         12    1    1    2    0    0  0.19656677272E+02 -0.13000937235E+02 -0.33132408418E+02  0.40659141874E+02  0.00000000000E+00 0. -1.
         11    1    3    3    0    0  0.10977917140E+01 -0.18804926970E+01  0.22052221806E+01  0.30990973779E+01  0.51100000000E-03 0. -1.
        -11    1    3    3    0    0 -0.95804398779E+01  0.10636017123E+02  0.44790890399E-01  0.14314736986E+02  0.51100000000E-03 0.  1.
        -12    1    3    3    0    0 -0.11174029108E+02  0.42454128091E+01  0.30882395347E+02  0.33115023762E+02  0.00000000000E+00 0.  1.
</event>
<event>
 7    1  0.1381607E-011  0.5052886E+02  0.7816164E-02  0.1300439E+00
        -11   -1    0    0    0    0  0.00000000000E+00  0.00000000000E+00  0.45593999997E+02  0.45594000000E+02  0.51100000000E-03 0.  1.
         11   -1    0    0    0    0 -0.00000000000E+00 -0.00000000000E+00 -0.45593999997E+02  0.45594000000E+02  0.51100000000E-03 0. -1.
    9900012    2    1    2    0    0 -0.23842141795E+02 -0.93904217685E+01  0.31567988870E+02  0.50528859974E+02  0.30000000376E+02 0.  0.
         12    1    1    2    0    0  0.23842141795E+02  0.93904217685E+01 -0.31567988870E+02  0.40659140026E+02  0.00000000000E+00 0. -1.
         11    1    3    3    0    0 -0.48902961269E+01  0.45645523246E+00  0.11131988815E+02  0.12167354799E+02  0.51100000000E-03 0. -1.
        -11    1    3    3    0    0 -0.24875101477E+02 -0.71931386622E+01  0.17390143909E+02  0.31191810187E+02  0.51100000000E-03 0.  1.
        -12    1    3    3    0    0  0.59232558085E+01 -0.26537383388E+01  0.30458561461E+01  0.71696949870E+01  0.00000000000E+00 0.  1.
</event>
<event>
 7    1  0.1381607E-011  0.5052886E+02  0.7816164E-02  0.1300439E+00
        -11   -1    0    0    0    0  0.00000000000E+00  0.00000000000E+00  0.45593999997E+02  0.45594000000E+02  0.51100000000E-03 0.  1.
         11   -1    0    0    0    0 -0.00000000000E+00 -0.00000000000E+00 -0.45593999997E+02  0.45594000000E+02  0.51100000000E-03 0. -1.
    9900012    2    1    2    0    0  0.32819164466E+00  0.14141258376E+02  0.38119322651E+02  0.50528860098E+02  0.30000000754E+02 0.  0.
         12    1    1    2    0    0 -0.32819164466E+00 -0.14141258376E+02 -0.38119322651E+02  0.40659139902E+02  0.00000000000E+00 0. -1.
         11    1    3    3    0    0  0.21277088082E+01  0.24212880539E+01 -0.35314133645E+01  0.47812823829E+01  0.51100000000E-03 0. -1.
        -11    1    3    3    0    0  0.53630263192E+01  0.13932349118E+01  0.72633294997E+01  0.91355957935E+01  0.51100000000E-03 0.  1.
         12    1    3    3    0    0 -0.71625434827E+01  0.10326735410E+02  0.34387406516E+02  0.36611981922E+02  0.00000000000E+00 0. -1.
</event>
<event>
 7    1  0.1381607E-011  0.5052887E+02  0.7816164E-02  0.1300439E+00
        -11   -1    0    0    0    0  0.00000000000E+00  0.00000000000E+00  0.45593999997E+02  0.45594000000E+02  0.51100000000E-03 0.  1.
         11   -1    0    0    0    0 -0.00000000000E+00 -0.00000000000E+00 -0.45593999997E+02  0.45594000000E+02  0.51100000000E-03 0. -1.
    9900012    2    1    2    0    0  0.12228732552E+02 -0.37736706807E+02  0.89198817593E+01  0.50528865343E+02  0.30000016697E+02 0.  0.
         12    1    1    2    0    0 -0.12228732552E+02  0.37736706807E+02 -0.89198817593E+01  0.40659134657E+02  0.00000000000E+00 0. -1.
         11    1    3    3    0    0  0.45991337146E-01  0.18985251431E+01 -0.13089445037E+01  0.23064797629E+01  0.51100000000E-03 0. -1.
        -11    1    3    3    0    0  0.46345251515E+01 -0.28822615527E+02 -0.32411632562E+01  0.29372216953E+02  0.51100000000E-03 0.  1.
         12    1    3    3    0    0  0.75482160629E+01 -0.10812616423E+02  0.13469989519E+02  0.18850168627E+02  0.00000000000E+00 0. -1.
</event>
<event>
 7    1  0.1381607E-011  0.5052886E+02  0.7816164E-02  0.1300439E+00
        -11   -1    0    0    0    0  0.00000000000E+00  0.00000000000E+00  0.45593999997E+02  0.45594000000E+02  0.51100000000E-03 0.  1.
         11   -1    0    0    0    0 -0.00000000000E+00 -0.00000000000E+00 -0.45593999997E+02  0.45594000000E+02  0.51100000000E-03 0. -1.
    9900012    2    1    2    0    0 -0.14714692136E+01  0.40448690785E+02  0.38605688431E+01  0.50528858350E+02  0.29999995442E+02 0.  0.
         12    1    1    2    0    0  0.14714692136E+01 -0.40448690785E+02 -0.38605688431E+01  0.40659141650E+02  0.00000000000E+00 0. -1.
         11    1    3    3    0    0 -0.45987546021E+01  0.26618636753E+02  0.68049359074E+01  0.27856911520E+02  0.51100000000E-03 0.  1.
        -11    1    3    3    0    0  0.22345340671E+01 -0.35188755942E+01  0.19811901749E+01  0.46152727671E+01  0.51100000000E-03 0. -1.
         12    1    3    3    0    0  0.89275132143E+00  0.17348929627E+02 -0.49255572392E+01  0.18056674063E+02  0.00000000000E+00 0. -1.
</event>
<event>
 7    1  0.1381607E-011  0.5052886E+02  0.7816164E-02  0.1300439E+00
        -11   -1    0    0    0    0  0.00000000000E+00  0.00000000000E+00  0.45593999997E+02  0.45594000000E+02  0.51100000000E-03 0. -1.
         11   -1    0    0    0    0 -0.00000000000E+00 -0.00000000000E+00 -0.45593999997E+02  0.45594000000E+02  0.51100000000E-03 0.  1.
    9900012    2    1    2    0    0  0.10553982226E+02  0.29300550105E+01 -0.39156021235E+02  0.50528858812E+02  0.29999996845E+02 0.  0.
         12    1    1    2    0    0 -0.10553982226E+02 -0.29300550105E+01  0.39156021235E+02  0.40659141188E+02  0.00000000000E+00 0. -1.
         11    1    3    3    0    0  0.90142175005E+01  0.60868511887E+01 -0.18025317300E+02  0.21052741830E+02  0.51100000000E-03 0. -1.
        -11    1    3    3    0    0 -0.69629978235E+00  0.25414542266E+01 -0.22941718464E+02  0.23092558743E+02  0.51100000000E-03 0.  1.
         12    1    3    3    0    0  0.22360645081E+01 -0.56982504049E+01  0.18110145289E+01  0.63835582386E+01  0.00000000000E+00 0. -1.
</event>
<event>
 7    1  0.1381607E-011  0.5052886E+02  0.7816164E-02  0.1300439E+00
        -11   -1    0    0    0    0  0.00000000000E+00  0.00000000000E+00  0.45593999997E+02  0.45594000000E+02  0.51100000000E-03 0.  1.
         11   -1    0    0    0    0 -0.00000000000E+00 -0.00000000000E+00 -0.45593999997E+02  0.45594000000E+02  0.51100000000E-03 0. -1.
    9900012    2    1    2    0    0  0.10072404644E+02 -0.27199899584E+01  0.39297762451E+02  0.50528858170E+02  0.29999994893E+02 0.  0.
         12    1    1    2    0    0 -0.10072404644E+02  0.27199899584E+01 -0.39297762451E+02  0.40659141830E+02  0.00000000000E+00 0. -1.
         11    1    3    3    0    0 -0.47586918585E+01 -0.45290834065E-01  0.92403624005E+00  0.48477874023E+01  0.51100000000E-03 0. -1.
        -11    1    3    3    0    0 -0.18220959463E+01  0.18147083808E+00 -0.15052195919E+01  0.23703695036E+01  0.51100000000E-03 0.  1.
        -12    1    3    3    0    0  0.16653192448E+02 -0.28561699624E+01  0.39878945803E+02  0.43310701264E+02  0.00000000000E+00 0.  1.
</event>
<event>
 7    1  0.1381607E-011  0.5052886E+02  0.7816164E-02  0.1300439E+00
        -11   -1    0    0    0    0  0.00000000000E+00  0.00000000000E+00  0.45593999997E+02  0.45594000000E+02  0.51100000000E-03 0.  1.
         11   -1    0    0    0    0 -0.00000000000E+00 -0.00000000000E+00 -0.45593999997E+02  0.45594000000E+02  0.51100000000E-03 0. -1.
    9900012    2    1    2    0    0  0.30180340526E+02 -0.21110306178E+02  0.17224038222E+02  0.50528862357E+02  0.30000007620E+02 0.  0.
         12    1    1    2    0    0 -0.30180340526E+02  0.21110306178E+02 -0.17224038222E+02  0.40659137643E+02  0.00000000000E+00 0. -1.
         11    1    3    3    0    0  0.86223767261E+01  0.74187579753E+00 -0.28569681380E+01  0.91136176850E+01  0.51100000000E-03 0. -1.
        -11    1    3    3    0    0  0.12339235671E+01 -0.12289700389E+02  0.18559233774E+01  0.12490146311E+02  0.51100000000E-03 0.  1.
        -12    1    3    3    0    0  0.20324040233E+02 -0.95624815870E+01  0.18225082983E+02  0.28925098361E+02  0.00000000000E+00 0.  1.
</event>
<event>
 7    1  0.1381607E-011  0.5052886E+02  0.7816164E-02  0.1300439E+00
        -11   -1    0    0    0    0  0.00000000000E+00  0.00000000000E+00  0.45593999997E+02  0.45594000000E+02  0.51100000000E-03 0.  1.
         11   -1    0    0    0    0 -0.00000000000E+00 -0.00000000000E+00 -0.45593999997E+02  0.45594000000E+02  0.51100000000E-03 0. -1.
    9900012    2    1    2    0    0  0.38349621816E+02  0.35351416423E+01  0.13037452197E+02  0.50528857367E+02  0.29999992453E+02 0.  0.
         12    1    1    2    0    0 -0.38349621816E+02 -0.35351416423E+01 -0.13037452197E+02  0.40659142633E+02  0.00000000000E+00 0. -1.
         11    1    3    3    0    0  0.12833892143E+02 -0.29490652658E+01  0.11540489228E+02  0.17509673480E+02  0.51100000000E-03 0. -1.
        -11    1    3    3    0    0  0.17462359436E+02 -0.54130492689E+01 -0.14989928551E+01  0.18343447857E+02  0.51100000000E-03 0.  1.
         12    1    3    3    0    0  0.80533702369E+01  0.11897256177E+02  0.29959558239E+01  0.14675736030E+02  0.00000000000E+00 0. -1.
</event>
<event>
 7    1  0.1381607E-011  0.5052886E+02  0.7816164E-02  0.1300439E+00
        -11   -1    0    0    0    0  0.00000000000E+00  0.00000000000E+00  0.45593999997E+02  0.45594000000E+02  0.51100000000E-03 0.  1.
         11   -1    0    0    0    0 -0.00000000000E+00 -0.00000000000E+00 -0.45593999997E+02  0.45594000000E+02  0.51100000000E-03 0. -1.
    9900012    2    1    2    0    0 -0.38744477555E+02 -0.12115635539E+02  0.22895758740E+01  0.50528864210E+02  0.30000013252E+02 0.  0.
         12    1    1    2    0    0  0.38744477555E+02  0.12115635539E+02 -0.22895758740E+01  0.40659135790E+02  0.00000000000E+00 0. -1.
         11    1    3    3    0    0 -0.19870405419E+02  0.83365786831E+00  0.48723334458E+01  0.20476025748E+02  0.51100000000E-03 0.  1.
        -11    1    3    3    0    0 -0.83375382345E+01 -0.92409508304E+01  0.78938535943E+01  0.14738474850E+02  0.51100000000E-03 0. -1.
         12    1    3    3    0    0 -0.10536533902E+02 -0.37083425766E+01 -0.10476611166E+02  0.15314363613E+02  0.00000000000E+00 0. -1.
</event>
<event>
 7    1  0.1381607E-011  0.5052886E+02  0.7816164E-02  0.1300439E+00
        -11   -1    0    0    0    0  0.00000000000E+00  0.00000000000E+00  0.45593999997E+02  0.45594000000E+02  0.51100000000E-03 0.  1.
         11   -1    0    0    0    0 -0.00000000000E+00 -0.00000000000E+00 -0.45593999997E+02  0.45594000000E+02  0.51100000000E-03 0. -1.
    9900012    2    1    2    0    0 -0.37774710858E+02 -0.73212937713E+01  0.13139080622E+02  0.50528861268E+02  0.30000004309E+02 0.  0.
         12    1    1    2    0    0  0.37774710858E+02  0.73212937713E+01 -0.13139080622E+02  0.40659138732E+02  0.00000000000E+00 0. -1.
         11    1    3    3    0    0 -0.48322487113E+01 -0.73281718554E+01  0.75353446923E+01  0.11568671066E+02  0.51100000000E-03 0. -1.
        -11    1    3    3    0    0 -0.86745414987E+01  0.22321221293E+01  0.10811843556E+02  0.14040156721E+02  0.51100000000E-03 0.  1.
         12    1    3    3    0    0 -0.24267920648E+02 -0.22252440452E+01 -0.52081076258E+01  0.24920033480E+02  0.00000000000E+00 0. -1.
</event>
<event>
 7    1  0.1381607E-011  0.5052884E+02  0.7816164E-02  0.1300439E+00
        -11   -1    0    0    0    0  0.00000000000E+00  0.00000000000E+00  0.45593999997E+02  0.45594000000E+02  0.51100000000E-03 0.  1.
         11   -1    0    0    0    0 -0.00000000000E+00 -0.00000000000E+00 -0.45593999997E+02  0.45594000000E+02  0.51100000000E-03 0. -1.
    9900012    2    1    2    0    0  0.31269956888E+02  0.19200048955E+02 -0.17513285625E+02  0.50528840429E+02  0.29999940968E+02 0.  0.
         12    1    1    2    0    0 -0.31269956888E+02 -0.19200048955E+02  0.17513285625E+02  0.40659159571E+02  0.00000000000E+00 0. -1.
         11    1    3    3    0    0  0.23694103035E+00  0.48968398179E+01 -0.56888735944E+01  0.75098910969E+01  0.51100000000E-03 0. -1.
        -11    1    3    3    0    0  0.25124171560E+02  0.17406939914E+02 -0.16628323334E+02  0.34795498141E+02  0.51100000000E-03 0.  1.
        -12    1    3    3    0    0  0.59088442977E+01 -0.31037307770E+01  0.48039113035E+01  0.82234511905E+01  0.00000000000E+00 0.  1.
</event>
<event>
 7    1  0.1381607E-011  0.5052886E+02  0.7816164E-02  0.1300439E+00
        -11   -1    0    0    0    0  0.00000000000E+00  0.00000000000E+00  0.45593999997E+02  0.45594000000E+02  0.51100000000E-03 0.  1.
         11   -1    0    0    0    0 -0.00000000000E+00 -0.00000000000E+00 -0.45593999997E+02  0.45594000000E+02  0.51100000000E-03 0. -1.
    9900012    2    1    2    0    0 -0.33504154424E+02  0.20853180307E+02  0.97868552398E+01  0.50528855542E+02  0.29999986905E+02 0.  0.
         12    1    1    2    0    0  0.33504154424E+02 -0.20853180307E+02 -0.97868552398E+01  0.40659144458E+02  0.00000000000E+00 0. -1.
         11    1    3    3    0    0 -0.39810695864E+01  0.11824578897E+02 -0.58281971556E+01  0.13770891892E+02  0.51100000000E-03 0. -1.
        -11    1    3    3    0    0 -0.20419037724E+02  0.94850782803E+01  0.55696138379E+01  0.23193197497E+02  0.51100000000E-03 0.  1.
        -12    1    3    3    0    0 -0.91040471136E+01 -0.45647687040E+00  0.10045438558E+02  0.13564766153E+02  0.00000000000E+00 0.  1.
</event>
<event>
 7    1  0.1381607E-011  0.5052885E+02  0.7816164E-02  0.1300439E+00
        -11   -1    0    0    0    0  0.00000000000E+00  0.00000000000E+00  0.45593999997E+02  0.45594000000E+02  0.51100000000E-03 0.  1.
         11   -1    0    0    0    0 -0.00000000000E+00 -0.00000000000E+00 -0.45593999997E+02  0.45594000000E+02  0.51100000000E-03 0. -1.
    9900012    2    1    2    0    0 -0.39664913835E+02  0.83411998862E+01  0.32070582043E+01  0.50528853090E+02  0.29999979453E+02 0.  0.
         12    1    1    2    0    0  0.39664913835E+02 -0.83411998862E+01 -0.32070582043E+01  0.40659146910E+02  0.00000000000E+00 0. -1.
         11    1    3    3    0    0 -0.31327096687E+01 -0.38099381618E+01 -0.45991139835E+01  0.67439860884E+01  0.51100000000E-03 0. -1.
        -11    1    3    3    0    0 -0.24272097123E+02 -0.21751263293E+00 -0.95110362081E+00  0.24291698353E+02  0.51100000000E-03 0.  1.
         12    1    3    3    0    0 -0.12260107043E+02  0.12368650681E+02  0.87572758087E+01  0.19493168649E+02  0.00000000000E+00 0. -1.
</event>
<event>
 7    1  0.1381607E-011  0.5052887E+02  0.7816164E-02  0.1300439E+00
        -11   -1    0    0    0    0  0.00000000000E+00  0.00000000000E+00  0.45593999997E+02  0.45594000000E+02  0.51100000000E-03 0. -1.
         11   -1    0    0    0    0 -0.00000000000E+00 -0.00000000000E+00 -0.45593999997E+02  0.45594000000E+02  0.51100000000E-03 0.  1.
    9900012    2    1    2    0    0  0.22556328674E+02 -0.54864795510E+01 -0.33380769626E+02  0.50528865701E+02  0.30000017785E+02 0.  0.
         12    1    1    2    0    0 -0.22556328674E+02  0.54864795510E+01  0.33380769626E+02  0.40659134299E+02  0.00000000000E+00 0. -1.
         11    1    3    3    0    0  0.54743093956E+01  0.80834970188E+01 -0.42656614711E+01  0.10653959614E+02  0.51100000000E-03 0. -1.
        -11    1    3    3    0    0  0.64761603054E+01 -0.28332321665E+01  0.13540546382E-01  0.70688075669E+01  0.51100000000E-03 0.  1.
        -12    1    3    3    0    0  0.10605858973E+02 -0.10736744403E+02 -0.29128648701E+02  0.32806098520E+02  0.00000000000E+00 0.  1.
</event>
<event>
 7    1  0.1381607E-011  0.5052887E+02  0.7816164E-02  0.1300439E+00
        -11   -1    0    0    0    0  0.00000000000E+00  0.00000000000E+00  0.45593999997E+02  0.45594000000E+02  0.51100000000E-03 0.  1.
         11   -1    0    0    0    0 -0.00000000000E+00 -0.00000000000E+00 -0.45593999997E+02  0.45594000000E+02  0.51100000000E-03 0. -1.
    9900012    2    1    2    0    0 -0.33280441548E+02 -0.23357264341E+02  0.12371407334E+00  0.50528869509E+02  0.30000029360E+02 0.  0.
         12    1    1    2    0    0  0.33280441548E+02  0.23357264341E+02 -0.12371407334E+00  0.40659130491E+02  0.00000000000E+00 0. -1.
         11    1    3    3    0    0  0.12451501666E+01  0.20171525381E+01  0.37132882140E+00  0.23994142315E+01  0.51100000000E-03 0. -1.
        -11    1    3    3    0    0 -0.14885851485E+02 -0.36649812789E+01  0.85600386740E+01  0.17558329208E+02  0.51100000000E-03 0.  1.
         12    1    3    3    0    0 -0.19639740229E+02 -0.21709435600E+02 -0.88076534221E+01  0.30571126069E+02  0.00000000000E+00 0. -1.
</event>
<event>
 7    1  0.1381607E-011  0.5052882E+02  0.7816164E-02  0.1300439E+00
        -11   -1    0    0    0    0  0.00000000000E+00  0.00000000000E+00  0.45593999997E+02  0.45594000000E+02  0.51100000000E-03 0.  1.
         11   -1    0    0    0    0 -0.00000000000E+00 -0.00000000000E+00 -0.45593999997E+02  0.45594000000E+02  0.51100000000E-03 0. -1.
    9900012    2    1    2    0    0  0.25270480061E+02  0.77873143376E+01  0.30885745808E+02  0.50528822423E+02  0.29999886236E+02 0.  0.
         12    1    1    2    0    0 -0.25270480061E+02 -0.77873143376E+01 -0.30885745808E+02  0.40659177577E+02  0.00000000000E+00 0. -1.
         11    1    3    3    0    0  0.13610663304E+02  0.77429075545E+00  0.30039912563E+02  0.32988574216E+02  0.51100000000E-03 0. -1.
        -11    1    3    3    0    0  0.24344581735E+01 -0.15837425252E+01  0.36076041061E+01  0.46313750260E+01  0.51100000000E-03 0.  1.
         12    1    3    3    0    0  0.92253585842E+01  0.85967661074E+01 -0.27617708608E+01  0.12908873181E+02  0.00000000000E+00 0. -1.
</event>
<event>
 7    1  0.1381607E-011  0.5052886E+02  0.7816164E-02  0.1300439E+00
        -11   -1    0    0    0    0  0.00000000000E+00  0.00000000000E+00  0.45593999997E+02  0.45594000000E+02  0.51100000000E-03 0.  1.
         11   -1    0    0    0    0 -0.00000000000E+00 -0.00000000000E+00 -0.45593999997E+02  0.45594000000E+02  0.51100000000E-03 0. -1.
    9900012    2    1    2    0    0 -0.25510323515E+02 -0.30553840359E+02  0.82977018569E+01  0.50528860527E+02  0.30000002059E+02 0.  0.
         12    1    1    2    0    0  0.25510323515E+02  0.30553840359E+02 -0.82977018569E+01  0.40659139473E+02  0.00000000000E+00 0. -1.
         11    1    3    3    0    0 -0.31952347517E+01 -0.25170438872E+01 -0.33979680138E+01  0.53001152754E+01  0.51100000000E-03 0. -1.
        -11    1    3    3    0    0  0.39570996429E+01 -0.11476235520E+02  0.64044378828E+01  0.13725139130E+02  0.51100000000E-03 0.  1.
        -12    1    3    3    0    0 -0.26272188407E+02 -0.16560560952E+02  0.52912319879E+01  0.31503606122E+02  0.00000000000E+00 0.  1.
</event>
<event>
 7    1  0.1381607E-011  0.5052885E+02  0.7816164E-02  0.1300439E+00
        -11   -1    0    0    0    0  0.00000000000E+00  0.00000000000E+00  0.45593999997E+02  0.45594000000E+02  0.51100000000E-03 0. -1.
         11   -1    0    0    0    0 -0.00000000000E+00 -0.00000000000E+00 -0.45593999997E+02  0.45594000000E+02  0.51100000000E-03 0.  1.
    9900012    2    1    2    0    0  0.24402510255E+02  0.26689742952E+02  0.18583374843E+02  0.50528847203E+02  0.29999961558E+02 0.  0.
         12    1    1    2    0    0 -0.24402510255E+02 -0.26689742952E+02 -0.18583374843E+02  0.40659152797E+02  0.00000000000E+00 0. -1.
         11    1    3    3    0    0  0.12531672241E+02  0.43541453204E+01  0.13709061655E+01  0.13337195155E+02  0.51100000000E-03 0. -1.
        -11    1    3    3    0    0  0.11685220919E+01  0.65376690650E+01 -0.46993945759E+01  0.81357771801E+01  0.51100000000E-03 0.  1.
         12    1    3    3    0    0  0.10702315923E+02  0.15797928567E+02  0.21911863253E+02  0.29055874868E+02  0.00000000000E+00 0. -1.
</event>
<event>
 7    1  0.1381607E-011  0.5052886E+02  0.7816164E-02  0.1300439E+00
        -11   -1    0    0    0    0  0.00000000000E+00  0.00000000000E+00  0.45593999997E+02  0.45594000000E+02  0.51100000000E-03 0.  1.
         11   -1    0    0    0    0 -0.00000000000E+00 -0.00000000000E+00 -0.45593999997E+02  0.45594000000E+02  0.51100000000E-03 0. -1.
    9900012    2    1    2    0    0  0.12404841804E+02  0.38706518692E+02 -0.10446437063E+01  0.50528856257E+02  0.29999989079E+02 0.  0.
         12    1    1    2    0    0 -0.12404841804E+02 -0.38706518692E+02  0.10446437063E+01  0.40659143743E+02  0.00000000000E+00 0. -1.
         11    1    3    3    0    0  0.80720568136E+01 -0.30812296519E+00  0.21606042425E+01  0.83618928430E+01  0.51100000000E-03 0.  1.
        -11    1    3    3    0    0 -0.47237828479E+01  0.59770273363E+01  0.87474816872E+00  0.76683873658E+01  0.51100000000E-03 0. -1.
        -12    1    3    3    0    0  0.90565678378E+01  0.33037614321E+02 -0.40799961176E+01  0.34498576048E+02  0.00000000000E+00 0.  1.
</event>
<event>
 7    1  0.1381607E-011  0.5052885E+02  0.7816164E-02  0.1300439E+00
        -11   -1    0    0    0    0  0.00000000000E+00  0.00000000000E+00  0.45593999997E+02  0.45594000000E+02  0.51100000000E-03 0.  1.
         11   -1    0    0    0    0 -0.00000000000E+00 -0.00000000000E+00 -0.45593999997E+02  0.45594000000E+02  0.51100000000E-03 0. -1.
    9900012    2    1    2    0    0 -0.14828397695E+02  0.37095195371E+02  0.75651631312E+01  0.50528848619E+02  0.29999965863E+02 0.  0.
         12    1    1    2    0    0  0.14828397695E+02 -0.37095195371E+02 -0.75651631312E+01  0.40659151381E+02  0.00000000000E+00 0. -1.
         11    1    3    3    0    0 -0.78730012477E+01  0.71018052956E+01  0.37291800802E+01  0.11239509395E+02  0.51100000000E-03 0. -1.
        -11    1    3    3    0    0 -0.14937479175E+02  0.25675062435E+02  0.50592839703E+01  0.30131934384E+02  0.51100000000E-03 0.  1.
         12    1    3    3    0    0  0.79820827275E+01  0.43183276398E+01 -0.12233009193E+01  0.91574048405E+01  0.00000000000E+00 0. -1.
</event>
<event>
 7    1  0.1381607E-011  0.5052886E+02  0.7816164E-02  0.1300439E+00
        -11   -1    0    0    0    0  0.00000000000E+00  0.00000000000E+00  0.45593999997E+02  0.45594000000E+02  0.51100000000E-03 0.  1.
         11   -1    0    0    0    0 -0.00000000000E+00 -0.00000000000E+00 -0.45593999997E+02  0.45594000000E+02  0.51100000000E-03 0. -1.
    9900012    2    1    2    0    0  0.97907356909E+01  0.12091653615E+02  0.37564597271E+02  0.50528861290E+02  0.30000004378E+02 0.  0.
         12    1    1    2    0    0 -0.97907356909E+01 -0.12091653615E+02 -0.37564597271E+02  0.40659138710E+02  0.00000000000E+00 0. -1.
         11    1    3    3    0    0  0.34421797206E+01 -0.17785445518E+01  0.13580867650E+01  0.41056329444E+01  0.51100000000E-03 0. -1.
        -11    1    3    3    0    0  0.10963771260E+02  0.19140795069E+01  0.30361879740E+02  0.32337466231E+02  0.51100000000E-03 0.  1.
        -12    1    3    3    0    0 -0.46152152898E+01  0.11956118660E+02  0.58446307655E+01  0.14085762115E+02  0.00000000000E+00 0.  1.
</event>
<event>
 7    1  0.1381607E-011  0.5052885E+02  0.7816164E-02  0.1300439E+00
        -11   -1    0    0    0    0  0.00000000000E+00  0.00000000000E+00  0.45593999997E+02  0.45594000000E+02  0.51100000000E-03 0.  1.
         11   -1    0    0    0    0 -0.00000000000E+00 -0.00000000000E+00 -0.45593999997E+02  0.45594000000E+02  0.51100000000E-03 0. -1.
    9900012    2    1    2    0    0 -0.14548068362E+02  0.37949220825E+02 -0.11733225867E+01  0.50528851703E+02  0.29999975238E+02 0.  0.
         12    1    1    2    0    0  0.14548068362E+02 -0.37949220825E+02  0.11733225867E+01  0.40659148297E+02  0.00000000000E+00 0. -1.
         11    1    3    3    0    0 -0.50485497381E+01  0.16381611566E+02 -0.47603999447E+01  0.17790628428E+02  0.51100000000E-03 0. -1.
        -11    1    3    3    0    0  0.14155467431E+01  0.58440793183E+01 -0.82681441836E+01  0.10223465370E+02  0.51100000000E-03 0.  1.
        -12    1    3    3    0    0 -0.10915065367E+02  0.15723529941E+02  0.11855221542E+02  0.22514757906E+02  0.00000000000E+00 0.  1.
</event>
<event>
 7    1  0.1381607E-011  0.5052886E+02  0.7816164E-02  0.1300439E+00
        -11   -1    0    0    0    0  0.00000000000E+00  0.00000000000E+00  0.45593999997E+02  0.45594000000E+02  0.51100000000E-03 0. -1.
         11   -1    0    0    0    0 -0.00000000000E+00 -0.00000000000E+00 -0.45593999997E+02  0.45594000000E+02  0.51100000000E-03 0.  1.
    9900012    2    1    2    0    0  0.36685795259E+02 -0.16727323029E+02 -0.52454159842E+01  0.50528864516E+02  0.30000014181E+02 0.  0.
         12    1    1    2    0    0 -0.36685795259E+02  0.16727323029E+02  0.52454159842E+01  0.40659135484E+02  0.00000000000E+00 0. -1.
         11    1    3    3    0    0  0.32943511347E+01 -0.20656020799E+01 -0.36583235305E+01  0.53388006768E+01  0.51100000000E-03 0. -1.
        -11    1    3    3    0    0  0.82358752889E+01 -0.14349581347E+02 -0.91676981331E+01  0.18915253525E+02  0.51100000000E-03 0.  1.
         12    1    3    3    0    0  0.25155568835E+02 -0.31213960291E+00  0.75806056794E+01  0.26274810314E+02  0.00000000000E+00 0. -1.
</event>
<event>
 7    1  0.1381607E-011  0.5052887E+02  0.7816164E-02  0.1300439E+00
        -11   -1    0    0    0    0  0.00000000000E+00  0.00000000000E+00  0.45593999997E+02  0.45594000000E+02  0.51100000000E-03 0.  1.
         11   -1    0    0    0    0 -0.00000000000E+00 -0.00000000000E+00 -0.45593999997E+02  0.45594000000E+02  0.51100000000E-03 0. -1.
    9900012    2    1    2    0    0 -0.23608762101E+02  0.15510797360E+02  0.29243916915E+02  0.50528866227E+02  0.30000019382E+02 0.  0.
         12    1    1    2    0    0  0.23608762101E+02 -0.15510797360E+02 -0.29243916915E+02  0.40659133773E+02  0.00000000000E+00 0. -1.
         11    1    3    3    0    0 -0.17754636423E+02  0.11829476165E+02  0.10558591625E+02  0.23804358387E+02  0.51100000000E-03 0. -1.
        -11    1    3    3    0    0 -0.34783811223E+01  0.10686639766E+02  0.14062522404E+02  0.18001609410E+02  0.51100000000E-03 0.  1.
         12    1    3    3    0    0 -0.23757445562E+01 -0.70053185719E+01  0.46228028857E+01  0.87228984294E+01  0.00000000000E+00 0. -1.
</event>
<event>
 7    1  0.1381607E-011  0.5052887E+02  0.7816164E-02  0.1300439E+00
        -11   -1    0    0    0    0  0.00000000000E+00  0.00000000000E+00  0.45593999997E+02  0.45594000000E+02  0.51100000000E-03 0. -1.
         11   -1    0    0    0    0 -0.00000000000E+00 -0.00000000000E+00 -0.45593999997E+02  0.45594000000E+02  0.51100000000E-03 0.  1.
    9900012    2    1    2    0    0 -0.11635425347E+02  0.34102956267E+02 -0.18835351351E+02  0.50528865606E+02  0.30000017497E+02 0.  0.
         12    1    1    2    0    0  0.11635425347E+02 -0.34102956267E+02  0.18835351351E+02  0.40659134394E+02  0.00000000000E+00 0. -1.
         11    1    3    3    0    0 -0.11288630875E+02  0.21343563157E+02 -0.10815522395E+02  0.26456689139E+02  0.51100000000E-03 0. -1.
        -11    1    3    3    0    0  0.10888489834E+00  0.87093228701E+01 -0.14206320375E+02  0.16663844084E+02  0.51100000000E-03 0.  1.
         12    1    3    3    0    0 -0.45567936976E+00  0.40500702398E+01  0.61864914188E+01  0.74083323839E+01  0.00000000000E+00 0. -1.
</event>
<event>
 7    1  0.1381607E-011  0.5052886E+02  0.7816164E-02  0.1300439E+00
        -11   -1    0    0    0    0  0.00000000000E+00  0.00000000000E+00  0.45593999997E+02  0.45594000000E+02  0.51100000000E-03 0.  1.
         11   -1    0    0    0    0 -0.00000000000E+00 -0.00000000000E+00 -0.45593999997E+02  0.45594000000E+02  0.51100000000E-03 0. -1.
    9900012    2    1    2    0    0  0.12950362800E+02  0.23886349342E+02  0.30247246254E+02  0.50528862190E+02  0.30000007113E+02 0.  0.
         12    1    1    2    0    0 -0.12950362800E+02 -0.23886349342E+02 -0.30247246254E+02  0.40659137810E+02  0.00000000000E+00 0. -1.
         11    1    3    3    0    0  0.53595396603E+01  0.94500562111E-01 -0.10954234122E+01  0.54711560424E+01  0.51100000000E-03 0. -1.
        -11    1    3    3    0    0  0.74964738638E+01  0.22048933743E+01  0.18144606271E+02  0.19755642540E+02  0.51100000000E-03 0.  1.
         12    1    3    3    0    0  0.94349275419E-01  0.21586955405E+02  0.13198063395E+02  0.25302063608E+02  0.00000000000E+00 0. -1.
</event>
<event>
 7    1  0.1381607E-011  0.5052887E+02  0.7816164E-02  0.1300439E+00
        -11   -1    0    0    0    0  0.00000000000E+00  0.00000000000E+00  0.45593999997E+02  0.45594000000E+02  0.51100000000E-03 0. -1.
         11   -1    0    0    0    0 -0.00000000000E+00 -0.00000000000E+00 -0.45593999997E+02  0.45594000000E+02  0.51100000000E-03 0.  1.
    9900012    2    1    2    0    0 -0.13269094588E+02  0.37832650557E+02  0.67665740261E+01  0.50528870110E+02  0.30000031185E+02 0.  0.
         12    1    1    2    0    0  0.13269094588E+02 -0.37832650557E+02 -0.67665740261E+01  0.40659129890E+02  0.00000000000E+00 0. -1.
         11    1    3    3    0    0 -0.49915120977E+00  0.17941205389E+02  0.65473797084E+01  0.19105082676E+02  0.51100000000E-03 0. -1.
        -11    1    3    3    0    0  0.57293013307E+00  0.11172245259E+02 -0.77443515200E+01  0.13605965375E+02  0.51100000000E-03 0.  1.
        -12    1    3    3    0    0 -0.13342873511E+02  0.87191999093E+01  0.79635458378E+01  0.17817822058E+02  0.00000000000E+00 0.  1.
</event>
<event>
 7    1  0.1381607E-011  0.5052887E+02  0.7816164E-02  0.1300439E+00
        -11   -1    0    0    0    0  0.00000000000E+00  0.00000000000E+00  0.45593999997E+02  0.45594000000E+02  0.51100000000E-03 0. -1.
         11   -1    0    0    0    0 -0.00000000000E+00 -0.00000000000E+00 -0.45593999997E+02  0.45594000000E+02  0.51100000000E-03 0.  1.
    9900012    2    1    2    0    0 -0.30774759708E+02 -0.20305352937E+02 -0.17139779726E+02  0.50528865208E+02  0.30000016286E+02 0.  0.
         12    1    1    2    0    0  0.30774759708E+02  0.20305352937E+02  0.17139779726E+02  0.40659134792E+02  0.00000000000E+00 0. -1.
         11    1    3    3    0    0 -0.44913430332E+00 -0.92674050209E+01  0.24631815650E+01  0.95996760949E+01  0.51100000000E-03 0. -1.
        -11    1    3    3    0    0 -0.11806984509E+02 -0.11759884542E+02 -0.51968550512E+01  0.17455860629E+02  0.51100000000E-03 0.  1.
         12    1    3    3    0    0 -0.18518640896E+02  0.72193662553E+00 -0.14406106239E+02  0.23473328484E+02  0.00000000000E+00 0. -1.
</event>
<event>
 7    1  0.1381607E-011  0.5052886E+02  0.7816164E-02  0.1300439E+00
        -11   -1    0    0    0    0  0.00000000000E+00  0.00000000000E+00  0.45593999997E+02  0.45594000000E+02  0.51100000000E-03 0.  1.
         11   -1    0    0    0    0 -0.00000000000E+00 -0.00000000000E+00 -0.45593999997E+02  0.45594000000E+02  0.51100000000E-03 0. -1.
    9900012    2    1    2    0    0  0.53088436260E+01  0.40245379171E+02  0.23003708488E+01  0.50528855010E+02  0.29999985288E+02 0.  0.
         12    1    1    2    0    0 -0.53088436260E+01 -0.40245379171E+02 -0.23003708488E+01  0.40659144990E+02  0.00000000000E+00 0. -1.
         11    1    3    3    0    0  0.17727564767E+01  0.21091726119E+02  0.51662571047E+01  0.21787468622E+02  0.51100000000E-03 0. -1.
        -11    1    3    3    0    0 -0.58944437994E+01  0.65284510880E+01  0.60120885195E+01  0.10654123612E+02  0.51100000000E-03 0.  1.
         12    1    3    3    0    0  0.94305309487E+01  0.12625201964E+02 -0.88779747754E+01  0.18087262776E+02  0.00000000000E+00 0. -1.
</event>
<event>
 7    1  0.1381607E-011  0.5052886E+02  0.7816164E-02  0.1300439E+00
        -11   -1    0    0    0    0  0.00000000000E+00  0.00000000000E+00  0.45593999997E+02  0.45594000000E+02  0.51100000000E-03 0. -1.
         11   -1    0    0    0    0 -0.00000000000E+00 -0.00000000000E+00 -0.45593999997E+02  0.45594000000E+02  0.51100000000E-03 0.  1.
    9900012    2    1    2    0    0  0.13474041181E+02  0.36631017777E+02  0.11392302406E+02  0.50528858307E+02  0.29999995309E+02 0.  0.
         12    1    1    2    0    0 -0.13474041181E+02 -0.36631017777E+02 -0.11392302406E+02  0.40659141693E+02  0.00000000000E+00 0. -1.
         11    1    3    3    0    0  0.59578528410E+01  0.12757275732E+02  0.57201894152E+01  0.15197521567E+02  0.51100000000E-03 0. -1.
        -11    1    3    3    0    0  0.13190471440E+02  0.63609381626E+01 -0.30533806995E+01  0.14959050941E+02  0.51100000000E-03 0.  1.
         12    1    3    3    0    0 -0.56742830994E+01  0.17512803882E+02  0.87254936901E+01  0.20372285798E+02  0.00000000000E+00 0. -1.
</event>
<event>
 7    1  0.1381607E-011  0.5052886E+02  0.7816164E-02  0.1300439E+00
        -11   -1    0    0    0    0  0.00000000000E+00  0.00000000000E+00  0.45593999997E+02  0.45594000000E+02  0.51100000000E-03 0. -1.
         11   -1    0    0    0    0 -0.00000000000E+00 -0.00000000000E+00 -0.45593999997E+02  0.45594000000E+02  0.51100000000E-03 0.  1.
    9900012    2    1    2    0    0 -0.18348134516E+02  0.14348778488E+02 -0.33326026576E+02  0.50528861646E+02  0.30000005460E+02 0.  0.
         12    1    1    2    0    0  0.18348134516E+02 -0.14348778488E+02  0.33326026576E+02  0.40659138354E+02  0.00000000000E+00 0. -1.
         11    1    3    3    0    0  0.59310053097E+01 -0.84205813012E+00 -0.56025881397E+01  0.82021265536E+01  0.51100000000E-03 0.  1.
        -11    1    3    3    0    0 -0.19096727642E+01  0.58291907745E+01 -0.11851458664E+02  0.13344788791E+02  0.51100000000E-03 0. -1.
        -12    1    3    3    0    0 -0.22369467062E+02  0.93616458439E+01 -0.15871979772E+02  0.28981946301E+02  0.00000000000E+00 0.  1.
</event>
<event>
 7    1  0.1381607E-011  0.5052886E+02  0.7816164E-02  0.1300439E+00
        -11   -1    0    0    0    0  0.00000000000E+00  0.00000000000E+00  0.45593999997E+02  0.45594000000E+02  0.51100000000E-03 0. -1.
         11   -1    0    0    0    0 -0.00000000000E+00 -0.00000000000E+00 -0.45593999997E+02  0.45594000000E+02  0.51100000000E-03 0.  1.
    9900012    2    1    2    0    0  0.15345547708E+02  0.33836641041E+02 -0.16515485041E+02  0.50528863788E+02  0.30000011969E+02 0.  0.
         12    1    1    2    0    0 -0.15345547708E+02 -0.33836641041E+02  0.16515485041E+02  0.40659136212E+02  0.00000000000E+00 0. -1.
         11    1    3    3    0    0 -0.25944321580E+01  0.16638469383E+02  0.28923460716E+01  0.17086117397E+02  0.51100000000E-03 0. -1.
        -11    1    3    3    0    0  0.10531174796E+01  0.40988478028E+01 -0.83924764635E+01  0.93991101275E+01  0.51100000000E-03 0.  1.
        -12    1    3    3    0    0  0.16886862386E+02  0.13099323855E+02 -0.11015354649E+02  0.24043636263E+02  0.00000000000E+00 0.  1.
</event>
<event>
 7    1  0.1381607E-011  0.5052887E+02  0.7816164E-02  0.1300439E+00
        -11   -1    0    0    0    0  0.00000000000E+00  0.00000000000E+00  0.45593999997E+02  0.45594000000E+02  0.51100000000E-03 0. -1.
         11   -1    0    0    0    0 -0.00000000000E+00 -0.00000000000E+00 -0.45593999997E+02  0.45594000000E+02  0.51100000000E-03 0.  1.
    9900012    2    1    2    0    0  0.29300754809E+02 -0.82209401683E+01 -0.26963807445E+02  0.50528868165E+02  0.30000025274E+02 0.  0.
         12    1    1    2    0    0 -0.29300754809E+02  0.82209401683E+01  0.26963807445E+02  0.40659131835E+02  0.00000000000E+00 0. -1.
         11    1    3    3    0    0  0.15971724829E+02 -0.84578816709E+00 -0.48604076510E+01  0.16716306842E+02  0.51100000000E-03 0.  1.
        -11    1    3    3    0    0  0.68109371941E+01  0.70424116867E+00  0.23561623436E+01  0.72412928636E+01  0.51100000000E-03 0. -1.
         12    1    3    3    0    0  0.65180927859E+01 -0.80793931699E+01 -0.24459562138E+02  0.26571268459E+02  0.00000000000E+00 0. -1.
</event>
<event>
 7    1  0.1381607E-011  0.5052886E+02  0.7816164E-02  0.1300439E+00
        -11   -1    0    0    0    0  0.00000000000E+00  0.00000000000E+00  0.45593999997E+02  0.45594000000E+02  0.51100000000E-03 0.  1.
         11   -1    0    0    0    0 -0.00000000000E+00 -0.00000000000E+00 -0.45593999997E+02  0.45594000000E+02  0.51100000000E-03 0. -1.
    9900012    2    1    2    0    0 -0.35566376430E+02 -0.18342303867E+02  0.71943112285E+01  0.50528863787E+02  0.30000011968E+02 0.  0.
         12    1    1    2    0    0  0.35566376430E+02  0.18342303867E+02 -0.71943112285E+01  0.40659136213E+02  0.00000000000E+00 0. -1.
         11    1    3    3    0    0  0.17987673239E+01  0.73815569953E+00  0.38619684355E+00  0.19823183360E+01  0.51100000000E-03 0. -1.
        -11    1    3    3    0    0 -0.14183217722E+02 -0.14476743578E+02 -0.66734907053E+01  0.21337179945E+02  0.51100000000E-03 0.  1.
        -12    1    3    3    0    0 -0.23181926031E+02 -0.46037159895E+01  0.13481605090E+02  0.27209365506E+02  0.00000000000E+00 0.  1.
</event>
<event>
 7    1  0.1381607E-011  0.5052886E+02  0.7816164E-02  0.1300439E+00
        -11   -1    0    0    0    0  0.00000000000E+00  0.00000000000E+00  0.45593999997E+02  0.45594000000E+02  0.51100000000E-03 0.  1.
         11   -1    0    0    0    0 -0.00000000000E+00 -0.00000000000E+00 -0.45593999997E+02  0.45594000000E+02  0.51100000000E-03 0. -1.
    9900012    2    1    2    0    0  0.13668492186E+02 -0.17583472181E+02  0.34017046166E+02  0.50528860776E+02  0.30000002814E+02 0.  0.
         12    1    1    2    0    0 -0.13668492186E+02  0.17583472181E+02 -0.34017046166E+02  0.40659139224E+02  0.00000000000E+00 0. -1.
         11    1    3    3    0    0  0.13408449793E+02  0.10058407600E+00  0.14070377276E+02  0.19436361799E+02  0.51100000000E-03 0. -1.
        -11    1    3    3    0    0  0.39950154148E+01 -0.10880241901E+02  0.20241810286E+02  0.23325323061E+02  0.51100000000E-03 0.  1.
        -12    1    3    3    0    0 -0.37349730223E+01 -0.68038143560E+01 -0.29514139563E+00  0.77671759161E+01  0.00000000000E+00 0.  1.
</event>
<event>
 7    1  0.1381607E-011  0.5052885E+02  0.7816164E-02  0.1300439E+00
        -11   -1    0    0    0    0  0.00000000000E+00  0.00000000000E+00  0.45593999997E+02  0.45594000000E+02  0.51100000000E-03 0.  1.
         11   -1    0    0    0    0 -0.00000000000E+00 -0.00000000000E+00 -0.45593999997E+02  0.45594000000E+02  0.51100000000E-03 0. -1.
    9900012    2    1    2    0    0 -0.36235137017E+02 -0.49137953557E+01  0.17777391789E+02  0.50528853449E+02  0.29999980544E+02 0.  0.
         12    1    1    2    0    0  0.36235137017E+02  0.49137953557E+01 -0.17777391789E+02  0.40659146551E+02  0.00000000000E+00 0. -1.
         11    1    3    3    0    0  0.32912484203E+01 -0.84719454323E+00 -0.14531146902E+01  0.36961598074E+01  0.51100000000E-03 0. -1.
        -11    1    3    3    0    0 -0.12178898033E+02  0.47456992418E+01  0.17159520150E+01  0.13183008389E+02  0.51100000000E-03 0.  1.
        -12    1    3    3    0    0 -0.27347487404E+02 -0.88123000543E+01  0.17514554464E+02  0.33649685253E+02  0.00000000000E+00 0.  1.
</event>
<event>
 7    1  0.1381607E-011  0.5052889E+02  0.7816164E-02  0.1300439E+00
        -11   -1    0    0    0    0  0.00000000000E+00  0.00000000000E+00  0.45593999997E+02  0.45594000000E+02  0.51100000000E-03 0.  1.
         11   -1    0    0    0    0 -0.00000000000E+00 -0.00000000000E+00 -0.45593999997E+02  0.45594000000E+02  0.51100000000E-03 0. -1.
    9900012    2    1    2    0    0 -0.16248537974E+02 -0.34042410730E+02 -0.15174405735E+02  0.50528889041E+02  0.30000088727E+02 0.  0.
         12    1    1    2    0    0  0.16248537974E+02  0.34042410730E+02  0.15174405735E+02  0.40659110959E+02  0.00000000000E+00 0. -1.
         11    1    3    3    0    0 -0.11521077798E+02 -0.21617314227E+02 -0.65863116206E+01  0.25365784219E+02  0.51100000000E-03 0. -1.
        -11    1    3    3    0    0 -0.33929457944E+00 -0.11748031325E+02  0.35182448959E+01  0.12268227592E+02  0.51100000000E-03 0.  1.
         12    1    3    3    0    0 -0.43881655962E+01 -0.67706517849E+00 -0.12106339010E+02  0.12894877230E+02  0.00000000000E+00 0. -1.
</event>
<event>
 7    1  0.1381607E-011  0.5052885E+02  0.7816164E-02  0.1300439E+00
        -11   -1    0    0    0    0  0.00000000000E+00  0.00000000000E+00  0.45593999997E+02  0.45594000000E+02  0.51100000000E-03 0.  1.
         11   -1    0    0    0    0 -0.00000000000E+00 -0.00000000000E+00 -0.45593999997E+02  0.45594000000E+02  0.51100000000E-03 0. -1.
    9900012    2    1    2    0    0  0.38126218602E+02 -0.12768025598E+02 -0.60444662992E+01  0.50528848566E+02  0.29999965700E+02 0.  0.
         12    1    1    2    0    0 -0.38126218602E+02  0.12768025598E+02  0.60444662992E+01  0.40659151434E+02  0.00000000000E+00 0. -1.
         11    1    3    3    0    0  0.89579492186E+01 -0.49517773795E+01 -0.33783509444E+01  0.10778599574E+02  0.51100000000E-03 0. -1.
        -11    1    3    3    0    0  0.11494138183E+02 -0.12637596871E+02  0.76587737003E+01  0.18721134637E+02  0.51100000000E-03 0.  1.
         12    1    3    3    0    0  0.17674131201E+02  0.48213486531E+01 -0.10324889055E+02  0.21029114354E+02  0.00000000000E+00 0. -1.
</event>
<event>
 7    1  0.1381607E-011  0.5052885E+02  0.7816164E-02  0.1300439E+00
        -11   -1    0    0    0    0  0.00000000000E+00  0.00000000000E+00  0.45593999997E+02  0.45594000000E+02  0.51100000000E-03 0.  1.
         11   -1    0    0    0    0 -0.00000000000E+00 -0.00000000000E+00 -0.45593999997E+02  0.45594000000E+02  0.51100000000E-03 0. -1.
    9900012    2    1    2    0    0 -0.43444383093E+00 -0.21669656147E+02  0.34400631359E+02  0.50528853712E+02  0.29999981342E+02 0.  0.
         12    1    1    2    0    0  0.43444383093E+00  0.21669656147E+02 -0.34400631359E+02  0.40659146288E+02  0.00000000000E+00 0. -1.
         11    1    3    3    0    0 -0.42915233516E+01 -0.59211635234E+01  0.23173263195E+02  0.24299742334E+02  0.51100000000E-03 0. -1.
        -11    1    3    3    0    0  0.91435540359E+01 -0.87251769284E+01  0.11969928563E+02  0.17407253744E+02  0.51100000000E-03 0.  1.
         12    1    3    3    0    0 -0.52864745152E+01 -0.70233156955E+01 -0.74256039906E+00  0.88218576335E+01  0.00000000000E+00 0. -1.
</event>
<event>
 7    1  0.1381607E-011  0.5052884E+02  0.7816164E-02  0.1300439E+00
        -11   -1    0    0    0    0  0.00000000000E+00  0.00000000000E+00  0.45593999997E+02  0.45594000000E+02  0.51100000000E-03 0. -1.
         11   -1    0    0    0    0 -0.00000000000E+00 -0.00000000000E+00 -0.45593999997E+02  0.45594000000E+02  0.51100000000E-03 0.  1.
    9900012    2    1    2    0    0 -0.16166448848E+02  0.37222091892E+02 -0.25157141293E+01  0.50528843457E+02  0.29999950173E+02 0.  0.
         12    1    1    2    0    0  0.16166448848E+02 -0.37222091892E+02  0.25157141293E+01  0.40659156543E+02  0.00000000000E+00 0. -1.
         11    1    3    3    0    0 -0.35243540657E+01  0.40387645886E+01 -0.99238150811E+01  0.11278953720E+02  0.51100000000E-03 0. -1.
        -11    1    3    3    0    0  0.25321022435E-01  0.12490012716E+02 -0.30059844221E+01  0.12846672776E+02  0.51100000000E-03 0.  1.
        -12    1    3    3    0    0 -0.12667415804E+02  0.20693314587E+02  0.10414085374E+02  0.26403216962E+02  0.00000000000E+00 0.  1.
</event>
<event>
 7    1  0.1381607E-011  0.5052886E+02  0.7816164E-02  0.1300439E+00
        -11   -1    0    0    0    0  0.00000000000E+00  0.00000000000E+00  0.45593999997E+02  0.45594000000E+02  0.51100000000E-03 0. -1.
         11   -1    0    0    0    0 -0.00000000000E+00 -0.00000000000E+00 -0.45593999997E+02  0.45594000000E+02  0.51100000000E-03 0.  1.
    9900012    2    1    2    0    0  0.26281732277E+02  0.32519576938E+01 -0.30852244643E+02  0.50528859824E+02  0.29999999920E+02 0.  0.
         12    1    1    2    0    0 -0.26281732277E+02 -0.32519576938E+01  0.30852244643E+02  0.40659140176E+02  0.00000000000E+00 0. -1.
         11    1    3    3    0    0  0.13466707801E+01 -0.26010879779E+01 -0.39550883352E+01  0.49215754448E+01  0.51100000000E-03 0. -1.
        -11    1    3    3    0    0  0.29914565284E+02  0.44272990637E+01 -0.26830602868E+02  0.40427261144E+02  0.51100000000E-03 0.  1.
         12    1    3    3    0    0 -0.49795037865E+01  0.14257466079E+01 -0.66553440392E-01  0.51800232345E+01  0.00000000000E+00 0. -1.
</event>
<event>
 7    1  0.1381607E-011  0.5052885E+02  0.7816164E-02  0.1300439E+00
        -11   -1    0    0    0    0  0.00000000000E+00  0.00000000000E+00  0.45593999997E+02  0.45594000000E+02  0.51100000000E-03 0.  1.
         11   -1    0    0    0    0 -0.00000000000E+00 -0.00000000000E+00 -0.45593999997E+02  0.45594000000E+02  0.51100000000E-03 0. -1.
    9900012    2    1    2    0    0  0.97769673682E+01  0.38878143146E+02  0.67872791514E+01  0.50528852644E+02  0.29999978097E+02 0.  0.
         12    1    1    2    0    0 -0.97769673682E+01 -0.38878143146E+02 -0.67872791514E+01  0.40659147356E+02  0.00000000000E+00 0. -1.
         11    1    3    3    0    0  0.16176151440E+02  0.25505353262E+02  0.81492573283E+01  0.31282604042E+02  0.51100000000E-03 0. -1.
        -11    1    3    3    0    0  0.52349514550E+00  0.12143999997E+02 -0.11881618453E+01  0.12213210549E+02  0.51100000000E-03 0.  1.
         12    1    3    3    0    0 -0.69226792170E+01  0.12287898879E+01 -0.17381633150E+00  0.70330380525E+01  0.00000000000E+00 0. -1.
</event>
<event>
 7    1  0.1381607E-011  0.5052882E+02  0.7816164E-02  0.1300439E+00
        -11   -1    0    0    0    0  0.00000000000E+00  0.00000000000E+00  0.45593999997E+02  0.45594000000E+02  0.51100000000E-03 0.  1.
         11   -1    0    0    0    0 -0.00000000000E+00 -0.00000000000E+00 -0.45593999997E+02  0.45594000000E+02  0.51100000000E-03 0. -1.
    9900012    2    1    2    0    0  0.24818796228E+02 -0.11647778374E+02  0.30025408684E+02  0.50528824481E+02  0.29999892492E+02 0.  0.
         12    1    1    2    0    0 -0.24818796228E+02  0.11647778374E+02 -0.30025408684E+02  0.40659175519E+02  0.00000000000E+00 0. -1.
         11    1    3    3    0    0 -0.13684507772E+01  0.26473272410E+01 -0.14516818658E+01  0.33148724788E+01  0.51100000000E-03 0. -1.
        -11    1    3    3    0    0  0.10837761037E+02  0.13627719428E+01  0.19185662440E+02  0.22077224807E+02  0.51100000000E-03 0.  1.
         12    1    3    3    0    0  0.15349485968E+02 -0.15657877558E+02  0.12291428110E+02  0.25136727195E+02  0.00000000000E+00 0. -1.
</event>
<event>
 7    1  0.1381607E-011  0.5052886E+02  0.7816164E-02  0.1300439E+00
        -11   -1    0    0    0    0  0.00000000000E+00  0.00000000000E+00  0.45593999997E+02  0.45594000000E+02  0.51100000000E-03 0. -1.
         11   -1    0    0    0    0 -0.00000000000E+00 -0.00000000000E+00 -0.45593999997E+02  0.45594000000E+02  0.51100000000E-03 0.  1.
    9900012    2    1    2    0    0 -0.27970832652E+02 -0.25008391670E+02 -0.15664562026E+02  0.50528860356E+02  0.30000001537E+02 0.  0.
         12    1    1    2    0    0  0.27970832652E+02  0.25008391670E+02  0.15664562026E+02  0.40659139644E+02  0.00000000000E+00 0. -1.
         11    1    3    3    0    0  0.36078100902E+01 -0.38717463709E+01 -0.23583628280E+01  0.57938406171E+01  0.51100000000E-03 0. -1.
        -11    1    3    3    0    0 -0.10790811446E+02 -0.54251150097E+01  0.48084138996E+01  0.12999781883E+02  0.51100000000E-03 0.  1.
        -12    1    3    3    0    0 -0.20787831296E+02 -0.15711530289E+02 -0.18114613098E+02  0.31735237855E+02  0.00000000000E+00 0.  1.
</event>
<event>
 7    1  0.1381607E-011  0.5052885E+02  0.7816164E-02  0.1300439E+00
        -11   -1    0    0    0    0  0.00000000000E+00  0.00000000000E+00  0.45593999997E+02  0.45594000000E+02  0.51100000000E-03 0.  1.
         11   -1    0    0    0    0 -0.00000000000E+00 -0.00000000000E+00 -0.45593999997E+02  0.45594000000E+02  0.51100000000E-03 0. -1.
    9900012    2    1    2    0    0 -0.40551760443E+02  0.63424801819E+00  0.28842777721E+01  0.50528848461E+02  0.29999965383E+02 0.  0.
         12    1    1    2    0    0  0.40551760443E+02 -0.63424801819E+00 -0.28842777721E+01  0.40659151539E+02  0.00000000000E+00 0. -1.
         11    1    3    3    0    0 -0.82527542972E+01  0.21852022399E+00 -0.61458330755E+01  0.10292082833E+02  0.51100000000E-03 0.  1.
        -11    1    3    3    0    0 -0.30705563392E+01  0.83469983506E+01  0.27251633649E+01  0.93020005011E+01  0.51100000000E-03 0. -1.
        -12    1    3    3    0    0 -0.29228449807E+02 -0.79312705564E+01  0.63049474827E+01  0.30934765128E+02  0.00000000000E+00 0.  1.
</event>
<event>
 7    1  0.1381607E-011  0.5052885E+02  0.7816164E-02  0.1300439E+00
        -11   -1    0    0    0    0  0.00000000000E+00  0.00000000000E+00  0.45593999997E+02  0.45594000000E+02  0.51100000000E-03 0.  1.
         11   -1    0    0    0    0 -0.00000000000E+00 -0.00000000000E+00 -0.45593999997E+02  0.45594000000E+02  0.51100000000E-03 0. -1.
    9900012    2    1    2    0    0  0.22226715831E+02  0.11475366454E+02  0.32053944863E+02  0.50528852036E+02  0.29999976250E+02 0.  0.
         12    1    1    2    0    0 -0.22226715831E+02 -0.11475366454E+02 -0.32053944863E+02  0.40659147964E+02  0.00000000000E+00 0. -1.
         11    1    3    3    0    0 -0.23307678584E+01  0.64014814249E+00  0.82321387657E+01  0.85796490239E+01  0.51100000000E-03 0. -1.
        -11    1    3    3    0    0  0.47820001711E+01  0.13698193269E+02  0.90470741948E+01  0.17098467073E+02  0.51100000000E-03 0.  1.
         12    1    3    3    0    0  0.19775483518E+02 -0.28629749577E+01  0.14774731902E+02  0.24850735940E+02  0.00000000000E+00 0. -1.
</event>
<event>
 7    1  0.1381607E-011  0.5052887E+02  0.7816164E-02  0.1300439E+00
        -11   -1    0    0    0    0  0.00000000000E+00  0.00000000000E+00  0.45593999997E+02  0.45594000000E+02  0.51100000000E-03 0. -1.
         11   -1    0    0    0    0 -0.00000000000E+00 -0.00000000000E+00 -0.45593999997E+02  0.45594000000E+02  0.51100000000E-03 0.  1.
    9900012    2    1    2    0    0  0.32992043066E+01  0.21010901618E+02 -0.34652877851E+02  0.50528872130E+02  0.30000037325E+02 0.  0.
         12    1    1    2    0    0 -0.32992043066E+01 -0.21010901618E+02  0.34652877851E+02  0.40659127870E+02  0.00000000000E+00 0. -1.
         11    1    3    3    0    0  0.27493894914E+01  0.16566558421E+02 -0.22785060369E+02  0.28304928489E+02  0.51100000000E-03 0. -1.
        -11    1    3    3    0    0  0.73354520535E+01  0.75181592531E+01 -0.36204155411E+01  0.11110309822E+02  0.51100000000E-03 0.  1.
         12    1    3    3    0    0 -0.67856372384E+01 -0.30738160567E+01 -0.82474019411E+01  0.11113633819E+02  0.00000000000E+00 0. -1.
</event>
<event>
 7    1  0.1381607E-011  0.5052878E+02  0.7816164E-02  0.1300439E+00
        -11   -1    0    0    0    0  0.00000000000E+00  0.00000000000E+00  0.45593999997E+02  0.45594000000E+02  0.51100000000E-03 0.  1.
         11   -1    0    0    0    0 -0.00000000000E+00 -0.00000000000E+00 -0.45593999997E+02  0.45594000000E+02  0.51100000000E-03 0. -1.
    9900012    2    1    2    0    0  0.24689811236E+02  0.32295640221E+02  0.75954208295E+00  0.50528781361E+02  0.29999761423E+02 0.  0.
         12    1    1    2    0    0 -0.24689811236E+02 -0.32295640221E+02 -0.75954208295E+00  0.40659218639E+02  0.00000000000E+00 0. -1.
         11    1    3    3    0    0 -0.43884097781E+01  0.28616526328E+01  0.20176233622E+01  0.56140894600E+01  0.51100000000E-03 0. -1.
        -11    1    3    3    0    0  0.18171697116E+02  0.62404023742E+01  0.54806126476E+00  0.19221175024E+02  0.51100000000E-03 0.  1.
        -12    1    3    3    0    0  0.10906523898E+02  0.23193585214E+02 -0.18061425440E+01  0.25693516877E+02  0.00000000000E+00 0.  1.
</event>
<event>
 7    1  0.1381607E-011  0.5052888E+02  0.7816164E-02  0.1300439E+00
        -11   -1    0    0    0    0  0.00000000000E+00  0.00000000000E+00  0.45593999997E+02  0.45594000000E+02  0.51100000000E-03 0. -1.
         11   -1    0    0    0    0 -0.00000000000E+00 -0.00000000000E+00 -0.45593999997E+02  0.45594000000E+02  0.51100000000E-03 0.  1.
    9900012    2    1    2    0    0 -0.25114545194E+02  0.11708784242E+02 -0.29754460901E+02  0.50528881069E+02  0.30000064497E+02 0.  0.
         12    1    1    2    0    0  0.25114545194E+02 -0.11708784242E+02  0.29754460901E+02  0.40659118931E+02  0.00000000000E+00 0. -1.
         11    1    3    3    0    0 -0.78662713446E+01 -0.13218305005E+01 -0.13183738148E+02  0.15408971820E+02  0.51100000000E-03 0. -1.
        -11    1    3    3    0    0 -0.15851228867E+02 -0.18565409309E+01 -0.95775041468E+01  0.18612812435E+02  0.51100000000E-03 0.  1.
         12    1    3    3    0    0 -0.13970449829E+01  0.14887155674E+02 -0.69932186060E+01  0.16507096814E+02  0.00000000000E+00 0. -1.
</event>
<event>
 7    1  0.1381607E-011  0.5052885E+02  0.7816164E-02  0.1300439E+00
        -11   -1    0    0    0    0  0.00000000000E+00  0.00000000000E+00  0.45593999997E+02  0.45594000000E+02  0.51100000000E-03 0. -1.
         11   -1    0    0    0    0 -0.00000000000E+00 -0.00000000000E+00 -0.45593999997E+02  0.45594000000E+02  0.51100000000E-03 0.  1.
    9900012    2    1    2    0    0 -0.79817759015E+01 -0.15228877763E+02 -0.36844799188E+02  0.50528847382E+02  0.29999962101E+02 0.  0.
         12    1    1    2    0    0  0.79817759015E+01  0.15228877763E+02  0.36844799188E+02  0.40659152618E+02  0.00000000000E+00 0. -1.
         11    1    3    3    0    0 -0.11489547468E+02 -0.76809524763E+01 -0.11399636580E+02  0.17915313182E+02  0.51100000000E-03 0. -1.
        -11    1    3    3    0    0 -0.23126851409E+00  0.24689703178E+01 -0.20814764646E+02  0.20961959047E+02  0.51100000000E-03 0.  1.
         12    1    3    3    0    0  0.37390400810E+01 -0.10016895604E+02 -0.46303979618E+01  0.11651575153E+02  0.00000000000E+00 0. -1.
</event>
<event>
 7    1  0.1381607E-011  0.5052886E+02  0.7816164E-02  0.1300439E+00
        -11   -1    0    0    0    0  0.00000000000E+00  0.00000000000E+00  0.45593999997E+02  0.45594000000E+02  0.51100000000E-03 0. -1.
         11   -1    0    0    0    0 -0.00000000000E+00 -0.00000000000E+00 -0.45593999997E+02  0.45594000000E+02  0.51100000000E-03 0.  1.
    9900012    2    1    2    0    0 -0.22357169960E+01 -0.27744590537E+02 -0.29637898374E+02  0.50528858905E+02  0.29999997128E+02 0.  0.
         12    1    1    2    0    0  0.22357169960E+01  0.27744590537E+02  0.29637898374E+02  0.40659141095E+02  0.00000000000E+00 0. -1.
         11    1    3    3    0    0 -0.11288319956E+02 -0.95127714561E+01 -0.80875063444E+01  0.16832312596E+02  0.51100000000E-03 0.  1.
        -11    1    3    3    0    0  0.33667092466E+01 -0.33756565514E+01 -0.16241757260E+02  0.16927033629E+02  0.51100000000E-03 0. -1.
        -12    1    3    3    0    0  0.56858937135E+01 -0.14856162529E+02 -0.53086347692E+01  0.16769512680E+02  0.00000000000E+00 0.  1.
</event>
<event>
 7    1  0.1381607E-011  0.5052885E+02  0.7816164E-02  0.1300439E+00
        -11   -1    0    0    0    0  0.00000000000E+00  0.00000000000E+00  0.45593999997E+02  0.45594000000E+02  0.51100000000E-03 0.  1.
         11   -1    0    0    0    0 -0.00000000000E+00 -0.00000000000E+00 -0.45593999997E+02  0.45594000000E+02  0.51100000000E-03 0. -1.
    9900012    2    1    2    0    0  0.10246469946E+01  0.19344136492E+02  0.35748016732E+02  0.50528853202E+02  0.29999979792E+02 0.  0.
         12    1    1    2    0    0 -0.10246469946E+01 -0.19344136492E+02 -0.35748016732E+02  0.40659146798E+02  0.00000000000E+00 0. -1.
         11    1    3    3    0    0  0.32389153322E+00  0.82284363639E+01  0.23589883647E+02  0.24985889647E+02  0.51100000000E-03 0.  1.
        -11    1    3    3    0    0  0.37908917468E+01  0.15184901516E+02  0.13023289811E+02  0.20360701659E+02  0.51100000000E-03 0. -1.
         12    1    3    3    0    0 -0.30901362854E+01 -0.40692013873E+01 -0.86515672635E+00  0.51822618956E+01  0.00000000000E+00 0. -1.
</event>
<event>
 7    1  0.1381607E-011  0.5052886E+02  0.7816164E-02  0.1300439E+00
        -11   -1    0    0    0    0  0.00000000000E+00  0.00000000000E+00  0.45593999997E+02  0.45594000000E+02  0.51100000000E-03 0.  1.
         11   -1    0    0    0    0 -0.00000000000E+00 -0.00000000000E+00 -0.45593999997E+02  0.45594000000E+02  0.51100000000E-03 0. -1.
    9900012    2    1    2    0    0  0.15497613325E+02  0.30365082097E+02  0.22157424582E+02  0.50528859654E+02  0.29999999405E+02 0.  0.
         12    1    1    2    0    0 -0.15497613325E+02 -0.30365082097E+02 -0.22157424582E+02  0.40659140346E+02  0.00000000000E+00 0. -1.
         11    1    3    3    0    0  0.24349874978E+01  0.12573336468E+02  0.15898783159E+02  0.20415417219E+02  0.51100000000E-03 0.  1.
        -11    1    3    3    0    0  0.17197350809E+01  0.17730067065E+02  0.58992261847E+01  0.18764691224E+02  0.51100000000E-03 0. -1.
        -12    1    3    3    0    0  0.11342890746E+02  0.61678563609E-01  0.35941523870E+00  0.11348751211E+02  0.00000000000E+00 0.  1.
</event>
<event>
 7    1  0.1381607E-011  0.5052886E+02  0.7816164E-02  0.1300439E+00
        -11   -1    0    0    0    0  0.00000000000E+00  0.00000000000E+00  0.45593999997E+02  0.45594000000E+02  0.51100000000E-03 0. -1.
         11   -1    0    0    0    0 -0.00000000000E+00 -0.00000000000E+00 -0.45593999997E+02  0.45594000000E+02  0.51100000000E-03 0.  1.
    9900012    2    1    2    0    0 -0.37495150529E+02 -0.34326084545E+01  0.15345909799E+02  0.50528855130E+02  0.29999985653E+02 0.  0.
         12    1    1    2    0    0  0.37495150529E+02  0.34326084545E+01 -0.15345909799E+02  0.40659144870E+02  0.00000000000E+00 0. -1.
         11    1    3    3    0    0 -0.27904097478E+02 -0.37036596376E+01  0.16019015521E+02  0.32387723126E+02  0.51100000000E-03 0. -1.
        -11    1    3    3    0    0 -0.12812585996E+02 -0.14787323582E+01  0.26797350862E+01  0.13173078216E+02  0.51100000000E-03 0.  1.
        -12    1    3    3    0    0  0.32215329443E+01  0.17497835413E+01 -0.33528408088E+01  0.49680537881E+01  0.00000000000E+00 0.  1.
</event>
<event>
 7    1  0.1381607E-011  0.5052886E+02  0.7816164E-02  0.1300439E+00
        -11   -1    0    0    0    0  0.00000000000E+00  0.00000000000E+00  0.45593999997E+02  0.45594000000E+02  0.51100000000E-03 0.  1.
         11   -1    0    0    0    0 -0.00000000000E+00 -0.00000000000E+00 -0.45593999997E+02  0.45594000000E+02  0.51100000000E-03 0. -1.
    9900012    2    1    2    0    0 -0.63665230175E+01 -0.25239544069E+02  0.31234574405E+02  0.50528857874E+02  0.29999993994E+02 0.  0.
         12    1    1    2    0    0  0.63665230175E+01  0.25239544069E+02 -0.31234574405E+02  0.40659142126E+02  0.00000000000E+00 0. -1.
         11    1    3    3    0    0 -0.60397493249E+01 -0.64367265387E+01  0.70038747047E+00  0.88544092582E+01  0.51100000000E-03 0. -1.
        -11    1    3    3    0    0 -0.10042135575E+02 -0.49781110347E+01  0.14974452677E+02  0.18704553179E+02  0.51100000000E-03 0.  1.
        -12    1    3    3    0    0  0.97153618828E+01 -0.13824706496E+02  0.15559734258E+02  0.22969895437E+02  0.00000000000E+00 0.  1.
</event>
<event>
 7    1  0.1381607E-011  0.5052886E+02  0.7816164E-02  0.1300439E+00
        -11   -1    0    0    0    0  0.00000000000E+00  0.00000000000E+00  0.45593999997E+02  0.45594000000E+02  0.51100000000E-03 0.  1.
         11   -1    0    0    0    0 -0.00000000000E+00 -0.00000000000E+00 -0.45593999997E+02  0.45594000000E+02  0.51100000000E-03 0. -1.
    9900012    2    1    2    0    0 -0.18490823213E+02 -0.34581152569E+02  0.10742402104E+02  0.50528857620E+02  0.29999993221E+02 0.  0.
         12    1    1    2    0    0  0.18490823213E+02  0.34581152569E+02 -0.10742402104E+02  0.40659142380E+02  0.00000000000E+00 0. -1.
         11    1    3    3    0    0 -0.87295987081E+01 -0.47419764380E+01  0.25836666326E+01  0.10264870563E+02  0.51100000000E-03 0. -1.
        -11    1    3    3    0    0 -0.12447319122E+02 -0.10329687806E+02  0.12074491473E+02  0.20184933690E+02  0.51100000000E-03 0.  1.
        -12    1    3    3    0    0  0.26860946172E+01 -0.19509488326E+02 -0.39157560019E+01  0.20079053366E+02  0.00000000000E+00 0.  1.
</event>
<event>
 7    1  0.1381607E-011  0.5052885E+02  0.7816164E-02  0.1300439E+00
        -11   -1    0    0    0    0  0.00000000000E+00  0.00000000000E+00  0.45593999997E+02  0.45594000000E+02  0.51100000000E-03 0.  1.
         11   -1    0    0    0    0 -0.00000000000E+00 -0.00000000000E+00 -0.45593999997E+02  0.45594000000E+02  0.51100000000E-03 0. -1.
    9900012    2    1    2    0    0  0.72052836147E+01 -0.16288488218E+02  0.36550451359E+02  0.50528850292E+02  0.29999970949E+02 0.  0.
         12    1    1    2    0    0 -0.72052836147E+01  0.16288488218E+02 -0.36550451359E+02  0.40659149708E+02  0.00000000000E+00 0. -1.
         11    1    3    3    0    0  0.74169606288E+01  0.48848641687E+00  0.11535933174E+02  0.13723253200E+02  0.51100000000E-03 0. -1.
        -11    1    3    3    0    0  0.82138723464E+01 -0.14776032700E+02  0.21757755976E+02  0.27553562141E+02  0.51100000000E-03 0.  1.
         12    1    3    3    0    0 -0.84255493605E+01 -0.20009419351E+01  0.32567622090E+01  0.92520349513E+01  0.00000000000E+00 0. -1.
</event>
<event>
 7    1  0.1381607E-011  0.5052887E+02  0.7816164E-02  0.1300439E+00
        -11   -1    0    0    0    0  0.00000000000E+00  0.00000000000E+00  0.45593999997E+02  0.45594000000E+02  0.51100000000E-03 0.  1.
         11   -1    0    0    0    0 -0.00000000000E+00 -0.00000000000E+00 -0.45593999997E+02  0.45594000000E+02  0.51100000000E-03 0. -1.
    9900012    2    1    2    0    0 -0.15337041178E+02  0.36232898158E+02  0.10252664786E+02  0.50528869706E+02  0.30000029958E+02 0.  0.
         12    1    1    2    0    0  0.15337041178E+02 -0.36232898158E+02 -0.10252664786E+02  0.40659130294E+02  0.00000000000E+00 0. -1.
         11    1    3    3    0    0  0.12617406984E+01 -0.26673878718E+01 -0.19014515300E+01  0.35103369967E+01  0.51100000000E-03 0. -1.
        -11    1    3    3    0    0 -0.11045876120E+02  0.13452473781E+02 -0.17483027826E+01  0.17493913026E+02  0.51100000000E-03 0.  1.
        -12    1    3    3    0    0 -0.55529057568E+01  0.25447812249E+02  0.13902419099E+02  0.29524619683E+02  0.00000000000E+00 0.  1.
</event>
<event>
 7    1  0.1381607E-011  0.5052886E+02  0.7816164E-02  0.1300439E+00
        -11   -1    0    0    0    0  0.00000000000E+00  0.00000000000E+00  0.45593999997E+02  0.45594000000E+02  0.51100000000E-03 0.  1.
         11   -1    0    0    0    0 -0.00000000000E+00 -0.00000000000E+00 -0.45593999997E+02  0.45594000000E+02  0.51100000000E-03 0. -1.
    9900012    2    1    2    0    0 -0.16113183845E+02 -0.11145135830E+01  0.37313388154E+02  0.50528858720E+02  0.29999996564E+02 0.  0.
         12    1    1    2    0    0  0.16113183845E+02  0.11145135830E+01 -0.37313388154E+02  0.40659141280E+02  0.00000000000E+00 0. -1.
         11    1    3    3    0    0  0.18187426573E+01 -0.33534410093E+01  0.26732541390E+02  0.27003373139E+02  0.51100000000E-03 0. -1.
        -11    1    3    3    0    0 -0.12266478143E+02  0.40547182866E+01  0.11748835021E+02  0.17462598633E+02  0.51100000000E-03 0.  1.
        -12    1    3    3    0    0 -0.56654483599E+01 -0.18157908604E+01 -0.11679882574E+01  0.60628869474E+01  0.00000000000E+00 0.  1.
</event>
<event>
 7    1  0.1381607E-011  0.5052885E+02  0.7816164E-02  0.1300439E+00
        -11   -1    0    0    0    0  0.00000000000E+00  0.00000000000E+00  0.45593999997E+02  0.45594000000E+02  0.51100000000E-03 0.  1.
         11   -1    0    0    0    0 -0.00000000000E+00 -0.00000000000E+00 -0.45593999997E+02  0.45594000000E+02  0.51100000000E-03 0. -1.
    9900012    2    1    2    0    0 -0.28273539517E+02 -0.92462129784E+01  0.27717885494E+02  0.50528847678E+02  0.29999963003E+02 0.  0.
         12    1    1    2    0    0  0.28273539517E+02  0.92462129784E+01 -0.27717885494E+02  0.40659152322E+02  0.00000000000E+00 0. -1.
         11    1    3    3    0    0 -0.44746795493E+01 -0.10874580945E+02  0.13181317689E+01  0.11832866915E+02  0.51100000000E-03 0. -1.
        -11    1    3    3    0    0 -0.65639850347E+01 -0.59920273660E+01  0.12231372689E+02  0.15119416973E+02  0.51100000000E-03 0.  1.
        -12    1    3    3    0    0 -0.17234874933E+02  0.76203953329E+01  0.14168381036E+02  0.23576563790E+02  0.00000000000E+00 0.  1.
</event>
<event>
 7    1  0.1381607E-011  0.5052884E+02  0.7816164E-02  0.1300439E+00
        -11   -1    0    0    0    0  0.00000000000E+00  0.00000000000E+00  0.45593999997E+02  0.45594000000E+02  0.51100000000E-03 0. -1.
         11   -1    0    0    0    0 -0.00000000000E+00 -0.00000000000E+00 -0.45593999997E+02  0.45594000000E+02  0.51100000000E-03 0.  1.
    9900012    2    1    2    0    0 -0.68191476834E+01 -0.25752650166E+02 -0.30715912325E+02  0.50528843151E+02  0.29999949242E+02 0.  0.
         12    1    1    2    0    0  0.68191476834E+01  0.25752650166E+02  0.30715912325E+02  0.40659156849E+02  0.00000000000E+00 0. -1.
         11    1    3    3    0    0  0.85476763269E+00  0.93263080617E+00  0.36852851709E+00  0.13176651530E+01  0.51100000000E-03 0. -1.
        -11    1    3    3    0    0  0.83807694350E+01 -0.15955784339E+02 -0.20094576636E+02  0.26992894632E+02  0.51100000000E-03 0.  1.
        -12    1    3    3    0    0 -0.16054684751E+02 -0.10729496632E+02 -0.10989864207E+02  0.22218283366E+02  0.00000000000E+00 0.  1.
</event>
<event>
 7    1  0.1381607E-011  0.5052886E+02  0.7816164E-02  0.1300439E+00
        -11   -1    0    0    0    0  0.00000000000E+00  0.00000000000E+00  0.45593999997E+02  0.45594000000E+02  0.51100000000E-03 0.  1.
         11   -1    0    0    0    0 -0.00000000000E+00 -0.00000000000E+00 -0.45593999997E+02  0.45594000000E+02  0.51100000000E-03 0. -1.
    9900012    2    1    2    0    0 -0.64952013911E+01 -0.34221504359E+02  0.20973004197E+02  0.50528857034E+02  0.29999991440E+02 0.  0.
         12    1    1    2    0    0  0.64952013911E+01  0.34221504359E+02 -0.20973004197E+02  0.40659142966E+02  0.00000000000E+00 0. -1.
         11    1    3    3    0    0  0.79261587825E+00 -0.23438065272E+02  0.93693880370E+01  0.25253842799E+02  0.51100000000E-03 0.  1.
        -11    1    3    3    0    0 -0.10820353439E+02 -0.12513251677E+02  0.13064207084E+02  0.21079255753E+02  0.51100000000E-03 0. -1.
        -12    1    3    3    0    0  0.35325361700E+01  0.17298125907E+01 -0.14605909249E+01  0.41957584822E+01  0.00000000000E+00 0.  1.
</event>
<event>
 7    1  0.1381607E-011  0.5052886E+02  0.7816164E-02  0.1300439E+00
        -11   -1    0    0    0    0  0.00000000000E+00  0.00000000000E+00  0.45593999997E+02  0.45594000000E+02  0.51100000000E-03 0.  1.
         11   -1    0    0    0    0 -0.00000000000E+00 -0.00000000000E+00 -0.45593999997E+02  0.45594000000E+02  0.51100000000E-03 0. -1.
    9900012    2    1    2    0    0 -0.32197549050E+02 -0.16075930099E+02  0.18922163009E+02  0.50528856548E+02  0.29999989962E+02 0.  0.
         12    1    1    2    0    0  0.32197549050E+02  0.16075930099E+02 -0.18922163009E+02  0.40659143452E+02  0.00000000000E+00 0. -1.
         11    1    3    3    0    0 -0.70118961873E+01 -0.77288374667E+01  0.27628347442E+01  0.10795131903E+02  0.51100000000E-03 0. -1.
        -11    1    3    3    0    0 -0.11934855416E+02 -0.15553279847E+02  0.14848872334E+02  0.24593379143E+02  0.51100000000E-03 0.  1.
         12    1    3    3    0    0 -0.13250797446E+02  0.72061872153E+01  0.13104559307E+01  0.15140345501E+02  0.00000000000E+00 0. -1.
</event>
<event>
 7    1  0.1381607E-011  0.5052886E+02  0.7816164E-02  0.1300439E+00
        -11   -1    0    0    0    0  0.00000000000E+00  0.00000000000E+00  0.45593999997E+02  0.45594000000E+02  0.51100000000E-03 0.  1.
         11   -1    0    0    0    0 -0.00000000000E+00 -0.00000000000E+00 -0.45593999997E+02  0.45594000000E+02  0.51100000000E-03 0. -1.
    9900012    2    1    2    0    0  0.27509419368E+02 -0.19185522265E+02  0.22985064620E+02  0.50528860633E+02  0.30000002379E+02 0.  0.
         12    1    1    2    0    0 -0.27509419368E+02  0.19185522265E+02 -0.22985064620E+02  0.40659139367E+02  0.00000000000E+00 0. -1.
         11    1    3    3    0    0  0.47236859314E+00 -0.61763560375E+01  0.13402196337E+02  0.14764463177E+02  0.51100000000E-03 0. -1.
        -11    1    3    3    0    0  0.83314760271E+01  0.38849762176E-01  0.99206855123E+01  0.12955114951E+02  0.51100000000E-03 0.  1.
         12    1    3    3    0    0  0.18705574748E+02 -0.13048015989E+02 -0.33781722940E+00  0.22809282505E+02  0.00000000000E+00 0. -1.
</event>
<event>
 7    1  0.1381607E-011  0.5052886E+02  0.7816164E-02  0.1300439E+00
        -11   -1    0    0    0    0  0.00000000000E+00  0.00000000000E+00  0.45593999997E+02  0.45594000000E+02  0.51100000000E-03 0.  1.
         11   -1    0    0    0    0 -0.00000000000E+00 -0.00000000000E+00 -0.45593999997E+02  0.45594000000E+02  0.51100000000E-03 0. -1.
    9900012    2    1    2    0    0  0.30880291193E+02  0.25283157050E+02  0.77675636163E+01  0.50528862538E+02  0.30000008171E+02 0.  0.
         12    1    1    2    0    0 -0.30880291193E+02 -0.25283157050E+02 -0.77675636163E+01  0.40659137462E+02  0.00000000000E+00 0. -1.
         11    1    3    3    0    0  0.14778335589E+01  0.17887655372E+01  0.83622668200E+01  0.86782014729E+01  0.51100000000E-03 0. -1.
        -11    1    3    3    0    0  0.94848145103E+00  0.53358201386E+01 -0.55235836380E+01  0.77382536842E+01  0.51100000000E-03 0.  1.
        -12    1    3    3    0    0  0.28453976183E+02  0.18158571374E+02  0.49288804343E+01  0.34112407381E+02  0.00000000000E+00 0.  1.
</event>
<event>
 7    1  0.1381607E-011  0.5052886E+02  0.7816164E-02  0.1300439E+00
        -11   -1    0    0    0    0  0.00000000000E+00  0.00000000000E+00  0.45593999997E+02  0.45594000000E+02  0.51100000000E-03 0.  1.
         11   -1    0    0    0    0 -0.00000000000E+00 -0.00000000000E+00 -0.45593999997E+02  0.45594000000E+02  0.51100000000E-03 0. -1.
    9900012    2    1    2    0    0  0.18229565018E+02  0.26808358085E+01  0.36244468919E+02  0.50528862668E+02  0.30000008565E+02 0.  0.
         12    1    1    2    0    0 -0.18229565018E+02 -0.26808358085E+01 -0.36244468919E+02  0.40659137332E+02  0.00000000000E+00 0. -1.
         11    1    3    3    0    0 -0.53080742782E+01 -0.37860220361E+01  0.52420398922E+01  0.83659188314E+01  0.51100000000E-03 0. -1.
        -11    1    3    3    0    0 -0.12450558293E+01 -0.19065651675E+01  0.14671925406E+01  0.27088390444E+01  0.51100000000E-03 0.  1.
        -12    1    3    3    0    0  0.24782695125E+02  0.83734230121E+01  0.29535236487E+02  0.39454104792E+02  0.00000000000E+00 0.  1.
</event>
<event>
 7    1  0.1381607E-011  0.5052886E+02  0.7816164E-02  0.1300439E+00
        -11   -1    0    0    0    0  0.00000000000E+00  0.00000000000E+00  0.45593999997E+02  0.45594000000E+02  0.51100000000E-03 0. -1.
         11   -1    0    0    0    0 -0.00000000000E+00 -0.00000000000E+00 -0.45593999997E+02  0.45594000000E+02  0.51100000000E-03 0.  1.
    9900012    2    1    2    0    0  0.37256057697E+02  0.60268663222E+01 -0.15127080577E+02  0.50528861795E+02  0.30000005914E+02 0.  0.
         12    1    1    2    0    0 -0.37256057697E+02 -0.60268663222E+01  0.15127080577E+02  0.40659138205E+02  0.00000000000E+00 0. -1.
         11    1    3    3    0    0  0.10286455191E+02 -0.21968691244E+00 -0.52077248258E+01  0.11531687684E+02  0.51100000000E-03 0. -1.
        -11    1    3    3    0    0  0.11585600528E+02  0.14734631516E+02 -0.10369610701E+02  0.21421118828E+02  0.51100000000E-03 0.  1.
         12    1    3    3    0    0  0.15384001978E+02 -0.84880782817E+01  0.45025494980E+00  0.17576055283E+02  0.00000000000E+00 0. -1.
</event>
<event>
 7    1  0.1381607E-011  0.5052886E+02  0.7816164E-02  0.1300439E+00
        -11   -1    0    0    0    0  0.00000000000E+00  0.00000000000E+00  0.45593999997E+02  0.45594000000E+02  0.51100000000E-03 0. -1.
         11   -1    0    0    0    0 -0.00000000000E+00 -0.00000000000E+00 -0.45593999997E+02  0.45594000000E+02  0.51100000000E-03 0.  1.
    9900012    2    1    2    0    0  0.24530603724E+02 -0.32218022117E+02 -0.36625322554E+01  0.50528860675E+02  0.30000002506E+02 0.  0.
         12    1    1    2    0    0 -0.24530603724E+02  0.32218022117E+02  0.36625322554E+01  0.40659139325E+02  0.00000000000E+00 0. -1.
         11    1    3    3    0    0 -0.27925844748E-02  0.43293092354E+01 -0.34495592232E+01  0.55355564625E+01  0.51100000000E-03 0. -1.
        -11    1    3    3    0    0  0.17593735701E+01 -0.11283840628E+01 -0.19362714898E+01  0.28491741779E+01  0.51100000000E-03 0.  1.
        -12    1    3    3    0    0  0.22774022738E+02 -0.35418947289E+02  0.17232984576E+01  0.42144130034E+02  0.00000000000E+00 0.  1.
</event>
<event>
 7    1  0.1381607E-011  0.5052885E+02  0.7816164E-02  0.1300439E+00
        -11   -1    0    0    0    0  0.00000000000E+00  0.00000000000E+00  0.45593999997E+02  0.45594000000E+02  0.51100000000E-03 0.  1.
         11   -1    0    0    0    0 -0.00000000000E+00 -0.00000000000E+00 -0.45593999997E+02  0.45594000000E+02  0.51100000000E-03 0. -1.
    9900012    2    1    2    0    0  0.20332710248E+02  0.37039500681E+01  0.35014679226E+02  0.50528854492E+02  0.29999983713E+02 0.  0.
         12    1    1    2    0    0 -0.20332710248E+02 -0.37039500681E+01 -0.35014679226E+02  0.40659145508E+02  0.00000000000E+00 0. -1.
         11    1    3    3    0    0  0.71782031542E+01 -0.63102785669E+01  0.75376290590E+01  0.12172184200E+02  0.51100000000E-03 0. -1.
        -11    1    3    3    0    0  0.90312035080E+01  0.98941590390E+00  0.26928013664E+02  0.28419350815E+02  0.51100000000E-03 0.  1.
        -12    1    3    3    0    0  0.41233035857E+01  0.90248127311E+01  0.54903650372E+00  0.99373194763E+01  0.00000000000E+00 0.  1.
</event>
<event>
 7    1  0.1381607E-011  0.5052886E+02  0.7816164E-02  0.1300439E+00
        -11   -1    0    0    0    0  0.00000000000E+00  0.00000000000E+00  0.45593999997E+02  0.45594000000E+02  0.51100000000E-03 0.  1.
         11   -1    0    0    0    0 -0.00000000000E+00 -0.00000000000E+00 -0.45593999997E+02  0.45594000000E+02  0.51100000000E-03 0. -1.
    9900012    2    1    2    0    0  0.50112560307E+01  0.65262610905E+01  0.39817843077E+02  0.50528863288E+02  0.30000010450E+02 0.  0.
         12    1    1    2    0    0 -0.50112560307E+01 -0.65262610905E+01 -0.39817843077E+02  0.40659136712E+02  0.00000000000E+00 0. -1.
         11    1    3    3    0    0 -0.42684478874E+01  0.13647661233E+01  0.35468219552E+01  0.57150835673E+01  0.51100000000E-03 0. -1.
        -11    1    3    3    0    0  0.41391755133E+01  0.14035402049E+02  0.28173482955E+02  0.31746975079E+02  0.51100000000E-03 0.  1.
        -12    1    3    3    0    0  0.51405284048E+01 -0.88739070815E+01  0.80975381673E+01  0.13066804642E+02  0.00000000000E+00 0.  1.
</event>
<event>
 7    1  0.1381607E-011  0.5052886E+02  0.7816164E-02  0.1300439E+00
        -11   -1    0    0    0    0  0.00000000000E+00  0.00000000000E+00  0.45593999997E+02  0.45594000000E+02  0.51100000000E-03 0.  1.
         11   -1    0    0    0    0 -0.00000000000E+00 -0.00000000000E+00 -0.45593999997E+02  0.45594000000E+02  0.51100000000E-03 0. -1.
    9900012    2    1    2    0    0  0.30459294280E+02  0.12666810499E+02  0.23768659947E+02  0.50528857216E+02  0.29999991993E+02 0.  0.
         12    1    1    2    0    0 -0.30459294280E+02 -0.12666810499E+02 -0.23768659947E+02  0.40659142784E+02  0.00000000000E+00 0. -1.
         11    1    3    3    0    0 -0.38038533936E+01 -0.23249729172E+01  0.21321937419E+01  0.49417658908E+01  0.51100000000E-03 0. -1.
        -11    1    3    3    0    0  0.13355861879E+02  0.13623637589E+02  0.87479981162E+01  0.20988330544E+02  0.51100000000E-03 0.  1.
        -12    1    3    3    0    0  0.20907285794E+02  0.13681458275E+01  0.12888468089E+02  0.24598760781E+02  0.00000000000E+00 0.  1.
</event>
<event>
 7    1  0.1381607E-011  0.5052886E+02  0.7816164E-02  0.1300439E+00
        -11   -1    0    0    0    0  0.00000000000E+00  0.00000000000E+00  0.45593999997E+02  0.45594000000E+02  0.51100000000E-03 0.  1.
         11   -1    0    0    0    0 -0.00000000000E+00 -0.00000000000E+00 -0.45593999997E+02  0.45594000000E+02  0.51100000000E-03 0. -1.
    9900012    2    1    2    0    0 -0.33485337286E+02 -0.20325730877E+02 -0.10897827177E+02  0.50528858519E+02  0.29999995953E+02 0.  0.
         12    1    1    2    0    0  0.33485337286E+02  0.20325730877E+02  0.10897827177E+02  0.40659141481E+02  0.00000000000E+00 0. -1.
         11    1    3    3    0    0 -0.26007108352E+02 -0.18113234198E+02  0.10983581096E+01  0.31712226802E+02  0.51100000000E-03 0.  1.
        -11    1    3    3    0    0 -0.82327090329E+01 -0.58496043315E+01 -0.59532466016E+01  0.11723332044E+02  0.51100000000E-03 0. -1.
        -12    1    3    3    0    0  0.75448009857E+00  0.36371076528E+01 -0.60429386851E+01  0.70932996729E+01  0.00000000000E+00 0.  1.
</event>
<event>
 7    1  0.1381607E-011  0.5052887E+02  0.7816164E-02  0.1300439E+00
        -11   -1    0    0    0    0  0.00000000000E+00  0.00000000000E+00  0.45593999997E+02  0.45594000000E+02  0.51100000000E-03 0.  1.
         11   -1    0    0    0    0 -0.00000000000E+00 -0.00000000000E+00 -0.45593999997E+02  0.45594000000E+02  0.51100000000E-03 0. -1.
    9900012    2    1    2    0    0 -0.30209782180E+02  0.27064894728E+02  0.28329295200E+01  0.50528868729E+02  0.30000026990E+02 0.  0.
         12    1    1    2    0    0  0.30209782180E+02 -0.27064894728E+02 -0.28329295200E+01  0.40659131271E+02  0.00000000000E+00 0. -1.
         11    1    3    3    0    0 -0.69768190431E+01 -0.11827450105E+01  0.30888304632E+01  0.77211245044E+01  0.51100000000E-03 0. -1.
        -11    1    3    3    0    0 -0.22420372190E+02  0.11566410360E+02 -0.43790684642E+01  0.25605295910E+02  0.51100000000E-03 0.  1.
        -12    1    3    3    0    0 -0.81259094664E+00  0.16681229378E+02  0.41231675209E+01  0.17202448315E+02  0.00000000000E+00 0.  1.
</event>
<event>
 7    1  0.1381607E-011  0.5052887E+02  0.7816164E-02  0.1300439E+00
        -11   -1    0    0    0    0  0.00000000000E+00  0.00000000000E+00  0.45593999997E+02  0.45594000000E+02  0.51100000000E-03 0. -1.
         11   -1    0    0    0    0 -0.00000000000E+00 -0.00000000000E+00 -0.45593999997E+02  0.45594000000E+02  0.51100000000E-03 0.  1.
    9900012    2    1    2    0    0  0.73556154538E+01  0.87480007305E+00 -0.39978674465E+02  0.50528871064E+02  0.30000034086E+02 0.  0.
         12    1    1    2    0    0 -0.73556154538E+01 -0.87480007305E+00  0.39978674465E+02  0.40659128936E+02  0.00000000000E+00 0. -1.
         11    1    3    3    0    0  0.54872805643E+01 -0.67056483204E+01 -0.16159717898E+02  0.18336096918E+02  0.51100000000E-03 0. -1.
        -11    1    3    3    0    0  0.24898213290E+01 -0.42001278652E+01  0.74854274657E+00  0.49396964319E+01  0.51100000000E-03 0.  1.
        -12    1    3    3    0    0 -0.62148643956E+00  0.11780576259E+02 -0.24567499313E+02  0.27253077714E+02  0.00000000000E+00 0.  1.
</event>
<event>
 7    1  0.1381607E-011  0.5052884E+02  0.7816164E-02  0.1300439E+00
        -11   -1    0    0    0    0  0.00000000000E+00  0.00000000000E+00  0.45593999997E+02  0.45594000000E+02  0.51100000000E-03 0.  1.
         11   -1    0    0    0    0 -0.00000000000E+00 -0.00000000000E+00 -0.45593999997E+02  0.45594000000E+02  0.51100000000E-03 0. -1.
    9900012    2    1    2    0    0 -0.38440902482E+02  0.89666351247E+01  0.97500600088E+01  0.50528841139E+02  0.29999943126E+02 0.  0.
         12    1    1    2    0    0  0.38440902482E+02 -0.89666351247E+01 -0.97500600088E+01  0.40659158861E+02  0.00000000000E+00 0. -1.
         11    1    3    3    0    0 -0.84235854258E+01  0.92011858598E+01  0.60760390582E+00  0.12489507413E+02  0.51100000000E-03 0. -1.
        -11    1    3    3    0    0 -0.24532570350E+02 -0.15580978945E+01  0.15869453309E+02  0.29259429687E+02  0.51100000000E-03 0.  1.
         12    1    3    3    0    0 -0.54847467070E+01  0.13235471594E+01 -0.67269972062E+01  0.87799040391E+01  0.00000000000E+00 0. -1.
</event>
<event>
 7    1  0.1381607E-011  0.5052886E+02  0.7816164E-02  0.1300439E+00
        -11   -1    0    0    0    0  0.00000000000E+00  0.00000000000E+00  0.45593999997E+02  0.45594000000E+02  0.51100000000E-03 0.  1.
         11   -1    0    0    0    0 -0.00000000000E+00 -0.00000000000E+00 -0.45593999997E+02  0.45594000000E+02  0.51100000000E-03 0. -1.
    9900012    2    1    2    0    0  0.50587798795E+01  0.32213604455E+02  0.24286989943E+02  0.50528862696E+02  0.30000008650E+02 0.  0.
         12    1    1    2    0    0 -0.50587798795E+01 -0.32213604455E+02 -0.24286989943E+02  0.40659137304E+02  0.00000000000E+00 0. -1.
         11    1    3    3    0    0  0.11946666092E+01  0.23188647000E+02  0.67107014862E+01  0.24169693682E+02  0.51100000000E-03 0. -1.
        -11    1    3    3    0    0  0.98841209589E+01  0.89617655768E+01  0.99537843184E+01  0.16645927787E+02  0.51100000000E-03 0.  1.
         12    1    3    3    0    0 -0.60200076886E+01  0.63191878064E-01  0.76225041379E+01  0.97132412261E+01  0.00000000000E+00 0. -1.
</event>
<event>
 7    1  0.1381607E-011  0.5052886E+02  0.7816164E-02  0.1300439E+00
        -11   -1    0    0    0    0  0.00000000000E+00  0.00000000000E+00  0.45593999997E+02  0.45594000000E+02  0.51100000000E-03 0.  1.
         11   -1    0    0    0    0 -0.00000000000E+00 -0.00000000000E+00 -0.45593999997E+02  0.45594000000E+02  0.51100000000E-03 0. -1.
    9900012    2    1    2    0    0  0.29387705698E+02  0.24173248918E+02  0.14324197424E+02  0.50528857839E+02  0.29999993886E+02 0.  0.
         12    1    1    2    0    0 -0.29387705698E+02 -0.24173248918E+02 -0.14324197424E+02  0.40659142161E+02  0.00000000000E+00 0. -1.
         11    1    3    3    0    0 -0.10936616079E+01  0.15058970958E+01  0.38212108320E+01  0.42503498984E+01  0.51100000000E-03 0. -1.
        -11    1    3    3    0    0  0.19238847322E+02  0.26251108076E+02  0.11299171567E+02  0.34451780794E+02  0.51100000000E-03 0.  1.
         12    1    3    3    0    0  0.11242519984E+02 -0.35837562542E+01 -0.79618497463E+00  0.11826727146E+02  0.00000000000E+00 0. -1.
</event>
<event>
 7    1  0.1381607E-011  0.5052885E+02  0.7816164E-02  0.1300439E+00
        -11   -1    0    0    0    0  0.00000000000E+00  0.00000000000E+00  0.45593999997E+02  0.45594000000E+02  0.51100000000E-03 0.  1.
         11   -1    0    0    0    0 -0.00000000000E+00 -0.00000000000E+00 -0.45593999997E+02  0.45594000000E+02  0.51100000000E-03 0. -1.
    9900012    2    1    2    0    0 -0.22887892153E+02 -0.23020848554E+02  0.24481661567E+02  0.50528845699E+02  0.29999956987E+02 0.  0.
         12    1    1    2    0    0  0.22887892153E+02  0.23020848554E+02 -0.24481661567E+02  0.40659154301E+02  0.00000000000E+00 0. -1.
         11    1    3    3    0    0 -0.52450553548E+01 -0.74189074567E+01  0.19137247511E+02  0.21184547106E+02  0.51100000000E-03 0.  1.
        -11    1    3    3    0    0 -0.12230040523E+02 -0.10789924975E+02  0.11404195873E+02  0.19901056653E+02  0.51100000000E-03 0. -1.
         12    1    3    3    0    0 -0.54127962749E+01 -0.48120161225E+01 -0.60597818161E+01  0.94432419399E+01  0.00000000000E+00 0. -1.
</event>
<event>
 7    1  0.1381607E-011  0.5052890E+02  0.7816164E-02  0.1300439E+00
        -11   -1    0    0    0    0  0.00000000000E+00  0.00000000000E+00  0.45593999997E+02  0.45594000000E+02  0.51100000000E-03 0.  1.
         11   -1    0    0    0    0 -0.00000000000E+00 -0.00000000000E+00 -0.45593999997E+02  0.45594000000E+02  0.51100000000E-03 0. -1.
    9900012    2    1    2    0    0 -0.34265033179E+02  0.10820674493E+02  0.19025850997E+02  0.50528898911E+02  0.30000118729E+02 0.  0.
         12    1    1    2    0    0  0.34265033179E+02 -0.10820674493E+02 -0.19025850997E+02  0.40659101089E+02  0.00000000000E+00 0. -1.
         11    1    3    3    0    0 -0.10458362222E+02 -0.24967219423E+01  0.71702977627E+01  0.12923781609E+02  0.51100000000E-03 0. -1.
        -11    1    3    3    0    0 -0.19394127281E+02  0.81045769946E+01 -0.30213295811E+01  0.21235460295E+02  0.51100000000E-03 0.  1.
         12    1    3    3    0    0 -0.44125436765E+01  0.52128194404E+01  0.14876882816E+02  0.16369657007E+02  0.00000000000E+00 0. -1.
</event>
<event>
 7    1  0.1381607E-011  0.5052886E+02  0.7816164E-02  0.1300439E+00
        -11   -1    0    0    0    0  0.00000000000E+00  0.00000000000E+00  0.45593999997E+02  0.45594000000E+02  0.51100000000E-03 0.  1.
         11   -1    0    0    0    0 -0.00000000000E+00 -0.00000000000E+00 -0.45593999997E+02  0.45594000000E+02  0.51100000000E-03 0. -1.
    9900012    2    1    2    0    0 -0.12958012751E+02 -0.23179616883E+02  0.30788976567E+02  0.50528858207E+02  0.29999995006E+02 0.  0.
         12    1    1    2    0    0  0.12958012751E+02  0.23179616883E+02 -0.30788976567E+02  0.40659141793E+02  0.00000000000E+00 0. -1.
         11    1    3    3    0    0 -0.89151761693E+00 -0.63364028643E+01 -0.28902863361E+01  0.70212933485E+01  0.51100000000E-03 0. -1.
        -11    1    3    3    0    0 -0.11591705007E+02 -0.34301023191E+01  0.78920952338E+01  0.14436703028E+02  0.51100000000E-03 0.  1.
         12    1    3    3    0    0 -0.47479012683E+00 -0.13413111699E+02  0.25787167670E+02  0.29070861830E+02  0.00000000000E+00 0. -1.
</event>
<event>
 7    1  0.1381607E-011  0.5052886E+02  0.7816164E-02  0.1300439E+00
        -11   -1    0    0    0    0  0.00000000000E+00  0.00000000000E+00  0.45593999997E+02  0.45594000000E+02  0.51100000000E-03 0.  1.
         11   -1    0    0    0    0 -0.00000000000E+00 -0.00000000000E+00 -0.45593999997E+02  0.45594000000E+02  0.51100000000E-03 0. -1.
    9900012    2    1    2    0    0  0.27095082567E+02 -0.26587095299E+02  0.14565329547E+02  0.50528856372E+02  0.29999989429E+02 0.  0.
         12    1    1    2    0    0 -0.27095082567E+02  0.26587095299E+02 -0.14565329547E+02  0.40659143628E+02  0.00000000000E+00 0. -1.
         11    1    3    3    0    0 -0.43805443657E+01 -0.14543889077E+01  0.14358729976E+01  0.48338543173E+01  0.51100000000E-03 0. -1.
        -11    1    3    3    0    0  0.60425607643E+01  0.69961557532E+00 -0.20143763069E+01  0.64077854763E+01  0.51100000000E-03 0.  1.
         12    1    3    3    0    0  0.25433066168E+02 -0.25832321966E+02  0.15143832857E+02  0.39287216578E+02  0.00000000000E+00 0. -1.
</event>
<event>
 7    1  0.1381607E-011  0.5052886E+02  0.7816164E-02  0.1300439E+00
        -11   -1    0    0    0    0  0.00000000000E+00  0.00000000000E+00  0.45593999997E+02  0.45594000000E+02  0.51100000000E-03 0.  1.
         11   -1    0    0    0    0 -0.00000000000E+00 -0.00000000000E+00 -0.45593999997E+02  0.45594000000E+02  0.51100000000E-03 0. -1.
    9900012    2    1    2    0    0  0.20024159878E+02  0.17287412108E+02  0.30876272118E+02  0.50528858640E+02  0.29999996322E+02 0.  0.
         12    1    1    2    0    0 -0.20024159878E+02 -0.17287412108E+02 -0.30876272118E+02  0.40659141360E+02  0.00000000000E+00 0. -1.
         11    1    3    3    0    0  0.40596375366E+00 -0.24254760520E+01  0.73106477918E+01  0.77131907824E+01  0.51100000000E-03 0. -1.
        -11    1    3    3    0    0  0.43685643863E+01  0.19913794296E+02  0.15121110234E+02  0.25382898437E+02  0.51100000000E-03 0.  1.
        -12    1    3    3    0    0  0.15249631738E+02 -0.20090613631E+00  0.84445140923E+01  0.17432769421E+02  0.00000000000E+00 0.  1.
</event>
<event>
 7    1  0.1381607E-011  0.5052883E+02  0.7816164E-02  0.1300439E+00
        -11   -1    0    0    0    0  0.00000000000E+00  0.00000000000E+00  0.45593999997E+02  0.45594000000E+02  0.51100000000E-03 0.  1.
         11   -1    0    0    0    0 -0.00000000000E+00 -0.00000000000E+00 -0.45593999997E+02  0.45594000000E+02  0.51100000000E-03 0. -1.
    9900012    2    1    2    0    0 -0.33941440553E+02 -0.15502862043E+02  0.16149545011E+02  0.50528832247E+02  0.29999916097E+02 0.  0.
         12    1    1    2    0    0  0.33941440553E+02  0.15502862043E+02 -0.16149545011E+02  0.40659167753E+02  0.00000000000E+00 0. -1.
         11    1    3    3    0    0 -0.10274919259E+02 -0.17597218247E+02  0.30902241363E+01  0.20610326084E+02  0.51100000000E-03 0. -1.
        -11    1    3    3    0    0 -0.13023899821E+02 -0.39346798901E+01  0.26584437015E+01  0.13862575358E+02  0.51100000000E-03 0.  1.
         12    1    3    3    0    0 -0.10642621472E+02  0.60290360935E+01  0.10400877174E+02  0.16055930804E+02  0.00000000000E+00 0. -1.
</event>
<event>
 7    1  0.1381607E-011  0.5052886E+02  0.7816164E-02  0.1300439E+00
        -11   -1    0    0    0    0  0.00000000000E+00  0.00000000000E+00  0.45593999997E+02  0.45594000000E+02  0.51100000000E-03 0.  1.
         11   -1    0    0    0    0 -0.00000000000E+00 -0.00000000000E+00 -0.45593999997E+02  0.45594000000E+02  0.51100000000E-03 0. -1.
    9900012    2    1    2    0    0 -0.26799976470E+02 -0.27935953628E+02  0.12430179181E+02  0.50528860826E+02  0.30000002967E+02 0.  0.
         12    1    1    2    0    0  0.26799976470E+02  0.27935953628E+02 -0.12430179181E+02  0.40659139174E+02  0.00000000000E+00 0. -1.
         11    1    3    3    0    0 -0.10237826441E+02  0.28048349684E+01  0.47593995572E+01  0.11633231444E+02  0.51100000000E-03 0. -1.
        -11    1    3    3    0    0 -0.74485040466E+01 -0.94730755133E+01  0.99743164405E+01  0.15643093074E+02  0.51100000000E-03 0.  1.
        -12    1    3    3    0    0 -0.91136459824E+01 -0.21267713083E+02 -0.23035368167E+01  0.23252536308E+02  0.00000000000E+00 0.  1.
</event>
<event>
 7    1  0.1381607E-011  0.5052885E+02  0.7816164E-02  0.1300439E+00
        -11   -1    0    0    0    0  0.00000000000E+00  0.00000000000E+00  0.45593999997E+02  0.45594000000E+02  0.51100000000E-03 0.  1.
         11   -1    0    0    0    0 -0.00000000000E+00 -0.00000000000E+00 -0.45593999997E+02  0.45594000000E+02  0.51100000000E-03 0. -1.
    9900012    2    1    2    0    0 -0.14531487413E+02  0.25696911746E+02  0.27958385080E+02  0.50528847328E+02  0.29999961939E+02 0.  0.
         12    1    1    2    0    0  0.14531487413E+02 -0.25696911746E+02 -0.27958385080E+02  0.40659152672E+02  0.00000000000E+00 0. -1.
         11    1    3    3    0    0 -0.87809711089E+01  0.18424948847E+01  0.85845938195E+01  0.12417547758E+02  0.51100000000E-03 0. -1.
        -11    1    3    3    0    0 -0.11198432408E+02  0.23020602753E+02  0.20105940172E+02  0.32551526385E+02  0.51100000000E-03 0.  1.
         12    1    3    3    0    0  0.54479161043E+01  0.83381410804E+00 -0.73214891112E+00  0.55597731855E+01  0.00000000000E+00 0. -1.
</event>
<event>
 7    1  0.1381607E-011  0.5052886E+02  0.7816164E-02  0.1300439E+00
        -11   -1    0    0    0    0  0.00000000000E+00  0.00000000000E+00  0.45593999997E+02  0.45594000000E+02  0.51100000000E-03 0. -1.
         11   -1    0    0    0    0 -0.00000000000E+00 -0.00000000000E+00 -0.45593999997E+02  0.45594000000E+02  0.51100000000E-03 0.  1.
    9900012    2    1    2    0    0  0.29249989727E+02  0.17734754400E+02 -0.21979136383E+02  0.50528857746E+02  0.29999993605E+02 0.  0.
         12    1    1    2    0    0 -0.29249989727E+02 -0.17734754400E+02  0.21979136383E+02  0.40659142254E+02  0.00000000000E+00 0. -1.
         11    1    3    3    0    0  0.10944912873E+02  0.11629148920E+02  0.24427252212E+01  0.16155343672E+02  0.51100000000E-03 0.  1.
        -11    1    3    3    0    0  0.13872434721E+02  0.10251770497E+01 -0.67547510257E+01  0.15463573156E+02  0.51100000000E-03 0. -1.
        -12    1    3    3    0    0  0.44326421335E+01  0.50804284301E+01 -0.17667110579E+02  0.18909940918E+02  0.00000000000E+00 0.  1.
</event>
<event>
 7    1  0.1381607E-011  0.5052885E+02  0.7816164E-02  0.1300439E+00
        -11   -1    0    0    0    0  0.00000000000E+00  0.00000000000E+00  0.45593999997E+02  0.45594000000E+02  0.51100000000E-03 0.  1.
         11   -1    0    0    0    0 -0.00000000000E+00 -0.00000000000E+00 -0.45593999997E+02  0.45594000000E+02  0.51100000000E-03 0. -1.
    9900012    2    1    2    0    0  0.39851082206E+02 -0.79936123076E+01 -0.10769754391E+01  0.50528850147E+02  0.29999970506E+02 0.  0.
         12    1    1    2    0    0 -0.39851082206E+02  0.79936123076E+01  0.10769754391E+01  0.40659149853E+02  0.00000000000E+00 0. -1.
         11    1    3    3    0    0  0.35052790271E+01  0.44499504610E+01 -0.68835956389E+01  0.89147590739E+01  0.51100000000E-03 0. -1.
        -11    1    3    3    0    0  0.49323847979E+01 -0.63828327396E+01  0.52348024285E+01  0.96162430451E+01  0.51100000000E-03 0.  1.
        -12    1    3    3    0    0  0.31413418381E+02 -0.60607300290E+01  0.57181777134E+00  0.31997848028E+02  0.00000000000E+00 0.  1.
</event>
<event>
 7    1  0.1381607E-011  0.5052885E+02  0.7816164E-02  0.1300439E+00
        -11   -1    0    0    0    0  0.00000000000E+00  0.00000000000E+00  0.45593999997E+02  0.45594000000E+02  0.51100000000E-03 0. -1.
         11   -1    0    0    0    0 -0.00000000000E+00 -0.00000000000E+00 -0.45593999997E+02  0.45594000000E+02  0.51100000000E-03 0.  1.
    9900012    2    1    2    0    0  0.28507870083E+02 -0.73591937103E+01  0.28041218651E+02  0.50528851802E+02  0.29999975538E+02 0.  0.
         12    1    1    2    0    0 -0.28507870083E+02  0.73591937103E+01 -0.28041218651E+02  0.40659148198E+02  0.00000000000E+00 0. -1.
         11    1    3    3    0    0  0.11590335078E+02 -0.71207509196E+01  0.53218851669E+01  0.14606964876E+02  0.51100000000E-03 0. -1.
        -11    1    3    3    0    0  0.10478765369E+02  0.74422763430E+01  0.21371867282E+01  0.13029181409E+02  0.51100000000E-03 0.  1.
         12    1    3    3    0    0  0.64387696358E+01 -0.76807191337E+01  0.20582146756E+02  0.22892705518E+02  0.00000000000E+00 0. -1.
</event>
<event>
 7    1  0.1381607E-011  0.5052886E+02  0.7816164E-02  0.1300439E+00
        -11   -1    0    0    0    0  0.00000000000E+00  0.00000000000E+00  0.45593999997E+02  0.45594000000E+02  0.51100000000E-03 0. -1.
         11   -1    0    0    0    0 -0.00000000000E+00 -0.00000000000E+00 -0.45593999997E+02  0.45594000000E+02  0.51100000000E-03 0.  1.
    9900012    2    1    2    0    0  0.40285229062E+02 -0.29915972821E+01  0.46169784609E+01  0.50528858039E+02  0.29999994495E+02 0.  0.
         12    1    1    2    0    0 -0.40285229062E+02  0.29915972821E+01 -0.46169784609E+01  0.40659141961E+02  0.00000000000E+00 0. -1.
         11    1    3    3    0    0  0.12864259239E+02 -0.10340357234E+02  0.31411300754E+01  0.16801156267E+02  0.51100000000E-03 0. -1.
        -11    1    3    3    0    0  0.16702780714E+02 -0.14919560288E+01 -0.61708532885E+01  0.17868638642E+02  0.51100000000E-03 0.  1.
         12    1    3    3    0    0  0.10718189110E+02  0.88407159810E+01  0.76467016740E+01  0.15859063129E+02  0.00000000000E+00 0. -1.
</event>
<event>
 7    1  0.1381607E-011  0.5052886E+02  0.7816164E-02  0.1300439E+00
        -11   -1    0    0    0    0  0.00000000000E+00  0.00000000000E+00  0.45593999997E+02  0.45594000000E+02  0.51100000000E-03 0. -1.
         11   -1    0    0    0    0 -0.00000000000E+00 -0.00000000000E+00 -0.45593999997E+02  0.45594000000E+02  0.51100000000E-03 0.  1.
    9900012    2    1    2    0    0 -0.16039018669E+02 -0.18170355298E+02 -0.32645888962E+02  0.50528855916E+02  0.29999988043E+02 0.  0.
         12    1    1    2    0    0  0.16039018669E+02  0.18170355298E+02  0.32645888962E+02  0.40659144084E+02  0.00000000000E+00 0. -1.
         11    1    3    3    0    0 -0.11682574265E+02  0.37379995476E+01 -0.13344082596E+02  0.18125113038E+02  0.51100000000E-03 0. -1.
        -11    1    3    3    0    0  0.43160627787E+01 -0.85086199153E+01 -0.10457869312E+02  0.14155989601E+02  0.51100000000E-03 0.  1.
        -12    1    3    3    0    0 -0.86725071826E+01 -0.13399734930E+02 -0.88439370544E+01  0.18247753277E+02  0.00000000000E+00 0.  1.
</event>
<event>
 7    1  0.1381607E-011  0.5052889E+02  0.7816164E-02  0.1300439E+00
        -11   -1    0    0    0    0  0.00000000000E+00  0.00000000000E+00  0.45593999997E+02  0.45594000000E+02  0.51100000000E-03 0.  1.
         11   -1    0    0    0    0 -0.00000000000E+00 -0.00000000000E+00 -0.45593999997E+02  0.45594000000E+02  0.51100000000E-03 0. -1.
    9900012    2    1    2    0    0  0.35350806909E+02 -0.11618645301E+02  0.16385683115E+02  0.50528891809E+02  0.30000097142E+02 0.  0.
         12    1    1    2    0    0 -0.35350806909E+02  0.11618645301E+02 -0.16385683115E+02  0.40659108191E+02  0.00000000000E+00 0. -1.
         11    1    3    3    0    0  0.16916668104E+02  0.51040211605E+01  0.56445331453E+01  0.18549540329E+02  0.51100000000E-03 0. -1.
        -11    1    3    3    0    0  0.13672252574E+01  0.22715976500E+00  0.75955116836E+01  0.77209263991E+01  0.51100000000E-03 0.  1.
         12    1    3    3    0    0  0.17066913548E+02 -0.16949826226E+02  0.31456382859E+01  0.24258425081E+02  0.00000000000E+00 0. -1.
</event>
<event>
 7    1  0.1381607E-011  0.5052885E+02  0.7816164E-02  0.1300439E+00
        -11   -1    0    0    0    0  0.00000000000E+00  0.00000000000E+00  0.45593999997E+02  0.45594000000E+02  0.51100000000E-03 0.  1.
         11   -1    0    0    0    0 -0.00000000000E+00 -0.00000000000E+00 -0.45593999997E+02  0.45594000000E+02  0.51100000000E-03 0. -1.
    9900012    2    1    2    0    0  0.21145804188E+02 -0.33144652862E+02 -0.10365975941E+02  0.50528849673E+02  0.29999969067E+02 0.  0.
         12    1    1    2    0    0 -0.21145804188E+02  0.33144652862E+02  0.10365975941E+02  0.40659150327E+02  0.00000000000E+00 0. -1.
         11    1    3    3    0    0 -0.74109459261E+00 -0.92031113810E+01  0.15790550524E+01  0.93669576387E+01  0.51100000000E-03 0. -1.
        -11    1    3    3    0    0  0.22214703453E+02 -0.14012420378E+02 -0.86327292705E+00  0.26279007112E+02  0.51100000000E-03 0.  1.
         12    1    3    3    0    0 -0.32780467310E+00 -0.99291211026E+01 -0.11081758067E+02  0.14882884923E+02  0.00000000000E+00 0. -1.
</event>
<event>
 7    1  0.1381607E-011  0.5052887E+02  0.7816164E-02  0.1300439E+00
        -11   -1    0    0    0    0  0.00000000000E+00  0.00000000000E+00  0.45593999997E+02  0.45594000000E+02  0.51100000000E-03 0.  1.
         11   -1    0    0    0    0 -0.00000000000E+00 -0.00000000000E+00 -0.45593999997E+02  0.45594000000E+02  0.51100000000E-03 0. -1.
    9900012    2    1    2    0    0 -0.20021010121E+02  0.24386891173E+02  0.25643785327E+02  0.50528867775E+02  0.30000024089E+02 0.  0.
         12    1    1    2    0    0  0.20021010121E+02 -0.24386891173E+02 -0.25643785327E+02  0.40659132225E+02  0.00000000000E+00 0. -1.
         11    1    3    3    0    0 -0.56528505112E+01 -0.23772418072E+01  0.17335387268E+01  0.63726881526E+01  0.51100000000E-03 0. -1.
        -11    1    3    3    0    0 -0.56536029592E+01  0.35689749306E+01  0.17247200564E+02  0.18497749486E+02  0.51100000000E-03 0.  1.
        -12    1    3    3    0    0 -0.87145566509E+01  0.23195158050E+02  0.66630460362E+01  0.25658430136E+02  0.00000000000E+00 0.  1.
</event>
<event>
 7    1  0.1381607E-011  0.5052885E+02  0.7816164E-02  0.1300439E+00
        -11   -1    0    0    0    0  0.00000000000E+00  0.00000000000E+00  0.45593999997E+02  0.45594000000E+02  0.51100000000E-03 0.  1.
         11   -1    0    0    0    0 -0.00000000000E+00 -0.00000000000E+00 -0.45593999997E+02  0.45594000000E+02  0.51100000000E-03 0. -1.
    9900012    2    1    2    0    0 -0.18892951452E+02 -0.28288445490E+02  0.22270760164E+02  0.50528849479E+02  0.29999968476E+02 0.  0.
         12    1    1    2    0    0  0.18892951452E+02  0.28288445490E+02 -0.22270760164E+02  0.40659150521E+02  0.00000000000E+00 0. -1.
         11    1    3    3    0    0 -0.28857313296E+01  0.25697871971E+01  0.67496772882E-01  0.38646872604E+01  0.51100000000E-03 0. -1.
        -11    1    3    3    0    0  0.44223964081E+01 -0.94254219689E+01  0.10612172820E+02  0.14866552442E+02  0.51100000000E-03 0.  1.
         12    1    3    3    0    0 -0.20429616531E+02 -0.21432810718E+02  0.11591090571E+02  0.31797609777E+02  0.00000000000E+00 0. -1.
</event>
<event>
 7    1  0.1381607E-011  0.5052885E+02  0.7816164E-02  0.1300439E+00
        -11   -1    0    0    0    0  0.00000000000E+00  0.00000000000E+00  0.45593999997E+02  0.45594000000E+02  0.51100000000E-03 0. -1.
         11   -1    0    0    0    0 -0.00000000000E+00 -0.00000000000E+00 -0.45593999997E+02  0.45594000000E+02  0.51100000000E-03 0.  1.
    9900012    2    1    2    0    0 -0.23080218155E+02  0.26645510559E+02 -0.20260468249E+02  0.50528852484E+02  0.29999977610E+02 0.  0.
         12    1    1    2    0    0  0.23080218155E+02 -0.26645510559E+02  0.20260468249E+02  0.40659147516E+02  0.00000000000E+00 0. -1.
         11    1    3    3    0    0 -0.21439729436E+02  0.22632231891E+02 -0.10443568558E+02  0.32877774303E+02  0.51100000000E-03 0. -1.
        -11    1    3    3    0    0 -0.30853695876E+01  0.69597226254E+01 -0.11631304969E+02  0.13901240954E+02  0.51100000000E-03 0.  1.
         12    1    3    3    0    0  0.14448808684E+01 -0.29464439573E+01  0.18144052770E+01  0.37498372267E+01  0.00000000000E+00 0. -1.
</event>
<event>
 7    1  0.1381607E-011  0.5052887E+02  0.7816164E-02  0.1300439E+00
        -11   -1    0    0    0    0  0.00000000000E+00  0.00000000000E+00  0.45593999997E+02  0.45594000000E+02  0.51100000000E-03 0. -1.
         11   -1    0    0    0    0 -0.00000000000E+00 -0.00000000000E+00 -0.45593999997E+02  0.45594000000E+02  0.51100000000E-03 0.  1.
    9900012    2    1    2    0    0  0.26192303053E+02  0.24310113030E+02  0.19394489766E+02  0.50528873496E+02  0.30000041480E+02 0.  0.
         12    1    1    2    0    0 -0.26192303053E+02 -0.24310113030E+02 -0.19394489766E+02  0.40659126504E+02  0.00000000000E+00 0. -1.
         11    1    3    3    0    0  0.17697385338E+02  0.22728973603E+02  0.12083538537E+02  0.31238047197E+02  0.51100000000E-03 0. -1.
        -11    1    3    3    0    0  0.64360495033E+01  0.81718698115E+01  0.66688568456E+01  0.12356206591E+02  0.51100000000E-03 0.  1.
         12    1    3    3    0    0  0.20588682119E+01 -0.65907303842E+01  0.64209438332E+00  0.69346197090E+01  0.00000000000E+00 0. -1.
</event>
<event>
 7    1  0.1381607E-011  0.5052886E+02  0.7816164E-02  0.1300439E+00
        -11   -1    0    0    0    0  0.00000000000E+00  0.00000000000E+00  0.45593999997E+02  0.45594000000E+02  0.51100000000E-03 0.  1.
         11   -1    0    0    0    0 -0.00000000000E+00 -0.00000000000E+00 -0.45593999997E+02  0.45594000000E+02  0.51100000000E-03 0. -1.
    9900012    2    1    2    0    0 -0.33412833167E+02 -0.16380314379E+02 -0.16383953020E+02  0.50528855445E+02  0.29999986610E+02 0.  0.
         12    1    1    2    0    0  0.33412833167E+02  0.16380314379E+02  0.16383953020E+02  0.40659144555E+02  0.00000000000E+00 0. -1.
         11    1    3    3    0    0 -0.17824541144E+01 -0.29589972603E+01  0.30360665998E+01  0.45989681577E+01  0.51100000000E-03 0. -1.
        -11    1    3    3    0    0 -0.30840100497E+02 -0.14403617616E+02 -0.86948157395E+01  0.35130838591E+02  0.51100000000E-03 0.  1.
         12    1    3    3    0    0 -0.79027855520E+00  0.98230049672E+00 -0.10725203880E+02  0.10799048696E+02  0.00000000000E+00 0. -1.
</event>
<event>
 7    1  0.1381607E-011  0.5052887E+02  0.7816164E-02  0.1300439E+00
        -11   -1    0    0    0    0  0.00000000000E+00  0.00000000000E+00  0.45593999997E+02  0.45594000000E+02  0.51100000000E-03 0.  1.
         11   -1    0    0    0    0 -0.00000000000E+00 -0.00000000000E+00 -0.45593999997E+02  0.45594000000E+02  0.51100000000E-03 0. -1.
    9900012    2    1    2    0    0  0.15691814156E+02  0.27792861869E+02  0.25189058295E+02  0.50528869904E+02  0.30000030560E+02 0.  0.
         12    1    1    2    0    0 -0.15691814156E+02 -0.27792861869E+02 -0.25189058295E+02  0.40659130096E+02  0.00000000000E+00 0. -1.
         11    1    3    3    0    0  0.54032230913E+01  0.70338579195E+01 -0.84035240702E-01  0.88700078461E+01  0.51100000000E-03 0. -1.
        -11    1    3    3    0    0 -0.49335404873E+00  0.21169193825E+02  0.11289472515E+02  0.23996465476E+02  0.51100000000E-03 0.  1.
        -12    1    3    3    0    0  0.10781945113E+02 -0.41018987518E+00  0.13983621020E+02  0.17662396582E+02  0.00000000000E+00 0.  1.
</event>
<event>
 7    1  0.1381607E-011  0.5052887E+02  0.7816164E-02  0.1300439E+00
        -11   -1    0    0    0    0  0.00000000000E+00  0.00000000000E+00  0.45593999997E+02  0.45594000000E+02  0.51100000000E-03 0.  1.
         11   -1    0    0    0    0 -0.00000000000E+00 -0.00000000000E+00 -0.45593999997E+02  0.45594000000E+02  0.51100000000E-03 0. -1.
    9900012    2    1    2    0    0 -0.56495763873E+01  0.35188945543E+02  0.19570017392E+02  0.50528865940E+02  0.30000018511E+02 0.  0.
         12    1    1    2    0    0  0.56495763873E+01 -0.35188945543E+02 -0.19570017392E+02  0.40659134060E+02  0.00000000000E+00 0. -1.
         11    1    3    3    0    0 -0.93544231297E+01  0.17032619920E+02  0.10521016451E+02  0.22097673200E+02  0.51100000000E-03 0. -1.
        -11    1    3    3    0    0  0.59269684790E+01  0.20990128030E+02  0.39139559112E+01  0.22159275286E+02  0.51100000000E-03 0.  1.
         12    1    3    3    0    0 -0.22221217366E+01 -0.28338024067E+01  0.51350450296E+01  0.62719174539E+01  0.00000000000E+00 0. -1.
</event>
<event>
 7    1  0.1381607E-011  0.5052888E+02  0.7816164E-02  0.1300439E+00
        -11   -1    0    0    0    0  0.00000000000E+00  0.00000000000E+00  0.45593999997E+02  0.45594000000E+02  0.51100000000E-03 0.  1.
         11   -1    0    0    0    0 -0.00000000000E+00 -0.00000000000E+00 -0.45593999997E+02  0.45594000000E+02  0.51100000000E-03 0. -1.
    9900012    2    1    2    0    0 -0.41626314325E+01  0.40146253391E+02 -0.49106962945E+01  0.50528879254E+02  0.30000058979E+02 0.  0.
         12    1    1    2    0    0  0.41626314325E+01 -0.40146253391E+02  0.49106962945E+01  0.40659120746E+02  0.00000000000E+00 0. -1.
         11    1    3    3    0    0  0.34025254551E+01  0.32809542248E+02 -0.11349487282E+02  0.34883435952E+02  0.51100000000E-03 0. -1.
        -11    1    3    3    0    0 -0.57730286177E+01  0.95350026895E+01  0.63048208969E+01  0.12806049450E+02  0.51100000000E-03 0.  1.
        -12    1    3    3    0    0 -0.17921282700E+01 -0.21982915464E+01  0.13397009059E+00  0.28393938516E+01  0.00000000000E+00 0.  1.
</event>
<event>
 7    1  0.1381607E-011  0.5052886E+02  0.7816164E-02  0.1300439E+00
        -11   -1    0    0    0    0  0.00000000000E+00  0.00000000000E+00  0.45593999997E+02  0.45594000000E+02  0.51100000000E-03 0.  1.
         11   -1    0    0    0    0 -0.00000000000E+00 -0.00000000000E+00 -0.45593999997E+02  0.45594000000E+02  0.51100000000E-03 0. -1.
    9900012    2    1    2    0    0  0.14166257261E+02 -0.35704966175E+01  0.37943827025E+02  0.50528864493E+02  0.30000014112E+02 0.  0.
         12    1    1    2    0    0 -0.14166257261E+02  0.35704966175E+01 -0.37943827025E+02  0.40659135507E+02  0.00000000000E+00 0. -1.
         11    1    3    3    0    0  0.43185319904E+01  0.82145663790E+01  0.61731941915E+01  0.11146171815E+02  0.51100000000E-03 0. -1.
        -11    1    3    3    0    0  0.27815602789E+01  0.31382980853E+00  0.22290646104E+02  0.22465717676E+02  0.51100000000E-03 0.  1.
        -12    1    3    3    0    0  0.70661649914E+01 -0.12098892805E+02  0.94799867301E+01  0.16916975001E+02  0.00000000000E+00 0.  1.
</event>
<event>
 7    1  0.1381607E-011  0.5052886E+02  0.7816164E-02  0.1300439E+00
        -11   -1    0    0    0    0  0.00000000000E+00  0.00000000000E+00  0.45593999997E+02  0.45594000000E+02  0.51100000000E-03 0.  1.
         11   -1    0    0    0    0 -0.00000000000E+00 -0.00000000000E+00 -0.45593999997E+02  0.45594000000E+02  0.51100000000E-03 0. -1.
    9900012    2    1    2    0    0 -0.68630412419E+01  0.28507343754E+02  0.28167279342E+02  0.50528860701E+02  0.30000002587E+02 0.  0.
         12    1    1    2    0    0  0.68630412419E+01 -0.28507343754E+02 -0.28167279342E+02  0.40659139299E+02  0.00000000000E+00 0. -1.
         11    1    3    3    0    0  0.38492536643E+01  0.82230497306E+01  0.12520277807E+01  0.91653082037E+01  0.51100000000E-03 0. -1.
        -11    1    3    3    0    0  0.53266546714E+01  0.39626263970E+01  0.12957791491E+02  0.14559533596E+02  0.51100000000E-03 0.  1.
         12    1    3    3    0    0 -0.16038949578E+02  0.16321667626E+02  0.13957460071E+02  0.26804018902E+02  0.00000000000E+00 0. -1.
</event>
<event>
 7    1  0.1381607E-011  0.5052886E+02  0.7816164E-02  0.1300439E+00
        -11   -1    0    0    0    0  0.00000000000E+00  0.00000000000E+00  0.45593999997E+02  0.45594000000E+02  0.51100000000E-03 0.  1.
         11   -1    0    0    0    0 -0.00000000000E+00 -0.00000000000E+00 -0.45593999997E+02  0.45594000000E+02  0.51100000000E-03 0. -1.
    9900012    2    1    2    0    0  0.15992867662E+02  0.29989775645E+02  0.22316071588E+02  0.50528861908E+02  0.30000006255E+02 0.  0.
         12    1    1    2    0    0 -0.15992867662E+02 -0.29989775645E+02 -0.22316071588E+02  0.40659138092E+02  0.00000000000E+00 0. -1.
         11    1    3    3    0    0  0.70717212158E+01  0.25551533994E+01 -0.91863218619E+00  0.75750864816E+01  0.51100000000E-03 0. -1.
        -11    1    3    3    0    0  0.12875221864E+02  0.12199316388E+02  0.41503783542E+01  0.18215935307E+02  0.51100000000E-03 0.  1.
         12    1    3    3    0    0 -0.39540754181E+01  0.15235305858E+02  0.19084325420E+02  0.24737840119E+02  0.00000000000E+00 0. -1.
</event>
<event>
 7    1  0.1381607E-011  0.5052886E+02  0.7816164E-02  0.1300439E+00
        -11   -1    0    0    0    0  0.00000000000E+00  0.00000000000E+00  0.45593999997E+02  0.45594000000E+02  0.51100000000E-03 0.  1.
         11   -1    0    0    0    0 -0.00000000000E+00 -0.00000000000E+00 -0.45593999997E+02  0.45594000000E+02  0.51100000000E-03 0. -1.
    9900012    2    1    2    0    0 -0.11871552185E+02  0.32642247361E+01  0.38750181931E+02  0.50528861863E+02  0.30000006118E+02 0.  0.
         12    1    1    2    0    0  0.11871552185E+02 -0.32642247361E+01 -0.38750181931E+02  0.40659138137E+02  0.00000000000E+00 0. -1.
         11    1    3    3    0    0 -0.81940116456E+01 -0.20065186303E+01  0.78180389968E+00  0.84722583448E+01  0.51100000000E-03 0. -1.
        -11    1    3    3    0    0  0.20704823045E+01 -0.55001587777E+01  0.12626385329E+02  0.13927104879E+02  0.51100000000E-03 0.  1.
        -12    1    3    3    0    0 -0.57480228437E+01  0.10770902144E+02  0.25341992702E+02  0.28129498639E+02  0.00000000000E+00 0.  1.
</event>
<event>
 7    1  0.1381607E-011  0.5052885E+02  0.7816164E-02  0.1300439E+00
        -11   -1    0    0    0    0  0.00000000000E+00  0.00000000000E+00  0.45593999997E+02  0.45594000000E+02  0.51100000000E-03 0.  1.
         11   -1    0    0    0    0 -0.00000000000E+00 -0.00000000000E+00 -0.45593999997E+02  0.45594000000E+02  0.51100000000E-03 0. -1.
    9900012    2    1    2    0    0  0.58703374999E+01 -0.31949870725E+02 -0.24452218612E+02  0.50528854697E+02  0.29999984337E+02 0.  0.
         12    1    1    2    0    0 -0.58703374999E+01  0.31949870725E+02  0.24452218612E+02  0.40659145303E+02  0.00000000000E+00 0. -1.
         11    1    3    3    0    0 -0.47354874760E+01 -0.10399876334E+02 -0.18072069885E+02  0.21381814226E+02  0.51100000000E-03 0. -1.
        -11    1    3    3    0    0 -0.32525161989E+01 -0.76797045252E+01  0.53252686861E+00  0.83570514145E+01  0.51100000000E-03 0.  1.
         12    1    3    3    0    0  0.13858341175E+02 -0.13870289866E+02 -0.69126755961E+01  0.20789989057E+02  0.00000000000E+00 0. -1.
</event>
<event>
 7    1  0.1381607E-011  0.5052889E+02  0.7816164E-02  0.1300439E+00
        -11   -1    0    0    0    0  0.00000000000E+00  0.00000000000E+00  0.45593999997E+02  0.45594000000E+02  0.51100000000E-03 0. -1.
         11   -1    0    0    0    0 -0.00000000000E+00 -0.00000000000E+00 -0.45593999997E+02  0.45594000000E+02  0.51100000000E-03 0.  1.
    9900012    2    1    2    0    0 -0.56182832522E+01 -0.20742647140E+02 -0.34515801743E+02  0.50528891708E+02  0.30000096836E+02 0.  0.
         12    1    1    2    0    0  0.56182832522E+01  0.20742647140E+02  0.34515801743E+02  0.40659108292E+02  0.00000000000E+00 0. -1.
         11    1    3    3    0    0 -0.10107453061E+01  0.19015376977E+01  0.16758017908E+01  0.27286926527E+01  0.51100000000E-03 0. -1.
        -11    1    3    3    0    0  0.27070501831E+01 -0.23196739830E+02 -0.31004004019E+02  0.38815784481E+02  0.51100000000E-03 0.  1.
         12    1    3    3    0    0 -0.73145881292E+01  0.55255499146E+00 -0.51875995154E+01  0.89844145747E+01  0.00000000000E+00 0. -1.
</event>
<event>
 7    1  0.1381607E-011  0.5052889E+02  0.7816164E-02  0.1300439E+00
        -11   -1    0    0    0    0  0.00000000000E+00  0.00000000000E+00  0.45593999997E+02  0.45594000000E+02  0.51100000000E-03 0. -1.
         11   -1    0    0    0    0 -0.00000000000E+00 -0.00000000000E+00 -0.45593999997E+02  0.45594000000E+02  0.51100000000E-03 0.  1.
    9900012    2    1    2    0    0 -0.47787279958E+01 -0.79663999095E+01 -0.39583626134E+02  0.50528889991E+02  0.30000091618E+02 0.  0.
         12    1    1    2    0    0  0.47787279958E+01  0.79663999095E+01  0.39583626134E+02  0.40659110009E+02  0.00000000000E+00 0. -1.
         11    1    3    3    0    0  0.61249947897E+01  0.45920404223E+01 -0.11437088891E+02  0.13762608727E+02  0.51100000000E-03 0. -1.
        -11    1    3    3    0    0 -0.90778545171E+01 -0.29990379820E+01 -0.24626316122E+02  0.26416985396E+02  0.51100000000E-03 0.  1.
        -12    1    3    3    0    0 -0.18258682684E+01 -0.95594023498E+01 -0.35202211217E+01  0.10349295868E+02  0.00000000000E+00 0.  1.
</event>
<event>
 7    1  0.1381607E-011  0.5052885E+02  0.7816164E-02  0.1300439E+00
        -11   -1    0    0    0    0  0.00000000000E+00  0.00000000000E+00  0.45593999997E+02  0.45594000000E+02  0.51100000000E-03 0. -1.
         11   -1    0    0    0    0 -0.00000000000E+00 -0.00000000000E+00 -0.45593999997E+02  0.45594000000E+02  0.51100000000E-03 0.  1.
    9900012    2    1    2    0    0  0.26502381206E+01 -0.51436540446E+01 -0.40245321624E+02  0.50528845414E+02  0.29999956121E+02 0.  0.
         12    1    1    2    0    0 -0.26502381206E+01  0.51436540446E+01  0.40245321624E+02  0.40659154586E+02  0.00000000000E+00 0. -1.
         11    1    3    3    0    0  0.45997621065E+01 -0.14249143756E+02 -0.28177365164E+02  0.31908616658E+02  0.51100000000E-03 0. -1.
        -11    1    3    3    0    0  0.31770678453E+01  0.38926659766E+01 -0.97187116215E+01  0.10940747888E+02  0.51100000000E-03 0.  1.
        -12    1    3    3    0    0 -0.51265918312E+01  0.52128237349E+01 -0.23492448387E+01  0.76794808684E+01  0.00000000000E+00 0.  1.
</event>
<event>
 7    1  0.1381607E-011  0.5052890E+02  0.7816164E-02  0.1300439E+00
        -11   -1    0    0    0    0  0.00000000000E+00  0.00000000000E+00  0.45593999997E+02  0.45594000000E+02  0.51100000000E-03 0.  1.
         11   -1    0    0    0    0 -0.00000000000E+00 -0.00000000000E+00 -0.45593999997E+02  0.45594000000E+02  0.51100000000E-03 0. -1.
    9900012    2    1    2    0    0  0.12624953670E+02  0.37763294524E+02  0.82284222126E+01  0.50528895231E+02  0.30000107544E+02 0.  0.
         12    1    1    2    0    0 -0.12624953670E+02 -0.37763294524E+02 -0.82284222126E+01  0.40659104769E+02  0.00000000000E+00 0. -1.
         11    1    3    3    0    0  0.89261204612E+01  0.10999632309E+02  0.44130402266E+01  0.14837198581E+02  0.51100000000E-03 0. -1.
        -11    1    3    3    0    0  0.89850141666E+01  0.33136581256E+01  0.63946081112E+01  0.11515286488E+02  0.51100000000E-03 0.  1.
         12    1    3    3    0    0 -0.52861809576E+01  0.23450004090E+02 -0.25792261253E+01  0.24176410162E+02  0.00000000000E+00 0. -1.
</event>
<event>
 7    1  0.1381607E-011  0.5052876E+02  0.7816164E-02  0.1300439E+00
        -11   -1    0    0    0    0  0.00000000000E+00  0.00000000000E+00  0.45593999997E+02  0.45594000000E+02  0.51100000000E-03 0.  1.
         11   -1    0    0    0    0 -0.00000000000E+00 -0.00000000000E+00 -0.45593999997E+02  0.45594000000E+02  0.51100000000E-03 0. -1.
    9900012    2    1    2    0    0 -0.26949730027E+02  0.29298353206E+02  0.82759969640E+01  0.50528762736E+02  0.29999704811E+02 0.  0.
         12    1    1    2    0    0  0.26949730027E+02 -0.29298353206E+02 -0.82759969640E+01  0.40659237264E+02  0.00000000000E+00 0. -1.
         11    1    3    3    0    0 -0.49499526685E+01  0.22758494246E+02 -0.47273297575E+01  0.23765494707E+02  0.51100000000E-03 0. -1.
        -11    1    3    3    0    0 -0.45817463201E+01  0.33610738670E+01  0.33707656031E+01  0.66069113733E+01  0.51100000000E-03 0.  1.
         12    1    3    3    0    0 -0.17418031039E+02  0.31787850933E+01  0.96325611183E+01  0.20156356656E+02  0.00000000000E+00 0. -1.
</event>
<event>
 7    1  0.1381607E-011  0.5052886E+02  0.7816164E-02  0.1300439E+00
        -11   -1    0    0    0    0  0.00000000000E+00  0.00000000000E+00  0.45593999997E+02  0.45594000000E+02  0.51100000000E-03 0.  1.
         11   -1    0    0    0    0 -0.00000000000E+00 -0.00000000000E+00 -0.45593999997E+02  0.45594000000E+02  0.51100000000E-03 0. -1.
    9900012    2    1    2    0    0  0.12404738726E+02  0.79772342736E+01  0.37889997617E+02  0.50528859220E+02  0.29999998085E+02 0.  0.
         12    1    1    2    0    0 -0.12404738726E+02 -0.79772342736E+01 -0.37889997617E+02  0.40659140780E+02  0.00000000000E+00 0. -1.
         11    1    3    3    0    0  0.75581144125E+01  0.14086678825E+02  0.14354510756E+02  0.21485148198E+02  0.51100000000E-03 0. -1.
        -11    1    3    3    0    0  0.13121636999E+00  0.47828008212E+01  0.42559431645E+01  0.64035501022E+01  0.51100000000E-03 0.  1.
         12    1    3    3    0    0  0.47154079436E+01 -0.10892245372E+02  0.19279543697E+02  0.22640160920E+02  0.00000000000E+00 0. -1.
</event>
<event>
 7    1  0.1381607E-011  0.5052887E+02  0.7816164E-02  0.1300439E+00
        -11   -1    0    0    0    0  0.00000000000E+00  0.00000000000E+00  0.45593999997E+02  0.45594000000E+02  0.51100000000E-03 0. -1.
         11   -1    0    0    0    0 -0.00000000000E+00 -0.00000000000E+00 -0.45593999997E+02  0.45594000000E+02  0.51100000000E-03 0.  1.
    9900012    2    1    2    0    0  0.16935322949E+01  0.34077729004E+02 -0.22113463594E+02  0.50528868949E+02  0.30000027657E+02 0.  0.
         12    1    1    2    0    0 -0.16935322949E+01 -0.34077729004E+02  0.22113463594E+02  0.40659131051E+02  0.00000000000E+00 0. -1.
         11    1    3    3    0    0  0.56126213788E+01  0.48683031342E+01 -0.12699215147E+02  0.14712986093E+02  0.51100000000E-03 0. -1.
        -11    1    3    3    0    0 -0.18139642217E+01 -0.90480864578E+00 -0.48867842438E+01  0.52905392343E+01  0.51100000000E-03 0.  1.
         12    1    3    3    0    0 -0.21051248622E+01  0.30114234515E+02 -0.45274642033E+01  0.30525343622E+02  0.00000000000E+00 0. -1.
</event>
<event>
 7    1  0.1381607E-011  0.5052886E+02  0.7816164E-02  0.1300439E+00
        -11   -1    0    0    0    0  0.00000000000E+00  0.00000000000E+00  0.45593999997E+02  0.45594000000E+02  0.51100000000E-03 0.  1.
         11   -1    0    0    0    0 -0.00000000000E+00 -0.00000000000E+00 -0.45593999997E+02  0.45594000000E+02  0.51100000000E-03 0. -1.
    9900012    2    1    2    0    0 -0.43587957251E+01  0.85418413166E+01  0.39512069888E+02  0.50528858100E+02  0.29999994680E+02 0.  0.
         12    1    1    2    0    0  0.43587957251E+01 -0.85418413166E+01 -0.39512069888E+02  0.40659141900E+02  0.00000000000E+00 0. -1.
         11    1    3    3    0    0  0.22222310267E+01  0.81216820519E+01  0.17660357350E+02  0.19564975136E+02  0.51100000000E-03 0. -1.
        -11    1    3    3    0    0 -0.11984587806E+02  0.63585620329E+01  0.11006455417E+02  0.17470080627E+02  0.51100000000E-03 0.  1.
         12    1    3    3    0    0  0.54035610537E+01 -0.59384027682E+01  0.10845257120E+02  0.13493802337E+02  0.00000000000E+00 0. -1.
</event>
<event>
 7    1  0.1381607E-011  0.5052883E+02  0.7816164E-02  0.1300439E+00
        -11   -1    0    0    0    0  0.00000000000E+00  0.00000000000E+00  0.45593999997E+02  0.45594000000E+02  0.51100000000E-03 0.  1.
         11   -1    0    0    0    0 -0.00000000000E+00 -0.00000000000E+00 -0.45593999997E+02  0.45594000000E+02  0.51100000000E-03 0. -1.
    9900012    2    1    2    0    0 -0.35910312532E+02 -0.15137395172E+02 -0.11596416157E+02  0.50528829492E+02  0.29999907722E+02 0.  0.
         12    1    1    2    0    0  0.35910312532E+02  0.15137395172E+02  0.11596416157E+02  0.40659170508E+02  0.00000000000E+00 0. -1.
         11    1    3    3    0    0 -0.35245469287E+01 -0.16243201998E+01 -0.66890607720E+01  0.77333292595E+01  0.51100000000E-03 0. -1.
        -11    1    3    3    0    0 -0.18431206801E+02 -0.15732502443E+02 -0.11937339916E+02  0.27013350436E+02  0.51100000000E-03 0.  1.
        -12    1    3    3    0    0 -0.13954558803E+02  0.22194274702E+01  0.70299845314E+01  0.15782149796E+02  0.00000000000E+00 0.  1.
</event>
<event>
 7    1  0.1381607E-011  0.5052887E+02  0.7816164E-02  0.1300439E+00
        -11   -1    0    0    0    0  0.00000000000E+00  0.00000000000E+00  0.45593999997E+02  0.45594000000E+02  0.51100000000E-03 0.  1.
         11   -1    0    0    0    0 -0.00000000000E+00 -0.00000000000E+00 -0.45593999997E+02  0.45594000000E+02  0.51100000000E-03 0. -1.
    9900012    2    1    2    0    0  0.46721540905E+01  0.23721934318E+02  0.32689534222E+02  0.50528870161E+02  0.30000031341E+02 0.  0.
         12    1    1    2    0    0 -0.46721540905E+01 -0.23721934318E+02 -0.32689534222E+02  0.40659129839E+02  0.00000000000E+00 0. -1.
         11    1    3    3    0    0 -0.48691960137E+01  0.14355754240E+02  0.10358908382E+02  0.18360384875E+02  0.51100000000E-03 0. -1.
        -11    1    3    3    0    0  0.66785507520E+01  0.14105265487E+02  0.96939502232E+01  0.18372104555E+02  0.51100000000E-03 0.  1.
        -12    1    3    3    0    0  0.28627993522E+01 -0.47390854085E+01  0.12636675617E+02  0.13796380731E+02  0.00000000000E+00 0.  1.
</event>
<event>
 7    1  0.1381607E-011  0.5052886E+02  0.7816164E-02  0.1300439E+00
        -11   -1    0    0    0    0  0.00000000000E+00  0.00000000000E+00  0.45593999997E+02  0.45594000000E+02  0.51100000000E-03 0.  1.
         11   -1    0    0    0    0 -0.00000000000E+00 -0.00000000000E+00 -0.45593999997E+02  0.45594000000E+02  0.51100000000E-03 0. -1.
    9900012    2    1    2    0    0  0.97517687531E+01  0.66552112427E+01  0.38907280729E+02  0.50528864198E+02  0.30000013215E+02 0.  0.
         12    1    1    2    0    0 -0.97517687531E+01 -0.66552112427E+01 -0.38907280729E+02  0.40659135802E+02  0.00000000000E+00 0. -1.
         11    1    3    3    0    0  0.77027777260E+00 -0.39262653114E+01  0.16444669472E+01  0.43258708885E+01  0.51100000000E-03 0. -1.
        -11    1    3    3    0    0  0.57979152339E+01  0.79903384815E+01  0.12431706286E+01  0.99502162580E+01  0.51100000000E-03 0.  1.
        -12    1    3    3    0    0  0.31835757466E+01  0.25911380726E+01  0.36019643153E+02  0.36252777051E+02  0.00000000000E+00 0.  1.
</event>
<event>
 7    1  0.1381607E-011  0.5052886E+02  0.7816164E-02  0.1300439E+00
        -11   -1    0    0    0    0  0.00000000000E+00  0.00000000000E+00  0.45593999997E+02  0.45594000000E+02  0.51100000000E-03 0.  1.
         11   -1    0    0    0    0 -0.00000000000E+00 -0.00000000000E+00 -0.45593999997E+02  0.45594000000E+02  0.51100000000E-03 0. -1.
    9900012    2    1    2    0    0 -0.17998123062E+02  0.33274157639E+02  0.14901797680E+02  0.50528861120E+02  0.30000003861E+02 0.  0.
         12    1    1    2    0    0  0.17998123062E+02 -0.33274157639E+02 -0.14901797680E+02  0.40659138880E+02  0.00000000000E+00 0. -1.
         11    1    3    3    0    0 -0.17899268992E+02  0.13867054886E+02  0.10994696739E+02  0.25170665433E+02  0.51100000000E-03 0. -1.
        -11    1    3    3    0    0 -0.59817846246E+01  0.14080576787E+02 -0.20497994708E+01  0.15435221673E+02  0.51100000000E-03 0.  1.
         12    1    3    3    0    0  0.58829305550E+01  0.53265259658E+01  0.59569004113E+01  0.99229740143E+01  0.00000000000E+00 0. -1.
</event>
<event>
 7    1  0.1381607E-011  0.5052882E+02  0.7816164E-02  0.1300439E+00
        -11   -1    0    0    0    0  0.00000000000E+00  0.00000000000E+00  0.45593999997E+02  0.45594000000E+02  0.51100000000E-03 0. -1.
         11   -1    0    0    0    0 -0.00000000000E+00 -0.00000000000E+00 -0.45593999997E+02  0.45594000000E+02  0.51100000000E-03 0.  1.
    9900012    2    1    2    0    0 -0.19657310608E+02  0.35372355007E+02  0.39440696592E+01  0.50528818447E+02  0.29999874151E+02 0.  0.
         12    1    1    2    0    0  0.19657310608E+02 -0.35372355007E+02 -0.39440696592E+01  0.40659181553E+02  0.00000000000E+00 0. -1.
         11    1    3    3    0    0 -0.10243593722E+02  0.55103596378E+01 -0.12344479406E+01  0.11696971303E+02  0.51100000000E-03 0. -1.
        -11    1    3    3    0    0 -0.12113107009E+02  0.24997307128E+02 -0.40348180193E+01  0.28069066279E+02  0.51100000000E-03 0.  1.
         12    1    3    3    0    0  0.26993901232E+01  0.48646882416E+01  0.92133356191E+01  0.10762780865E+02  0.00000000000E+00 0. -1.
</event>
<event>
 7    1  0.1381607E-011  0.5052887E+02  0.7816164E-02  0.1300439E+00
        -11   -1    0    0    0    0  0.00000000000E+00  0.00000000000E+00  0.45593999997E+02  0.45594000000E+02  0.51100000000E-03 0.  1.
         11   -1    0    0    0    0 -0.00000000000E+00 -0.00000000000E+00 -0.45593999997E+02  0.45594000000E+02  0.51100000000E-03 0. -1.
    9900012    2    1    2    0    0  0.72358822384E+01  0.39395585198E+02  0.69853507567E+01  0.50528865109E+02  0.30000015986E+02 0.  0.
         12    1    1    2    0    0 -0.72358822384E+01 -0.39395585198E+02 -0.69853507567E+01  0.40659134891E+02  0.00000000000E+00 0. -1.
         11    1    3    3    0    0 -0.44422509891E+01 -0.83300078160E+00  0.42265624793E+01  0.61879976410E+01  0.51100000000E-03 0. -1.
        -11    1    3    3    0    0  0.15127578423E+01  0.34956875543E+01 -0.41206898576E+01  0.56114483808E+01  0.51100000000E-03 0.  1.
        -12    1    3    3    0    0  0.10165375385E+02  0.36732898425E+02  0.68794781351E+01  0.38729419088E+02  0.00000000000E+00 0.  1.
</event>
<event>
 7    1  0.1381607E-011  0.5052886E+02  0.7816164E-02  0.1300439E+00
        -11   -1    0    0    0    0  0.00000000000E+00  0.00000000000E+00  0.45593999997E+02  0.45594000000E+02  0.51100000000E-03 0. -1.
         11   -1    0    0    0    0 -0.00000000000E+00 -0.00000000000E+00 -0.45593999997E+02  0.45594000000E+02  0.51100000000E-03 0.  1.
    9900012    2    1    2    0    0  0.34877549593E+02  0.17478513813E+02 -0.11455291507E+02  0.50528860631E+02  0.30000002375E+02 0.  0.
         12    1    1    2    0    0 -0.34877549593E+02 -0.17478513813E+02  0.11455291507E+02  0.40659139369E+02  0.00000000000E+00 0. -1.
         11    1    3    3    0    0  0.65524170046E+00 -0.30392721739E+01  0.25788915302E+01  0.40394552626E+01  0.51100000000E-03 0. -1.
        -11    1    3    3    0    0  0.27542607294E+02  0.57841867186E+01 -0.88924618076E+01  0.29514876077E+02  0.51100000000E-03 0.  1.
         12    1    3    3    0    0  0.66797005976E+01  0.14733599268E+02 -0.51417212296E+01  0.16974529292E+02  0.00000000000E+00 0. -1.
</event>
<event>
 7    1  0.1381607E-011  0.5052886E+02  0.7816164E-02  0.1300439E+00
        -11   -1    0    0    0    0  0.00000000000E+00  0.00000000000E+00  0.45593999997E+02  0.45594000000E+02  0.51100000000E-03 0.  1.
         11   -1    0    0    0    0 -0.00000000000E+00 -0.00000000000E+00 -0.45593999997E+02  0.45594000000E+02  0.51100000000E-03 0. -1.
    9900012    2    1    2    0    0 -0.85644363811E+00  0.29396536052E+02  0.28076249005E+02  0.50528860981E+02  0.30000003439E+02 0.  0.
         12    1    1    2    0    0  0.85644363811E+00 -0.29396536052E+02 -0.28076249005E+02  0.40659139019E+02  0.00000000000E+00 0. -1.
         11    1    3    3    0    0  0.64257730099E+01  0.57479621188E+01  0.53726917222E+01  0.10158515831E+02  0.51100000000E-03 0. -1.
        -11    1    3    3    0    0 -0.20252580616E-01  0.25501089286E+02  0.19980709668E+02  0.32396523333E+02  0.51100000000E-03 0.  1.
         12    1    3    3    0    0 -0.72619640674E+01 -0.18525153526E+01  0.27228476143E+01  0.79738218175E+01  0.00000000000E+00 0. -1.
</event>
<event>
 7    1  0.1381607E-011  0.5052886E+02  0.7816164E-02  0.1300439E+00
        -11   -1    0    0    0    0  0.00000000000E+00  0.00000000000E+00  0.45593999997E+02  0.45594000000E+02  0.51100000000E-03 0. -1.
         11   -1    0    0    0    0 -0.00000000000E+00 -0.00000000000E+00 -0.45593999997E+02  0.45594000000E+02  0.51100000000E-03 0.  1.
    9900012    2    1    2    0    0  0.22252048973E+02 -0.22205815011E+02 -0.25785921761E+02  0.50528860008E+02  0.30000000480E+02 0.  0.
         12    1    1    2    0    0 -0.22252048973E+02  0.22205815011E+02  0.25785921761E+02  0.40659139992E+02  0.00000000000E+00 0. -1.
         11    1    3    3    0    0  0.20075619123E+01 -0.34653520875E+01  0.22941409451E+01  0.46154147006E+01  0.51100000000E-03 0. -1.
        -11    1    3    3    0    0  0.90917195908E+00  0.37623373685E+01 -0.11041427415E+02  0.11700209218E+02  0.51100000000E-03 0.  1.
        -12    1    3    3    0    0  0.19335315102E+02 -0.22502800292E+02 -0.17038635291E+02  0.34213236089E+02  0.00000000000E+00 0.  1.
</event>
<event>
 7    1  0.1381607E-011  0.5052884E+02  0.7816164E-02  0.1300439E+00
        -11   -1    0    0    0    0  0.00000000000E+00  0.00000000000E+00  0.45593999997E+02  0.45594000000E+02  0.51100000000E-03 0.  1.
         11   -1    0    0    0    0 -0.00000000000E+00 -0.00000000000E+00 -0.45593999997E+02  0.45594000000E+02  0.51100000000E-03 0. -1.
    9900012    2    1    2    0    0 -0.69548434829E+01  0.39344591437E+02  0.75366235666E+01  0.50528838449E+02  0.29999934951E+02 0.  0.
         12    1    1    2    0    0  0.69548434829E+01 -0.39344591437E+02 -0.75366235666E+01  0.40659161551E+02  0.00000000000E+00 0. -1.
         11    1    3    3    0    0 -0.11950237422E+01  0.13790719474E+02 -0.40837054946E+01  0.14432209678E+02  0.51100000000E-03 0. -1.
        -11    1    3    3    0    0  0.41922072642E+00  0.17992678351E+02 -0.32678714383E+01  0.18291834360E+02  0.51100000000E-03 0.  1.
        -12    1    3    3    0    0 -0.61790404671E+01  0.75611936121E+01  0.14888200499E+02  0.17804794412E+02  0.00000000000E+00 0.  1.
</event>
<event>
 7    1  0.1381607E-011  0.5052884E+02  0.7816164E-02  0.1300439E+00
        -11   -1    0    0    0    0  0.00000000000E+00  0.00000000000E+00  0.45593999997E+02  0.45594000000E+02  0.51100000000E-03 0. -1.
         11   -1    0    0    0    0 -0.00000000000E+00 -0.00000000000E+00 -0.45593999997E+02  0.45594000000E+02  0.51100000000E-03 0.  1.
    9900012    2    1    2    0    0  0.71973411554E+01  0.23982127628E+02 -0.32034722336E+02  0.50528836206E+02  0.29999928132E+02 0.  0.
         12    1    1    2    0    0 -0.71973411554E+01 -0.23982127628E+02  0.32034722336E+02  0.40659163794E+02  0.00000000000E+00 0. -1.
         11    1    3    3    0    0 -0.25556449266E+01 -0.36028461190E+01 -0.12988087457E+02  0.13718682050E+02  0.51100000000E-03 0. -1.
        -11    1    3    3    0    0 -0.15621140081E+01  0.10393642390E+02 -0.37198922078E+01  0.11149242153E+02  0.51100000000E-03 0.  1.
        -12    1    3    3    0    0  0.11315100090E+02  0.17191331357E+02 -0.15326742672E+02  0.25660912003E+02  0.00000000000E+00 0.  1.
</event>
<event>
 7    1  0.1381607E-011  0.5052888E+02  0.7816164E-02  0.1300439E+00
        -11   -1    0    0    0    0  0.00000000000E+00  0.00000000000E+00  0.45593999997E+02  0.45594000000E+02  0.51100000000E-03 0.  1.
         11   -1    0    0    0    0 -0.00000000000E+00 -0.00000000000E+00 -0.45593999997E+02  0.45594000000E+02  0.51100000000E-03 0. -1.
    9900012    2    1    2    0    0 -0.63536206802E+01  0.31862022309E+02  0.24445997777E+02  0.50528883326E+02  0.30000071358E+02 0.  0.
         12    1    1    2    0    0  0.63536206802E+01 -0.31862022309E+02 -0.24445997777E+02  0.40659116674E+02  0.00000000000E+00 0. -1.
         11    1    3    3    0    0  0.15001743269E+01  0.24185888040E+02  0.64326217978E+01  0.25071623935E+02  0.51100000000E-03 0. -1.
        -11    1    3    3    0    0 -0.81579621406E+01  0.45119323959E+01  0.25422823638E+01  0.96629747030E+01  0.51100000000E-03 0.  1.
         12    1    3    3    0    0  0.30416713341E+00  0.31642018734E+01  0.15471093615E+02  0.15794284688E+02  0.00000000000E+00 0. -1.
</event>
<event>
 7    1  0.1381607E-011  0.5052886E+02  0.7816164E-02  0.1300439E+00
        -11   -1    0    0    0    0  0.00000000000E+00  0.00000000000E+00  0.45593999997E+02  0.45594000000E+02  0.51100000000E-03 0.  1.
         11   -1    0    0    0    0 -0.00000000000E+00 -0.00000000000E+00 -0.45593999997E+02  0.45594000000E+02  0.51100000000E-03 0. -1.
    9900012    2    1    2    0    0 -0.30832328338E+02 -0.14134657664E+02  0.22421967670E+02  0.50528860164E+02  0.30000000954E+02 0.  0.
         12    1    1    2    0    0  0.30832328338E+02  0.14134657664E+02 -0.22421967670E+02  0.40659139836E+02  0.00000000000E+00 0. -1.
         11    1    3    3    0    0 -0.12155287311E+02 -0.12356858819E+02  0.10918360737E+02  0.20485447785E+02  0.51100000000E-03 0. -1.
        -11    1    3    3    0    0 -0.14335503732E+02 -0.78347643635E+01 -0.13790659788E-03  0.16336774472E+02  0.51100000000E-03 0.  1.
         12    1    3    3    0    0 -0.43415372956E+01  0.60569655187E+01  0.11503744839E+02  0.13706637907E+02  0.00000000000E+00 0. -1.
</event>
<event>
 7    1  0.1381607E-011  0.5052886E+02  0.7816164E-02  0.1300439E+00
        -11   -1    0    0    0    0  0.00000000000E+00  0.00000000000E+00  0.45593999997E+02  0.45594000000E+02  0.51100000000E-03 0.  1.
         11   -1    0    0    0    0 -0.00000000000E+00 -0.00000000000E+00 -0.45593999997E+02  0.45594000000E+02  0.51100000000E-03 0. -1.
    9900012    2    1    2    0    0  0.15814505689E+02  0.33794542033E+02  0.16155381311E+02  0.50528855804E+02  0.29999987702E+02 0.  0.
         12    1    1    2    0    0 -0.15814505689E+02 -0.33794542033E+02 -0.16155381311E+02  0.40659144196E+02  0.00000000000E+00 0. -1.
         11    1    3    3    0    0 -0.46020191330E+01  0.17429040303E+02  0.30882336305E+01  0.18288991585E+02  0.51100000000E-03 0. -1.
        -11    1    3    3    0    0  0.52012497766E+01 -0.17798953803E+01  0.75184105681E+00  0.55485396312E+01  0.51100000000E-03 0.  1.
        -12    1    3    3    0    0  0.15215275046E+02  0.18145397110E+02  0.12315306624E+02  0.26691324588E+02  0.00000000000E+00 0.  1.
</event>
<event>
 7    1  0.1381607E-011  0.5052886E+02  0.7816164E-02  0.1300439E+00
        -11   -1    0    0    0    0  0.00000000000E+00  0.00000000000E+00  0.45593999997E+02  0.45594000000E+02  0.51100000000E-03 0.  1.
         11   -1    0    0    0    0 -0.00000000000E+00 -0.00000000000E+00 -0.45593999997E+02  0.45594000000E+02  0.51100000000E-03 0. -1.
    9900012    2    1    2    0    0 -0.78402745916E+01 -0.15385437329E+02  0.36810113795E+02  0.50528855087E+02  0.29999985522E+02 0.  0.
         12    1    1    2    0    0  0.78402745916E+01  0.15385437329E+02 -0.36810113795E+02  0.40659144913E+02  0.00000000000E+00 0. -1.
         11    1    3    3    0    0 -0.73557632400E+01 -0.64011162119E+01  0.76473466488E+01  0.12392072169E+02  0.51100000000E-03 0. -1.
        -11    1    3    3    0    0  0.20165589345E+01  0.45110643559E+01 -0.96074572180E+00  0.50338101039E+01  0.51100000000E-03 0.  1.
         12    1    3    3    0    0 -0.25010702861E+01 -0.13495385473E+02  0.30123512868E+02  0.33102972814E+02  0.00000000000E+00 0. -1.
</event>
<event>
 7    1  0.1381607E-011  0.5052885E+02  0.7816164E-02  0.1300439E+00
        -11   -1    0    0    0    0  0.00000000000E+00  0.00000000000E+00  0.45593999997E+02  0.45594000000E+02  0.51100000000E-03 0. -1.
         11   -1    0    0    0    0 -0.00000000000E+00 -0.00000000000E+00 -0.45593999997E+02  0.45594000000E+02  0.51100000000E-03 0.  1.
    9900012    2    1    2    0    0  0.11242503054E+02 -0.31203265201E+02 -0.23518690508E+02  0.50528850509E+02  0.29999971607E+02 0.  0.
         12    1    1    2    0    0 -0.11242503054E+02  0.31203265201E+02  0.23518690508E+02  0.40659149491E+02  0.00000000000E+00 0. -1.
         11    1    3    3    0    0  0.15691404788E+02 -0.17447660619E+02 -0.17529342052E+02  0.29290252275E+02  0.51100000000E-03 0. -1.
        -11    1    3    3    0    0 -0.43644986241E+01 -0.12895162309E+02 -0.10155075305E+02  0.16984098855E+02  0.51100000000E-03 0.  1.
        -12    1    3    3    0    0 -0.84403109470E-01 -0.86044227337E+00  0.41657268488E+01  0.42544993794E+01  0.00000000000E+00 0.  1.
</event>
<event>
 7    1  0.1381607E-011  0.5052886E+02  0.7816164E-02  0.1300439E+00
        -11   -1    0    0    0    0  0.00000000000E+00  0.00000000000E+00  0.45593999997E+02  0.45594000000E+02  0.51100000000E-03 0.  1.
         11   -1    0    0    0    0 -0.00000000000E+00 -0.00000000000E+00 -0.45593999997E+02  0.45594000000E+02  0.51100000000E-03 0. -1.
    9900012    2    1    2    0    0 -0.29954951451E+02 -0.27395434591E+02  0.23144390437E+01  0.50528861040E+02  0.30000003618E+02 0.  0.
         12    1    1    2    0    0  0.29954951451E+02  0.27395434591E+02 -0.23144390437E+01  0.40659138960E+02  0.00000000000E+00 0. -1.
         11    1    3    3    0    0 -0.11129039213E+02 -0.20327452309E+02  0.37925761481E+01  0.23482854709E+02  0.51100000000E-03 0. -1.
        -11    1    3    3    0    0 -0.19597406697E+01  0.20962222752E+01  0.58370394393E+01  0.65042878931E+01  0.51100000000E-03 0.  1.
         12    1    3    3    0    0 -0.16866171568E+02 -0.91642045578E+01 -0.73151765437E+01  0.20541718438E+02  0.00000000000E+00 0. -1.
</event>
<event>
 7    1  0.1381607E-011  0.5052886E+02  0.7816164E-02  0.1300439E+00
        -11   -1    0    0    0    0  0.00000000000E+00  0.00000000000E+00  0.45593999997E+02  0.45594000000E+02  0.51100000000E-03 0. -1.
         11   -1    0    0    0    0 -0.00000000000E+00 -0.00000000000E+00 -0.45593999997E+02  0.45594000000E+02  0.51100000000E-03 0.  1.
    9900012    2    1    2    0    0 -0.20374514986E+02 -0.35185437710E+02 -0.17177297120E+00  0.50528863343E+02  0.30000010616E+02 0.  0.
         12    1    1    2    0    0  0.20374514986E+02  0.35185437710E+02  0.17177297120E+00  0.40659136657E+02  0.00000000000E+00 0. -1.
         11    1    3    3    0    0  0.94719636615E+00  0.20681097156E+01  0.60716715785E+01  0.64837839855E+01  0.51100000000E-03 0. -1.
        -11    1    3    3    0    0 -0.34661250720E+01 -0.45854482845E+01 -0.34661106560E+01  0.67122486787E+01  0.51100000000E-03 0.  1.
         12    1    3    3    0    0 -0.17855586280E+02 -0.32668099141E+02 -0.27773338937E+01  0.37332830678E+02  0.00000000000E+00 0. -1.
</event>
<event>
 7    1  0.1381607E-011  0.5052885E+02  0.7816164E-02  0.1300439E+00
        -11   -1    0    0    0    0  0.00000000000E+00  0.00000000000E+00  0.45593999997E+02  0.45594000000E+02  0.51100000000E-03 0.  1.
         11   -1    0    0    0    0 -0.00000000000E+00 -0.00000000000E+00 -0.45593999997E+02  0.45594000000E+02  0.51100000000E-03 0. -1.
    9900012    2    1    2    0    0 -0.21146409701E+02 -0.12051530066E+00  0.34727240735E+02  0.50528850768E+02  0.29999972396E+02 0.  0.
         12    1    1    2    0    0  0.21146409701E+02  0.12051530066E+00 -0.34727240735E+02  0.40659149232E+02  0.00000000000E+00 0. -1.
         11    1    3    3    0    0 -0.18275926349E+02  0.19345503128E+01  0.92274932986E+01  0.20564498576E+02  0.51100000000E-03 0.  1.
        -11    1    3    3    0    0 -0.84798786857E+01  0.20014862718E+01  0.15872778939E+02  0.18106888228E+02  0.51100000000E-03 0. -1.
         12    1    3    3    0    0  0.56093953338E+01 -0.40565518853E+01  0.96269684976E+01  0.11857463964E+02  0.00000000000E+00 0. -1.
</event>
<event>
 7    1  0.1381607E-011  0.5052886E+02  0.7816164E-02  0.1300439E+00
        -11   -1    0    0    0    0  0.00000000000E+00  0.00000000000E+00  0.45593999997E+02  0.45594000000E+02  0.51100000000E-03 0. -1.
         11   -1    0    0    0    0 -0.00000000000E+00 -0.00000000000E+00 -0.45593999997E+02  0.45594000000E+02  0.51100000000E-03 0.  1.
    9900012    2    1    2    0    0 -0.20210175824E+02  0.35097272269E+02 -0.35910699394E+01  0.50528861902E+02  0.30000006238E+02 0.  0.
         12    1    1    2    0    0  0.20210175824E+02 -0.35097272269E+02  0.35910699394E+01  0.40659138098E+02  0.00000000000E+00 0. -1.
         11    1    3    3    0    0  0.21201299819E+01  0.17448825547E+02  0.72567607771E+01  0.19016230998E+02  0.51100000000E-03 0. -1.
        -11    1    3    3    0    0 -0.50787618227E+01  0.86991487348E+01 -0.48026484777E+01  0.11159500124E+02  0.51100000000E-03 0.  1.
        -12    1    3    3    0    0 -0.17251543983E+02  0.89492979864E+01 -0.60451822388E+01  0.20353130780E+02  0.00000000000E+00 0.  1.
</event>
<event>
 7    1  0.1381607E-011  0.5052886E+02  0.7816164E-02  0.1300439E+00
        -11   -1    0    0    0    0  0.00000000000E+00  0.00000000000E+00  0.45593999997E+02  0.45594000000E+02  0.51100000000E-03 0. -1.
         11   -1    0    0    0    0 -0.00000000000E+00 -0.00000000000E+00 -0.45593999997E+02  0.45594000000E+02  0.51100000000E-03 0.  1.
    9900012    2    1    2    0    0  0.60305002639E+01 -0.17740701599E+02 -0.36084156848E+02  0.50528858321E+02  0.29999995351E+02 0.  0.
         12    1    1    2    0    0 -0.60305002639E+01  0.17740701599E+02  0.36084156848E+02  0.40659141679E+02  0.00000000000E+00 0. -1.
         11    1    3    3    0    0 -0.25276748074E+01  0.22201237999E+01 -0.19367686444E+01  0.38819019388E+01  0.51100000000E-03 0. -1.
        -11    1    3    3    0    0  0.31332641240E+01 -0.13652233038E+02 -0.28913960204E+01  0.14302481680E+02  0.51100000000E-03 0.  1.
        -12    1    3    3    0    0  0.54249109472E+01 -0.63085923611E+01 -0.31255992183E+02  0.32344474702E+02  0.00000000000E+00 0.  1.
</event>
<event>
 7    1  0.1381607E-011  0.5052888E+02  0.7816164E-02  0.1300439E+00
        -11   -1    0    0    0    0  0.00000000000E+00  0.00000000000E+00  0.45593999997E+02  0.45594000000E+02  0.51100000000E-03 0.  1.
         11   -1    0    0    0    0 -0.00000000000E+00 -0.00000000000E+00 -0.45593999997E+02  0.45594000000E+02  0.51100000000E-03 0. -1.
    9900012    2    1    2    0    0  0.13329889433E+02  0.10467713017E+02  0.36958152735E+02  0.50528880215E+02  0.30000061902E+02 0.  0.
         12    1    1    2    0    0 -0.13329889433E+02 -0.10467713017E+02 -0.36958152735E+02  0.40659119785E+02  0.00000000000E+00 0. -1.
         11    1    3    3    0    0  0.12133861804E+02  0.93342946911E+01  0.79833804859E+01  0.17265399616E+02  0.51100000000E-03 0. -1.
        -11    1    3    3    0    0 -0.15913095334E+01 -0.35467216280E+01  0.10968759913E+00  0.38888985546E+01  0.51100000000E-03 0.  1.
         12    1    3    3    0    0  0.27873371622E+01  0.46801399543E+01  0.28865084650E+02  0.29374582044E+02  0.00000000000E+00 0. -1.
</event>
<event>
 7    1  0.1381607E-011  0.5052886E+02  0.7816164E-02  0.1300439E+00
        -11   -1    0    0    0    0  0.00000000000E+00  0.00000000000E+00  0.45593999997E+02  0.45594000000E+02  0.51100000000E-03 0.  1.
         11   -1    0    0    0    0 -0.00000000000E+00 -0.00000000000E+00 -0.45593999997E+02  0.45594000000E+02  0.51100000000E-03 0. -1.
    9900012    2    1    2    0    0 -0.34757950577E+01  0.24797806898E+02  0.32033626917E+02  0.50528860416E+02  0.30000001721E+02 0.  0.
         12    1    1    2    0    0  0.34757950577E+01 -0.24797806898E+02 -0.32033626917E+02  0.40659139584E+02  0.00000000000E+00 0. -1.
         11    1    3    3    0    0 -0.23748055378E+01  0.14824495535E+02  0.50062441751E+01  0.15826176108E+02  0.51100000000E-03 0. -1.
        -11    1    3    3    0    0 -0.62037819138E+01  0.12977652251E+02  0.24173241607E+02  0.28129201518E+02  0.51100000000E-03 0.  1.
         12    1    3    3    0    0  0.51027923939E+01 -0.30043408871E+01  0.28541411347E+01  0.65734827906E+01  0.00000000000E+00 0. -1.
</event>
<event>
 7    1  0.1381607E-011  0.5052886E+02  0.7816164E-02  0.1300439E+00
        -11   -1    0    0    0    0  0.00000000000E+00  0.00000000000E+00  0.45593999997E+02  0.45594000000E+02  0.51100000000E-03 0. -1.
         11   -1    0    0    0    0 -0.00000000000E+00 -0.00000000000E+00 -0.45593999997E+02  0.45594000000E+02  0.51100000000E-03 0.  1.
    9900012    2    1    2    0    0  0.14738152040E+01  0.31025051022E+02 -0.26238138747E+02  0.50528857768E+02  0.29999993672E+02 0.  0.
         12    1    1    2    0    0 -0.14738152040E+01 -0.31025051022E+02  0.26238138747E+02  0.40659142232E+02  0.00000000000E+00 0. -1.
         11    1    3    3    0    0  0.78927136160E+01  0.13410455602E+02 -0.66575075709E+01  0.16925059971E+02  0.51100000000E-03 0.  1.
        -11    1    3    3    0    0 -0.13021491001E+00 -0.32095302540E+01  0.12865992192E+01  0.34602569538E+01  0.51100000000E-03 0. -1.
        -12    1    3    3    0    0 -0.62886835020E+01  0.20824125673E+02 -0.20867230395E+02  0.30143540844E+02  0.00000000000E+00 0.  1.
</event>
<event>
 7    1  0.1381607E-011  0.5052887E+02  0.7816164E-02  0.1300439E+00
        -11   -1    0    0    0    0  0.00000000000E+00  0.00000000000E+00  0.45593999997E+02  0.45594000000E+02  0.51100000000E-03 0.  1.
         11   -1    0    0    0    0 -0.00000000000E+00 -0.00000000000E+00 -0.45593999997E+02  0.45594000000E+02  0.51100000000E-03 0. -1.
    9900012    2    1    2    0    0 -0.25977575859E+01 -0.47956745497E+01  0.40291664483E+02  0.50528867377E+02  0.30000022878E+02 0.  0.
         12    1    1    2    0    0  0.25977575859E+01  0.47956745497E+01 -0.40291664483E+02  0.40659132623E+02  0.00000000000E+00 0. -1.
         11    1    3    3    0    0  0.43879894112E+00  0.53264142346E+01  0.14062246141E+02  0.15043603288E+02  0.51100000000E-03 0. -1.
        -11    1    3    3    0    0  0.57542963210E+01 -0.66496318064E+01  0.24295018980E+02  0.25837520717E+02  0.51100000000E-03 0.  1.
         12    1    3    3    0    0 -0.87908528480E+01 -0.34724569780E+01  0.19343993619E+01  0.96477433709E+01  0.00000000000E+00 0. -1.
</event>
<event>
 7    1  0.1381607E-011  0.5052886E+02  0.7816164E-02  0.1300439E+00
        -11   -1    0    0    0    0  0.00000000000E+00  0.00000000000E+00  0.45593999997E+02  0.45594000000E+02  0.51100000000E-03 0.  1.
         11   -1    0    0    0    0 -0.00000000000E+00 -0.00000000000E+00 -0.45593999997E+02  0.45594000000E+02  0.51100000000E-03 0. -1.
    9900012    2    1    2    0    0 -0.36378158118E+02 -0.69014753515E+01  0.16797769819E+02  0.50528858088E+02  0.29999994645E+02 0.  0.
         12    1    1    2    0    0  0.36378158118E+02  0.69014753515E+01 -0.16797769819E+02  0.40659141912E+02  0.00000000000E+00 0. -1.
         11    1    3    3    0    0 -0.85334491374E+01 -0.19890594268E+01 -0.47899522307E+01  0.99859778799E+01  0.51100000000E-03 0. -1.
        -11    1    3    3    0    0 -0.17672382516E+02  0.63612063568E+01  0.90395062992E+01  0.20844441093E+02  0.51100000000E-03 0.  1.
        -12    1    3    3    0    0 -0.10172326465E+02 -0.11273622281E+02  0.12548215751E+02  0.19698439115E+02  0.00000000000E+00 0.  1.
</event>
<event>
 7    1  0.1381607E-011  0.5052886E+02  0.7816164E-02  0.1300439E+00
        -11   -1    0    0    0    0  0.00000000000E+00  0.00000000000E+00  0.45593999997E+02  0.45594000000E+02  0.51100000000E-03 0.  1.
         11   -1    0    0    0    0 -0.00000000000E+00 -0.00000000000E+00 -0.45593999997E+02  0.45594000000E+02  0.51100000000E-03 0. -1.
    9900012    2    1    2    0    0  0.30390262237E+02 -0.26886343787E+02 -0.25927393509E+01  0.50528858120E+02  0.29999994742E+02 0.  0.
         12    1    1    2    0    0 -0.30390262237E+02  0.26886343787E+02  0.25927393509E+01  0.40659141880E+02  0.00000000000E+00 0. -1.
         11    1    3    3    0    0  0.12866406347E+00 -0.34843913730E+01 -0.35817069383E+01  0.49986160619E+01  0.51100000000E-03 0. -1.
        -11    1    3    3    0    0  0.25300038800E+02 -0.26890202124E+02 -0.46944310385E+01  0.37218444575E+02  0.51100000000E-03 0.  1.
        -12    1    3    3    0    0  0.49615593738E+01  0.34882497104E+01  0.56833986259E+01  0.83117974832E+01  0.00000000000E+00 0.  1.
</event>
<event>
 7    1  0.1381607E-011  0.5052880E+02  0.7816164E-02  0.1300439E+00
        -11   -1    0    0    0    0  0.00000000000E+00  0.00000000000E+00  0.45593999997E+02  0.45594000000E+02  0.51100000000E-03 0.  1.
         11   -1    0    0    0    0 -0.00000000000E+00 -0.00000000000E+00 -0.45593999997E+02  0.45594000000E+02  0.51100000000E-03 0. -1.
    9900012    2    1    2    0    0 -0.40515305693E+01 -0.20774978323E+02  0.34715349941E+02  0.50528804905E+02  0.29999832989E+02 0.  0.
         12    1    1    2    0    0  0.40515305693E+01  0.20774978323E+02 -0.34715349941E+02  0.40659195095E+02  0.00000000000E+00 0. -1.
         11    1    3    3    0    0 -0.97368942653E+01 -0.45741537505E+01  0.40196025643E+01  0.11484215145E+02  0.51100000000E-03 0. -1.
        -11    1    3    3    0    0 -0.21077860050E+01 -0.13149826087E+02  0.97989983014E+01  0.16534238898E+02  0.51100000000E-03 0.  1.
        -12    1    3    3    0    0  0.77931497010E+01 -0.30509984853E+01  0.20896749075E+02  0.22510350862E+02  0.00000000000E+00 0.  1.
</event>
<event>
 7    1  0.1381607E-011  0.5052886E+02  0.7816164E-02  0.1300439E+00
        -11   -1    0    0    0    0  0.00000000000E+00  0.00000000000E+00  0.45593999997E+02  0.45594000000E+02  0.51100000000E-03 0.  1.
         11   -1    0    0    0    0 -0.00000000000E+00 -0.00000000000E+00 -0.45593999997E+02  0.45594000000E+02  0.51100000000E-03 0. -1.
    9900012    2    1    2    0    0 -0.12125183241E+02  0.90166230874E+01  0.37747136789E+02  0.50528857162E+02  0.29999991830E+02 0.  0.
         12    1    1    2    0    0  0.12125183241E+02 -0.90166230874E+01 -0.37747136789E+02  0.40659142838E+02  0.00000000000E+00 0. -1.
         11    1    3    3    0    0 -0.53458638054E+01  0.14234466472E+01 -0.13972301067E+01  0.57058489654E+01  0.51100000000E-03 0. -1.
        -11    1    3    3    0    0  0.19042638791E+01  0.86450620094E+01  0.63817717302E+01  0.10912851540E+02  0.51100000000E-03 0.  1.
         12    1    3    3    0    0 -0.86835833151E+01 -0.10518855692E+01  0.32762595166E+02  0.33910156656E+02  0.00000000000E+00 0. -1.
</event>
<event>
 7    1  0.1381607E-011  0.5052887E+02  0.7816164E-02  0.1300439E+00
        -11   -1    0    0    0    0  0.00000000000E+00  0.00000000000E+00  0.45593999997E+02  0.45594000000E+02  0.51100000000E-03 0.  1.
         11   -1    0    0    0    0 -0.00000000000E+00 -0.00000000000E+00 -0.45593999997E+02  0.45594000000E+02  0.51100000000E-03 0. -1.
    9900012    2    1    2    0    0 -0.65605589888E+01 -0.38815967817E+02  0.10170789886E+02  0.50528865003E+02  0.30000015662E+02 0.  0.
         12    1    1    2    0    0  0.65605589888E+01  0.38815967817E+02 -0.10170789886E+02  0.40659134997E+02  0.00000000000E+00 0. -1.
         11    1    3    3    0    0 -0.40114423247E+01 -0.12836023033E+02  0.11107420282E+01  0.13494032197E+02  0.51100000000E-03 0.  1.
        -11    1    3    3    0    0  0.30709253317E+01 -0.21019626492E+02  0.16174931982E+02  0.26699882119E+02  0.51100000000E-03 0. -1.
         12    1    3    3    0    0 -0.56200419958E+01 -0.49603182916E+01 -0.71148841242E+01  0.10334950686E+02  0.00000000000E+00 0. -1.
</event>
<event>
 7    1  0.1381607E-011  0.5052886E+02  0.7816164E-02  0.1300439E+00
        -11   -1    0    0    0    0  0.00000000000E+00  0.00000000000E+00  0.45593999997E+02  0.45594000000E+02  0.51100000000E-03 0.  1.
         11   -1    0    0    0    0 -0.00000000000E+00 -0.00000000000E+00 -0.45593999997E+02  0.45594000000E+02  0.51100000000E-03 0. -1.
    9900012    2    1    2    0    0  0.19280331646E+02 -0.35541146547E+02  0.42733321782E+01  0.50528860140E+02  0.30000000881E+02 0.  0.
         12    1    1    2    0    0 -0.19280331646E+02  0.35541146547E+02 -0.42733321782E+01  0.40659139860E+02  0.00000000000E+00 0. -1.
         11    1    3    3    0    0  0.10489732914E+02 -0.81892066365E+01  0.15411351135E+01  0.13396742128E+02  0.51100000000E-03 0. -1.
        -11    1    3    3    0    0  0.99670355886E+01 -0.30760437561E+02  0.52169970243E+01  0.32753066659E+02  0.51100000000E-03 0.  1.
         12    1    3    3    0    0 -0.11764368562E+01  0.34084976505E+01 -0.24847999597E+01  0.43790513527E+01  0.00000000000E+00 0. -1.
</event>
<event>
 7    1  0.1381607E-011  0.5052884E+02  0.7816164E-02  0.1300439E+00
        -11   -1    0    0    0    0  0.00000000000E+00  0.00000000000E+00  0.45593999997E+02  0.45594000000E+02  0.51100000000E-03 0.  1.
         11   -1    0    0    0    0 -0.00000000000E+00 -0.00000000000E+00 -0.45593999997E+02  0.45594000000E+02  0.51100000000E-03 0. -1.
    9900012    2    1    2    0    0  0.26058599252E+02  0.18123897506E+02  0.25409461107E+02  0.50528843965E+02  0.29999951716E+02 0.  0.
         12    1    1    2    0    0 -0.26058599252E+02 -0.18123897506E+02 -0.25409461107E+02  0.40659156035E+02  0.00000000000E+00 0. -1.
         11    1    3    3    0    0  0.11241357505E+02 -0.43898534370E+01  0.86073819540E+01  0.14823156078E+02  0.51100000000E-03 0. -1.
        -11    1    3    3    0    0  0.16153230851E+02  0.10180746539E+02  0.10534481619E+02  0.21807103665E+02  0.51100000000E-03 0.  1.
        -12    1    3    3    0    0 -0.13359891047E+01  0.12333004404E+02  0.62675975336E+01  0.13898584222E+02  0.00000000000E+00 0.  1.
</event>
<event>
 7    1  0.1381607E-011  0.5052886E+02  0.7816164E-02  0.1300439E+00
        -11   -1    0    0    0    0  0.00000000000E+00  0.00000000000E+00  0.45593999997E+02  0.45594000000E+02  0.51100000000E-03 0.  1.
         11   -1    0    0    0    0 -0.00000000000E+00 -0.00000000000E+00 -0.45593999997E+02  0.45594000000E+02  0.51100000000E-03 0. -1.
    9900012    2    1    2    0    0 -0.35537419663E+02 -0.11829213281E+02  0.15821721892E+02  0.50528863674E+02  0.30000011624E+02 0.  0.
         12    1    1    2    0    0  0.35537419663E+02  0.11829213281E+02 -0.15821721892E+02  0.40659136326E+02  0.00000000000E+00 0. -1.
         11    1    3    3    0    0 -0.21915324187E+02 -0.50234445788E+01  0.15972958816E+02  0.27579917390E+02  0.51100000000E-03 0. -1.
        -11    1    3    3    0    0 -0.93662927089E+01  0.45531402307E+01  0.20678292730E+01  0.10617647726E+02  0.51100000000E-03 0.  1.
         12    1    3    3    0    0 -0.42558027675E+01 -0.11358908933E+02 -0.22190661969E+01  0.12331298558E+02  0.00000000000E+00 0. -1.
</event>
<event>
 7    1  0.1381607E-011  0.5052888E+02  0.7816164E-02  0.1300439E+00
        -11   -1    0    0    0    0  0.00000000000E+00  0.00000000000E+00  0.45593999997E+02  0.45594000000E+02  0.51100000000E-03 0.  1.
         11   -1    0    0    0    0 -0.00000000000E+00 -0.00000000000E+00 -0.45593999997E+02  0.45594000000E+02  0.51100000000E-03 0. -1.
    9900012    2    1    2    0    0 -0.29429695181E+02 -0.15226877874E+02  0.23562671795E+02  0.50528877157E+02  0.30000052606E+02 0.  0.
         12    1    1    2    0    0  0.29429695181E+02  0.15226877874E+02 -0.23562671795E+02  0.40659122843E+02  0.00000000000E+00 0. -1.
         11    1    3    3    0    0  0.18250900970E+01  0.28354162308E+01 -0.20567316993E+01  0.39497701969E+01  0.51100000000E-03 0. -1.
        -11    1    3    3    0    0 -0.64608722022E+00 -0.59452081601E+01  0.40304319420E+01  0.72116094364E+01  0.51100000000E-03 0.  1.
        -12    1    3    3    0    0 -0.30608698058E+02 -0.12117085945E+02  0.21588971552E+02  0.39367497524E+02  0.00000000000E+00 0.  1.
</event>
<event>
 7    1  0.1381607E-011  0.5052886E+02  0.7816164E-02  0.1300439E+00
        -11   -1    0    0    0    0  0.00000000000E+00  0.00000000000E+00  0.45593999997E+02  0.45594000000E+02  0.51100000000E-03 0. -1.
         11   -1    0    0    0    0 -0.00000000000E+00 -0.00000000000E+00 -0.45593999997E+02  0.45594000000E+02  0.51100000000E-03 0.  1.
    9900012    2    1    2    0    0  0.36956541603E+01  0.40409664713E+02 -0.25625237392E+01  0.50528863390E+02  0.30000010761E+02 0.  0.
         12    1    1    2    0    0 -0.36956541603E+01 -0.40409664713E+02  0.25625237392E+01  0.40659136610E+02  0.00000000000E+00 0. -1.
         11    1    3    3    0    0  0.10124145910E+02  0.31632273902E+02 -0.40693371679E+01  0.33461299853E+02  0.51100000000E-03 0. -1.
        -11    1    3    3    0    0 -0.38785946456E+01  0.12088551216E+02  0.22982246813E+00  0.12697613380E+02  0.51100000000E-03 0.  1.
         12    1    3    3    0    0 -0.25498971046E+01 -0.33111604040E+01  0.12769909605E+01  0.43699501574E+01  0.00000000000E+00 0. -1.
</event>
<event>
 7    1  0.1381607E-011  0.5052885E+02  0.7816164E-02  0.1300439E+00
        -11   -1    0    0    0    0  0.00000000000E+00  0.00000000000E+00  0.45593999997E+02  0.45594000000E+02  0.51100000000E-03 0.  1.
         11   -1    0    0    0    0 -0.00000000000E+00 -0.00000000000E+00 -0.45593999997E+02  0.45594000000E+02  0.51100000000E-03 0. -1.
    9900012    2    1    2    0    0  0.27787606768E+02  0.28540990332E+02 -0.81502687741E+01  0.50528854656E+02  0.29999984213E+02 0.  0.
         12    1    1    2    0    0 -0.27787606768E+02 -0.28540990332E+02  0.81502687741E+01  0.40659145344E+02  0.00000000000E+00 0. -1.
         11    1    3    3    0    0  0.94788998856E+01  0.51935864728E+01 -0.12021992993E+02  0.16166360112E+02  0.51100000000E-03 0.  1.
        -11    1    3    3    0    0 -0.14408055332E+01 -0.17100577638E+01  0.36096651401E+00  0.22650640665E+01  0.51100000000E-03 0. -1.
        -12    1    3    3    0    0  0.19749512415E+02  0.25057461623E+02  0.35107577047E+01  0.32097430478E+02  0.00000000000E+00 0.  1.
</event>
<event>
 7    1  0.1381607E-011  0.5052885E+02  0.7816164E-02  0.1300439E+00
        -11   -1    0    0    0    0  0.00000000000E+00  0.00000000000E+00  0.45593999997E+02  0.45594000000E+02  0.51100000000E-03 0.  1.
         11   -1    0    0    0    0 -0.00000000000E+00 -0.00000000000E+00 -0.45593999997E+02  0.45594000000E+02  0.51100000000E-03 0. -1.
    9900012    2    1    2    0    0  0.84689039911E+00  0.37145210902E+02  0.16513092820E+02  0.50528854032E+02  0.29999982317E+02 0.  0.
         12    1    1    2    0    0 -0.84689039911E+00 -0.37145210902E+02 -0.16513092820E+02  0.40659145968E+02  0.00000000000E+00 0. -1.
         11    1    3    3    0    0  0.43856759809E+00 -0.24598949742E+01  0.15408646850E+01  0.29355900703E+01  0.51100000000E-03 0. -1.
        -11    1    3    3    0    0 -0.79986393645E+01  0.17026168907E+02  0.14055694692E+02  0.23482572535E+02  0.51100000000E-03 0.  1.
         12    1    3    3    0    0  0.84069621655E+01  0.22578936970E+02  0.91653344302E+00  0.24110691427E+02  0.00000000000E+00 0. -1.
</event>
<event>
 7    1  0.1381607E-011  0.5052880E+02  0.7816164E-02  0.1300439E+00
        -11   -1    0    0    0    0  0.00000000000E+00  0.00000000000E+00  0.45593999997E+02  0.45594000000E+02  0.51100000000E-03 0. -1.
         11   -1    0    0    0    0 -0.00000000000E+00 -0.00000000000E+00 -0.45593999997E+02  0.45594000000E+02  0.51100000000E-03 0.  1.
    9900012    2    1    2    0    0  0.81025194283E+01 -0.37619018191E+02 -0.13127417873E+02  0.50528801155E+02  0.29999821590E+02 0.  0.
         12    1    1    2    0    0 -0.81025194283E+01  0.37619018191E+02  0.13127417873E+02  0.40659198845E+02  0.00000000000E+00 0. -1.
         11    1    3    3    0    0 -0.74345379830E+01 -0.24541388422E+02 -0.39665485513E+01  0.25947747655E+02  0.51100000000E-03 0. -1.
        -11    1    3    3    0    0  0.40033417297E+01 -0.10141282652E+02 -0.46554699746E+01  0.11855199694E+02  0.51100000000E-03 0.  1.
         12    1    3    3    0    0  0.11533715682E+02 -0.29363471167E+01 -0.45053993474E+01  0.12725853806E+02  0.00000000000E+00 0. -1.
</event>
<event>
 7    1  0.1381607E-011  0.5052886E+02  0.7816164E-02  0.1300439E+00
        -11   -1    0    0    0    0  0.00000000000E+00  0.00000000000E+00  0.45593999997E+02  0.45594000000E+02  0.51100000000E-03 0. -1.
         11   -1    0    0    0    0 -0.00000000000E+00 -0.00000000000E+00 -0.45593999997E+02  0.45594000000E+02  0.51100000000E-03 0.  1.
    9900012    2    1    2    0    0  0.16867854938E+02 -0.23990223683E+02 -0.28162216015E+02  0.50528858673E+02  0.29999996422E+02 0.  0.
         12    1    1    2    0    0 -0.16867854938E+02  0.23990223683E+02  0.28162216015E+02  0.40659141327E+02  0.00000000000E+00 0. -1.
         11    1    3    3    0    0  0.64878505818E+01  0.25961026532E+01 -0.34720734552E+01  0.78030281620E+01  0.51100000000E-03 0. -1.
        -11    1    3    3    0    0  0.80158465152E+01  0.13985746183E+00 -0.63282503068E+01  0.10213721539E+02  0.51100000000E-03 0.  1.
        -12    1    3    3    0    0  0.23641578414E+01 -0.26726183798E+02 -0.18361892253E+02  0.32512108972E+02  0.00000000000E+00 0.  1.
</event>
<event>
 7    1  0.1381607E-011  0.5052886E+02  0.7816164E-02  0.1300439E+00
        -11   -1    0    0    0    0  0.00000000000E+00  0.00000000000E+00  0.45593999997E+02  0.45594000000E+02  0.51100000000E-03 0.  1.
         11   -1    0    0    0    0 -0.00000000000E+00 -0.00000000000E+00 -0.45593999997E+02  0.45594000000E+02  0.51100000000E-03 0. -1.
    9900012    2    1    2    0    0 -0.28077961000E+02 -0.21262028768E+02  0.20315506501E+02  0.50528861229E+02  0.30000004191E+02 0.  0.
         12    1    1    2    0    0  0.28077961000E+02  0.21262028768E+02 -0.20315506501E+02  0.40659138771E+02  0.00000000000E+00 0. -1.
         11    1    3    3    0    0 -0.27231308537E+01 -0.77460872865E+01 -0.58863787454E+01  0.10102809752E+02  0.51100000000E-03 0. -1.
        -11    1    3    3    0    0 -0.86724913238E+00  0.10270630847E+01  0.42787124852E+01  0.44849036143E+01  0.51100000000E-03 0.  1.
        -12    1    3    3    0    0 -0.24487581014E+02 -0.14543004566E+02  0.21923172761E+02  0.35941147862E+02  0.00000000000E+00 0.  1.
</event>
<event>
 7    1  0.1381607E-011  0.5052886E+02  0.7816164E-02  0.1300439E+00
        -11   -1    0    0    0    0  0.00000000000E+00  0.00000000000E+00  0.45593999997E+02  0.45594000000E+02  0.51100000000E-03 0. -1.
         11   -1    0    0    0    0 -0.00000000000E+00 -0.00000000000E+00 -0.45593999997E+02  0.45594000000E+02  0.51100000000E-03 0.  1.
    9900012    2    1    2    0    0  0.20975145208E+02 -0.11978557137E+02 -0.32706626386E+02  0.50528856415E+02  0.29999989559E+02 0.  0.
         12    1    1    2    0    0 -0.20975145208E+02  0.11978557137E+02  0.32706626386E+02  0.40659143585E+02  0.00000000000E+00 0. -1.
         11    1    3    3    0    0 -0.63427969906E+01 -0.23343311912E+01 -0.97013267725E+01  0.11823532348E+02  0.51100000000E-03 0. -1.
        -11    1    3    3    0    0  0.47886469018E+01 -0.44648504671E+01 -0.10629402063E+02  0.12483998451E+02  0.51100000000E-03 0.  1.
         12    1    3    3    0    0  0.22529295296E+02 -0.51793754782E+01 -0.12375897550E+02  0.26221325616E+02  0.00000000000E+00 0. -1.
</event>
<event>
 7    1  0.1381607E-011  0.5052886E+02  0.7816164E-02  0.1300439E+00
        -11   -1    0    0    0    0  0.00000000000E+00  0.00000000000E+00  0.45593999997E+02  0.45594000000E+02  0.51100000000E-03 0.  1.
         11   -1    0    0    0    0 -0.00000000000E+00 -0.00000000000E+00 -0.45593999997E+02  0.45594000000E+02  0.51100000000E-03 0. -1.
    9900012    2    1    2    0    0  0.74297150739E+00 -0.90981453364E+01  0.39621174826E+02  0.50528858964E+02  0.29999997306E+02 0.  0.
         12    1    1    2    0    0 -0.74297150739E+00  0.90981453364E+01 -0.39621174826E+02  0.40659141036E+02  0.00000000000E+00 0. -1.
         11    1    3    3    0    0  0.50750364349E+01 -0.13279960980E+01 -0.56664226764E+00  0.52764241843E+01  0.51100000000E-03 0. -1.
        -11    1    3    3    0    0 -0.37072652287E+01  0.59761928280E+01  0.12976717518E+02  0.14759874457E+02  0.51100000000E-03 0.  1.
        -12    1    3    3    0    0 -0.62479969876E+00 -0.13746342066E+02  0.27211099576E+02  0.30492560322E+02  0.00000000000E+00 0.  1.
</event>
<event>
 7    1  0.1381607E-011  0.5052886E+02  0.7816164E-02  0.1300439E+00
        -11   -1    0    0    0    0  0.00000000000E+00  0.00000000000E+00  0.45593999997E+02  0.45594000000E+02  0.51100000000E-03 0.  1.
         11   -1    0    0    0    0 -0.00000000000E+00 -0.00000000000E+00 -0.45593999997E+02  0.45594000000E+02  0.51100000000E-03 0. -1.
    9900012    2    1    2    0    0 -0.30718006448E+02 -0.92804843897E+01  0.24968833960E+02  0.50528856134E+02  0.29999988705E+02 0.  0.
         12    1    1    2    0    0  0.30718006448E+02  0.92804843897E+01 -0.24968833960E+02  0.40659143866E+02  0.00000000000E+00 0. -1.
         11    1    3    3    0    0  0.21458856554E-01  0.20533753392E+01 -0.16355111191E+01  0.26252062106E+01  0.51100000000E-03 0. -1.
        -11    1    3    3    0    0 -0.23927431278E+02  0.28185074378E+01  0.15084987594E+02  0.28425741903E+02  0.51100000000E-03 0.  1.
         12    1    3    3    0    0 -0.68120340257E+01 -0.14152367167E+02  0.11519357485E+02  0.19477908020E+02  0.00000000000E+00 0. -1.
</event>
<event>
 7    1  0.1381607E-011  0.5052886E+02  0.7816164E-02  0.1300439E+00
        -11   -1    0    0    0    0  0.00000000000E+00  0.00000000000E+00  0.45593999997E+02  0.45594000000E+02  0.51100000000E-03 0.  1.
         11   -1    0    0    0    0 -0.00000000000E+00 -0.00000000000E+00 -0.45593999997E+02  0.45594000000E+02  0.51100000000E-03 0. -1.
    9900012    2    1    2    0    0 -0.24889656991E+02 -0.98094504067E+01  0.30617728113E+02  0.50528860594E+02  0.30000002262E+02 0.  0.
         12    1    1    2    0    0  0.24889656991E+02  0.98094504067E+01 -0.30617728113E+02  0.40659139406E+02  0.00000000000E+00 0. -1.
         11    1    3    3    0    0  0.33507770596E-01 -0.44118558927E+01 -0.18133809272E+01  0.47701096252E+01  0.51100000000E-03 0. -1.
        -11    1    3    3    0    0 -0.19945978437E+01 -0.85311859505E+01  0.12203818951E+02  0.15023073970E+02  0.51100000000E-03 0.  1.
         12    1    3    3    0    0 -0.22928566918E+02  0.31335914366E+01  0.20227290090E+02  0.30735676999E+02  0.00000000000E+00 0. -1.
</event>
<event>
 7    1  0.1381607E-011  0.5052886E+02  0.7816164E-02  0.1300439E+00
        -11   -1    0    0    0    0  0.00000000000E+00  0.00000000000E+00  0.45593999997E+02  0.45594000000E+02  0.51100000000E-03 0. -1.
         11   -1    0    0    0    0 -0.00000000000E+00 -0.00000000000E+00 -0.45593999997E+02  0.45594000000E+02  0.51100000000E-03 0.  1.
    9900012    2    1    2    0    0 -0.33782977985E+02  0.17939154784E+02 -0.13786312483E+02  0.50528864646E+02  0.30000014577E+02 0.  0.
         12    1    1    2    0    0  0.33782977985E+02 -0.17939154784E+02  0.13786312483E+02  0.40659135354E+02  0.00000000000E+00 0. -1.
         11    1    3    3    0    0 -0.15558888338E+02  0.12280579663E+02 -0.18919012416E+02  0.27401107172E+02  0.51100000000E-03 0.  1.
        -11    1    3    3    0    0 -0.10177445786E+02  0.54447640950E+01 -0.27456590290E+01  0.11864421711E+02  0.51100000000E-03 0. -1.
         12    1    3    3    0    0 -0.80466438610E+01  0.21381102597E+00  0.78783589619E+01  0.11263335763E+02  0.00000000000E+00 0. -1.
</event>
<event>
 7    1  0.1381607E-011  0.5052886E+02  0.7816164E-02  0.1300439E+00
        -11   -1    0    0    0    0  0.00000000000E+00  0.00000000000E+00  0.45593999997E+02  0.45594000000E+02  0.51100000000E-03 0. -1.
         11   -1    0    0    0    0 -0.00000000000E+00 -0.00000000000E+00 -0.45593999997E+02  0.45594000000E+02  0.51100000000E-03 0.  1.
    9900012    2    1    2    0    0  0.16029611801E+02  0.16610081069E+02 -0.33471222632E+02  0.50528855984E+02  0.29999988249E+02 0.  0.
         12    1    1    2    0    0 -0.16029611801E+02 -0.16610081069E+02  0.33471222632E+02  0.40659144016E+02  0.00000000000E+00 0. -1.
         11    1    3    3    0    0 -0.53671081915E+00  0.12587184326E+02 -0.14672112798E+02  0.19338980376E+02  0.51100000000E-03 0. -1.
        -11    1    3    3    0    0 -0.48952205340E+00 -0.49163984917E+01 -0.11585992735E+01  0.50747372846E+01  0.51100000000E-03 0.  1.
        -12    1    3    3    0    0  0.17055844674E+02  0.89392952352E+01 -0.17640510560E+02  0.26115138324E+02  0.00000000000E+00 0.  1.
</event>
<event>
 7    1  0.1381607E-011  0.5052886E+02  0.7816164E-02  0.1300439E+00
        -11   -1    0    0    0    0  0.00000000000E+00  0.00000000000E+00  0.45593999997E+02  0.45594000000E+02  0.51100000000E-03 0.  1.
         11   -1    0    0    0    0 -0.00000000000E+00 -0.00000000000E+00 -0.45593999997E+02  0.45594000000E+02  0.51100000000E-03 0. -1.
    9900012    2    1    2    0    0  0.17945335151E+01  0.40598859421E+02 -0.12954400971E+01  0.50528857094E+02  0.29999991622E+02 0.  0.
         12    1    1    2    0    0 -0.17945335151E+01 -0.40598859421E+02  0.12954400971E+01  0.40659142906E+02  0.00000000000E+00 0. -1.
         11    1    3    3    0    0  0.10758987953E+02  0.13484268387E+02 -0.67522201612E+01  0.18524950555E+02  0.51100000000E-03 0. -1.
        -11    1    3    3    0    0 -0.11979959291E+01 -0.14300985888E+01  0.90460992083E+00  0.20733295902E+01  0.51100000000E-03 0.  1.
        -12    1    3    3    0    0 -0.77664585089E+01  0.28544689623E+02  0.45521701433E+01  0.29930576948E+02  0.00000000000E+00 0.  1.
</event>
<event>
 7    1  0.1381607E-011  0.5052886E+02  0.7816164E-02  0.1300439E+00
        -11   -1    0    0    0    0  0.00000000000E+00  0.00000000000E+00  0.45593999997E+02  0.45594000000E+02  0.51100000000E-03 0.  1.
         11   -1    0    0    0    0 -0.00000000000E+00 -0.00000000000E+00 -0.45593999997E+02  0.45594000000E+02  0.51100000000E-03 0. -1.
    9900012    2    1    2    0    0 -0.31039756334E+02  0.91189417478E+01  0.24628108663E+02  0.50528864395E+02  0.30000013814E+02 0.  0.
         12    1    1    2    0    0  0.31039756334E+02 -0.91189417478E+01 -0.24628108663E+02  0.40659135605E+02  0.00000000000E+00 0. -1.
         11    1    3    3    0    0 -0.13173830490E+02  0.16375226580E+02  0.11685147622E+02  0.24046632416E+02  0.51100000000E-03 0. -1.
        -11    1    3    3    0    0 -0.40120351587E+01 -0.28609960281E+01 -0.22847271441E+01  0.54315469961E+01  0.51100000000E-03 0.  1.
        -12    1    3    3    0    0 -0.13853890685E+02 -0.43952888043E+01  0.15227688185E+02  0.21050684983E+02  0.00000000000E+00 0.  1.
</event>
<event>
 7    1  0.1381607E-011  0.5052886E+02  0.7816164E-02  0.1300439E+00
        -11   -1    0    0    0    0  0.00000000000E+00  0.00000000000E+00  0.45593999997E+02  0.45594000000E+02  0.51100000000E-03 0. -1.
         11   -1    0    0    0    0 -0.00000000000E+00 -0.00000000000E+00 -0.45593999997E+02  0.45594000000E+02  0.51100000000E-03 0.  1.
    9900012    2    1    2    0    0 -0.23430329697E+02  0.31134028389E+02 -0.11612803079E+02  0.50528864879E+02  0.30000015285E+02 0.  0.
         12    1    1    2    0    0  0.23430329697E+02 -0.31134028389E+02  0.11612803079E+02  0.40659135121E+02  0.00000000000E+00 0. -1.
         11    1    3    3    0    0  0.51452705787E+01  0.93345421507E+01  0.49648662235E+00  0.10670238316E+02  0.51100000000E-03 0. -1.
        -11    1    3    3    0    0 -0.15580722007E+02  0.18392760859E+02 -0.48477860255E+01  0.24587671299E+02  0.51100000000E-03 0.  1.
        -12    1    3    3    0    0 -0.12994878268E+02  0.34067253792E+01 -0.72615036763E+01  0.15270955263E+02  0.00000000000E+00 0.  1.
</event>
<event>
 7    1  0.1381607E-011  0.5052886E+02  0.7816164E-02  0.1300439E+00
        -11   -1    0    0    0    0  0.00000000000E+00  0.00000000000E+00  0.45593999997E+02  0.45594000000E+02  0.51100000000E-03 0.  1.
         11   -1    0    0    0    0 -0.00000000000E+00 -0.00000000000E+00 -0.45593999997E+02  0.45594000000E+02  0.51100000000E-03 0. -1.
    9900012    2    1    2    0    0 -0.25937368788E+02  0.46407394843E+01  0.30965826676E+02  0.50528856079E+02  0.29999988538E+02 0.  0.
         12    1    1    2    0    0  0.25937368788E+02 -0.46407394843E+01 -0.30965826676E+02  0.40659143921E+02  0.00000000000E+00 0. -1.
         11    1    3    3    0    0 -0.68153246855E+01 -0.28997647473E+01 -0.19276629472E+01  0.76533111042E+01  0.51100000000E-03 0. -1.
        -11    1    3    3    0    0 -0.16109714184E+02 -0.13390260458E+01  0.12515845001E+02  0.20444125273E+02  0.51100000000E-03 0.  1.
         12    1    3    3    0    0 -0.30123299191E+01  0.88795302774E+01  0.20377644622E+02  0.22431419702E+02  0.00000000000E+00 0. -1.
</event>
<event>
 7    1  0.1381607E-011  0.5052891E+02  0.7816164E-02  0.1300439E+00
        -11   -1    0    0    0    0  0.00000000000E+00  0.00000000000E+00  0.45593999997E+02  0.45594000000E+02  0.51100000000E-03 0.  1.
         11   -1    0    0    0    0 -0.00000000000E+00 -0.00000000000E+00 -0.45593999997E+02  0.45594000000E+02  0.51100000000E-03 0. -1.
    9900012    2    1    2    0    0 -0.14291428676E+00  0.40648593446E+02  0.91278607625E+00  0.50528908125E+02  0.30000146737E+02 0.  0.
         12    1    1    2    0    0  0.14291428676E+00 -0.40648593446E+02 -0.91278607625E+00  0.40659091875E+02  0.00000000000E+00 0. -1.
         11    1    3    3    0    0 -0.30563783574E+01  0.31280585211E+02  0.43735219483E+01  0.31732383370E+02  0.51100000000E-03 0.  1.
        -11    1    3    3    0    0 -0.64341518425E+01  0.30525634318E+01 -0.53154812869E+00  0.71413582119E+01  0.51100000000E-03 0. -1.
        -12    1    3    3    0    0  0.93476159131E+01  0.63154448032E+01 -0.29291877434E+01  0.11655166543E+02  0.00000000000E+00 0.  1.
</event>
<event>
 7    1  0.1381607E-011  0.5052886E+02  0.7816164E-02  0.1300439E+00
        -11   -1    0    0    0    0  0.00000000000E+00  0.00000000000E+00  0.45593999997E+02  0.45594000000E+02  0.51100000000E-03 0.  1.
         11   -1    0    0    0    0 -0.00000000000E+00 -0.00000000000E+00 -0.45593999997E+02  0.45594000000E+02  0.51100000000E-03 0. -1.
    9900012    2    1    2    0    0  0.30694850070E+02 -0.16893618810E+02 -0.20630008781E+02  0.50528862778E+02  0.30000008900E+02 0.  0.
         12    1    1    2    0    0 -0.30694850070E+02  0.16893618810E+02  0.20630008781E+02  0.40659137222E+02  0.00000000000E+00 0. -1.
         11    1    3    3    0    0  0.14921587035E+02  0.22668898455E+01 -0.50724565536E+00  0.15101319400E+02  0.51100000000E-03 0. -1.
        -11    1    3    3    0    0  0.17592568257E+02 -0.13372119299E+02 -0.11576698976E+02  0.24946582769E+02  0.51100000000E-03 0.  1.
        -12    1    3    3    0    0 -0.18193052211E+01 -0.57883893566E+01 -0.85460641498E+01  0.10480960609E+02  0.00000000000E+00 0.  1.
</event>
<event>
 7    1  0.1381607E-011  0.5052881E+02  0.7816164E-02  0.1300439E+00
        -11   -1    0    0    0    0  0.00000000000E+00  0.00000000000E+00  0.45593999997E+02  0.45594000000E+02  0.51100000000E-03 0. -1.
         11   -1    0    0    0    0 -0.00000000000E+00 -0.00000000000E+00 -0.45593999997E+02  0.45594000000E+02  0.51100000000E-03 0.  1.
    9900012    2    1    2    0    0  0.33085411662E+02  0.22914992187E+02 -0.57816996210E+01  0.50528814294E+02  0.29999861529E+02 0.  0.
         12    1    1    2    0    0 -0.33085411662E+02 -0.22914992187E+02  0.57816996210E+01  0.40659185706E+02  0.00000000000E+00 0. -1.
         11    1    3    3    0    0  0.84380197479E+01 -0.21114189159E+01 -0.79402299290E+01  0.11777330712E+02  0.51100000000E-03 0. -1.
        -11    1    3    3    0    0  0.55575936651E+01  0.90517435298E+01 -0.64337307827E+01  0.12418284919E+02  0.51100000000E-03 0.  1.
        -12    1    3    3    0    0  0.19089798249E+02  0.15974667573E+02  0.85922610907E+01  0.26333198664E+02  0.00000000000E+00 0.  1.
</event>
<event>
 7    1  0.1381607E-011  0.5052886E+02  0.7816164E-02  0.1300439E+00
        -11   -1    0    0    0    0  0.00000000000E+00  0.00000000000E+00  0.45593999997E+02  0.45594000000E+02  0.51100000000E-03 0. -1.
         11   -1    0    0    0    0 -0.00000000000E+00 -0.00000000000E+00 -0.45593999997E+02  0.45594000000E+02  0.51100000000E-03 0.  1.
    9900012    2    1    2    0    0 -0.83457279859E+00  0.18011923330E+02 -0.36442280390E+02  0.50528859652E+02  0.29999999398E+02 0.  0.
         12    1    1    2    0    0  0.83457279859E+00 -0.18011923330E+02  0.36442280390E+02  0.40659140348E+02  0.00000000000E+00 0. -1.
         11    1    3    3    0    0 -0.30498184017E+01 -0.37400955943E+01 -0.80684773757E+01  0.94015974580E+01  0.51100000000E-03 0. -1.
        -11    1    3    3    0    0  0.60845872022E+01  0.37642659146E+01 -0.19357855798E+02  0.20637792534E+02  0.51100000000E-03 0.  1.
         12    1    3    3    0    0 -0.38693415991E+01  0.17987753010E+02 -0.90159472160E+01  0.20489469660E+02  0.00000000000E+00 0. -1.
</event>
<event>
 7    1  0.1381607E-011  0.5052887E+02  0.7816164E-02  0.1300439E+00
        -11   -1    0    0    0    0  0.00000000000E+00  0.00000000000E+00  0.45593999997E+02  0.45594000000E+02  0.51100000000E-03 0.  1.
         11   -1    0    0    0    0 -0.00000000000E+00 -0.00000000000E+00 -0.45593999997E+02  0.45594000000E+02  0.51100000000E-03 0. -1.
    9900012    2    1    2    0    0 -0.38113692649E+01 -0.23452446589E+02  0.32994252159E+02  0.50528874798E+02  0.30000045435E+02 0.  0.
         12    1    1    2    0    0  0.38113692649E+01  0.23452446589E+02 -0.32994252159E+02  0.40659125202E+02  0.00000000000E+00 0. -1.
         11    1    3    3    0    0 -0.37599966193E+01 -0.33342616008E+01 -0.12875497324E+01  0.51877412787E+01  0.51100000000E-03 0. -1.
        -11    1    3    3    0    0  0.71072083468E+01  0.11544520651E+01  0.74795107346E+01  0.10382112075E+02  0.51100000000E-03 0.  1.
        -12    1    3    3    0    0 -0.71585809924E+01 -0.21272637053E+02  0.26802291157E+02  0.34959021444E+02  0.00000000000E+00 0.  1.
</event>
<event>
 7    1  0.1381607E-011  0.5052887E+02  0.7816164E-02  0.1300439E+00
        -11   -1    0    0    0    0  0.00000000000E+00  0.00000000000E+00  0.45593999997E+02  0.45594000000E+02  0.51100000000E-03 0. -1.
         11   -1    0    0    0    0 -0.00000000000E+00 -0.00000000000E+00 -0.45593999997E+02  0.45594000000E+02  0.51100000000E-03 0.  1.
    9900012    2    1    2    0    0  0.16732189636E+02 -0.47729279120E+01 -0.36748027796E+02  0.50528873623E+02  0.30000041864E+02 0.  0.
         12    1    1    2    0    0 -0.16732189636E+02  0.47729279120E+01  0.36748027796E+02  0.40659126377E+02  0.00000000000E+00 0. -1.
         11    1    3    3    0    0  0.38900282078E+01  0.43052916377E+01 -0.48353286214E+01  0.75530297683E+01  0.51100000000E-03 0. -1.
        -11    1    3    3    0    0  0.35431359979E+01 -0.35746123024E+01 -0.31773152801E+02  0.32169316203E+02  0.51100000000E-03 0.  1.
        -12    1    3    3    0    0  0.92990254304E+01 -0.55036072474E+01 -0.13954637332E+00  0.10806527651E+02  0.00000000000E+00 0.  1.
</event>
<event>
 7    1  0.1381607E-011  0.5052886E+02  0.7816164E-02  0.1300439E+00
        -11   -1    0    0    0    0  0.00000000000E+00  0.00000000000E+00  0.45593999997E+02  0.45594000000E+02  0.51100000000E-03 0.  1.
         11   -1    0    0    0    0 -0.00000000000E+00 -0.00000000000E+00 -0.45593999997E+02  0.45594000000E+02  0.51100000000E-03 0. -1.
    9900012    2    1    2    0    0 -0.26411642146E+02  0.16135641360E+02  0.26367245461E+02  0.50528863313E+02  0.30000010527E+02 0.  0.
         12    1    1    2    0    0  0.26411642146E+02 -0.16135641360E+02 -0.26367245461E+02  0.40659136687E+02  0.00000000000E+00 0. -1.
         11    1    3    3    0    0 -0.97779643764E+00  0.64655707848E+01  0.13687716165E+02  0.15169484682E+02  0.51100000000E-03 0. -1.
        -11    1    3    3    0    0  0.26248281111E+01  0.17627457687E+01  0.36767964547E+01  0.48493120840E+01  0.51100000000E-03 0.  1.
         12    1    3    3    0    0 -0.28058673819E+02  0.79073248062E+01  0.90027328411E+01  0.30510066547E+02  0.00000000000E+00 0. -1.
</event>
<event>
 7    1  0.1381607E-011  0.5052887E+02  0.7816164E-02  0.1300439E+00
        -11   -1    0    0    0    0  0.00000000000E+00  0.00000000000E+00  0.45593999997E+02  0.45594000000E+02  0.51100000000E-03 0.  1.
         11   -1    0    0    0    0 -0.00000000000E+00 -0.00000000000E+00 -0.45593999997E+02  0.45594000000E+02  0.51100000000E-03 0. -1.
    9900012    2    1    2    0    0  0.86620750397E+01 -0.29765890743E+02  0.26308274479E+02  0.50528866932E+02  0.30000021528E+02 0.  0.
         12    1    1    2    0    0 -0.86620750397E+01  0.29765890743E+02 -0.26308274479E+02  0.40659133068E+02  0.00000000000E+00 0. -1.
         11    1    3    3    0    0 -0.62625257595E+01  0.35195804556E+00  0.24907161794E+01  0.67488347663E+01  0.51100000000E-03 0. -1.
        -11    1    3    3    0    0  0.24839247477E+01 -0.38803687351E+01  0.11217182499E+02  0.12126513397E+02  0.51100000000E-03 0.  1.
        -12    1    3    3    0    0  0.12440676052E+02 -0.26237480054E+02  0.12600375800E+02  0.31653518770E+02  0.00000000000E+00 0.  1.
</event>
<event>
 7    1  0.1381607E-011  0.5052886E+02  0.7816164E-02  0.1300439E+00
        -11   -1    0    0    0    0  0.00000000000E+00  0.00000000000E+00  0.45593999997E+02  0.45594000000E+02  0.51100000000E-03 0. -1.
         11   -1    0    0    0    0 -0.00000000000E+00 -0.00000000000E+00 -0.45593999997E+02  0.45594000000E+02  0.51100000000E-03 0.  1.
    9900012    2    1    2    0    0 -0.16559977228E+02 -0.34708635066E+02 -0.13200130541E+02  0.50528860312E+02  0.30000001403E+02 0.  0.
         12    1    1    2    0    0  0.16559977228E+02  0.34708635066E+02  0.13200130541E+02  0.40659139688E+02  0.00000000000E+00 0. -1.
         11    1    3    3    0    0 -0.32122102191E+01 -0.24000795051E+01  0.52503309822E+01  0.66064099030E+01  0.51100000000E-03 0. -1.
        -11    1    3    3    0    0 -0.86129882685E+00 -0.25655247084E+02 -0.10934105079E+02  0.27901401269E+02  0.51100000000E-03 0.  1.
        -12    1    3    3    0    0 -0.12486468182E+02 -0.66533084761E+01 -0.75163564437E+01  0.16021049139E+02  0.00000000000E+00 0.  1.
</event>
<event>
 7    1  0.1381607E-011  0.5052887E+02  0.7816164E-02  0.1300439E+00
        -11   -1    0    0    0    0  0.00000000000E+00  0.00000000000E+00  0.45593999997E+02  0.45594000000E+02  0.51100000000E-03 0.  1.
         11   -1    0    0    0    0 -0.00000000000E+00 -0.00000000000E+00 -0.45593999997E+02  0.45594000000E+02  0.51100000000E-03 0. -1.
    9900012    2    1    2    0    0 -0.15559750240E+02  0.18208828682E+02  0.32855713157E+02  0.50528866260E+02  0.30000019482E+02 0.  0.
         12    1    1    2    0    0  0.15559750240E+02 -0.18208828682E+02 -0.32855713157E+02  0.40659133740E+02  0.00000000000E+00 0. -1.
         11    1    3    3    0    0  0.32154449145E+01  0.15450565040E+00  0.30021551760E+01  0.44018057608E+01  0.51100000000E-03 0. -1.
        -11    1    3    3    0    0 -0.75430010035E+01  0.72238372301E+01  0.28630440621E+02  0.30475938360E+02  0.51100000000E-03 0.  1.
         12    1    3    3    0    0 -0.11232194151E+02  0.10830485802E+02  0.12231173593E+01  0.15651122139E+02  0.00000000000E+00 0. -1.
</event>
<event>
 7    1  0.1381607E-011  0.5052887E+02  0.7816164E-02  0.1300439E+00
        -11   -1    0    0    0    0  0.00000000000E+00  0.00000000000E+00  0.45593999997E+02  0.45594000000E+02  0.51100000000E-03 0.  1.
         11   -1    0    0    0    0 -0.00000000000E+00 -0.00000000000E+00 -0.45593999997E+02  0.45594000000E+02  0.51100000000E-03 0. -1.
    9900012    2    1    2    0    0  0.83947298134E+01  0.37615556836E+02  0.12952334609E+02  0.50528873392E+02  0.30000041163E+02 0.  0.
         12    1    1    2    0    0 -0.83947298134E+01 -0.37615556836E+02 -0.12952334609E+02  0.40659126608E+02  0.00000000000E+00 0. -1.
         11    1    3    3    0    0  0.18285064469E+01 -0.30049838948E+01  0.38835153633E+00  0.35389519933E+01  0.51100000000E-03 0. -1.
        -11    1    3    3    0    0  0.28182996466E+01  0.15288901402E+02  0.14566462190E+02  0.21304345566E+02  0.51100000000E-03 0.  1.
        -12    1    3    3    0    0  0.37479237200E+01  0.25331639328E+02 -0.20024791173E+01  0.25685575833E+02  0.00000000000E+00 0.  1.
</event>
<event>
 7    1  0.1381607E-011  0.5052886E+02  0.7816164E-02  0.1300439E+00
        -11   -1    0    0    0    0  0.00000000000E+00  0.00000000000E+00  0.45593999997E+02  0.45594000000E+02  0.51100000000E-03 0. -1.
         11   -1    0    0    0    0 -0.00000000000E+00 -0.00000000000E+00 -0.45593999997E+02  0.45594000000E+02  0.51100000000E-03 0.  1.
    9900012    2    1    2    0    0 -0.13602526262E+02 -0.40249652668E+01 -0.38104290039E+02  0.50528856066E+02  0.29999988498E+02 0.  0.
         12    1    1    2    0    0  0.13602526262E+02  0.40249652668E+01  0.38104290039E+02  0.40659143934E+02  0.00000000000E+00 0. -1.
         11    1    3    3    0    0 -0.21482145658E+01  0.26676789655E+01  0.31427973990E+01  0.46484957391E+01  0.51100000000E-03 0. -1.
        -11    1    3    3    0    0 -0.71538905679E+01  0.34830026018E+01 -0.10264835061E+02  0.12987543897E+02  0.51100000000E-03 0.  1.
        -12    1    3    3    0    0 -0.43004211283E+01 -0.10175646834E+02 -0.30982252376E+02  0.32892816430E+02  0.00000000000E+00 0.  1.
</event>
<event>
 7    1  0.1381607E-011  0.5052882E+02  0.7816164E-02  0.1300439E+00
        -11   -1    0    0    0    0  0.00000000000E+00  0.00000000000E+00  0.45593999997E+02  0.45594000000E+02  0.51100000000E-03 0. -1.
         11   -1    0    0    0    0 -0.00000000000E+00 -0.00000000000E+00 -0.45593999997E+02  0.45594000000E+02  0.51100000000E-03 0.  1.
    9900012    2    1    2    0    0 -0.21927818510E+02  0.34161556222E+02  0.23081468924E+01  0.50528822805E+02  0.29999887398E+02 0.  0.
         12    1    1    2    0    0  0.21927818510E+02 -0.34161556222E+02 -0.23081468924E+01  0.40659177195E+02  0.00000000000E+00 0. -1.
         11    1    3    3    0    0  0.26533410064E+00  0.72595660684E+01 -0.13064046193E+01  0.73809481083E+01  0.51100000000E-03 0. -1.
        -11    1    3    3    0    0 -0.24585446264E+02  0.30047593173E+02  0.45413918906E+01  0.39088697395E+02  0.51100000000E-03 0.  1.
         12    1    3    3    0    0  0.23922936529E+01 -0.31456030196E+01 -0.92684037880E+00  0.40591773017E+01  0.00000000000E+00 0. -1.
</event>
<event>
 7    1  0.1381607E-011  0.5052887E+02  0.7816164E-02  0.1300439E+00
        -11   -1    0    0    0    0  0.00000000000E+00  0.00000000000E+00  0.45593999997E+02  0.45594000000E+02  0.51100000000E-03 0.  1.
         11   -1    0    0    0    0 -0.00000000000E+00 -0.00000000000E+00 -0.45593999997E+02  0.45594000000E+02  0.51100000000E-03 0. -1.
    9900012    2    1    2    0    0 -0.24430268969E+01  0.40371438574E+02  0.41645651732E+01  0.50528867741E+02  0.30000023986E+02 0.  0.
         12    1    1    2    0    0  0.24430268969E+01 -0.40371438574E+02 -0.41645651732E+01  0.40659132259E+02  0.00000000000E+00 0. -1.
         11    1    3    3    0    0 -0.65603416527E+01 -0.15172910115E+01  0.42834054876E+01  0.79804647387E+01  0.51100000000E-03 0. -1.
        -11    1    3    3    0    0 -0.91862795180E-01  0.11523189290E+02  0.24635386102E+01  0.11783944710E+02  0.51100000000E-03 0.  1.
        -12    1    3    3    0    0  0.42091775510E+01  0.30365540295E+02 -0.25823789246E+01  0.30764458292E+02  0.00000000000E+00 0.  1.
</event>
<event>
 7    1  0.1381607E-011  0.5052886E+02  0.7816164E-02  0.1300439E+00
        -11   -1    0    0    0    0  0.00000000000E+00  0.00000000000E+00  0.45593999997E+02  0.45594000000E+02  0.51100000000E-03 0. -1.
         11   -1    0    0    0    0 -0.00000000000E+00 -0.00000000000E+00 -0.45593999997E+02  0.45594000000E+02  0.51100000000E-03 0.  1.
    9900012    2    1    2    0    0  0.17399251898E+02 -0.18990027741E+01 -0.36699124997E+02  0.50528856457E+02  0.29999989687E+02 0.  0.
         12    1    1    2    0    0 -0.17399251898E+02  0.18990027741E+01  0.36699124997E+02  0.40659143543E+02  0.00000000000E+00 0. -1.
         11    1    3    3    0    0  0.88185566557E+01  0.12115876540E+02 -0.18529857684E+02  0.23831009879E+02  0.51100000000E-03 0. -1.
        -11    1    3    3    0    0 -0.92647240397E+00 -0.55609367454E+01 -0.10290413961E+02  0.11733498555E+02  0.51100000000E-03 0.  1.
        -12    1    3    3    0    0  0.95071676460E+01 -0.84539425682E+01 -0.78788533515E+01  0.14964348022E+02  0.00000000000E+00 0.  1.
</event>
<event>
 7    1  0.1381607E-011  0.5052885E+02  0.7816164E-02  0.1300439E+00
        -11   -1    0    0    0    0  0.00000000000E+00  0.00000000000E+00  0.45593999997E+02  0.45594000000E+02  0.51100000000E-03 0.  1.
         11   -1    0    0    0    0 -0.00000000000E+00 -0.00000000000E+00 -0.45593999997E+02  0.45594000000E+02  0.51100000000E-03 0. -1.
    9900012    2    1    2    0    0  0.38044182364E+01  0.31306816264E+02  0.25662737740E+02  0.50528850341E+02  0.29999971097E+02 0.  0.
         12    1    1    2    0    0 -0.38044182364E+01 -0.31306816264E+02 -0.25662737740E+02  0.40659149659E+02  0.00000000000E+00 0. -1.
         11    1    3    3    0    0  0.88555024714E+00  0.19269622979E+02  0.13572499484E+02  0.23586337390E+02  0.51100000000E-03 0. -1.
        -11    1    3    3    0    0  0.56327407434E+01  0.11938321911E+02 -0.13142594392E+01  0.13265691707E+02  0.51100000000E-03 0.  1.
         12    1    3    3    0    0 -0.27138727542E+01  0.98871374018E-01  0.13404497695E+02  0.13676821244E+02  0.00000000000E+00 0. -1.
</event>
<event>
 7    1  0.1381607E-011  0.5052887E+02  0.7816164E-02  0.1300439E+00
        -11   -1    0    0    0    0  0.00000000000E+00  0.00000000000E+00  0.45593999997E+02  0.45594000000E+02  0.51100000000E-03 0.  1.
         11   -1    0    0    0    0 -0.00000000000E+00 -0.00000000000E+00 -0.45593999997E+02  0.45594000000E+02  0.51100000000E-03 0. -1.
    9900012    2    1    2    0    0  0.49610626115E+01 -0.15782260852E+02  0.37141261911E+02  0.50528865280E+02  0.30000016506E+02 0.  0.
         12    1    1    2    0    0 -0.49610626115E+01  0.15782260852E+02 -0.37141261911E+02  0.40659134720E+02  0.00000000000E+00 0. -1.
         11    1    3    3    0    0 -0.85060633973E+01 -0.12716520857E+01  0.55916456707E+01  0.10258494778E+02  0.51100000000E-03 0. -1.
        -11    1    3    3    0    0  0.32918090090E+01  0.28232083458E+01  0.94494230704E+01  0.10397024023E+02  0.51100000000E-03 0.  1.
         12    1    3    3    0    0  0.10175317000E+02 -0.17333817112E+02  0.22100193169E+02  0.29873346479E+02  0.00000000000E+00 0. -1.
</event>
<event>
 7    1  0.1381607E-011  0.5052886E+02  0.7816164E-02  0.1300439E+00
        -11   -1    0    0    0    0  0.00000000000E+00  0.00000000000E+00  0.45593999997E+02  0.45594000000E+02  0.51100000000E-03 0.  1.
         11   -1    0    0    0    0 -0.00000000000E+00 -0.00000000000E+00 -0.45593999997E+02  0.45594000000E+02  0.51100000000E-03 0. -1.
    9900012    2    1    2    0    0  0.16331328774E+02  0.29328352570E+02  0.22941245324E+02  0.50528864483E+02  0.30000014082E+02 0.  0.
         12    1    1    2    0    0 -0.16331328774E+02 -0.29328352570E+02 -0.22941245324E+02  0.40659135517E+02  0.00000000000E+00 0. -1.
         11    1    3    3    0    0  0.95540258537E+00  0.31426983873E+01 -0.39168387030E+01  0.51118463338E+01  0.51100000000E-03 0. -1.
        -11    1    3    3    0    0  0.14018182495E+02  0.19179838519E+02  0.77004449247E+01  0.24973435854E+02  0.51100000000E-03 0.  1.
        -12    1    3    3    0    0  0.13577436929E+01  0.70058156635E+01  0.19157639103E+02  0.20443582295E+02  0.00000000000E+00 0.  1.
</event>
<event>
 7    1  0.1381607E-011  0.5052887E+02  0.7816164E-02  0.1300439E+00
        -11   -1    0    0    0    0  0.00000000000E+00  0.00000000000E+00  0.45593999997E+02  0.45594000000E+02  0.51100000000E-03 0.  1.
         11   -1    0    0    0    0 -0.00000000000E+00 -0.00000000000E+00 -0.45593999997E+02  0.45594000000E+02  0.51100000000E-03 0. -1.
    9900012    2    1    2    0    0  0.77581046008E+01 -0.14679898201E+02  0.37114381468E+02  0.50528869292E+02  0.30000028700E+02 0.  0.
         12    1    1    2    0    0 -0.77581046008E+01  0.14679898201E+02 -0.37114381468E+02  0.40659130708E+02  0.00000000000E+00 0. -1.
         11    1    3    3    0    0  0.47827216555E+01 -0.18778843022E+02  0.17014143632E+02  0.25787602748E+02  0.51100000000E-03 0. -1.
        -11    1    3    3    0    0  0.32647627008E+01 -0.39102768686E+01  0.31432958241E+01  0.59857538858E+01  0.51100000000E-03 0.  1.
         12    1    3    3    0    0 -0.28937975553E+00  0.80092216893E+01  0.16956942011E+02  0.18755512659E+02  0.00000000000E+00 0. -1.
</event>
<event>
 7    1  0.1381607E-011  0.5052887E+02  0.7816164E-02  0.1300439E+00
        -11   -1    0    0    0    0  0.00000000000E+00  0.00000000000E+00  0.45593999997E+02  0.45594000000E+02  0.51100000000E-03 0. -1.
         11   -1    0    0    0    0 -0.00000000000E+00 -0.00000000000E+00 -0.45593999997E+02  0.45594000000E+02  0.51100000000E-03 0.  1.
    9900012    2    1    2    0    0 -0.15811976466E+02  0.51541988582E+01 -0.37102293971E+02  0.50528873306E+02  0.30000040900E+02 0.  0.
         12    1    1    2    0    0  0.15811976466E+02 -0.51541988582E+01  0.37102293971E+02  0.40659126694E+02  0.00000000000E+00 0. -1.
         11    1    3    3    0    0  0.44242475833E+01  0.57136975341E+01 -0.66157533068E+01  0.97973720081E+01  0.51100000000E-03 0. -1.
        -11    1    3    3    0    0 -0.71052273514E+01  0.22069686701E+01 -0.25255693700E+02  0.26328787115E+02  0.51100000000E-03 0.  1.
         12    1    3    3    0    0 -0.13130996698E+02 -0.27664673459E+01 -0.52308469640E+01  0.14402714182E+02  0.00000000000E+00 0. -1.
</event>
<event>
 7    1  0.1381607E-011  0.5052886E+02  0.7816164E-02  0.1300439E+00
        -11   -1    0    0    0    0  0.00000000000E+00  0.00000000000E+00  0.45593999997E+02  0.45594000000E+02  0.51100000000E-03 0. -1.
         11   -1    0    0    0    0 -0.00000000000E+00 -0.00000000000E+00 -0.45593999997E+02  0.45594000000E+02  0.51100000000E-03 0.  1.
    9900012    2    1    2    0    0  0.13702486929E+02  0.12689183513E+02 -0.36116365505E+02  0.50528863468E+02  0.30000010997E+02 0.  0.
         12    1    1    2    0    0 -0.13702486929E+02 -0.12689183513E+02  0.36116365505E+02  0.40659136532E+02  0.00000000000E+00 0. -1.
         11    1    3    3    0    0 -0.70590627696E+00  0.31556806297E+01 -0.22521912526E+02  0.22752871643E+02  0.51100000000E-03 0. -1.
        -11    1    3    3    0    0  0.21290694699E+01  0.10931172257E+02 -0.98364598739E+01  0.14858647544E+02  0.51100000000E-03 0.  1.
         12    1    3    3    0    0  0.12279323736E+02 -0.13976693737E+01 -0.37579931047E+01  0.12917344281E+02  0.00000000000E+00 0. -1.
</event>
<event>
 7    1  0.1381607E-011  0.5052888E+02  0.7816164E-02  0.1300439E+00
        -11   -1    0    0    0    0  0.00000000000E+00  0.00000000000E+00  0.45593999997E+02  0.45594000000E+02  0.51100000000E-03 0.  1.
         11   -1    0    0    0    0 -0.00000000000E+00 -0.00000000000E+00 -0.45593999997E+02  0.45594000000E+02  0.51100000000E-03 0. -1.
    9900012    2    1    2    0    0  0.77956501595E+01  0.47950841062E+01  0.39615643613E+02  0.50528877876E+02  0.30000054791E+02 0.  0.
         12    1    1    2    0    0 -0.77956501595E+01 -0.47950841062E+01 -0.39615643613E+02  0.40659122124E+02  0.00000000000E+00 0. -1.
         11    1    3    3    0    0  0.41775126470E+00 -0.49200647076E+00  0.18854885113E+02  0.18865929062E+02  0.51100000000E-03 0. -1.
        -11    1    3    3    0    0  0.10113750866E+02 -0.61044371012E+01  0.76177088810E+01  0.14056372141E+02  0.51100000000E-03 0.  1.
         12    1    3    3    0    0 -0.27358519712E+01  0.11391527678E+02  0.13143049620E+02  0.17606576673E+02  0.00000000000E+00 0. -1.
</event>
<event>
 7    1  0.1381607E-011  0.5052885E+02  0.7816164E-02  0.1300439E+00
        -11   -1    0    0    0    0  0.00000000000E+00  0.00000000000E+00  0.45593999997E+02  0.45594000000E+02  0.51100000000E-03 0.  1.
         11   -1    0    0    0    0 -0.00000000000E+00 -0.00000000000E+00 -0.45593999997E+02  0.45594000000E+02  0.51100000000E-03 0. -1.
    9900012    2    1    2    0    0 -0.38536075268E+02 -0.41995531173E+01  0.12267888210E+02  0.50528850666E+02  0.29999972084E+02 0.  0.
         12    1    1    2    0    0  0.38536075268E+02  0.41995531173E+01 -0.12267888210E+02  0.40659149334E+02  0.00000000000E+00 0. -1.
         11    1    3    3    0    0 -0.57511690910E+01 -0.26779302568E+01  0.34370315294E+01  0.72152922580E+01  0.51100000000E-03 0. -1.
        -11    1    3    3    0    0 -0.13936521447E+02  0.97600186816E+01  0.12407190474E+02  0.21057610748E+02  0.51100000000E-03 0.  1.
         12    1    3    3    0    0 -0.18848384730E+02 -0.11281641542E+02 -0.35763337932E+01  0.22255947660E+02  0.00000000000E+00 0. -1.
</event>
<event>
 7    1  0.1381607E-011  0.5052885E+02  0.7816164E-02  0.1300439E+00
        -11   -1    0    0    0    0  0.00000000000E+00  0.00000000000E+00  0.45593999997E+02  0.45594000000E+02  0.51100000000E-03 0.  1.
         11   -1    0    0    0    0 -0.00000000000E+00 -0.00000000000E+00 -0.45593999997E+02  0.45594000000E+02  0.51100000000E-03 0. -1.
    9900012    2    1    2    0    0 -0.26563054091E+02  0.17690651218E+02  0.25191500668E+02  0.50528847414E+02  0.29999962199E+02 0.  0.
         12    1    1    2    0    0  0.26563054091E+02 -0.17690651218E+02 -0.25191500668E+02  0.40659152586E+02  0.00000000000E+00 0. -1.
         11    1    3    3    0    0 -0.73317698479E+00 -0.11561324728E+01 -0.45383059463E+01  0.47402966056E+01  0.51100000000E-03 0. -1.
        -11    1    3    3    0    0 -0.18778637304E+01  0.52878101010E+01  0.11440294615E+02  0.12742356493E+02  0.51100000000E-03 0.  1.
        -12    1    3    3    0    0 -0.23952013376E+02  0.13558973589E+02  0.18289511999E+02  0.33046194315E+02  0.00000000000E+00 0.  1.
</event>
<event>
 7    1  0.1381607E-011  0.5052886E+02  0.7816164E-02  0.1300439E+00
        -11   -1    0    0    0    0  0.00000000000E+00  0.00000000000E+00  0.45593999997E+02  0.45594000000E+02  0.51100000000E-03 0. -1.
         11   -1    0    0    0    0 -0.00000000000E+00 -0.00000000000E+00 -0.45593999997E+02  0.45594000000E+02  0.51100000000E-03 0.  1.
    9900012    2    1    2    0    0  0.38443244919E+01 -0.23052754008E+02 -0.33270964463E+02  0.50528863579E+02  0.30000011335E+02 0.  0.
         12    1    1    2    0    0 -0.38443244919E+01  0.23052754008E+02  0.33270964463E+02  0.40659136421E+02  0.00000000000E+00 0. -1.
         11    1    3    3    0    0  0.13576241047E+01 -0.17018487350E+01  0.61763864479E+00  0.22629427927E+01  0.51100000000E-03 0. -1.
        -11    1    3    3    0    0 -0.60143121306E+01 -0.25453780088E+01  0.20313415797E+01  0.68393894820E+01  0.51100000000E-03 0.  1.
        -12    1    3    3    0    0  0.85010125178E+01 -0.18805527265E+02 -0.35919944688E+02  0.41426531304E+02  0.00000000000E+00 0.  1.
</event>
<event>
 7    1  0.1381607E-011  0.5052886E+02  0.7816164E-02  0.1300439E+00
        -11   -1    0    0    0    0  0.00000000000E+00  0.00000000000E+00  0.45593999997E+02  0.45594000000E+02  0.51100000000E-03 0.  1.
         11   -1    0    0    0    0 -0.00000000000E+00 -0.00000000000E+00 -0.45593999997E+02  0.45594000000E+02  0.51100000000E-03 0. -1.
    9900012    2    1    2    0    0 -0.83882431696E+01  0.78693154790E+01  0.38998422090E+02  0.50528859883E+02  0.30000000099E+02 0.  0.
         12    1    1    2    0    0  0.83882431696E+01 -0.78693154790E+01 -0.38998422090E+02  0.40659140117E+02  0.00000000000E+00 0. -1.
         11    1    3    3    0    0 -0.11929317194E+02  0.12750685106E+02  0.13379643021E+02  0.21997805050E+02  0.51100000000E-03 0. -1.
        -11    1    3    3    0    0 -0.45871628796E+00  0.30163887721E+01  0.11228978511E+02  0.11636106760E+02  0.51100000000E-03 0.  1.
         12    1    3    3    0    0  0.39997903125E+01 -0.78977583994E+01  0.14389800557E+02  0.16894948072E+02  0.00000000000E+00 0. -1.
</event>
<event>
 7    1  0.1381607E-011  0.5052884E+02  0.7816164E-02  0.1300439E+00
        -11   -1    0    0    0    0  0.00000000000E+00  0.00000000000E+00  0.45593999997E+02  0.45594000000E+02  0.51100000000E-03 0. -1.
         11   -1    0    0    0    0 -0.00000000000E+00 -0.00000000000E+00 -0.45593999997E+02  0.45594000000E+02  0.51100000000E-03 0.  1.
    9900012    2    1    2    0    0 -0.38104288514E+02 -0.12665453943E+02 -0.63887951662E+01  0.50528840756E+02  0.29999941963E+02 0.  0.
         12    1    1    2    0    0  0.38104288514E+02  0.12665453943E+02  0.63887951662E+01  0.40659159244E+02  0.00000000000E+00 0. -1.
         11    1    3    3    0    0  0.75352824972E+00 -0.27831550967E+01  0.10166924238E+00  0.28851506046E+01  0.51100000000E-03 0. -1.
        -11    1    3    3    0    0 -0.26777506272E+02 -0.88491405268E+01  0.74491263813E+01  0.29169018055E+02  0.51100000000E-03 0.  1.
        -12    1    3    3    0    0 -0.12080310492E+02 -0.10331583198E+01 -0.13939590790E+02  0.18474672097E+02  0.00000000000E+00 0.  1.
</event>
<event>
 7    1  0.1381607E-011  0.5052886E+02  0.7816164E-02  0.1300439E+00
        -11   -1    0    0    0    0  0.00000000000E+00  0.00000000000E+00  0.45593999997E+02  0.45594000000E+02  0.51100000000E-03 0. -1.
         11   -1    0    0    0    0 -0.00000000000E+00 -0.00000000000E+00 -0.45593999997E+02  0.45594000000E+02  0.51100000000E-03 0.  1.
    9900012    2    1    2    0    0 -0.16343770933E+02  0.10676616678E+02 -0.35665903803E+02  0.50528859747E+02  0.29999999688E+02 0.  0.
         12    1    1    2    0    0  0.16343770933E+02 -0.10676616678E+02  0.35665903803E+02  0.40659140253E+02  0.00000000000E+00 0. -1.
         11    1    3    3    0    0  0.19954980590E+01  0.65966864532E+01 -0.91893563609E+01  0.11486625059E+02  0.51100000000E-03 0. -1.
        -11    1    3    3    0    0 -0.15496931517E+02  0.32167589297E+01 -0.30309414949E+02  0.34193026471E+02  0.51100000000E-03 0.  1.
         12    1    3    3    0    0 -0.28423374748E+01  0.86317129537E+00  0.38328675066E+01  0.48492082167E+01  0.00000000000E+00 0. -1.
</event>
<event>
 7    1  0.1381607E-011  0.5052886E+02  0.7816164E-02  0.1300439E+00
        -11   -1    0    0    0    0  0.00000000000E+00  0.00000000000E+00  0.45593999997E+02  0.45594000000E+02  0.51100000000E-03 0. -1.
         11   -1    0    0    0    0 -0.00000000000E+00 -0.00000000000E+00 -0.45593999997E+02  0.45594000000E+02  0.51100000000E-03 0.  1.
    9900012    2    1    2    0    0  0.97438268693E+00  0.11160874965E+00 -0.40647313023E+02  0.50528856698E+02  0.29999990418E+02 0.  0.
         12    1    1    2    0    0 -0.97438268693E+00 -0.11160874965E+00  0.40647313023E+02  0.40659143302E+02  0.00000000000E+00 0. -1.
         11    1    3    3    0    0  0.21404900541E+01 -0.17332319419E+01  0.16962147107E+01  0.32346460767E+01  0.51100000000E-03 0. -1.
        -11    1    3    3    0    0 -0.11018058083E+02  0.64703076790E-01 -0.20800230474E+02  0.23538295997E+02  0.51100000000E-03 0.  1.
         12    1    3    3    0    0  0.98519507154E+01  0.17801376147E+01 -0.21543297259E+02  0.23755914624E+02  0.00000000000E+00 0. -1.
</event>
<event>
 7    1  0.1381607E-011  0.5052886E+02  0.7816164E-02  0.1300439E+00
        -11   -1    0    0    0    0  0.00000000000E+00  0.00000000000E+00  0.45593999997E+02  0.45594000000E+02  0.51100000000E-03 0.  1.
         11   -1    0    0    0    0 -0.00000000000E+00 -0.00000000000E+00 -0.45593999997E+02  0.45594000000E+02  0.51100000000E-03 0. -1.
    9900012    2    1    2    0    0  0.20818241981E+02  0.15446925284E+02  0.31323459580E+02  0.50528858101E+02  0.29999994684E+02 0.  0.
         12    1    1    2    0    0 -0.20818241981E+02 -0.15446925284E+02 -0.31323459580E+02  0.40659141899E+02  0.00000000000E+00 0. -1.
         11    1    3    3    0    0  0.90930303247E+01  0.80854535366E+01 -0.32543058770E+00  0.12172249780E+02  0.51100000000E-03 0. -1.
        -11    1    3    3    0    0 -0.70772409666E+00 -0.30534193051E+01  0.41356363459E+00  0.31615309568E+01  0.51100000000E-03 0.  1.
        -12    1    3    3    0    0  0.12432935753E+02  0.10414891053E+02  0.31235326533E+02  0.35195077364E+02  0.00000000000E+00 0.  1.
</event>
<event>
 7    1  0.1381607E-011  0.5052886E+02  0.7816164E-02  0.1300439E+00
        -11   -1    0    0    0    0  0.00000000000E+00  0.00000000000E+00  0.45593999997E+02  0.45594000000E+02  0.51100000000E-03 0. -1.
         11   -1    0    0    0    0 -0.00000000000E+00 -0.00000000000E+00 -0.45593999997E+02  0.45594000000E+02  0.51100000000E-03 0.  1.
    9900012    2    1    2    0    0 -0.17973639748E+02  0.30663464164E+02 -0.19745024712E+02  0.50528858824E+02  0.29999996880E+02 0.  0.
         12    1    1    2    0    0  0.17973639748E+02 -0.30663464164E+02  0.19745024712E+02  0.40659141176E+02  0.00000000000E+00 0. -1.
         11    1    3    3    0    0 -0.20156623284E+00  0.14600977634E+02 -0.54972365076E+01  0.15602845455E+02  0.51100000000E-03 0. -1.
        -11    1    3    3    0    0 -0.55329407529E+01  0.17524948640E+02 -0.13054181203E+02  0.22542158401E+02  0.51100000000E-03 0.  1.
         12    1    3    3    0    0 -0.12239132762E+02 -0.14624621104E+01 -0.11936070017E+01  0.12383854968E+02  0.00000000000E+00 0. -1.
</event>
<event>
 7    1  0.1381607E-011  0.5052885E+02  0.7816164E-02  0.1300439E+00
        -11   -1    0    0    0    0  0.00000000000E+00  0.00000000000E+00  0.45593999997E+02  0.45594000000E+02  0.51100000000E-03 0.  1.
         11   -1    0    0    0    0 -0.00000000000E+00 -0.00000000000E+00 -0.45593999997E+02  0.45594000000E+02  0.51100000000E-03 0. -1.
    9900012    2    1    2    0    0 -0.27056038525E+02  0.26705211449E+02 -0.14421114891E+02  0.50528854732E+02  0.29999984444E+02 0.  0.
         12    1    1    2    0    0  0.27056038525E+02 -0.26705211449E+02  0.14421114891E+02  0.40659145268E+02  0.00000000000E+00 0. -1.
         11    1    3    3    0    0 -0.16392700612E+01  0.40630497420E+01 -0.45423744133E+01  0.63110019102E+01  0.51100000000E-03 0. -1.
        -11    1    3    3    0    0 -0.25153203921E+02  0.18275450782E+02  0.23992005772E+01  0.31183840887E+02  0.51100000000E-03 0.  1.
         12    1    3    3    0    0 -0.26356454227E+00  0.43667109255E+01 -0.12277941055E+02  0.13034011935E+02  0.00000000000E+00 0. -1.
</event>
<event>
 7    1  0.1381607E-011  0.5052885E+02  0.7816164E-02  0.1300439E+00
        -11   -1    0    0    0    0  0.00000000000E+00  0.00000000000E+00  0.45593999997E+02  0.45594000000E+02  0.51100000000E-03 0. -1.
         11   -1    0    0    0    0 -0.00000000000E+00 -0.00000000000E+00 -0.45593999997E+02  0.45594000000E+02  0.51100000000E-03 0.  1.
    9900012    2    1    2    0    0 -0.16771646632E+02 -0.33941074054E+02  0.14828417467E+02  0.50528848469E+02  0.29999965406E+02 0.  0.
         12    1    1    2    0    0  0.16771646632E+02  0.33941074054E+02 -0.14828417467E+02  0.40659151531E+02  0.00000000000E+00 0. -1.
         11    1    3    3    0    0 -0.10148632744E+02 -0.16912657115E+02  0.11391151276E+02  0.22776984983E+02  0.51100000000E-03 0. -1.
        -11    1    3    3    0    0 -0.84907464270E+01 -0.20958453486E+02  0.72534719291E+00  0.22624669638E+02  0.51100000000E-03 0.  1.
         12    1    3    3    0    0  0.18677325393E+01  0.39300365476E+01  0.27119189979E+01  0.51271938480E+01  0.00000000000E+00 0. -1.
</event>
<event>
 7    1  0.1381607E-011  0.5052886E+02  0.7816164E-02  0.1300439E+00
        -11   -1    0    0    0    0  0.00000000000E+00  0.00000000000E+00  0.45593999997E+02  0.45594000000E+02  0.51100000000E-03 0.  1.
         11   -1    0    0    0    0 -0.00000000000E+00 -0.00000000000E+00 -0.45593999997E+02  0.45594000000E+02  0.51100000000E-03 0. -1.
    9900012    2    1    2    0    0  0.26104683129E+02  0.24662530682E+02  0.19064908532E+02  0.50528860335E+02  0.30000001475E+02 0.  0.
         12    1    1    2    0    0 -0.26104683129E+02 -0.24662530682E+02 -0.19064908532E+02  0.40659139665E+02  0.00000000000E+00 0. -1.
         11    1    3    3    0    0  0.54478946136E+00  0.11775389345E+02  0.73116894865E+01  0.13871459664E+02  0.51100000000E-03 0.  1.
        -11    1    3    3    0    0 -0.20009399417E+01  0.57435298980E+01  0.34839785464E+01  0.70092797856E+01  0.51100000000E-03 0. -1.
        -12    1    3    3    0    0  0.27560833610E+02  0.71436114391E+01  0.82692404990E+01  0.29648120886E+02  0.00000000000E+00 0.  1.
</event>
<event>
 7    1  0.1381607E-011  0.5052886E+02  0.7816164E-02  0.1300439E+00
        -11   -1    0    0    0    0  0.00000000000E+00  0.00000000000E+00  0.45593999997E+02  0.45594000000E+02  0.51100000000E-03 0.  1.
         11   -1    0    0    0    0 -0.00000000000E+00 -0.00000000000E+00 -0.45593999997E+02  0.45594000000E+02  0.51100000000E-03 0. -1.
    9900012    2    1    2    0    0 -0.32326468116E+02 -0.24659022210E+02 -0.31293264308E+00  0.50528857805E+02  0.29999993783E+02 0.  0.
         12    1    1    2    0    0  0.32326468116E+02  0.24659022210E+02  0.31293264308E+00  0.40659142195E+02  0.00000000000E+00 0. -1.
         11    1    3    3    0    0 -0.38046099969E+01  0.19239339190E+01  0.72707100934E+01  0.84285114034E+01  0.51100000000E-03 0. -1.
        -11    1    3    3    0    0 -0.43957621815E+00  0.15566654432E+01  0.53901564781E-01  0.16184375779E+01  0.51100000000E-03 0.  1.
        -12    1    3    3    0    0 -0.28082281901E+02 -0.28139621572E+02 -0.76375443013E+01  0.40481908823E+02  0.00000000000E+00 0.  1.
</event>
<event>
 7    1  0.1381607E-011  0.5052889E+02  0.7816164E-02  0.1300439E+00
        -11   -1    0    0    0    0  0.00000000000E+00  0.00000000000E+00  0.45593999997E+02  0.45594000000E+02  0.51100000000E-03 0.  1.
         11   -1    0    0    0    0 -0.00000000000E+00 -0.00000000000E+00 -0.45593999997E+02  0.45594000000E+02  0.51100000000E-03 0. -1.
    9900012    2    1    2    0    0  0.34721670926E+02 -0.12954360544E+02  0.16725829241E+02  0.50528889670E+02  0.30000090642E+02 0.  0.
         12    1    1    2    0    0 -0.34721670926E+02  0.12954360544E+02 -0.16725829241E+02  0.40659110330E+02  0.00000000000E+00 0. -1.
         11    1    3    3    0    0  0.49348079877E+01 -0.12180405882E+02  0.10991234646E+02  0.17132479582E+02  0.51100000000E-03 0. -1.
        -11    1    3    3    0    0  0.12329214417E+02 -0.41851625148E+01  0.82762484990E+01  0.15427942277E+02  0.51100000000E-03 0.  1.
         12    1    3    3    0    0  0.17457648522E+02  0.34112078526E+01 -0.25416539048E+01  0.17968467812E+02  0.00000000000E+00 0. -1.
</event>
<event>
 7    1  0.1381607E-011  0.5052886E+02  0.7816164E-02  0.1300439E+00
        -11   -1    0    0    0    0  0.00000000000E+00  0.00000000000E+00  0.45593999997E+02  0.45594000000E+02  0.51100000000E-03 0.  1.
         11   -1    0    0    0    0 -0.00000000000E+00 -0.00000000000E+00 -0.45593999997E+02  0.45594000000E+02  0.51100000000E-03 0. -1.
    9900012    2    1    2    0    0 -0.30940174003E+02 -0.46803993661E+01  0.25960843076E+02  0.50528857378E+02  0.29999992486E+02 0.  0.
         12    1    1    2    0    0  0.30940174003E+02  0.46803993661E+01 -0.25960843076E+02  0.40659142622E+02  0.00000000000E+00 0. -1.
         11    1    3    3    0    0  0.33232124450E+01  0.30487443982E+01  0.35928284587E+01  0.57660211546E+01  0.51100000000E-03 0. -1.
        -11    1    3    3    0    0 -0.11578198590E+02  0.42272618225E+01  0.31626220626E+01  0.12725038455E+02  0.51100000000E-03 0.  1.
        -12    1    3    3    0    0 -0.22685187858E+02 -0.11956405587E+02  0.19205392554E+02  0.32037797769E+02  0.00000000000E+00 0.  1.
</event>
<event>
 7    1  0.1381607E-011  0.5052891E+02  0.7816164E-02  0.1300439E+00
        -11   -1    0    0    0    0  0.00000000000E+00  0.00000000000E+00  0.45593999997E+02  0.45594000000E+02  0.51100000000E-03 0. -1.
         11   -1    0    0    0    0 -0.00000000000E+00 -0.00000000000E+00 -0.45593999997E+02  0.45594000000E+02  0.51100000000E-03 0.  1.
    9900012    2    1    2    0    0  0.85560273839E+01 -0.39636494468E+02  0.29840164550E+01  0.50528909349E+02  0.30000150458E+02 0.  0.
         12    1    1    2    0    0 -0.85560273839E+01  0.39636494468E+02 -0.29840164550E+01  0.40659090651E+02  0.00000000000E+00 0. -1.
         11    1    3    3    0    0 -0.26989501878E+01 -0.33042544578E+00 -0.14833024405E+01  0.30973697685E+01  0.51100000000E-03 0. -1.
        -11    1    3    3    0    0  0.12795878779E+02 -0.16043789567E+02 -0.66918749650E+01  0.21585154348E+02  0.51100000000E-03 0.  1.
         12    1    3    3    0    0 -0.15409012074E+01 -0.23262279456E+02  0.11159193860E+02  0.25846385233E+02  0.00000000000E+00 0. -1.
</event>
<event>
 7    1  0.1381607E-011  0.5052887E+02  0.7816164E-02  0.1300439E+00
        -11   -1    0    0    0    0  0.00000000000E+00  0.00000000000E+00  0.45593999997E+02  0.45594000000E+02  0.51100000000E-03 0.  1.
         11   -1    0    0    0    0 -0.00000000000E+00 -0.00000000000E+00 -0.45593999997E+02  0.45594000000E+02  0.51100000000E-03 0. -1.
    9900012    2    1    2    0    0  0.31354213598E+02  0.12026199070E+02  0.22922674843E+02  0.50528865769E+02  0.30000017993E+02 0.  0.
         12    1    1    2    0    0 -0.31354213598E+02 -0.12026199070E+02 -0.22922674843E+02  0.40659134231E+02  0.00000000000E+00 0. -1.
         11    1    3    3    0    0  0.12432429416E+02 -0.11062022797E+01  0.10899883645E+02  0.16570951946E+02  0.51100000000E-03 0. -1.
        -11    1    3    3    0    0  0.16903262563E+02  0.31035556498E+00  0.12410296578E+02  0.20972173642E+02  0.51100000000E-03 0.  1.
         12    1    3    3    0    0  0.20185216190E+01  0.12822045785E+02 -0.38750538022E+00  0.12985740181E+02  0.00000000000E+00 0. -1.
</event>
<event>
 7    1  0.1381607E-011  0.5052884E+02  0.7816164E-02  0.1300439E+00
        -11   -1    0    0    0    0  0.00000000000E+00  0.00000000000E+00  0.45593999997E+02  0.45594000000E+02  0.51100000000E-03 0.  1.
         11   -1    0    0    0    0 -0.00000000000E+00 -0.00000000000E+00 -0.45593999997E+02  0.45594000000E+02  0.51100000000E-03 0. -1.
    9900012    2    1    2    0    0 -0.37180529126E+02 -0.16422103959E+02  0.10439035522E+01  0.50528843846E+02  0.29999951354E+02 0.  0.
         12    1    1    2    0    0  0.37180529126E+02  0.16422103959E+02 -0.10439035522E+01  0.40659156154E+02  0.00000000000E+00 0. -1.
         11    1    3    3    0    0  0.14286141885E+00 -0.58678592610E+01 -0.41072602574E+00  0.58839508683E+01  0.51100000000E-03 0. -1.
        -11    1    3    3    0    0 -0.26206744640E+02 -0.10936826035E+02 -0.85789996790E+01  0.29664909643E+02  0.51100000000E-03 0.  1.
        -12    1    3    3    0    0 -0.11116645905E+02  0.38258133751E+00  0.10033629257E+02  0.14979983335E+02  0.00000000000E+00 0.  1.
</event>
<event>
 7    1  0.1381607E-011  0.5052895E+02  0.7816164E-02  0.1300438E+00
        -11   -1    0    0    0    0  0.00000000000E+00  0.00000000000E+00  0.45593999997E+02  0.45594000000E+02  0.51100000000E-03 0.  1.
         11   -1    0    0    0    0 -0.00000000000E+00 -0.00000000000E+00 -0.45593999997E+02  0.45594000000E+02  0.51100000000E-03 0. -1.
    9900012    2    1    2    0    0 -0.17652528012E+02  0.13260269182E+02  0.34142524724E+02  0.50528948381E+02  0.30000269099E+02 0.  0.
         12    1    1    2    0    0  0.17652528012E+02 -0.13260269182E+02 -0.34142524724E+02  0.40659051619E+02  0.00000000000E+00 0. -1.
         11    1    3    3    0    0  0.38352212969E+01  0.88174886160E+01  0.55096892875E+01  0.11082134460E+02  0.51100000000E-03 0. -1.
        -11    1    3    3    0    0 -0.11395415288E+00 -0.40590983152E+01  0.33347777063E+01  0.52545225561E+01  0.51100000000E-03 0.  1.
        -12    1    3    3    0    0 -0.21373795156E+02  0.85018788814E+01  0.25298057730E+02  0.34192291365E+02  0.00000000000E+00 0.  1.
</event>
<event>
 7    1  0.1381607E-011  0.5052884E+02  0.7816164E-02  0.1300439E+00
        -11   -1    0    0    0    0  0.00000000000E+00  0.00000000000E+00  0.45593999997E+02  0.45594000000E+02  0.51100000000E-03 0.  1.
         11   -1    0    0    0    0 -0.00000000000E+00 -0.00000000000E+00 -0.45593999997E+02  0.45594000000E+02  0.51100000000E-03 0. -1.
    9900012    2    1    2    0    0 -0.37174240633E+02 -0.16461807744E+02 -0.50212813380E+00  0.50528838505E+02  0.29999935120E+02 0.  0.
         12    1    1    2    0    0  0.37174240633E+02  0.16461807744E+02  0.50212813380E+00  0.40659161495E+02  0.00000000000E+00 0. -1.
         11    1    3    3    0    0  0.36687680342E+01 -0.34461271425E+01  0.32049873041E+00  0.50436465844E+01  0.51100000000E-03 0. -1.
        -11    1    3    3    0    0 -0.25617964247E+02 -0.82700764330E+01  0.68651768151E+01  0.27781377024E+02  0.51100000000E-03 0.  1.
        -12    1    3    3    0    0 -0.15225044420E+02 -0.47456041681E+01 -0.76878036793E+01  0.17703814897E+02  0.00000000000E+00 0.  1.
</event>
<event>
 7    1  0.1381607E-011  0.5052892E+02  0.7816164E-02  0.1300439E+00
        -11   -1    0    0    0    0  0.00000000000E+00  0.00000000000E+00  0.45593999997E+02  0.45594000000E+02  0.51100000000E-03 0.  1.
         11   -1    0    0    0    0 -0.00000000000E+00 -0.00000000000E+00 -0.45593999997E+02  0.45594000000E+02  0.51100000000E-03 0. -1.
    9900012    2    1    2    0    0 -0.38657338133E+02 -0.11081911446E+02  0.59968701154E+01  0.50528917325E+02  0.30000174700E+02 0.  0.
         12    1    1    2    0    0  0.38657338133E+02  0.11081911446E+02 -0.59968701154E+01  0.40659082675E+02  0.00000000000E+00 0. -1.
         11    1    3    3    0    0 -0.10937223658E+02  0.46156952317E+01 -0.70010439731E+01  0.13781949092E+02  0.51100000000E-03 0. -1.
        -11    1    3    3    0    0 -0.10949097858E+02 -0.13487918649E+02  0.53101290431E+01  0.18166016738E+02  0.51100000000E-03 0.  1.
        -12    1    3    3    0    0 -0.16771016617E+02 -0.22096880289E+01  0.76877850454E+01  0.18580951495E+02  0.00000000000E+00 0.  1.
</event>
<event>
 7    1  0.1381607E-011  0.5052886E+02  0.7816164E-02  0.1300439E+00
        -11   -1    0    0    0    0  0.00000000000E+00  0.00000000000E+00  0.45593999997E+02  0.45594000000E+02  0.51100000000E-03 0. -1.
         11   -1    0    0    0    0 -0.00000000000E+00 -0.00000000000E+00 -0.45593999997E+02  0.45594000000E+02  0.51100000000E-03 0.  1.
    9900012    2    1    2    0    0 -0.37786753850E+02  0.13860594470E+02  0.57628608048E+01  0.50528863140E+02  0.30000010000E+02 0.  0.
         12    1    1    2    0    0  0.37786753850E+02 -0.13860594470E+02 -0.57628608048E+01  0.40659136860E+02  0.00000000000E+00 0. -1.
         11    1    3    3    0    0 -0.27126208626E+02 -0.25788557933E+01  0.10867054834E+02  0.29335551344E+02  0.51100000000E-03 0. -1.
        -11    1    3    3    0    0 -0.42538449117E+01  0.48551051031E+01  0.11428422638E+01  0.65554047011E+01  0.51100000000E-03 0.  1.
         12    1    3    3    0    0 -0.64067003122E+01  0.11584345160E+02 -0.62470362933E+01  0.14637907095E+02  0.00000000000E+00 0. -1.
</event>
<event>
 7    1  0.1381607E-011  0.5052887E+02  0.7816164E-02  0.1300439E+00
        -11   -1    0    0    0    0  0.00000000000E+00  0.00000000000E+00  0.45593999997E+02  0.45594000000E+02  0.51100000000E-03 0.  1.
         11   -1    0    0    0    0 -0.00000000000E+00 -0.00000000000E+00 -0.45593999997E+02  0.45594000000E+02  0.51100000000E-03 0. -1.
    9900012    2    1    2    0    0 -0.26795914259E+02 -0.28604251596E+02  0.10813905789E+02  0.50528870782E+02  0.30000033229E+02 0.  0.
         12    1    1    2    0    0  0.26795914259E+02  0.28604251596E+02 -0.10813905789E+02  0.40659129218E+02  0.00000000000E+00 0. -1.
         11    1    3    3    0    0 -0.10443642354E+02 -0.15577470336E+02  0.10158578615E+02  0.21328946702E+02  0.51100000000E-03 0. -1.
        -11    1    3    3    0    0 -0.18456482272E+02 -0.60334776453E+01  0.58016149523E+01  0.20265816704E+02  0.51100000000E-03 0.  1.
         12    1    3    3    0    0  0.21042103665E+01 -0.69933036144E+01 -0.51462877781E+01  0.89341073759E+01  0.00000000000E+00 0. -1.
</event>
<event>
 7    1  0.1381607E-011  0.5052886E+02  0.7816164E-02  0.1300439E+00
        -11   -1    0    0    0    0  0.00000000000E+00  0.00000000000E+00  0.45593999997E+02  0.45594000000E+02  0.51100000000E-03 0.  1.
         11   -1    0    0    0    0 -0.00000000000E+00 -0.00000000000E+00 -0.45593999997E+02  0.45594000000E+02  0.51100000000E-03 0. -1.
    9900012    2    1    2    0    0  0.16007181758E+02 -0.14881361459E+02  0.34285286136E+02  0.50528860411E+02  0.30000001705E+02 0.  0.
         12    1    1    2    0    0 -0.16007181758E+02  0.14881361459E+02 -0.34285286136E+02  0.40659139589E+02  0.00000000000E+00 0. -1.
         11    1    3    3    0    0  0.28489055332E+01 -0.12080623457E+02  0.18382337356E+02  0.22180352855E+02  0.51100000000E-03 0. -1.
        -11    1    3    3    0    0  0.62903527740E+01  0.13904833542E+01  0.18740611847E+02  0.19816975416E+02  0.51100000000E-03 0.  1.
         12    1    3    3    0    0  0.68679234507E+01 -0.41912213563E+01 -0.28376630666E+01  0.85315321404E+01  0.00000000000E+00 0. -1.
</event>
<event>
 7    1  0.1381607E-011  0.5052888E+02  0.7816164E-02  0.1300439E+00
        -11   -1    0    0    0    0  0.00000000000E+00  0.00000000000E+00  0.45593999997E+02  0.45594000000E+02  0.51100000000E-03 0.  1.
         11   -1    0    0    0    0 -0.00000000000E+00 -0.00000000000E+00 -0.45593999997E+02  0.45594000000E+02  0.51100000000E-03 0. -1.
    9900012    2    1    2    0    0 -0.45194062396E+01 -0.17879116686E+02  0.36236392603E+02  0.50528880542E+02  0.30000062895E+02 0.  0.
         12    1    1    2    0    0  0.45194062396E+01  0.17879116686E+02 -0.36236392603E+02  0.40659119458E+02  0.00000000000E+00 0. -1.
         11    1    3    3    0    0  0.60266180325E+01 -0.77844845478E+01  0.23869088125E+01  0.10129938723E+02  0.51100000000E-03 0. -1.
        -11    1    3    3    0    0 -0.21980303043E+01 -0.12899793413E+02  0.17806140462E+02  0.22097390021E+02  0.51100000000E-03 0.  1.
         12    1    3    3    0    0 -0.83479939678E+01  0.28051612750E+01  0.16043343328E+02  0.18301551798E+02  0.00000000000E+00 0. -1.
</event>
<event>
 7    1  0.1381607E-011  0.5052886E+02  0.7816164E-02  0.1300439E+00
        -11   -1    0    0    0    0  0.00000000000E+00  0.00000000000E+00  0.45593999997E+02  0.45594000000E+02  0.51100000000E-03 0.  1.
         11   -1    0    0    0    0 -0.00000000000E+00 -0.00000000000E+00 -0.45593999997E+02  0.45594000000E+02  0.51100000000E-03 0. -1.
    9900012    2    1    2    0    0 -0.41505071594E+01 -0.18308723126E+02  0.36065632504E+02  0.50528857116E+02  0.29999991689E+02 0.  0.
         12    1    1    2    0    0  0.41505071594E+01  0.18308723126E+02 -0.36065632504E+02  0.40659142884E+02  0.00000000000E+00 0. -1.
         11    1    3    3    0    0  0.97122814227E+00  0.39872165252E+01  0.65665714066E+00  0.41560051233E+01  0.51100000000E-03 0. -1.
        -11    1    3    3    0    0  0.72952008779E+01 -0.59347853996E+01  0.11215117541E+02  0.14636273273E+02  0.51100000000E-03 0.  1.
        -12    1    3    3    0    0 -0.12416936180E+02 -0.16361154252E+02  0.24193857822E+02  0.31736578720E+02  0.00000000000E+00 0.  1.
</event>
<event>
 7    1  0.1381607E-011  0.5052886E+02  0.7816164E-02  0.1300439E+00
        -11   -1    0    0    0    0  0.00000000000E+00  0.00000000000E+00  0.45593999997E+02  0.45594000000E+02  0.51100000000E-03 0. -1.
         11   -1    0    0    0    0 -0.00000000000E+00 -0.00000000000E+00 -0.45593999997E+02  0.45594000000E+02  0.51100000000E-03 0.  1.
    9900012    2    1    2    0    0 -0.22282072799E+02  0.30385746667E+02 -0.15276825709E+02  0.50528858685E+02  0.29999996458E+02 0.  0.
         12    1    1    2    0    0  0.22282072799E+02 -0.30385746667E+02  0.15276825709E+02  0.40659141315E+02  0.00000000000E+00 0. -1.
         11    1    3    3    0    0 -0.83487797417E+01 -0.12562304524E+01 -0.37178283461E+01  0.92251008665E+01  0.51100000000E-03 0. -1.
        -11    1    3    3    0    0  0.14971605170E+01  0.33122373565E+01  0.40707266309E+01  0.54574006161E+01  0.51100000000E-03 0.  1.
        -12    1    3    3    0    0 -0.15430453575E+02  0.28329739763E+02 -0.15629723994E+02  0.35846357202E+02  0.00000000000E+00 0.  1.
</event>
<event>
 7    1  0.1381607E-011  0.5052886E+02  0.7816164E-02  0.1300439E+00
        -11   -1    0    0    0    0  0.00000000000E+00  0.00000000000E+00  0.45593999997E+02  0.45594000000E+02  0.51100000000E-03 0.  1.
         11   -1    0    0    0    0 -0.00000000000E+00 -0.00000000000E+00 -0.45593999997E+02  0.45594000000E+02  0.51100000000E-03 0. -1.
    9900012    2    1    2    0    0  0.33127853387E+02  0.57828120951E+01  0.22853230390E+02  0.50528859268E+02  0.29999998232E+02 0.  0.
         12    1    1    2    0    0 -0.33127853387E+02 -0.57828120951E+01 -0.22853230390E+02  0.40659140732E+02  0.00000000000E+00 0. -1.
         11    1    3    3    0    0  0.19816156491E+01 -0.50272824602E+00 -0.33355484728E+01  0.39122142254E+01  0.51100000000E-03 0. -1.
        -11    1    3    3    0    0  0.27489770399E+02 -0.93812911662E+00  0.11436380273E+02  0.29788560839E+02  0.51100000000E-03 0.  1.
        -12    1    3    3    0    0  0.36564673390E+01  0.72236694577E+01  0.14752398589E+02  0.16828084204E+02  0.00000000000E+00 0.  1.
</event>
<event>
 7    1  0.1381607E-011  0.5052886E+02  0.7816164E-02  0.1300439E+00
        -11   -1    0    0    0    0  0.00000000000E+00  0.00000000000E+00  0.45593999997E+02  0.45594000000E+02  0.51100000000E-03 0.  1.
         11   -1    0    0    0    0 -0.00000000000E+00 -0.00000000000E+00 -0.45593999997E+02  0.45594000000E+02  0.51100000000E-03 0. -1.
    9900012    2    1    2    0    0 -0.20445360066E+02  0.17749578805E+02  0.30333240411E+02  0.50528858717E+02  0.29999996556E+02 0.  0.
         12    1    1    2    0    0  0.20445360066E+02 -0.17749578805E+02 -0.30333240411E+02  0.40659141283E+02  0.00000000000E+00 0. -1.
         11    1    3    3    0    0 -0.12213357178E+02  0.12625356915E+02  0.90442473909E+01  0.19757635028E+02  0.51100000000E-03 0. -1.
        -11    1    3    3    0    0 -0.90296173852E+01 -0.50159427309E+01  0.16645460023E+02  0.19589921165E+02  0.51100000000E-03 0.  1.
         12    1    3    3    0    0  0.79761449653E+00  0.10140164621E+02  0.46435329970E+01  0.11181302524E+02  0.00000000000E+00 0. -1.
</event>
<event>
 7    1  0.1381607E-011  0.5052886E+02  0.7816164E-02  0.1300439E+00
        -11   -1    0    0    0    0  0.00000000000E+00  0.00000000000E+00  0.45593999997E+02  0.45594000000E+02  0.51100000000E-03 0. -1.
         11   -1    0    0    0    0 -0.00000000000E+00 -0.00000000000E+00 -0.45593999997E+02  0.45594000000E+02  0.51100000000E-03 0.  1.
    9900012    2    1    2    0    0 -0.26255533315E+02  0.60660560658E+01 -0.30446935244E+02  0.50528856728E+02  0.29999990510E+02 0.  0.
         12    1    1    2    0    0  0.26255533315E+02 -0.60660560658E+01  0.30446935244E+02  0.40659143272E+02  0.00000000000E+00 0. -1.
         11    1    3    3    0    0  0.15216726368E+01  0.65884486289E+01 -0.16762467522E+02  0.18074940129E+02  0.51100000000E-03 0. -1.
        -11    1    3    3    0    0 -0.71004063207E+01  0.29922498438E+01 -0.70832484685E+01  0.10466218905E+02  0.51100000000E-03 0.  1.
         12    1    3    3    0    0 -0.20676799631E+02 -0.35146424068E+01 -0.66012192534E+01  0.21987697694E+02  0.00000000000E+00 0. -1.
</event>
<event>
 7    1  0.1381607E-011  0.5052886E+02  0.7816164E-02  0.1300439E+00
        -11   -1    0    0    0    0  0.00000000000E+00  0.00000000000E+00  0.45593999997E+02  0.45594000000E+02  0.51100000000E-03 0.  1.
         11   -1    0    0    0    0 -0.00000000000E+00 -0.00000000000E+00 -0.45593999997E+02  0.45594000000E+02  0.51100000000E-03 0. -1.
    9900012    2    1    2    0    0 -0.90189991718E+01  0.27368771532E+02  0.28684037322E+02  0.50528855908E+02  0.29999988019E+02 0.  0.
         12    1    1    2    0    0  0.90189991718E+01 -0.27368771532E+02 -0.28684037322E+02  0.40659144092E+02  0.00000000000E+00 0. -1.
         11    1    3    3    0    0 -0.14032819431E+02  0.18850784856E+02  0.90167022729E+01  0.25170876644E+02  0.51100000000E-03 0. -1.
        -11    1    3    3    0    0  0.43016067973E+01  0.11406431556E+02  0.11880671518E+02  0.17022363463E+02  0.51100000000E-03 0.  1.
        -12    1    3    3    0    0  0.71221346230E+00 -0.28884448808E+01  0.77866635309E+01  0.83356158014E+01  0.00000000000E+00 0.  1.
</event>
<event>
 7    1  0.1381607E-011  0.5052888E+02  0.7816164E-02  0.1300439E+00
        -11   -1    0    0    0    0  0.00000000000E+00  0.00000000000E+00  0.45593999997E+02  0.45594000000E+02  0.51100000000E-03 0.  1.
         11   -1    0    0    0    0 -0.00000000000E+00 -0.00000000000E+00 -0.45593999997E+02  0.45594000000E+02  0.51100000000E-03 0. -1.
    9900012    2    1    2    0    0  0.38098927302E+02  0.10667072084E+02  0.93728169313E+01  0.50528875739E+02  0.30000048297E+02 0.  0.
         12    1    1    2    0    0 -0.38098927302E+02 -0.10667072084E+02 -0.93728169313E+01  0.40659124261E+02  0.00000000000E+00 0. -1.
         11    1    3    3    0    0  0.43851727211E+01 -0.47112125168E+01  0.55162239342E+01  0.84766732817E+01  0.51100000000E-03 0. -1.
        -11    1    3    3    0    0  0.12869537223E+02  0.61088407211E+01  0.11162831721E+02  0.18098390414E+02  0.51100000000E-03 0.  1.
         12    1    3    3    0    0  0.20844217358E+02  0.92694438801E+01 -0.73062387242E+01  0.23953812043E+02  0.00000000000E+00 0. -1.
</event>
<event>
 7    1  0.1381607E-011  0.5052887E+02  0.7816164E-02  0.1300439E+00
        -11   -1    0    0    0    0  0.00000000000E+00  0.00000000000E+00  0.45593999997E+02  0.45594000000E+02  0.51100000000E-03 0.  1.
         11   -1    0    0    0    0 -0.00000000000E+00 -0.00000000000E+00 -0.45593999997E+02  0.45594000000E+02  0.51100000000E-03 0. -1.
    9900012    2    1    2    0    0  0.34216381968E+02  0.16149397374E+02  0.14886270719E+02  0.50528869581E+02  0.30000029577E+02 0.  0.
         12    1    1    2    0    0 -0.34216381968E+02 -0.16149397374E+02 -0.14886270719E+02  0.40659130419E+02  0.00000000000E+00 0. -1.
         11    1    3    3    0    0  0.18039951867E+02  0.18902563678E+02  0.22254935238E+01  0.26224027125E+02  0.51100000000E-03 0. -1.
        -11    1    3    3    0    0  0.39984302790E+01 -0.45307896286E+01 -0.76587854718E+00  0.60911468185E+01  0.51100000000E-03 0.  1.
        -12    1    3    3    0    0  0.12177999822E+02  0.17776233252E+01  0.13426655742E+02  0.18213695638E+02  0.00000000000E+00 0.  1.
</event>
<event>
 7    1  0.1381607E-011  0.5052886E+02  0.7816164E-02  0.1300439E+00
        -11   -1    0    0    0    0  0.00000000000E+00  0.00000000000E+00  0.45593999997E+02  0.45594000000E+02  0.51100000000E-03 0.  1.
         11   -1    0    0    0    0 -0.00000000000E+00 -0.00000000000E+00 -0.45593999997E+02  0.45594000000E+02  0.51100000000E-03 0. -1.
    9900012    2    1    2    0    0  0.24879398393E+02  0.23026312035E+02  0.22449281548E+02  0.50528858932E+02  0.29999997211E+02 0.  0.
         12    1    1    2    0    0 -0.24879398393E+02 -0.23026312035E+02 -0.22449281548E+02  0.40659141068E+02  0.00000000000E+00 0. -1.
         11    1    3    3    0    0  0.14293647573E+02  0.13646043516E+02  0.91418752440E+01  0.21773762831E+02  0.51100000000E-03 0. -1.
        -11    1    3    3    0    0  0.17142121719E+02  0.68302042133E+01  0.94373094771E+01  0.20725994235E+02  0.51100000000E-03 0.  1.
         12    1    3    3    0    0 -0.65563708988E+01  0.25500643057E+01  0.38700968265E+01  0.80291018658E+01  0.00000000000E+00 0. -1.
</event>
<event>
 7    1  0.1381607E-011  0.5052885E+02  0.7816164E-02  0.1300439E+00
        -11   -1    0    0    0    0  0.00000000000E+00  0.00000000000E+00  0.45593999997E+02  0.45594000000E+02  0.51100000000E-03 0.  1.
         11   -1    0    0    0    0 -0.00000000000E+00 -0.00000000000E+00 -0.45593999997E+02  0.45594000000E+02  0.51100000000E-03 0. -1.
    9900012    2    1    2    0    0  0.46288563604E+01  0.21154827200E+02  0.34412401363E+02  0.50528851058E+02  0.29999973277E+02 0.  0.
         12    1    1    2    0    0 -0.46288563604E+01 -0.21154827200E+02 -0.34412401363E+02  0.40659148942E+02  0.00000000000E+00 0. -1.
         11    1    3    3    0    0  0.24004754098E+01  0.16077787402E+02  0.19615815060E+02  0.25476218924E+02  0.51100000000E-03 0. -1.
        -11    1    3    3    0    0  0.44550031302E+01  0.37615581463E+01  0.19134040490E+02  0.20002696776E+02  0.51100000000E-03 0.  1.
         12    1    3    3    0    0 -0.22266221795E+01  0.13154816524E+01 -0.43374541865E+01  0.50499353588E+01  0.00000000000E+00 0. -1.
</event>
<event>
 7    1  0.1381607E-011  0.5052886E+02  0.7816164E-02  0.1300439E+00
        -11   -1    0    0    0    0  0.00000000000E+00  0.00000000000E+00  0.45593999997E+02  0.45594000000E+02  0.51100000000E-03 0.  1.
         11   -1    0    0    0    0 -0.00000000000E+00 -0.00000000000E+00 -0.45593999997E+02  0.45594000000E+02  0.51100000000E-03 0. -1.
    9900012    2    1    2    0    0  0.35335115726E+02 -0.18875028714E+02  0.69518474891E+01  0.50528864546E+02  0.30000014275E+02 0.  0.
         12    1    1    2    0    0 -0.35335115726E+02  0.18875028714E+02 -0.69518474891E+01  0.40659135454E+02  0.00000000000E+00 0. -1.
         11    1    3    3    0    0  0.34497447064E+01  0.31636103708E+01 -0.14910786456E+01  0.49124825604E+01  0.51100000000E-03 0. -1.
        -11    1    3    3    0    0  0.10668101063E+02 -0.23483207421E+01  0.12259068032E+02  0.16419736291E+02  0.51100000000E-03 0.  1.
         12    1    3    3    0    0  0.21217269956E+02 -0.19690318343E+02 -0.38161418975E+01  0.29196645695E+02  0.00000000000E+00 0. -1.
</event>
<event>
 7    1  0.1381607E-011  0.5052886E+02  0.7816164E-02  0.1300439E+00
        -11   -1    0    0    0    0  0.00000000000E+00  0.00000000000E+00  0.45593999997E+02  0.45594000000E+02  0.51100000000E-03 0.  1.
         11   -1    0    0    0    0 -0.00000000000E+00 -0.00000000000E+00 -0.45593999997E+02  0.45594000000E+02  0.51100000000E-03 0. -1.
    9900012    2    1    2    0    0 -0.38363604464E+02 -0.88525249633E+00  0.13439353318E+02  0.50528855432E+02  0.29999986570E+02 0.  0.
         12    1    1    2    0    0  0.38363604464E+02  0.88525249633E+00 -0.13439353318E+02  0.40659144568E+02  0.00000000000E+00 0. -1.
         11    1    3    3    0    0 -0.10081977499E+01  0.43039612144E+01 -0.42583171735E+01  0.61378994981E+01  0.51100000000E-03 0. -1.
        -11    1    3    3    0    0 -0.18960829844E+02 -0.52702119937E+01  0.12567949549E+01  0.19719729629E+02  0.51100000000E-03 0.  1.
        -12    1    3    3    0    0 -0.18394576870E+02  0.80998282932E-01  0.16440875537E+02  0.24671226304E+02  0.00000000000E+00 0.  1.
</event>
<event>
 7    1  0.1381607E-011  0.5052886E+02  0.7816164E-02  0.1300439E+00
        -11   -1    0    0    0    0  0.00000000000E+00  0.00000000000E+00  0.45593999997E+02  0.45594000000E+02  0.51100000000E-03 0.  1.
         11   -1    0    0    0    0 -0.00000000000E+00 -0.00000000000E+00 -0.45593999997E+02  0.45594000000E+02  0.51100000000E-03 0. -1.
    9900012    2    1    2    0    0  0.14487730550E+01 -0.11104916889E+01  0.40618145261E+02  0.50528857614E+02  0.29999993202E+02 0.  0.
         12    1    1    2    0    0 -0.14487730550E+01  0.11104916889E+01 -0.40618145261E+02  0.40659142386E+02  0.00000000000E+00 0. -1.
         11    1    3    3    0    0  0.38608395350E+01 -0.47994059515E+01  0.23857304331E+02  0.24639629656E+02  0.51100000000E-03 0. -1.
        -11    1    3    3    0    0 -0.72022323599E+01 -0.49913184515E+01  0.12085251837E+02  0.14927783596E+02  0.51100000000E-03 0.  1.
         12    1    3    3    0    0  0.47901658798E+01  0.86802327141E+01  0.46755890932E+01  0.10961444362E+02  0.00000000000E+00 0. -1.
</event>
<event>
 7    1  0.1381607E-011  0.5052885E+02  0.7816164E-02  0.1300439E+00
        -11   -1    0    0    0    0  0.00000000000E+00  0.00000000000E+00  0.45593999997E+02  0.45594000000E+02  0.51100000000E-03 0. -1.
         11   -1    0    0    0    0 -0.00000000000E+00 -0.00000000000E+00 -0.45593999997E+02  0.45594000000E+02  0.51100000000E-03 0.  1.
    9900012    2    1    2    0    0 -0.18274032204E+02  0.14775157390E+02 -0.33180124936E+02  0.50528853186E+02  0.29999979745E+02 0.  0.
         12    1    1    2    0    0  0.18274032204E+02 -0.14775157390E+02  0.33180124936E+02  0.40659146814E+02  0.00000000000E+00 0. -1.
         11    1    3    3    0    0  0.70635875620E+01  0.15046863352E+01 -0.69349936346E+01  0.10012616401E+02  0.51100000000E-03 0. -1.
        -11    1    3    3    0    0  0.98090858588E-01 -0.14646814710E+01 -0.11256989579E+01  0.18498951411E+01  0.51100000000E-03 0.  1.
        -12    1    3    3    0    0 -0.25435710624E+02  0.14735152526E+02 -0.25119432343E+02  0.38666341644E+02  0.00000000000E+00 0.  1.
</event>
<event>
 7    1  0.1381607E-011  0.5052890E+02  0.7816164E-02  0.1300439E+00
        -11   -1    0    0    0    0  0.00000000000E+00  0.00000000000E+00  0.45593999997E+02  0.45594000000E+02  0.51100000000E-03 0. -1.
         11   -1    0    0    0    0 -0.00000000000E+00 -0.00000000000E+00 -0.45593999997E+02  0.45594000000E+02  0.51100000000E-03 0.  1.
    9900012    2    1    2    0    0 -0.73853407357E+01  0.13074963470E+02 -0.37784449783E+02  0.50528898031E+02  0.30000116055E+02 0.  0.
         12    1    1    2    0    0  0.73853407357E+01 -0.13074963470E+02  0.37784449783E+02  0.40659101969E+02  0.00000000000E+00 0. -1.
         11    1    3    3    0    0 -0.79768031503E+01  0.40688014471E+01 -0.98591924207E+01  0.13318716498E+02  0.51100000000E-03 0. -1.
        -11    1    3    3    0    0 -0.20696657183E+01 -0.75408717793E+01 -0.94494922311E+01  0.12265446061E+02  0.51100000000E-03 0.  1.
        -12    1    3    3    0    0  0.26611281329E+01  0.16547033802E+02 -0.18475765131E+02  0.24944735472E+02  0.00000000000E+00 0.  1.
</event>
<event>
 7    1  0.1381607E-011  0.5052886E+02  0.7816164E-02  0.1300439E+00
        -11   -1    0    0    0    0  0.00000000000E+00  0.00000000000E+00  0.45593999997E+02  0.45594000000E+02  0.51100000000E-03 0. -1.
         11   -1    0    0    0    0 -0.00000000000E+00 -0.00000000000E+00 -0.45593999997E+02  0.45594000000E+02  0.51100000000E-03 0.  1.
    9900012    2    1    2    0    0 -0.34752903396E+02  0.69516771858E+01  0.19926756996E+02  0.50528858906E+02  0.29999997131E+02 0.  0.
         12    1    1    2    0    0  0.34752903396E+02 -0.69516771858E+01 -0.19926756996E+02  0.40659141094E+02  0.00000000000E+00 0. -1.
         11    1    3    3    0    0 -0.10133960486E+02  0.12555204460E+01 -0.45214267089E+01  0.11167667011E+02  0.51100000000E-03 0.  1.
        -11    1    3    3    0    0 -0.85067427308E+01  0.88899512904E+01  0.36008389326E+01  0.12820372347E+02  0.51100000000E-03 0. -1.
         12    1    3    3    0    0 -0.16112200178E+02 -0.31937945505E+01  0.20847344772E+02  0.26540819548E+02  0.00000000000E+00 0. -1.
</event>
<event>
 7    1  0.1381607E-011  0.5052884E+02  0.7816164E-02  0.1300439E+00
        -11   -1    0    0    0    0  0.00000000000E+00  0.00000000000E+00  0.45593999997E+02  0.45594000000E+02  0.51100000000E-03 0.  1.
         11   -1    0    0    0    0 -0.00000000000E+00 -0.00000000000E+00 -0.45593999997E+02  0.45594000000E+02  0.51100000000E-03 0. -1.
    9900012    2    1    2    0    0 -0.25987421609E+02  0.25849872769E+02  0.17595605341E+02  0.50528839515E+02  0.29999938189E+02 0.  0.
         12    1    1    2    0    0  0.25987421609E+02 -0.25849872769E+02 -0.17595605341E+02  0.40659160485E+02  0.00000000000E+00 0. -1.
         11    1    3    3    0    0 -0.98780738429E+01 -0.26223683535E+00  0.19488240433E+01  0.10071892891E+02  0.51100000000E-03 0. -1.
        -11    1    3    3    0    0 -0.68269623859E+01  0.77910406263E-01 -0.26351292097E+01  0.73182915809E+01  0.51100000000E-03 0.  1.
        -12    1    3    3    0    0 -0.92823853802E+01  0.26034199198E+02  0.18281910507E+02  0.33138655042E+02  0.00000000000E+00 0.  1.
</event>
<event>
 7    1  0.1381607E-011  0.5052887E+02  0.7816164E-02  0.1300439E+00
        -11   -1    0    0    0    0  0.00000000000E+00  0.00000000000E+00  0.45593999997E+02  0.45594000000E+02  0.51100000000E-03 0.  1.
         11   -1    0    0    0    0 -0.00000000000E+00 -0.00000000000E+00 -0.45593999997E+02  0.45594000000E+02  0.51100000000E-03 0. -1.
    9900012    2    1    2    0    0  0.16122156512E+02  0.33344490271E+02  0.16774572736E+02  0.50528865079E+02  0.30000015895E+02 0.  0.
         12    1    1    2    0    0 -0.16122156512E+02 -0.33344490271E+02 -0.16774572736E+02  0.40659134921E+02  0.00000000000E+00 0. -1.
         11    1    3    3    0    0  0.12024295321E+02  0.27354756548E+02  0.13072197821E+02  0.32615161197E+02  0.51100000000E-03 0. -1.
        -11    1    3    3    0    0  0.34340242507E+00  0.10706661350E+02 -0.23215719513E+00  0.10714682436E+02  0.51100000000E-03 0.  1.
         12    1    3    3    0    0  0.37544587656E+01 -0.47169276265E+01  0.39345321108E+01  0.71990214465E+01  0.00000000000E+00 0. -1.
</event>
<event>
 7    1  0.1381607E-011  0.5052886E+02  0.7816164E-02  0.1300439E+00
        -11   -1    0    0    0    0  0.00000000000E+00  0.00000000000E+00  0.45593999997E+02  0.45594000000E+02  0.51100000000E-03 0.  1.
         11   -1    0    0    0    0 -0.00000000000E+00 -0.00000000000E+00 -0.45593999997E+02  0.45594000000E+02  0.51100000000E-03 0. -1.
    9900012    2    1    2    0    0  0.12258717003E+02 -0.25453367348E+02  0.29240652110E+02  0.50528858497E+02  0.29999995887E+02 0.  0.
         12    1    1    2    0    0 -0.12258717003E+02  0.25453367348E+02 -0.29240652110E+02  0.40659141503E+02  0.00000000000E+00 0. -1.
         11    1    3    3    0    0  0.66414708443E+01 -0.18957357487E+02  0.18631240688E+02  0.27397329573E+02  0.51100000000E-03 0. -1.
        -11    1    3    3    0    0 -0.62402104982E+01 -0.59529570203E+01  0.53477049976E+01  0.10147702861E+02  0.51100000000E-03 0.  1.
         12    1    3    3    0    0  0.11857456656E+02 -0.54305284069E+00  0.52617064251E+01  0.12983826064E+02  0.00000000000E+00 0. -1.
</event>
<event>
 7    1  0.1381607E-011  0.5052886E+02  0.7816164E-02  0.1300439E+00
        -11   -1    0    0    0    0  0.00000000000E+00  0.00000000000E+00  0.45593999997E+02  0.45594000000E+02  0.51100000000E-03 0.  1.
         11   -1    0    0    0    0 -0.00000000000E+00 -0.00000000000E+00 -0.45593999997E+02  0.45594000000E+02  0.51100000000E-03 0. -1.
    9900012    2    1    2    0    0 -0.28764614518E+02 -0.23740716263E+02  0.16190767111E+02  0.50528860846E+02  0.30000003029E+02 0.  0.
         12    1    1    2    0    0  0.28764614518E+02  0.23740716263E+02 -0.16190767111E+02  0.40659139154E+02  0.00000000000E+00 0. -1.
         11    1    3    3    0    0 -0.10633910473E+02  0.35678611156E+01  0.57201406206E+01  0.12590857551E+02  0.51100000000E-03 0. -1.
        -11    1    3    3    0    0 -0.18981495841E+01 -0.76128543068E+01  0.96026372602E+01  0.12400369557E+02  0.51100000000E-03 0.  1.
        -12    1    3    3    0    0 -0.16232554461E+02 -0.19695723072E+02  0.86798923045E+00  0.25537633738E+02  0.00000000000E+00 0.  1.
</event>
<event>
 7    1  0.1381607E-011  0.5052885E+02  0.7816164E-02  0.1300439E+00
        -11   -1    0    0    0    0  0.00000000000E+00  0.00000000000E+00  0.45593999997E+02  0.45594000000E+02  0.51100000000E-03 0.  1.
         11   -1    0    0    0    0 -0.00000000000E+00 -0.00000000000E+00 -0.45593999997E+02  0.45594000000E+02  0.51100000000E-03 0. -1.
    9900012    2    1    2    0    0  0.15424230223E+02 -0.10566090063E+02  0.36105645273E+02  0.50528846568E+02  0.29999959629E+02 0.  0.
         12    1    1    2    0    0 -0.15424230223E+02  0.10566090063E+02 -0.36105645273E+02  0.40659153432E+02  0.00000000000E+00 0. -1.
         11    1    3    3    0    0  0.12805209839E+02 -0.10999089915E+02  0.20319538235E+02  0.26416604860E+02  0.51100000000E-03 0. -1.
        -11    1    3    3    0    0  0.34356649027E+01  0.11703443552E+01  0.19707745428E+02  0.20039179857E+02  0.51100000000E-03 0.  1.
        -12    1    3    3    0    0 -0.81664451876E+00 -0.73734450335E+00 -0.39216383896E+01  0.40730618514E+01  0.00000000000E+00 0.  1.
</event>
<event>
 7    1  0.1381607E-011  0.5052887E+02  0.7816164E-02  0.1300439E+00
        -11   -1    0    0    0    0  0.00000000000E+00  0.00000000000E+00  0.45593999997E+02  0.45594000000E+02  0.51100000000E-03 0. -1.
         11   -1    0    0    0    0 -0.00000000000E+00 -0.00000000000E+00 -0.45593999997E+02  0.45594000000E+02  0.51100000000E-03 0.  1.
    9900012    2    1    2    0    0 -0.39763121203E+02  0.84472999489E+01  0.83783558064E+00  0.50528872455E+02  0.30000038315E+02 0.  0.
         12    1    1    2    0    0  0.39763121203E+02 -0.84472999489E+01 -0.83783558064E+00  0.40659127545E+02  0.00000000000E+00 0. -1.
         11    1    3    3    0    0 -0.95821691254E+01  0.44668401118E+01 -0.76894123410E+01  0.13072784254E+02  0.51100000000E-03 0. -1.
        -11    1    3    3    0    0 -0.93280128548E+01 -0.59012982294E+01 -0.33068762956E+01  0.11522698282E+02  0.51100000000E-03 0.  1.
         12    1    3    3    0    0 -0.20852939223E+02  0.98817580665E+01  0.11834124217E+02  0.25933389919E+02  0.00000000000E+00 0. -1.
</event>
<event>
 7    1  0.1381607E-011  0.5052887E+02  0.7816164E-02  0.1300439E+00
        -11   -1    0    0    0    0  0.00000000000E+00  0.00000000000E+00  0.45593999997E+02  0.45594000000E+02  0.51100000000E-03 0.  1.
         11   -1    0    0    0    0 -0.00000000000E+00 -0.00000000000E+00 -0.45593999997E+02  0.45594000000E+02  0.51100000000E-03 0. -1.
    9900012    2    1    2    0    0  0.37341085894E+02 -0.15927665939E+02  0.22622652456E+01  0.50528867175E+02  0.30000022265E+02 0.  0.
         12    1    1    2    0    0 -0.37341085894E+02  0.15927665939E+02 -0.22622652456E+01  0.40659132825E+02  0.00000000000E+00 0. -1.
         11    1    3    3    0    0  0.59045772094E+01  0.40409230895E+01  0.55446223406E+01  0.90518466955E+01  0.51100000000E-03 0.  1.
        -11    1    3    3    0    0  0.73770590374E+01 -0.10555503993E+02  0.57568206274E+01  0.14106050071E+02  0.51100000000E-03 0. -1.
        -12    1    3    3    0    0  0.24059449648E+02 -0.94130850354E+01 -0.90391777225E+01  0.27370970409E+02  0.00000000000E+00 0.  1.
</event>
<event>
 7    1  0.1381607E-011  0.5052886E+02  0.7816164E-02  0.1300439E+00
        -11   -1    0    0    0    0  0.00000000000E+00  0.00000000000E+00  0.45593999997E+02  0.45594000000E+02  0.51100000000E-03 0. -1.
         11   -1    0    0    0    0 -0.00000000000E+00 -0.00000000000E+00 -0.45593999997E+02  0.45594000000E+02  0.51100000000E-03 0.  1.
    9900012    2    1    2    0    0 -0.18269373023E+02  0.24116639387E+02  0.27162172987E+02  0.50528856780E+02  0.29999990669E+02 0.  0.
         12    1    1    2    0    0  0.18269373023E+02 -0.24116639387E+02 -0.27162172987E+02  0.40659143220E+02  0.00000000000E+00 0. -1.
         11    1    3    3    0    0 -0.48851497468E+01 -0.33486386646E+01  0.65685658537E+00  0.59589873124E+01  0.51100000000E-03 0. -1.
        -11    1    3    3    0    0 -0.10975569960E+01  0.16925579478E+01 -0.29331545683E+01  0.35598847943E+01  0.51100000000E-03 0.  1.
         12    1    3    3    0    0 -0.12286666280E+02  0.25772720104E+02  0.29438470970E+02  0.41009984673E+02  0.00000000000E+00 0. -1.
</event>
<event>
 7    1  0.1381607E-011  0.5052886E+02  0.7816164E-02  0.1300439E+00
        -11   -1    0    0    0    0  0.00000000000E+00  0.00000000000E+00  0.45593999997E+02  0.45594000000E+02  0.51100000000E-03 0.  1.
         11   -1    0    0    0    0 -0.00000000000E+00 -0.00000000000E+00 -0.45593999997E+02  0.45594000000E+02  0.51100000000E-03 0. -1.
    9900012    2    1    2    0    0  0.23895020736E+02 -0.29304913756E+02  0.14947091944E+02  0.50528861497E+02  0.30000005007E+02 0.  0.
         12    1    1    2    0    0 -0.23895020736E+02  0.29304913756E+02 -0.14947091944E+02  0.40659138503E+02  0.00000000000E+00 0. -1.
         11    1    3    3    0    0 -0.97406411501E+00 -0.14206457355E+01 -0.27941748129E+01  0.32824454835E+01  0.51100000000E-03 0. -1.
        -11    1    3    3    0    0  0.19606745550E+02 -0.15963848901E+02  0.61731288487E-01  0.25283843731E+02  0.51100000000E-03 0.  1.
        -12    1    3    3    0    0  0.52623393008E+01 -0.11920419120E+02  0.17679535468E+02  0.21962572283E+02  0.00000000000E+00 0.  1.
</event>
<event>
 7    1  0.1381607E-011  0.5052886E+02  0.7816164E-02  0.1300439E+00
        -11   -1    0    0    0    0  0.00000000000E+00  0.00000000000E+00  0.45593999997E+02  0.45594000000E+02  0.51100000000E-03 0. -1.
         11   -1    0    0    0    0 -0.00000000000E+00 -0.00000000000E+00 -0.45593999997E+02  0.45594000000E+02  0.51100000000E-03 0.  1.
    9900012    2    1    2    0    0  0.17026929275E+01 -0.59099961056E+00 -0.40619171882E+02  0.50528861198E+02  0.30000004098E+02 0.  0.
         12    1    1    2    0    0 -0.17026929275E+01  0.59099961056E+00  0.40619171882E+02  0.40659138802E+02  0.00000000000E+00 0. -1.
         11    1    3    3    0    0  0.85796138875E+01 -0.69137403769E+01 -0.20939484904E+02  0.23661606217E+02  0.51100000000E-03 0. -1.
        -11    1    3    3    0    0 -0.16562787724E+01  0.55529821100E+01 -0.20697092876E+02  0.21492987775E+02  0.51100000000E-03 0.  1.
         12    1    3    3    0    0 -0.52206421876E+01  0.76975865631E+00  0.10174058989E+01  0.53742672061E+01  0.00000000000E+00 0. -1.
</event>
<event>
 7    1  0.1381607E-011  0.5052884E+02  0.7816164E-02  0.1300439E+00
        -11   -1    0    0    0    0  0.00000000000E+00  0.00000000000E+00  0.45593999997E+02  0.45594000000E+02  0.51100000000E-03 0. -1.
         11   -1    0    0    0    0 -0.00000000000E+00 -0.00000000000E+00 -0.45593999997E+02  0.45594000000E+02  0.51100000000E-03 0.  1.
    9900012    2    1    2    0    0 -0.66434017362E+01  0.37435792173E+02 -0.14408131585E+02  0.50528836482E+02  0.29999928970E+02 0.  0.
         12    1    1    2    0    0  0.66434017362E+01 -0.37435792173E+02  0.14408131585E+02  0.40659163518E+02  0.00000000000E+00 0. -1.
         11    1    3    3    0    0 -0.62553615864E+01  0.17149954724E+02 -0.22992782756E+01  0.18399379785E+02  0.51100000000E-03 0. -1.
        -11    1    3    3    0    0 -0.66288523380E+01  0.18781414520E+02 -0.15151801397E+02  0.25025193316E+02  0.51100000000E-03 0.  1.
         12    1    3    3    0    0  0.62408121882E+01  0.15044229291E+01  0.30429480877E+01  0.71042633807E+01  0.00000000000E+00 0. -1.
</event>
<event>
 7    1  0.1381607E-011  0.5052886E+02  0.7816164E-02  0.1300439E+00
        -11   -1    0    0    0    0  0.00000000000E+00  0.00000000000E+00  0.45593999997E+02  0.45594000000E+02  0.51100000000E-03 0.  1.
         11   -1    0    0    0    0 -0.00000000000E+00 -0.00000000000E+00 -0.45593999997E+02  0.45594000000E+02  0.51100000000E-03 0. -1.
    9900012    2    1    2    0    0  0.15532008251E+02 -0.37505700783E+02 -0.22901038744E+01  0.50528862684E+02  0.30000008613E+02 0.  0.
         12    1    1    2    0    0 -0.15532008251E+02  0.37505700783E+02  0.22901038744E+01  0.40659137316E+02  0.00000000000E+00 0. -1.
         11    1    3    3    0    0 -0.26740003503E+01 -0.10801944803E+01 -0.77432722926E+00  0.29860811958E+01  0.51100000000E-03 0.  1.
        -11    1    3    3    0    0  0.55199675581E+01 -0.27187168472E+02 -0.10259206562E+02  0.29578091400E+02  0.51100000000E-03 0. -1.
        -12    1    3    3    0    0  0.12686041043E+02 -0.92383378312E+01  0.87434299168E+01  0.17964690087E+02  0.00000000000E+00 0.  1.
</event>
<event>
 7    1  0.1381607E-011  0.5052886E+02  0.7816164E-02  0.1300439E+00
        -11   -1    0    0    0    0  0.00000000000E+00  0.00000000000E+00  0.45593999997E+02  0.45594000000E+02  0.51100000000E-03 0. -1.
         11   -1    0    0    0    0 -0.00000000000E+00 -0.00000000000E+00 -0.45593999997E+02  0.45594000000E+02  0.51100000000E-03 0.  1.
    9900012    2    1    2    0    0  0.35529462742E+02 -0.19208804181E+02 -0.46738787880E+01  0.50528855596E+02  0.29999987068E+02 0.  0.
         12    1    1    2    0    0 -0.35529462742E+02  0.19208804181E+02  0.46738787880E+01  0.40659144404E+02  0.00000000000E+00 0. -1.
         11    1    3    3    0    0  0.96556299114E+01 -0.32985774987E+01  0.83541494485E+01  0.13187252017E+02  0.51100000000E-03 0. -1.
        -11    1    3    3    0    0 -0.79306365309E+00 -0.35448892630E+01 -0.61668162537E+01  0.71571511660E+01  0.51100000000E-03 0.  1.
        -12    1    3    3    0    0  0.26666896484E+02 -0.12365337419E+02 -0.68612119827E+01  0.30184452412E+02  0.00000000000E+00 0.  1.
</event>
<event>
 7    1  0.1381607E-011  0.5052891E+02  0.7816164E-02  0.1300439E+00
        -11   -1    0    0    0    0  0.00000000000E+00  0.00000000000E+00  0.45593999997E+02  0.45594000000E+02  0.51100000000E-03 0. -1.
         11   -1    0    0    0    0 -0.00000000000E+00 -0.00000000000E+00 -0.45593999997E+02  0.45594000000E+02  0.51100000000E-03 0.  1.
    9900012    2    1    2    0    0 -0.32991782626E+02 -0.54115589371E+01  0.23139127404E+02  0.50528906208E+02  0.30000140910E+02 0.  0.
         12    1    1    2    0    0  0.32991782626E+02  0.54115589371E+01 -0.23139127404E+02  0.40659093792E+02  0.00000000000E+00 0. -1.
         11    1    3    3    0    0 -0.10618282651E+02 -0.50360287425E+00  0.13589443918E+02  0.17253246900E+02  0.51100000000E-03 0.  1.
        -11    1    3    3    0    0  0.27912236699E+01  0.41552553876E+01  0.25991196338E+01  0.56402570902E+01  0.51100000000E-03 0. -1.
        -12    1    3    3    0    0 -0.25164723645E+02 -0.90632114504E+01  0.69505638522E+01  0.27635402218E+02  0.00000000000E+00 0.  1.
</event>
<event>
 7    1  0.1381607E-011  0.5052885E+02  0.7816164E-02  0.1300439E+00
        -11   -1    0    0    0    0  0.00000000000E+00  0.00000000000E+00  0.45593999997E+02  0.45594000000E+02  0.51100000000E-03 0. -1.
         11   -1    0    0    0    0 -0.00000000000E+00 -0.00000000000E+00 -0.45593999997E+02  0.45594000000E+02  0.51100000000E-03 0.  1.
    9900012    2    1    2    0    0  0.12303817807E+02 -0.29832027388E+02 -0.24735248069E+02  0.50528852349E+02  0.29999977200E+02 0.  0.
         12    1    1    2    0    0 -0.12303817807E+02  0.29832027388E+02  0.24735248069E+02  0.40659147651E+02  0.00000000000E+00 0. -1.
         11    1    3    3    0    0 -0.26940139979E+01 -0.12132916310E+02  0.57969176145E+00  0.12441921572E+02  0.51100000000E-03 0. -1.
        -11    1    3    3    0    0 -0.12123048812E+01 -0.12771492804E+01 -0.10542374834E+02  0.10688426489E+02  0.51100000000E-03 0.  1.
        -12    1    3    3    0    0  0.16210136686E+02 -0.16421961798E+02 -0.14772564996E+02  0.27398504288E+02  0.00000000000E+00 0.  1.
</event>
<event>
 7    1  0.1381607E-011  0.5052887E+02  0.7816164E-02  0.1300439E+00
        -11   -1    0    0    0    0  0.00000000000E+00  0.00000000000E+00  0.45593999997E+02  0.45594000000E+02  0.51100000000E-03 0.  1.
         11   -1    0    0    0    0 -0.00000000000E+00 -0.00000000000E+00 -0.45593999997E+02  0.45594000000E+02  0.51100000000E-03 0. -1.
    9900012    2    1    2    0    0  0.91041896942E+01  0.36450222788E+01  0.39458742257E+02  0.50528870669E+02  0.30000032887E+02 0.  0.
         12    1    1    2    0    0 -0.91041896942E+01 -0.36450222788E+01 -0.39458742257E+02  0.40659129331E+02  0.00000000000E+00 0. -1.
         11    1    3    3    0    0 -0.20248191270E+01  0.81925068595E+01  0.10679159056E+02  0.13611080028E+02  0.51100000000E-03 0.  1.
        -11    1    3    3    0    0  0.10106607837E+01 -0.94419847682E+01  0.21560934498E+02  0.23559422919E+02  0.51100000000E-03 0. -1.
         12    1    3    3    0    0  0.10118348038E+02  0.48945001874E+01  0.72186487032E+01  0.13358367722E+02  0.00000000000E+00 0. -1.
</event>
<event>
 7    1  0.1381607E-011  0.5052880E+02  0.7816164E-02  0.1300439E+00
        -11   -1    0    0    0    0  0.00000000000E+00  0.00000000000E+00  0.45593999997E+02  0.45594000000E+02  0.51100000000E-03 0. -1.
         11   -1    0    0    0    0 -0.00000000000E+00 -0.00000000000E+00 -0.45593999997E+02  0.45594000000E+02  0.51100000000E-03 0.  1.
    9900012    2    1    2    0    0 -0.37520699475E+02  0.12325448587E+02  0.96670041049E+01  0.50528800053E+02  0.29999818240E+02 0.  0.
         12    1    1    2    0    0  0.37520699475E+02 -0.12325448587E+02 -0.96670041049E+01  0.40659199947E+02  0.00000000000E+00 0. -1.
         11    1    3    3    0    0 -0.57376944006E+01 -0.26265150900E+01  0.28972678476E+01  0.69436215187E+01  0.51100000000E-03 0.  1.
        -11    1    3    3    0    0 -0.19132785744E+02  0.21447481968E+02  0.58831402314E+01  0.29337166058E+02  0.51100000000E-03 0. -1.
         12    1    3    3    0    0 -0.12650219331E+02 -0.64955182915E+01  0.88659602585E+00  0.14248012476E+02  0.00000000000E+00 0. -1.
</event>
<event>
 7    1  0.1381607E-011  0.5052886E+02  0.7816164E-02  0.1300439E+00
        -11   -1    0    0    0    0  0.00000000000E+00  0.00000000000E+00  0.45593999997E+02  0.45594000000E+02  0.51100000000E-03 0. -1.
         11   -1    0    0    0    0 -0.00000000000E+00 -0.00000000000E+00 -0.45593999997E+02  0.45594000000E+02  0.51100000000E-03 0.  1.
    9900012    2    1    2    0    0  0.14867816896E+02 -0.26496678298E+02 -0.27019247121E+02  0.50528860129E+02  0.30000000847E+02 0.  0.
         12    1    1    2    0    0 -0.14867816896E+02  0.26496678298E+02  0.27019247121E+02  0.40659139871E+02  0.00000000000E+00 0. -1.
         11    1    3    3    0    0 -0.11500135793E+01 -0.46440358043E+01  0.18965211469E-01  0.47843452765E+01  0.51100000000E-03 0. -1.
        -11    1    3    3    0    0  0.20520241063E+02 -0.10236196996E+02 -0.10992982415E+02  0.25430408665E+02  0.51100000000E-03 0.  1.
         12    1    3    3    0    0 -0.45024105871E+01 -0.11616445498E+02 -0.16045229917E+02  0.20314106187E+02  0.00000000000E+00 0. -1.
</event>
<event>
 7    1  0.1381607E-011  0.5052889E+02  0.7816164E-02  0.1300439E+00
        -11   -1    0    0    0    0  0.00000000000E+00  0.00000000000E+00  0.45593999997E+02  0.45594000000E+02  0.51100000000E-03 0.  1.
         11   -1    0    0    0    0 -0.00000000000E+00 -0.00000000000E+00 -0.45593999997E+02  0.45594000000E+02  0.51100000000E-03 0. -1.
    9900012    2    1    2    0    0  0.13513449828E+02 -0.18161365502E+01  0.38304718556E+02  0.50528891035E+02  0.30000094789E+02 0.  0.
         12    1    1    2    0    0 -0.13513449828E+02  0.18161365502E+01 -0.38304718556E+02  0.40659108965E+02  0.00000000000E+00 0. -1.
         11    1    3    3    0    0 -0.33291999423E+01  0.56632160233E+01 -0.16568080144E-01  0.65693121972E+01  0.51100000000E-03 0. -1.
        -11    1    3    3    0    0  0.49442489002E+01 -0.82464300937E+01  0.16927311826E+02  0.19467488086E+02  0.51100000000E-03 0.  1.
        -12    1    3    3    0    0  0.11898400870E+02  0.76707752017E+00  0.21393974810E+02  0.24492090751E+02  0.00000000000E+00 0.  1.
</event>
<event>
 7    1  0.1381607E-011  0.5052885E+02  0.7816164E-02  0.1300439E+00
        -11   -1    0    0    0    0  0.00000000000E+00  0.00000000000E+00  0.45593999997E+02  0.45594000000E+02  0.51100000000E-03 0.  1.
         11   -1    0    0    0    0 -0.00000000000E+00 -0.00000000000E+00 -0.45593999997E+02  0.45594000000E+02  0.51100000000E-03 0. -1.
    9900012    2    1    2    0    0 -0.14818909450E+02 -0.74486198529E+01  0.37122555876E+02  0.50528853799E+02  0.29999981608E+02 0.  0.
         12    1    1    2    0    0  0.14818909450E+02  0.74486198529E+01 -0.37122555876E+02  0.40659146201E+02  0.00000000000E+00 0. -1.
         11    1    3    3    0    0 -0.80878467185E+01 -0.41093090829E+01  0.65958659605E+01  0.11216288767E+02  0.51100000000E-03 0. -1.
        -11    1    3    3    0    0 -0.91088388054E+01 -0.12302793426E+02  0.16598910089E+02  0.22579935493E+02  0.51100000000E-03 0.  1.
        -12    1    3    3    0    0  0.23777760735E+01  0.89634826560E+01  0.13927779827E+02  0.16732629539E+02  0.00000000000E+00 0.  1.
</event>
<event>
 7    1  0.1381607E-011  0.5052887E+02  0.7816164E-02  0.1300439E+00
        -11   -1    0    0    0    0  0.00000000000E+00  0.00000000000E+00  0.45593999997E+02  0.45594000000E+02  0.51100000000E-03 0.  1.
         11   -1    0    0    0    0 -0.00000000000E+00 -0.00000000000E+00 -0.45593999997E+02  0.45594000000E+02  0.51100000000E-03 0. -1.
    9900012    2    1    2    0    0  0.85283508839E+01 -0.13899984955E+02  0.37245437530E+02  0.50528868586E+02  0.30000026554E+02 0.  0.
         12    1    1    2    0    0 -0.85283508839E+01  0.13899984955E+02 -0.37245437530E+02  0.40659131414E+02  0.00000000000E+00 0. -1.
         11    1    3    3    0    0  0.76028461971E+01  0.78865308804E+01  0.14324796238E+02  0.18033314369E+02  0.51100000000E-03 0. -1.
        -11    1    3    3    0    0  0.85084823406E+00 -0.54060878514E+00  0.37359980932E+01  0.38696101340E+01  0.51100000000E-03 0.  1.
         12    1    3    3    0    0  0.74656452760E-01 -0.21245907050E+02  0.19184643199E+02  0.28625944083E+02  0.00000000000E+00 0. -1.
</event>
<event>
 7    1  0.1381607E-011  0.5052886E+02  0.7816164E-02  0.1300439E+00
        -11   -1    0    0    0    0  0.00000000000E+00  0.00000000000E+00  0.45593999997E+02  0.45594000000E+02  0.51100000000E-03 0.  1.
         11   -1    0    0    0    0 -0.00000000000E+00 -0.00000000000E+00 -0.45593999997E+02  0.45594000000E+02  0.51100000000E-03 0. -1.
    9900012    2    1    2    0    0 -0.33230238408E+02  0.21528721561E+02  0.92429061093E+01  0.50528856994E+02  0.29999991318E+02 0.  0.
         12    1    1    2    0    0  0.33230238408E+02 -0.21528721561E+02 -0.92429061093E+01  0.40659143006E+02  0.00000000000E+00 0. -1.
         11    1    3    3    0    0 -0.78073794389E+01 -0.44525557481E+01 -0.15414338374E+01  0.91190155680E+01  0.51100000000E-03 0. -1.
        -11    1    3    3    0    0 -0.46202059877E+01 -0.41192058973E+00 -0.25051012080E+01  0.52717657635E+01  0.51100000000E-03 0.  1.
        -12    1    3    3    0    0 -0.20802652981E+02  0.26393197899E+02  0.13289441155E+02  0.36138075662E+02  0.00000000000E+00 0.  1.
</event>
<event>
 7    1  0.1381607E-011  0.5052886E+02  0.7816164E-02  0.1300439E+00
        -11   -1    0    0    0    0  0.00000000000E+00  0.00000000000E+00  0.45593999997E+02  0.45594000000E+02  0.51100000000E-03 0.  1.
         11   -1    0    0    0    0 -0.00000000000E+00 -0.00000000000E+00 -0.45593999997E+02  0.45594000000E+02  0.51100000000E-03 0. -1.
    9900012    2    1    2    0    0 -0.95049529773E+01  0.36823393663E+02  0.14382588320E+02  0.50528864511E+02  0.30000014166E+02 0.  0.
         12    1    1    2    0    0  0.95049529773E+01 -0.36823393663E+02 -0.14382588320E+02  0.40659135489E+02  0.00000000000E+00 0. -1.
         11    1    3    3    0    0 -0.74954351802E+01 -0.20900532979E+00  0.56614108080E+00  0.75196906687E+01  0.51100000000E-03 0. -1.
        -11    1    3    3    0    0 -0.89419822169E+01  0.18625919154E+02  0.40706006260E+01  0.21058340391E+02  0.51100000000E-03 0.  1.
         12    1    3    3    0    0  0.69324644198E+01  0.18406479839E+02  0.97458466134E+01  0.21950833451E+02  0.00000000000E+00 0. -1.
</event>
<event>
 7    1  0.1381607E-011  0.5052887E+02  0.7816164E-02  0.1300439E+00
        -11   -1    0    0    0    0  0.00000000000E+00  0.00000000000E+00  0.45593999997E+02  0.45594000000E+02  0.51100000000E-03 0.  1.
         11   -1    0    0    0    0 -0.00000000000E+00 -0.00000000000E+00 -0.45593999997E+02  0.45594000000E+02  0.51100000000E-03 0. -1.
    9900012    2    1    2    0    0  0.34788548423E+02  0.57398112014E+01  0.20247880073E+02  0.50528865953E+02  0.30000018551E+02 0.  0.
         12    1    1    2    0    0 -0.34788548423E+02 -0.57398112014E+01 -0.20247880073E+02  0.40659134047E+02  0.00000000000E+00 0. -1.
         11    1    3    3    0    0  0.17785896376E+02 -0.35015136918E+01  0.32774519423E+01  0.18421194302E+02  0.51100000000E-03 0. -1.
        -11    1    3    3    0    0  0.15866870129E+02  0.15015531131E+01  0.31783557748E+01  0.16251589926E+02  0.51100000000E-03 0.  1.
         12    1    3    3    0    0  0.11357819175E+01  0.77397717801E+01  0.13792072356E+02  0.15856081724E+02  0.00000000000E+00 0. -1.
</event>
<event>
 7    1  0.1381607E-011  0.5052885E+02  0.7816164E-02  0.1300439E+00
        -11   -1    0    0    0    0  0.00000000000E+00  0.00000000000E+00  0.45593999997E+02  0.45594000000E+02  0.51100000000E-03 0. -1.
         11   -1    0    0    0    0 -0.00000000000E+00 -0.00000000000E+00 -0.45593999997E+02  0.45594000000E+02  0.51100000000E-03 0.  1.
    9900012    2    1    2    0    0  0.31925378324E+02 -0.17474240698E+02 -0.18126996474E+02  0.50528845185E+02  0.29999955425E+02 0.  0.
         12    1    1    2    0    0 -0.31925378324E+02  0.17474240698E+02  0.18126996474E+02  0.40659154815E+02  0.00000000000E+00 0. -1.
         11    1    3    3    0    0  0.25318680535E+02 -0.20101487613E+02 -0.12599268808E+02  0.34696497850E+02  0.51100000000E-03 0.  1.
        -11    1    3    3    0    0  0.44198642154E+01 -0.25965089401E+01 -0.81212096101E+01  0.96037026272E+01  0.51100000000E-03 0. -1.
         12    1    3    3    0    0  0.21868335734E+01  0.52237558550E+01  0.25934819439E+01  0.62286447084E+01  0.00000000000E+00 0. -1.
</event>
<event>
 7    1  0.1381607E-011  0.5052887E+02  0.7816164E-02  0.1300439E+00
        -11   -1    0    0    0    0  0.00000000000E+00  0.00000000000E+00  0.45593999997E+02  0.45594000000E+02  0.51100000000E-03 0.  1.
         11   -1    0    0    0    0 -0.00000000000E+00 -0.00000000000E+00 -0.45593999997E+02  0.45594000000E+02  0.51100000000E-03 0. -1.
    9900012    2    1    2    0    0 -0.10513048174E+02  0.10918784656E+02  0.37728252271E+02  0.50528867450E+02  0.30000023101E+02 0.  0.
         12    1    1    2    0    0  0.10513048174E+02 -0.10918784656E+02 -0.37728252271E+02  0.40659132550E+02  0.00000000000E+00 0. -1.
         11    1    3    3    0    0 -0.24565280433E+01  0.62839150789E+01  0.10537983220E+02  0.12512841778E+02  0.51100000000E-03 0. -1.
        -11    1    3    3    0    0 -0.67004109329E+01  0.14555812026E+02  0.20295046042E+02  0.25858384800E+02  0.51100000000E-03 0.  1.
         12    1    3    3    0    0 -0.13561091976E+01 -0.99209424483E+01  0.68952230093E+01  0.12157640872E+02  0.00000000000E+00 0. -1.
</event>
<event>
 7    1  0.1381607E-011  0.5052886E+02  0.7816164E-02  0.1300439E+00
        -11   -1    0    0    0    0  0.00000000000E+00  0.00000000000E+00  0.45593999997E+02  0.45594000000E+02  0.51100000000E-03 0. -1.
         11   -1    0    0    0    0 -0.00000000000E+00 -0.00000000000E+00 -0.45593999997E+02  0.45594000000E+02  0.51100000000E-03 0.  1.
    9900012    2    1    2    0    0 -0.35223526989E+02  0.15325402754E+02  0.13326691657E+02  0.50528861622E+02  0.30000005386E+02 0.  0.
         12    1    1    2    0    0  0.35223526989E+02 -0.15325402754E+02 -0.13326691657E+02  0.40659138378E+02  0.00000000000E+00 0. -1.
         11    1    3    3    0    0 -0.11427844617E+02  0.13214985172E+02  0.48394342198E+01  0.18128750358E+02  0.51100000000E-03 0.  1.
        -11    1    3    3    0    0  0.55206382872E+00 -0.12075354419E+01  0.77011391215E+01  0.78147591354E+01  0.51100000000E-03 0. -1.
        -12    1    3    3    0    0 -0.24347746200E+02  0.33179530235E+01  0.78611831608E+00  0.24585352129E+02  0.00000000000E+00 0.  1.
</event>
<event>
 7    1  0.1381607E-011  0.5052888E+02  0.7816164E-02  0.1300439E+00
        -11   -1    0    0    0    0  0.00000000000E+00  0.00000000000E+00  0.45593999997E+02  0.45594000000E+02  0.51100000000E-03 0. -1.
         11   -1    0    0    0    0 -0.00000000000E+00 -0.00000000000E+00 -0.45593999997E+02  0.45594000000E+02  0.51100000000E-03 0.  1.
    9900012    2    1    2    0    0  0.29088203765E+02  0.16411178726E+02 -0.23188654834E+02  0.50528879271E+02  0.30000059032E+02 0.  0.
         12    1    1    2    0    0 -0.29088203765E+02 -0.16411178726E+02  0.23188654834E+02  0.40659120729E+02  0.00000000000E+00 0. -1.
         11    1    3    3    0    0  0.18691989571E+02  0.18666636245E+01 -0.15523859656E+02  0.24369348085E+02  0.51100000000E-03 0.  1.
        -11    1    3    3    0    0  0.10317515472E+02  0.12495573763E+02  0.19563563628E+01  0.16322310488E+02  0.51100000000E-03 0. -1.
         12    1    3    3    0    0  0.78698722423E-01  0.20489413386E+01 -0.96211515406E+01  0.98372206982E+01  0.00000000000E+00 0. -1.
</event>
<event>
 7    1  0.1381607E-011  0.5052886E+02  0.7816164E-02  0.1300439E+00
        -11   -1    0    0    0    0  0.00000000000E+00  0.00000000000E+00  0.45593999997E+02  0.45594000000E+02  0.51100000000E-03 0.  1.
         11   -1    0    0    0    0 -0.00000000000E+00 -0.00000000000E+00 -0.45593999997E+02  0.45594000000E+02  0.51100000000E-03 0. -1.
    9900012    2    1    2    0    0 -0.21569120335E+02 -0.27335611431E+02  0.20992932303E+02  0.50528858211E+02  0.29999995018E+02 0.  0.
         12    1    1    2    0    0  0.21569120335E+02  0.27335611431E+02 -0.20992932303E+02  0.40659141789E+02  0.00000000000E+00 0. -1.
         11    1    3    3    0    0 -0.16283961806E+02 -0.11633397182E+02  0.28683455642E+01  0.20217090509E+02  0.51100000000E-03 0. -1.
        -11    1    3    3    0    0  0.40745125948E+01  0.14450013176E+01  0.12576065952E+01  0.45023611920E+01  0.51100000000E-03 0.  1.
        -12    1    3    3    0    0 -0.93596711238E+01 -0.17147215567E+02  0.16866980143E+02  0.25809406510E+02  0.00000000000E+00 0.  1.
</event>
<event>
 7    1  0.1381607E-011  0.5052887E+02  0.7816164E-02  0.1300439E+00
        -11   -1    0    0    0    0  0.00000000000E+00  0.00000000000E+00  0.45593999997E+02  0.45594000000E+02  0.51100000000E-03 0.  1.
         11   -1    0    0    0    0 -0.00000000000E+00 -0.00000000000E+00 -0.45593999997E+02  0.45594000000E+02  0.51100000000E-03 0. -1.
    9900012    2    1    2    0    0  0.80012770185E+01  0.37613971460E+02  0.13203530508E+02  0.50528874324E+02  0.30000043994E+02 0.  0.
         12    1    1    2    0    0 -0.80012770185E+01 -0.37613971460E+02 -0.13203530508E+02  0.40659125676E+02  0.00000000000E+00 0. -1.
         11    1    3    3    0    0  0.60089704126E+01  0.39934426769E+02  0.72888693126E+01  0.41036493306E+02  0.51100000000E-03 0. -1.
        -11    1    3    3    0    0  0.28791217105E+01 -0.10899417198E-01  0.63575349463E+01  0.69790910208E+01  0.51100000000E-03 0.  1.
        -12    1    3    3    0    0 -0.88681510458E+00 -0.23095558919E+01 -0.44287375101E+00  0.25132899965E+01  0.00000000000E+00 0.  1.
</event>
<event>
 7    1  0.1381607E-011  0.5052888E+02  0.7816164E-02  0.1300439E+00
        -11   -1    0    0    0    0  0.00000000000E+00  0.00000000000E+00  0.45593999997E+02  0.45594000000E+02  0.51100000000E-03 0.  1.
         11   -1    0    0    0    0 -0.00000000000E+00 -0.00000000000E+00 -0.45593999997E+02  0.45594000000E+02  0.51100000000E-03 0. -1.
    9900012    2    1    2    0    0  0.18495967658E+02  0.11119028339E+02  0.34459114255E+02  0.50528878440E+02  0.30000056505E+02 0.  0.
         12    1    1    2    0    0 -0.18495967658E+02 -0.11119028339E+02 -0.34459114255E+02  0.40659121560E+02  0.00000000000E+00 0. -1.
         11    1    3    3    0    0 -0.24364269176E+01  0.12441956957E+02  0.97041590343E+01  0.15965875231E+02  0.51100000000E-03 0. -1.
        -11    1    3    3    0    0  0.50776998261E+01  0.24792217635E+01  0.98056162133E+00  0.57350743178E+01  0.51100000000E-03 0.  1.
        -12    1    3    3    0    0  0.15854694749E+02 -0.38021503823E+01  0.23774393600E+02  0.28827928891E+02  0.00000000000E+00 0.  1.
</event>
<event>
 7    1  0.1381607E-011  0.5052887E+02  0.7816164E-02  0.1300439E+00
        -11   -1    0    0    0    0  0.00000000000E+00  0.00000000000E+00  0.45593999997E+02  0.45594000000E+02  0.51100000000E-03 0.  1.
         11   -1    0    0    0    0 -0.00000000000E+00 -0.00000000000E+00 -0.45593999997E+02  0.45594000000E+02  0.51100000000E-03 0. -1.
    9900012    2    1    2    0    0  0.16356494096E+02  0.19043729298E+02  0.31983842475E+02  0.50528871822E+02  0.30000036391E+02 0.  0.
         12    1    1    2    0    0 -0.16356494096E+02 -0.19043729298E+02 -0.31983842475E+02  0.40659128178E+02  0.00000000000E+00 0. -1.
         11    1    3    3    0    0  0.57069833563E+01 -0.33997364657E+01  0.40159542379E+01  0.77624581009E+01  0.51100000000E-03 0. -1.
        -11    1    3    3    0    0 -0.14533053107E+01  0.93848759726E+01  0.22043224138E+02  0.24001910841E+02  0.51100000000E-03 0.  1.
         12    1    3    3    0    0  0.12102816050E+02  0.13058589791E+02  0.59246640996E+01  0.18764502881E+02  0.00000000000E+00 0. -1.
</event>
<event>
 7    1  0.1381607E-011  0.5052886E+02  0.7816164E-02  0.1300439E+00
        -11   -1    0    0    0    0  0.00000000000E+00  0.00000000000E+00  0.45593999997E+02  0.45594000000E+02  0.51100000000E-03 0. -1.
         11   -1    0    0    0    0 -0.00000000000E+00 -0.00000000000E+00 -0.45593999997E+02  0.45594000000E+02  0.51100000000E-03 0.  1.
    9900012    2    1    2    0    0  0.18541669758E+02 -0.22447721343E+02 -0.28380836839E+02  0.50528860676E+02  0.30000002512E+02 0.  0.
         12    1    1    2    0    0 -0.18541669758E+02  0.22447721343E+02  0.28380836839E+02  0.40659139324E+02  0.00000000000E+00 0. -1.
         11    1    3    3    0    0  0.16212919936E+02 -0.17433703651E+02 -0.51315019518E+01  0.24354159981E+02  0.51100000000E-03 0. -1.
        -11    1    3    3    0    0  0.52743340541E+01 -0.55148279653E+01 -0.99250628302E+01  0.12519536718E+02  0.51100000000E-03 0.  1.
         12    1    3    3    0    0 -0.29455842319E+01  0.50081027395E+00 -0.13324272057E+02  0.13655163977E+02  0.00000000000E+00 0. -1.
</event>
<event>
 7    1  0.1381607E-011  0.5052886E+02  0.7816164E-02  0.1300439E+00
        -11   -1    0    0    0    0  0.00000000000E+00  0.00000000000E+00  0.45593999997E+02  0.45594000000E+02  0.51100000000E-03 0.  1.
         11   -1    0    0    0    0 -0.00000000000E+00 -0.00000000000E+00 -0.45593999997E+02  0.45594000000E+02  0.51100000000E-03 0. -1.
    9900012    2    1    2    0    0 -0.18678358786E+02  0.10114523532E+02  0.34669595203E+02  0.50528861978E+02  0.30000006468E+02 0.  0.
         12    1    1    2    0    0  0.18678358786E+02 -0.10114523532E+02 -0.34669595203E+02  0.40659138022E+02  0.00000000000E+00 0. -1.
         11    1    3    3    0    0  0.33059900709E+01  0.50190083939E+01  0.14472000921E+02  0.15670316734E+02  0.51100000000E-03 0. -1.
        -11    1    3    3    0    0 -0.36516980527E+01  0.53295826573E+01 -0.13150827100E+01  0.65930867403E+01  0.51100000000E-03 0.  1.
         12    1    3    3    0    0 -0.18332650804E+02 -0.23406751957E+00  0.21512676991E+02  0.28265458504E+02  0.00000000000E+00 0. -1.
</event>
<event>
 7    1  0.1381607E-011  0.5052886E+02  0.7816164E-02  0.1300439E+00
        -11   -1    0    0    0    0  0.00000000000E+00  0.00000000000E+00  0.45593999997E+02  0.45594000000E+02  0.51100000000E-03 0.  1.
         11   -1    0    0    0    0 -0.00000000000E+00 -0.00000000000E+00 -0.45593999997E+02  0.45594000000E+02  0.51100000000E-03 0. -1.
    9900012    2    1    2    0    0 -0.12981772249E+01 -0.37971635145E+02 -0.14478784799E+02  0.50528861434E+02  0.30000004815E+02 0.  0.
         12    1    1    2    0    0  0.12981772249E+01  0.37971635145E+02  0.14478784799E+02  0.40659138566E+02  0.00000000000E+00 0. -1.
         11    1    3    3    0    0 -0.52552557897E+01 -0.17065432786E+01 -0.10923414759E+02  0.12241364043E+02  0.51100000000E-03 0. -1.
        -11    1    3    3    0    0  0.32341820114E+01 -0.56974447305E+01  0.26862728900E+01  0.70807395122E+01  0.51100000000E-03 0.  1.
        -12    1    3    3    0    0  0.72289655346E+00 -0.30567647136E+02 -0.62416429299E+01  0.31206757879E+02  0.00000000000E+00 0.  1.
</event>
<event>
 7    1  0.1381607E-011  0.5052886E+02  0.7816164E-02  0.1300439E+00
        -11   -1    0    0    0    0  0.00000000000E+00  0.00000000000E+00  0.45593999997E+02  0.45594000000E+02  0.51100000000E-03 0. -1.
         11   -1    0    0    0    0 -0.00000000000E+00 -0.00000000000E+00 -0.45593999997E+02  0.45594000000E+02  0.51100000000E-03 0.  1.
    9900012    2    1    2    0    0  0.23669358662E+02  0.19165411681E+02 -0.26937220033E+02  0.50528863665E+02  0.30000011597E+02 0.  0.
         12    1    1    2    0    0 -0.23669358662E+02 -0.19165411681E+02  0.26937220033E+02  0.40659136335E+02  0.00000000000E+00 0. -1.
         11    1    3    3    0    0 -0.26313878616E+01  0.79648147931E+01 -0.13890670204E+02  0.16226928106E+02  0.51100000000E-03 0. -1.
        -11    1    3    3    0    0  0.48325324124E+01 -0.32691548418E+01 -0.24450069314E+01  0.63260415784E+01  0.51100000000E-03 0.  1.
        -12    1    3    3    0    0  0.21468214112E+02  0.14469751729E+02 -0.10601542897E+02  0.27975893981E+02  0.00000000000E+00 0.  1.
</event>
<event>
 7    1  0.1381607E-011  0.5052886E+02  0.7816164E-02  0.1300439E+00
        -11   -1    0    0    0    0  0.00000000000E+00  0.00000000000E+00  0.45593999997E+02  0.45594000000E+02  0.51100000000E-03 0.  1.
         11   -1    0    0    0    0 -0.00000000000E+00 -0.00000000000E+00 -0.45593999997E+02  0.45594000000E+02  0.51100000000E-03 0. -1.
    9900012    2    1    2    0    0  0.31134531779E+02 -0.20073890275E+02  0.16758453769E+02  0.50528856962E+02  0.29999991221E+02 0.  0.
         12    1    1    2    0    0 -0.31134531779E+02  0.20073890275E+02 -0.16758453769E+02  0.40659143038E+02  0.00000000000E+00 0. -1.
         11    1    3    3    0    0  0.41540683659E+01  0.47254923829E+01  0.16253781697E+01  0.64983395345E+01  0.51100000000E-03 0. -1.
        -11    1    3    3    0    0  0.56456868119E+01 -0.39901887932E+01  0.12279133582E+02  0.14091575780E+02  0.51100000000E-03 0.  1.
        -12    1    3    3    0    0  0.21334776601E+02 -0.20809193865E+02  0.28539420174E+01  0.29938941647E+02  0.00000000000E+00 0.  1.
</event>
<event>
 7    1  0.1381607E-011  0.5052886E+02  0.7816164E-02  0.1300439E+00
        -11   -1    0    0    0    0  0.00000000000E+00  0.00000000000E+00  0.45593999997E+02  0.45594000000E+02  0.51100000000E-03 0. -1.
         11   -1    0    0    0    0 -0.00000000000E+00 -0.00000000000E+00 -0.45593999997E+02  0.45594000000E+02  0.51100000000E-03 0.  1.
    9900012    2    1    2    0    0 -0.37888353147E+02 -0.71404909437E+01 -0.12909367513E+02  0.50528859765E+02  0.29999999741E+02 0.  0.
         12    1    1    2    0    0  0.37888353147E+02  0.71404909437E+01  0.12909367513E+02  0.40659140235E+02  0.00000000000E+00 0. -1.
         11    1    3    3    0    0  0.14702428609E+01  0.20910587772E+01 -0.60788355752E+01  0.65944206031E+01  0.51100000000E-03 0. -1.
        -11    1    3    3    0    0 -0.10204026703E+02  0.17548330119E+01 -0.74778284624E+01  0.12771825188E+02  0.51100000000E-03 0.  1.
         12    1    3    3    0    0 -0.29154569305E+02 -0.10986382733E+02  0.64729652494E+00  0.31162613974E+02  0.00000000000E+00 0. -1.
</event>
<event>
 7    1  0.1381607E-011  0.5052876E+02  0.7816164E-02  0.1300439E+00
        -11   -1    0    0    0    0  0.00000000000E+00  0.00000000000E+00  0.45593999997E+02  0.45594000000E+02  0.51100000000E-03 0.  1.
         11   -1    0    0    0    0 -0.00000000000E+00 -0.00000000000E+00 -0.45593999997E+02  0.45594000000E+02  0.51100000000E-03 0. -1.
    9900012    2    1    2    0    0  0.30425993391E+02 -0.19236369334E+02  0.18904885268E+02  0.50528761615E+02  0.29999701405E+02 0.  0.
         12    1    1    2    0    0 -0.30425993391E+02  0.19236369334E+02 -0.18904885268E+02  0.40659238385E+02  0.00000000000E+00 0. -1.
         11    1    3    3    0    0  0.38331452083E+01 -0.10666575388E+02  0.26883062110E+01  0.11648855019E+02  0.51100000000E-03 0. -1.
        -11    1    3    3    0    0 -0.24598260007E+00 -0.26717240707E+01  0.10467235455E+02  0.10805629795E+02  0.51100000000E-03 0.  1.
        -12    1    3    3    0    0  0.26838830783E+02 -0.58980698755E+01  0.57493436024E+01  0.28074276801E+02  0.00000000000E+00 0.  1.
</event>
<event>
 7    1  0.1381607E-011  0.5052886E+02  0.7816164E-02  0.1300439E+00
        -11   -1    0    0    0    0  0.00000000000E+00  0.00000000000E+00  0.45593999997E+02  0.45594000000E+02  0.51100000000E-03 0. -1.
         11   -1    0    0    0    0 -0.00000000000E+00 -0.00000000000E+00 -0.45593999997E+02  0.45594000000E+02  0.51100000000E-03 0.  1.
    9900012    2    1    2    0    0  0.46646190546E+01  0.30157275235E+02 -0.26869048796E+02  0.50528859531E+02  0.29999999029E+02 0.  0.
         12    1    1    2    0    0 -0.46646190546E+01 -0.30157275235E+02  0.26869048796E+02  0.40659140469E+02  0.00000000000E+00 0. -1.
         11    1    3    3    0    0  0.40343335889E+01  0.25836563284E+02 -0.19916748329E+02  0.32870666468E+02  0.51100000000E-03 0. -1.
        -11    1    3    3    0    0  0.65797654234E+01  0.45363349960E+01 -0.83338239102E+01  0.11546612899E+02  0.51100000000E-03 0.  1.
         12    1    3    3    0    0 -0.59494799576E+01 -0.21562304525E+00  0.13815234427E+01  0.61115801628E+01  0.00000000000E+00 0. -1.
</event>
<event>
 7    1  0.1381607E-011  0.5052886E+02  0.7816164E-02  0.1300439E+00
        -11   -1    0    0    0    0  0.00000000000E+00  0.00000000000E+00  0.45593999997E+02  0.45594000000E+02  0.51100000000E-03 0.  1.
         11   -1    0    0    0    0 -0.00000000000E+00 -0.00000000000E+00 -0.45593999997E+02  0.45594000000E+02  0.51100000000E-03 0. -1.
    9900012    2    1    2    0    0 -0.11305937258E+02 -0.45776796194E+01  0.38786418366E+02  0.50528860589E+02  0.30000002245E+02 0.  0.
         12    1    1    2    0    0  0.11305937258E+02  0.45776796194E+01 -0.38786418366E+02  0.40659139411E+02  0.00000000000E+00 0. -1.
         11    1    3    3    0    0  0.50626902497E+01  0.15414768871E+01 -0.22840045099E+00  0.52970888784E+01  0.51100000000E-03 0. -1.
        -11    1    3    3    0    0 -0.61215918829E+01 -0.75470809106E+01  0.29913247662E+02  0.31452101733E+02  0.51100000000E-03 0.  1.
         12    1    3    3    0    0 -0.10247035625E+02  0.14279244042E+01  0.91015711555E+01  0.13779669978E+02  0.00000000000E+00 0. -1.
</event>
<event>
 7    1  0.1381607E-011  0.5052886E+02  0.7816164E-02  0.1300439E+00
        -11   -1    0    0    0    0  0.00000000000E+00  0.00000000000E+00  0.45593999997E+02  0.45594000000E+02  0.51100000000E-03 0. -1.
         11   -1    0    0    0    0 -0.00000000000E+00 -0.00000000000E+00 -0.45593999997E+02  0.45594000000E+02  0.51100000000E-03 0.  1.
    9900012    2    1    2    0    0  0.58973809902E+00  0.40469229237E+02 -0.38806607122E+01  0.50528857933E+02  0.29999994174E+02 0.  0.
         12    1    1    2    0    0 -0.58973809902E+00 -0.40469229237E+02  0.38806607122E+01  0.40659142067E+02  0.00000000000E+00 0. -1.
         11    1    3    3    0    0 -0.96354009471E+01  0.35537329728E+02 -0.25434917731E-01  0.36820421002E+02  0.51100000000E-03 0. -1.
        -11    1    3    3    0    0  0.60793956162E+01  0.35444984851E+01  0.10752824879E+01  0.71189011272E+01  0.51100000000E-03 0.  1.
        -12    1    3    3    0    0  0.41457434299E+01  0.13874010235E+01 -0.49305082823E+01  0.65895358038E+01  0.00000000000E+00 0.  1.
</event>
<event>
 7    1  0.1381607E-011  0.5052887E+02  0.7816164E-02  0.1300439E+00
        -11   -1    0    0    0    0  0.00000000000E+00  0.00000000000E+00  0.45593999997E+02  0.45594000000E+02  0.51100000000E-03 0. -1.
         11   -1    0    0    0    0 -0.00000000000E+00 -0.00000000000E+00 -0.45593999997E+02  0.45594000000E+02  0.51100000000E-03 0.  1.
    9900012    2    1    2    0    0  0.25320609214E+02 -0.56895360821E+01 -0.31299537475E+02  0.50528866733E+02  0.30000020923E+02 0.  0.
         12    1    1    2    0    0 -0.25320609214E+02  0.56895360821E+01  0.31299537475E+02  0.40659133267E+02  0.00000000000E+00 0. -1.
         11    1    3    3    0    0  0.57311219240E+01 -0.15745803096E+01  0.32982175925E+00  0.59526333931E+01  0.51100000000E-03 0. -1.
        -11    1    3    3    0    0  0.10927577604E+02 -0.14242710167E+02 -0.16113732553E+02  0.24122999860E+02  0.51100000000E-03 0.  1.
        -12    1    3    3    0    0  0.86619096867E+01  0.10127754394E+02 -0.15515626681E+02  0.20453233480E+02  0.00000000000E+00 0.  1.
</event>
<event>
 7    1  0.1381607E-011  0.5052886E+02  0.7816164E-02  0.1300439E+00
        -11   -1    0    0    0    0  0.00000000000E+00  0.00000000000E+00  0.45593999997E+02  0.45594000000E+02  0.51100000000E-03 0.  1.
         11   -1    0    0    0    0 -0.00000000000E+00 -0.00000000000E+00 -0.45593999997E+02  0.45594000000E+02  0.51100000000E-03 0. -1.
    9900012    2    1    2    0    0 -0.12945360030E+02  0.38346906639E+02 -0.38855814342E+01  0.50528864026E+02  0.30000012694E+02 0.  0.
         12    1    1    2    0    0  0.12945360030E+02 -0.38346906639E+02  0.38855814342E+01  0.40659135974E+02  0.00000000000E+00 0. -1.
         11    1    3    3    0    0 -0.10267552693E+02  0.15659569335E+02 -0.10837440566E+02  0.21635500187E+02  0.51100000000E-03 0. -1.
        -11    1    3    3    0    0  0.77174595137E+00 -0.23501917309E+01  0.19005819374E+01  0.31194879303E+01  0.51100000000E-03 0.  1.
        -12    1    3    3    0    0 -0.34495532883E+01  0.25037529034E+02  0.50512771947E+01  0.25773875908E+02  0.00000000000E+00 0.  1.
</event>
<event>
 7    1  0.1381607E-011  0.5052886E+02  0.7816164E-02  0.1300439E+00
        -11   -1    0    0    0    0  0.00000000000E+00  0.00000000000E+00  0.45593999997E+02  0.45594000000E+02  0.51100000000E-03 0.  1.
         11   -1    0    0    0    0 -0.00000000000E+00 -0.00000000000E+00 -0.45593999997E+02  0.45594000000E+02  0.51100000000E-03 0. -1.
    9900012    2    1    2    0    0  0.93851714358E+01 -0.37542947760E+02  0.12474418470E+02  0.50528862213E+02  0.30000007184E+02 0.  0.
         12    1    1    2    0    0 -0.93851714358E+01  0.37542947760E+02 -0.12474418470E+02  0.40659137787E+02  0.00000000000E+00 0. -1.
         11    1    3    3    0    0 -0.64657888319E+01 -0.12609056871E+02 -0.46248484105E+01  0.14905836557E+02  0.51100000000E-03 0. -1.
        -11    1    3    3    0    0  0.54939004653E+01 -0.17551848475E+02  0.11754531242E+02  0.21827032143E+02  0.51100000000E-03 0.  1.
        -12    1    3    3    0    0  0.10357059802E+02 -0.73820424138E+01  0.53447356393E+01  0.13795993513E+02  0.00000000000E+00 0.  1.
</event>
<event>
 7    1  0.1381607E-011  0.5052886E+02  0.7816164E-02  0.1300439E+00
        -11   -1    0    0    0    0  0.00000000000E+00  0.00000000000E+00  0.45593999997E+02  0.45594000000E+02  0.51100000000E-03 0.  1.
         11   -1    0    0    0    0 -0.00000000000E+00 -0.00000000000E+00 -0.45593999997E+02  0.45594000000E+02  0.51100000000E-03 0. -1.
    9900012    2    1    2    0    0 -0.40032991689E+02  0.45647899544E+01  0.54486481783E+01  0.50528862062E+02  0.30000006723E+02 0.  0.
         12    1    1    2    0    0  0.40032991689E+02 -0.45647899544E+01 -0.54486481783E+01  0.40659137938E+02  0.00000000000E+00 0. -1.
         11    1    3    3    0    0 -0.16844631814E+02 -0.79224732220E+01  0.20468864284E+01  0.18726904368E+02  0.51100000000E-03 0. -1.
        -11    1    3    3    0    0 -0.16095999155E+02  0.16121844015E+01  0.79764368788E+01  0.18036182326E+02  0.51100000000E-03 0.  1.
         12    1    3    3    0    0 -0.70923607197E+01  0.10875078775E+02 -0.45746751288E+01  0.13765775368E+02  0.00000000000E+00 0. -1.
</event>
<event>
 7    1  0.1381607E-011  0.5052886E+02  0.7816164E-02  0.1300439E+00
        -11   -1    0    0    0    0  0.00000000000E+00  0.00000000000E+00  0.45593999997E+02  0.45594000000E+02  0.51100000000E-03 0.  1.
         11   -1    0    0    0    0 -0.00000000000E+00 -0.00000000000E+00 -0.45593999997E+02  0.45594000000E+02  0.51100000000E-03 0. -1.
    9900012    2    1    2    0    0 -0.10866212567E+02 -0.28666670597E+02  0.26707923090E+02  0.50528859153E+02  0.29999997882E+02 0.  0.
         12    1    1    2    0    0  0.10866212567E+02  0.28666670597E+02 -0.26707923090E+02  0.40659140847E+02  0.00000000000E+00 0. -1.
         11    1    3    3    0    0 -0.95523157155E+01 -0.33510684164E+01  0.86311657320E+01  0.13303135616E+02  0.51100000000E-03 0. -1.
        -11    1    3    3    0    0 -0.48895521198E+01  0.49774342199E+00  0.77863525558E+01  0.92077551461E+01  0.51100000000E-03 0.  1.
         12    1    3    3    0    0  0.35756552683E+01 -0.25813345602E+02  0.10290404802E+02  0.28017968391E+02  0.00000000000E+00 0. -1.
</event>
<event>
 7    1  0.1381607E-011  0.5052885E+02  0.7816164E-02  0.1300439E+00
        -11   -1    0    0    0    0  0.00000000000E+00  0.00000000000E+00  0.45593999997E+02  0.45594000000E+02  0.51100000000E-03 0. -1.
         11   -1    0    0    0    0 -0.00000000000E+00 -0.00000000000E+00 -0.45593999997E+02  0.45594000000E+02  0.51100000000E-03 0.  1.
    9900012    2    1    2    0    0 -0.40638885990E+02 -0.68237188160E+00  0.10870279932E+01  0.50528852004E+02  0.29999976152E+02 0.  0.
         12    1    1    2    0    0  0.40638885990E+02  0.68237188160E+00 -0.10870279932E+01  0.40659147996E+02  0.00000000000E+00 0. -1.
         11    1    3    3    0    0  0.13038124718E+01 -0.54132291379E+00 -0.40896067066E+01  0.43264119932E+01  0.51100000000E-03 0. -1.
        -11    1    3    3    0    0 -0.17590920725E+02 -0.92846343952E+01  0.26937857523E+01  0.20072404185E+02  0.51100000000E-03 0.  1.
        -12    1    3    3    0    0 -0.24351777736E+02  0.91435854274E+01  0.24828489475E+01  0.26130035826E+02  0.00000000000E+00 0.  1.
</event>
<event>
 7    1  0.1381607E-011  0.5052886E+02  0.7816164E-02  0.1300439E+00
        -11   -1    0    0    0    0  0.00000000000E+00  0.00000000000E+00  0.45593999997E+02  0.45594000000E+02  0.51100000000E-03 0.  1.
         11   -1    0    0    0    0 -0.00000000000E+00 -0.00000000000E+00 -0.45593999997E+02  0.45594000000E+02  0.51100000000E-03 0. -1.
    9900012    2    1    2    0    0 -0.77149560803E+01  0.37794737839E+02  0.12853117800E+02  0.50528863354E+02  0.30000010651E+02 0.  0.
         12    1    1    2    0    0  0.77149560803E+01 -0.37794737839E+02 -0.12853117800E+02  0.40659136646E+02  0.00000000000E+00 0. -1.
         11    1    3    3    0    0 -0.12726025216E+02  0.23703876124E+02  0.50695363998E+01  0.27377466293E+02  0.51100000000E-03 0. -1.
        -11    1    3    3    0    0 -0.30088525437E+01 -0.27320636454E+00  0.58535616971E+01  0.65872619615E+01  0.51100000000E-03 0.  1.
         12    1    3    3    0    0  0.80199216789E+01  0.14364068080E+02  0.19300197031E+01  0.16564135099E+02  0.00000000000E+00 0. -1.
</event>
<event>
 7    1  0.1381607E-011  0.5052887E+02  0.7816164E-02  0.1300439E+00
        -11   -1    0    0    0    0  0.00000000000E+00  0.00000000000E+00  0.45593999997E+02  0.45594000000E+02  0.51100000000E-03 0.  1.
         11   -1    0    0    0    0 -0.00000000000E+00 -0.00000000000E+00 -0.45593999997E+02  0.45594000000E+02  0.51100000000E-03 0. -1.
    9900012    2    1    2    0    0 -0.35347275843E+02 -0.16559132829E+02  0.11381118810E+02  0.50528872428E+02  0.30000038231E+02 0.  0.
         12    1    1    2    0    0  0.35347275843E+02  0.16559132829E+02 -0.11381118810E+02  0.40659127572E+02  0.00000000000E+00 0. -1.
         11    1    3    3    0    0 -0.68517589134E+01 -0.25700102583E+01 -0.41825905833E+01  0.84288562204E+01  0.51100000000E-03 0. -1.
        -11    1    3    3    0    0 -0.17939192868E+02  0.37273515023E+01  0.92956317958E+01  0.20545475432E+02  0.51100000000E-03 0.  1.
        -12    1    3    3    0    0 -0.10556324062E+02 -0.17716474073E+02  0.62680775974E+01  0.21554540775E+02  0.00000000000E+00 0.  1.
</event>
<event>
 7    1  0.1381607E-011  0.5052887E+02  0.7816164E-02  0.1300439E+00
        -11   -1    0    0    0    0  0.00000000000E+00  0.00000000000E+00  0.45593999997E+02  0.45594000000E+02  0.51100000000E-03 0.  1.
         11   -1    0    0    0    0 -0.00000000000E+00 -0.00000000000E+00 -0.45593999997E+02  0.45594000000E+02  0.51100000000E-03 0. -1.
    9900012    2    1    2    0    0  0.37828874082E+02 -0.14904043249E+02 -0.10363447674E+00  0.50528868681E+02  0.30000026843E+02 0.  0.
         12    1    1    2    0    0 -0.37828874082E+02  0.14904043249E+02  0.10363447674E+00  0.40659131319E+02  0.00000000000E+00 0. -1.
         11    1    3    3    0    0 -0.29155549278E+01 -0.15878864330E+01  0.47497015736E+01  0.57949554925E+01  0.51100000000E-03 0. -1.
        -11    1    3    3    0    0  0.83069750365E+01 -0.48880002588E+01  0.33958608999E+01  0.10219112109E+02  0.51100000000E-03 0.  1.
         12    1    3    3    0    0  0.32437453974E+02 -0.84281565567E+01 -0.82491969502E+01  0.34514801080E+02  0.00000000000E+00 0. -1.
</event>
<event>
 7    1  0.1381607E-011  0.5052887E+02  0.7816164E-02  0.1300439E+00
        -11   -1    0    0    0    0  0.00000000000E+00  0.00000000000E+00  0.45593999997E+02  0.45594000000E+02  0.51100000000E-03 0.  1.
         11   -1    0    0    0    0 -0.00000000000E+00 -0.00000000000E+00 -0.45593999997E+02  0.45594000000E+02  0.51100000000E-03 0. -1.
    9900012    2    1    2    0    0  0.10817813230E+02 -0.39137442272E+02  0.20977766425E+01  0.50528866494E+02  0.30000020194E+02 0.  0.
         12    1    1    2    0    0 -0.10817813230E+02  0.39137442272E+02 -0.20977766425E+01  0.40659133506E+02  0.00000000000E+00 0. -1.
         11    1    3    3    0    0  0.59421688483E+00 -0.10961699497E+02 -0.11682098147E+02  0.16030700762E+02  0.51100000000E-03 0. -1.
        -11    1    3    3    0    0  0.77851674689E+00 -0.10449219590E+02  0.64314883241E+00  0.10497900698E+02  0.51100000000E-03 0.  1.
         12    1    3    3    0    0  0.94450795983E+01 -0.17726523185E+02  0.13136725957E+02  0.24000265034E+02  0.00000000000E+00 0. -1.
</event>
<event>
 7    1  0.1381607E-011  0.5052887E+02  0.7816164E-02  0.1300439E+00
        -11   -1    0    0    0    0  0.00000000000E+00  0.00000000000E+00  0.45593999997E+02  0.45594000000E+02  0.51100000000E-03 0.  1.
         11   -1    0    0    0    0 -0.00000000000E+00 -0.00000000000E+00 -0.45593999997E+02  0.45594000000E+02  0.51100000000E-03 0. -1.
    9900012    2    1    2    0    0 -0.21415001617E+02  0.25682036494E+02  0.23129978816E+02  0.50528865568E+02  0.30000017382E+02 0.  0.
         12    1    1    2    0    0  0.21415001617E+02 -0.25682036494E+02 -0.23129978816E+02  0.40659134432E+02  0.00000000000E+00 0. -1.
         11    1    3    3    0    0 -0.10526367731E+02  0.11297026759E+02  0.11710657244E+01  0.15485432716E+02  0.51100000000E-03 0. -1.
        -11    1    3    3    0    0 -0.10631897288E+02  0.19340918250E+02  0.19728313604E+02  0.29602613341E+02  0.51100000000E-03 0.  1.
         12    1    3    3    0    0 -0.25673659766E+00 -0.49559085149E+01  0.22305994872E+01  0.54408195119E+01  0.00000000000E+00 0. -1.
</event>
<event>
 7    1  0.1381607E-011  0.5052886E+02  0.7816164E-02  0.1300439E+00
        -11   -1    0    0    0    0  0.00000000000E+00  0.00000000000E+00  0.45593999997E+02  0.45594000000E+02  0.51100000000E-03 0.  1.
         11   -1    0    0    0    0 -0.00000000000E+00 -0.00000000000E+00 -0.45593999997E+02  0.45594000000E+02  0.51100000000E-03 0. -1.
    9900012    2    1    2    0    0 -0.23062838855E+02 -0.12302866327E+02  0.31143382731E+02  0.50528863956E+02  0.30000012480E+02 0.  0.
         12    1    1    2    0    0  0.23062838855E+02  0.12302866327E+02 -0.31143382731E+02  0.40659136044E+02  0.00000000000E+00 0. -1.
         11    1    3    3    0    0 -0.30846179228E+01  0.66916171013E+01  0.15800030686E+02  0.17433690862E+02  0.51100000000E-03 0. -1.
        -11    1    3    3    0    0  0.41251224229E+00 -0.18536869224E+01 -0.67072094627E+00  0.20139981145E+01  0.51100000000E-03 0.  1.
        -12    1    3    3    0    0 -0.20390733175E+02 -0.17140796506E+02  0.16014072992E+02  0.31081174979E+02  0.00000000000E+00 0.  1.
</event>
<event>
 7    1  0.1381607E-011  0.5052885E+02  0.7816164E-02  0.1300439E+00
        -11   -1    0    0    0    0  0.00000000000E+00  0.00000000000E+00  0.45593999997E+02  0.45594000000E+02  0.51100000000E-03 0.  1.
         11   -1    0    0    0    0 -0.00000000000E+00 -0.00000000000E+00 -0.45593999997E+02  0.45594000000E+02  0.51100000000E-03 0. -1.
    9900012    2    1    2    0    0 -0.52298221850E+01 -0.29369717418E+00  0.40320331757E+02  0.50528850340E+02  0.29999971093E+02 0.  0.
         12    1    1    2    0    0  0.52298221850E+01  0.29369717418E+00 -0.40320331757E+02  0.40659149660E+02  0.00000000000E+00 0. -1.
         11    1    3    3    0    0  0.34752775942E+01 -0.86436187095E+01  0.42510144603E+01  0.10240157370E+02  0.51100000000E-03 0. -1.
        -11    1    3    3    0    0 -0.20946915040E+00 -0.20682423358E+01  0.15991571906E+02  0.16126124022E+02  0.51100000000E-03 0.  1.
         12    1    3    3    0    0 -0.84956306288E+01  0.10418163871E+02  0.20077745391E+02  0.24162568949E+02  0.00000000000E+00 0. -1.
</event>
<event>
 7    1  0.1381607E-011  0.5052885E+02  0.7816164E-02  0.1300439E+00
        -11   -1    0    0    0    0  0.00000000000E+00  0.00000000000E+00  0.45593999997E+02  0.45594000000E+02  0.51100000000E-03 0.  1.
         11   -1    0    0    0    0 -0.00000000000E+00 -0.00000000000E+00 -0.45593999997E+02  0.45594000000E+02  0.51100000000E-03 0. -1.
    9900012    2    1    2    0    0 -0.15605147962E+02 -0.26831931813E+02  0.26262013160E+02  0.50528849210E+02  0.29999967658E+02 0.  0.
         12    1    1    2    0    0  0.15605147962E+02  0.26831931813E+02 -0.26262013160E+02  0.40659150790E+02  0.00000000000E+00 0. -1.
         11    1    3    3    0    0 -0.18631754066E+01 -0.56793430598E+01 -0.14586623486E+00  0.59789327983E+01  0.51100000000E-03 0. -1.
        -11    1    3    3    0    0 -0.11063633070E+02 -0.24100820930E+02  0.29381379351E+02  0.39579274868E+02  0.51100000000E-03 0.  1.
         12    1    3    3    0    0 -0.26783394857E+01  0.29482321766E+01 -0.29734999563E+01  0.49706415439E+01  0.00000000000E+00 0. -1.
</event>
<event>
 7    1  0.1381607E-011  0.5052889E+02  0.7816164E-02  0.1300439E+00
        -11   -1    0    0    0    0  0.00000000000E+00  0.00000000000E+00  0.45593999997E+02  0.45594000000E+02  0.51100000000E-03 0.  1.
         11   -1    0    0    0    0 -0.00000000000E+00 -0.00000000000E+00 -0.45593999997E+02  0.45594000000E+02  0.51100000000E-03 0. -1.
    9900012    2    1    2    0    0 -0.14480854057E+02 -0.18609362036E+02  0.33123402472E+02  0.50528889324E+02  0.30000089589E+02 0.  0.
         12    1    1    2    0    0  0.14480854057E+02  0.18609362036E+02 -0.33123402472E+02  0.40659110676E+02  0.00000000000E+00 0. -1.
         11    1    3    3    0    0 -0.85645172818E+01  0.22358120601E+00  0.11003837123E+02  0.13945801394E+02  0.51100000000E-03 0. -1.
        -11    1    3    3    0    0 -0.13722720181E+02 -0.15350947321E+02  0.15702195379E+02  0.25894469927E+02  0.51100000000E-03 0.  1.
        -12    1    3    3    0    0  0.78063834058E+01 -0.34819959215E+01  0.64173699704E+01  0.10688618003E+02  0.00000000000E+00 0.  1.
</event>
<event>
 7    1  0.1381607E-011  0.5052886E+02  0.7816164E-02  0.1300439E+00
        -11   -1    0    0    0    0  0.00000000000E+00  0.00000000000E+00  0.45593999997E+02  0.45594000000E+02  0.51100000000E-03 0.  1.
         11   -1    0    0    0    0 -0.00000000000E+00 -0.00000000000E+00 -0.45593999997E+02  0.45594000000E+02  0.51100000000E-03 0. -1.
    9900012    2    1    2    0    0 -0.13681045427E+02  0.24460562665E+01  0.38210092404E+02  0.50528863798E+02  0.30000011999E+02 0.  0.
         12    1    1    2    0    0  0.13681045427E+02 -0.24460562665E+01 -0.38210092404E+02  0.40659136202E+02  0.00000000000E+00 0. -1.
         11    1    3    3    0    0  0.52329019315E+00 -0.39298364053E+01 -0.14934783117E+01  0.42364990886E+01  0.51100000000E-03 0. -1.
        -11    1    3    3    0    0 -0.16146147238E+02  0.14513781016E+01  0.19259311638E+02  0.25173908199E+02  0.51100000000E-03 0.  1.
        -12    1    3    3    0    0  0.19418116177E+01  0.49245145702E+01  0.20444259078E+02  0.21118456510E+02  0.00000000000E+00 0.  1.
</event>
<event>
 7    1  0.1381607E-011  0.5052886E+02  0.7816164E-02  0.1300439E+00
        -11   -1    0    0    0    0  0.00000000000E+00  0.00000000000E+00  0.45593999997E+02  0.45594000000E+02  0.51100000000E-03 0.  1.
         11   -1    0    0    0    0 -0.00000000000E+00 -0.00000000000E+00 -0.45593999997E+02  0.45594000000E+02  0.51100000000E-03 0. -1.
    9900012    2    1    2    0    0  0.38827994267E+02  0.63761599860E+00  0.12047651318E+02  0.50528860864E+02  0.30000003083E+02 0.  0.
         12    1    1    2    0    0 -0.38827994267E+02 -0.63761599860E+00 -0.12047651318E+02  0.40659139136E+02  0.00000000000E+00 0. -1.
         11    1    3    3    0    0  0.11885614316E+02  0.62668927671E+01  0.38839200077E+01  0.13986658197E+02  0.51100000000E-03 0. -1.
        -11    1    3    3    0    0 -0.27233984483E+01 -0.97039589649E+00  0.57254508074E+01  0.64139967659E+01  0.51100000000E-03 0.  1.
        -12    1    3    3    0    0  0.29665778400E+02 -0.46588808720E+01  0.24382805029E+01  0.30128205902E+02  0.00000000000E+00 0.  1.
</event>
<event>
 7    1  0.1381607E-011  0.5052886E+02  0.7816164E-02  0.1300439E+00
        -11   -1    0    0    0    0  0.00000000000E+00  0.00000000000E+00  0.45593999997E+02  0.45594000000E+02  0.51100000000E-03 0.  1.
         11   -1    0    0    0    0 -0.00000000000E+00 -0.00000000000E+00 -0.45593999997E+02  0.45594000000E+02  0.51100000000E-03 0. -1.
    9900012    2    1    2    0    0  0.23118686903E+02  0.32733479706E+02  0.68710242974E+01  0.50528863847E+02  0.30000012150E+02 0.  0.
         12    1    1    2    0    0 -0.23118686903E+02 -0.32733479706E+02 -0.68710242974E+01  0.40659136153E+02  0.00000000000E+00 0. -1.
         11    1    3    3    0    0  0.94255195957E+01  0.53193119064E+01  0.26267371714E+01  0.11137111261E+02  0.51100000000E-03 0. -1.
        -11    1    3    3    0    0  0.12427314233E+01  0.24338826881E+02  0.86064121932E+01  0.25845564541E+02  0.51100000000E-03 0.  1.
         12    1    3    3    0    0  0.12450435884E+02  0.30753409188E+01 -0.43621250672E+01  0.13546188046E+02  0.00000000000E+00 0. -1.
</event>
<event>
 7    1  0.1381607E-011  0.5052885E+02  0.7816164E-02  0.1300439E+00
        -11   -1    0    0    0    0  0.00000000000E+00  0.00000000000E+00  0.45593999997E+02  0.45594000000E+02  0.51100000000E-03 0. -1.
         11   -1    0    0    0    0 -0.00000000000E+00 -0.00000000000E+00 -0.45593999997E+02  0.45594000000E+02  0.51100000000E-03 0.  1.
    9900012    2    1    2    0    0 -0.29605304109E+02 -0.93751532477E+01 -0.26244975109E+02  0.50528852834E+02  0.29999978675E+02 0.  0.
         12    1    1    2    0    0  0.29605304109E+02  0.93751532477E+01  0.26244975109E+02  0.40659147166E+02  0.00000000000E+00 0. -1.
         11    1    3    3    0    0 -0.10119574077E+02 -0.33737963640E+01  0.76830134693E+00  0.10694791659E+02  0.51100000000E-03 0. -1.
        -11    1    3    3    0    0 -0.20782232344E+02 -0.11107277314E+02 -0.19125668094E+02  0.30349035748E+02  0.51100000000E-03 0.  1.
        -12    1    3    3    0    0  0.12965023122E+01  0.51059204308E+01 -0.78876083613E+01  0.94850254270E+01  0.00000000000E+00 0.  1.
</event>
<event>
 7    1  0.1381607E-011  0.5052886E+02  0.7816164E-02  0.1300439E+00
        -11   -1    0    0    0    0  0.00000000000E+00  0.00000000000E+00  0.45593999997E+02  0.45594000000E+02  0.51100000000E-03 0.  1.
         11   -1    0    0    0    0 -0.00000000000E+00 -0.00000000000E+00 -0.45593999997E+02  0.45594000000E+02  0.51100000000E-03 0. -1.
    9900012    2    1    2    0    0  0.26838542124E+02  0.30135562065E+02  0.49705434180E+01  0.50528859008E+02  0.29999997442E+02 0.  0.
         12    1    1    2    0    0 -0.26838542124E+02 -0.30135562065E+02 -0.49705434180E+01  0.40659140992E+02  0.00000000000E+00 0. -1.
         11    1    3    3    0    0  0.36530488561E+01 -0.13156712513E+01 -0.43654724950E+01  0.58423545897E+01  0.51100000000E-03 0. -1.
        -11    1    3    3    0    0  0.22839450967E+02  0.15472049436E+02  0.75689656024E+01  0.28606189449E+02  0.51100000000E-03 0.  1.
        -12    1    3    3    0    0  0.34604230141E+00  0.15979183880E+02  0.17670503107E+01  0.16080314970E+02  0.00000000000E+00 0.  1.
</event>
<event>
 7    1  0.1381607E-011  0.5052886E+02  0.7816164E-02  0.1300439E+00
        -11   -1    0    0    0    0  0.00000000000E+00  0.00000000000E+00  0.45593999997E+02  0.45594000000E+02  0.51100000000E-03 0. -1.
         11   -1    0    0    0    0 -0.00000000000E+00 -0.00000000000E+00 -0.45593999997E+02  0.45594000000E+02  0.51100000000E-03 0.  1.
    9900012    2    1    2    0    0  0.26606331238E+02  0.30334595678E+02 -0.50081389758E+01  0.50528855729E+02  0.29999987473E+02 0.  0.
         12    1    1    2    0    0 -0.26606331238E+02 -0.30334595678E+02  0.50081389758E+01  0.40659144271E+02  0.00000000000E+00 0. -1.
         11    1    3    3    0    0  0.47213490888E+01 -0.36954877290E+01 -0.29275286995E+01  0.66721953899E+01  0.51100000000E-03 0. -1.
        -11    1    3    3    0    0 -0.20287105674E+01  0.49441252153E+01  0.25449064578E+01  0.59191713821E+01  0.51100000000E-03 0.  1.
        -12    1    3    3    0    0  0.23913692716E+02  0.29085958192E+02 -0.46255167341E+01  0.37937488956E+02  0.00000000000E+00 0.  1.
</event>
<event>
 7    1  0.1381607E-011  0.5052884E+02  0.7816164E-02  0.1300439E+00
        -11   -1    0    0    0    0  0.00000000000E+00  0.00000000000E+00  0.45593999997E+02  0.45594000000E+02  0.51100000000E-03 0.  1.
         11   -1    0    0    0    0 -0.00000000000E+00 -0.00000000000E+00 -0.45593999997E+02  0.45594000000E+02  0.51100000000E-03 0. -1.
    9900012    2    1    2    0    0 -0.23743025932E+01  0.30750842565E+02  0.26493696521E+02  0.50528836376E+02  0.29999928649E+02 0.  0.
         12    1    1    2    0    0  0.23743025932E+01 -0.30750842565E+02 -0.26493696521E+02  0.40659163624E+02  0.00000000000E+00 0. -1.
         11    1    3    3    0    0  0.12106013724E+01 -0.33797412849E+01  0.60037124099E+01  0.69951961944E+01  0.51100000000E-03 0. -1.
        -11    1    3    3    0    0  0.48120064615E+01  0.23767173982E+02  0.87971605310E+01  0.25795813594E+02  0.51100000000E-03 0.  1.
        -12    1    3    3    0    0 -0.83969104270E+01  0.10363409868E+02  0.11692823580E+02  0.17737826588E+02  0.00000000000E+00 0.  1.
</event>
<event>
 7    1  0.1381607E-011  0.5052885E+02  0.7816164E-02  0.1300439E+00
        -11   -1    0    0    0    0  0.00000000000E+00  0.00000000000E+00  0.45593999997E+02  0.45594000000E+02  0.51100000000E-03 0. -1.
         11   -1    0    0    0    0 -0.00000000000E+00 -0.00000000000E+00 -0.45593999997E+02  0.45594000000E+02  0.51100000000E-03 0.  1.
    9900012    2    1    2    0    0  0.20044622061E+02  0.35293311730E+02  0.24003872179E+01  0.50528848690E+02  0.29999966078E+02 0.  0.
         12    1    1    2    0    0 -0.20044622061E+02 -0.35293311730E+02 -0.24003872179E+01  0.40659151310E+02  0.00000000000E+00 0. -1.
         11    1    3    3    0    0  0.15461280564E+02  0.76998702133E+01 -0.73726176500E+01  0.18780167444E+02  0.51100000000E-03 0. -1.
        -11    1    3    3    0    0  0.71141122355E+01  0.22049986832E+02  0.43142937853E+01  0.23567470023E+02  0.51100000000E-03 0.  1.
        -12    1    3    3    0    0 -0.25307707381E+01  0.55434546854E+01  0.54587110826E+01  0.81812112222E+01  0.00000000000E+00 0.  1.
</event>
<event>
 7    1  0.1381607E-011  0.5052887E+02  0.7816164E-02  0.1300439E+00
        -11   -1    0    0    0    0  0.00000000000E+00  0.00000000000E+00  0.45593999997E+02  0.45594000000E+02  0.51100000000E-03 0.  1.
         11   -1    0    0    0    0 -0.00000000000E+00 -0.00000000000E+00 -0.45593999997E+02  0.45594000000E+02  0.51100000000E-03 0. -1.
    9900012    2    1    2    0    0  0.86277041103E+01 -0.28346056772E+01  0.39631968110E+02  0.50528866170E+02  0.30000019209E+02 0.  0.
         12    1    1    2    0    0 -0.86277041103E+01  0.28346056772E+01 -0.39631968110E+02  0.40659133830E+02  0.00000000000E+00 0. -1.
         11    1    3    3    0    0  0.13193659086E+01  0.28239548826E+01 -0.10333365188E+01  0.32837832149E+01  0.51100000000E-03 0. -1.
        -11    1    3    3    0    0  0.41629077471E+01 -0.13411528174E+02  0.16469583342E+02  0.21643614869E+02  0.51100000000E-03 0.  1.
        -12    1    3    3    0    0  0.31454304545E+01  0.77529676140E+01  0.24195721287E+02  0.25601468086E+02  0.00000000000E+00 0.  1.
</event>
<event>
 7    1  0.1381607E-011  0.5052886E+02  0.7816164E-02  0.1300439E+00
        -11   -1    0    0    0    0  0.00000000000E+00  0.00000000000E+00  0.45593999997E+02  0.45594000000E+02  0.51100000000E-03 0.  1.
         11   -1    0    0    0    0 -0.00000000000E+00 -0.00000000000E+00 -0.45593999997E+02  0.45594000000E+02  0.51100000000E-03 0. -1.
    9900012    2    1    2    0    0  0.22411534525E+02 -0.26167219200E+02  0.21590871611E+02  0.50528856166E+02  0.29999988801E+02 0.  0.
         12    1    1    2    0    0 -0.22411534525E+02  0.26167219200E+02 -0.21590871611E+02  0.40659143834E+02  0.00000000000E+00 0. -1.
         11    1    3    3    0    0  0.28368979472E+01 -0.96267381208E+01  0.41609885097E+01  0.10864432910E+02  0.51100000000E-03 0. -1.
        -11    1    3    3    0    0  0.11357791029E+02 -0.91224791476E+01 -0.43749576394E+01  0.15210499579E+02  0.51100000000E-03 0.  1.
         12    1    3    3    0    0  0.82168455486E+01 -0.74180019316E+01  0.21804840741E+02  0.24453923676E+02  0.00000000000E+00 0. -1.
</event>
<event>
 7    1  0.1381607E-011  0.5052887E+02  0.7816164E-02  0.1300439E+00
        -11   -1    0    0    0    0  0.00000000000E+00  0.00000000000E+00  0.45593999997E+02  0.45594000000E+02  0.51100000000E-03 0.  1.
         11   -1    0    0    0    0 -0.00000000000E+00 -0.00000000000E+00 -0.45593999997E+02  0.45594000000E+02  0.51100000000E-03 0. -1.
    9900012    2    1    2    0    0  0.24782659033E+02  0.31644515023E+02  0.61326365828E+01  0.50528871243E+02  0.30000034631E+02 0.  0.
         12    1    1    2    0    0 -0.24782659033E+02 -0.31644515023E+02 -0.61326365828E+01  0.40659128757E+02  0.00000000000E+00 0. -1.
         11    1    3    3    0    0 -0.30423868603E+01  0.51326372790E+01  0.83708226187E+01  0.10279628146E+02  0.51100000000E-03 0. -1.
        -11    1    3    3    0    0  0.85420546709E+01  0.14355548046E+02  0.27107248283E+01  0.16923252851E+02  0.51100000000E-03 0.  1.
        -12    1    3    3    0    0  0.19282991223E+02  0.12156329698E+02 -0.49489108642E+01  0.23325990246E+02  0.00000000000E+00 0.  1.
</event>
<event>
 7    1  0.1381607E-011  0.5052882E+02  0.7816164E-02  0.1300439E+00
        -11   -1    0    0    0    0  0.00000000000E+00  0.00000000000E+00  0.45593999997E+02  0.45594000000E+02  0.51100000000E-03 0.  1.
         11   -1    0    0    0    0 -0.00000000000E+00 -0.00000000000E+00 -0.45593999997E+02  0.45594000000E+02  0.51100000000E-03 0. -1.
    9900012    2    1    2    0    0  0.13256652297E+02  0.28939769698E+02  0.25296642114E+02  0.50528816505E+02  0.29999868247E+02 0.  0.
         12    1    1    2    0    0 -0.13256652297E+02 -0.28939769698E+02 -0.25296642114E+02  0.40659183495E+02  0.00000000000E+00 0. -1.
         11    1    3    3    0    0  0.44911606968E+01 -0.16143627236E+01  0.96737743155E+01  0.10786964410E+02  0.51100000000E-03 0. -1.
        -11    1    3    3    0    0  0.11430839657E+02  0.82947995090E+01  0.61553206409E+01  0.15406354748E+02  0.51100000000E-03 0.  1.
        -12    1    3    3    0    0 -0.26653480569E+01  0.22259332912E+02  0.94675471570E+01  0.24335497347E+02  0.00000000000E+00 0.  1.
</event>
<event>
 7    1  0.1381607E-011  0.5052886E+02  0.7816164E-02  0.1300439E+00
        -11   -1    0    0    0    0  0.00000000000E+00  0.00000000000E+00  0.45593999997E+02  0.45594000000E+02  0.51100000000E-03 0.  1.
         11   -1    0    0    0    0 -0.00000000000E+00 -0.00000000000E+00 -0.45593999997E+02  0.45594000000E+02  0.51100000000E-03 0. -1.
    9900012    2    1    2    0    0 -0.37757768432E+02  0.13106582432E+02  0.74655041799E+01  0.50528864093E+02  0.30000012897E+02 0.  0.
         12    1    1    2    0    0  0.37757768432E+02 -0.13106582432E+02 -0.74655041799E+01  0.40659135907E+02  0.00000000000E+00 0. -1.
         11    1    3    3    0    0 -0.54522393961E+01  0.34134815778E+00 -0.37041865881E+01  0.66003357140E+01  0.51100000000E-03 0. -1.
        -11    1    3    3    0    0 -0.35930079904E+02  0.11118818472E+02  0.71760250382E+01  0.38289608274E+02  0.51100000000E-03 0.  1.
         12    1    3    3    0    0  0.36245508681E+01  0.16464158022E+01  0.39936657298E+01  0.56389201050E+01  0.00000000000E+00 0. -1.
</event>
<event>
 7    1  0.1381607E-011  0.5052887E+02  0.7816164E-02  0.1300439E+00
        -11   -1    0    0    0    0  0.00000000000E+00  0.00000000000E+00  0.45593999997E+02  0.45594000000E+02  0.51100000000E-03 0. -1.
         11   -1    0    0    0    0 -0.00000000000E+00 -0.00000000000E+00 -0.45593999997E+02  0.45594000000E+02  0.51100000000E-03 0.  1.
    9900012    2    1    2    0    0  0.15050978701E+02  0.32271543740E+02  0.19626015414E+02  0.50528868477E+02  0.30000026221E+02 0.  0.
         12    1    1    2    0    0 -0.15050978701E+02 -0.32271543740E+02 -0.19626015414E+02  0.40659131523E+02  0.00000000000E+00 0. -1.
         11    1    3    3    0    0  0.97004855938E+01  0.18962455484E+01  0.35222584169E+01  0.10492924881E+02  0.51100000000E-03 0.  1.
        -11    1    3    3    0    0 -0.35239749135E+01  0.12864913972E+00 -0.16117425425E+01  0.38771979672E+01  0.51100000000E-03 0. -1.
        -12    1    3    3    0    0  0.88744680206E+01  0.30246649052E+02  0.17715499539E+02  0.36158745629E+02  0.00000000000E+00 0.  1.
</event>
<event>
 7    1  0.1381607E-011  0.5052886E+02  0.7816164E-02  0.1300439E+00
        -11   -1    0    0    0    0  0.00000000000E+00  0.00000000000E+00  0.45593999997E+02  0.45594000000E+02  0.51100000000E-03 0.  1.
         11   -1    0    0    0    0 -0.00000000000E+00 -0.00000000000E+00 -0.45593999997E+02  0.45594000000E+02  0.51100000000E-03 0. -1.
    9900012    2    1    2    0    0 -0.33855094546E+02 -0.14599112814E+02  0.17142455689E+02  0.50528864388E+02  0.30000013795E+02 0.  0.
         12    1    1    2    0    0  0.33855094546E+02  0.14599112814E+02 -0.17142455689E+02  0.40659135612E+02  0.00000000000E+00 0. -1.
         11    1    3    3    0    0 -0.19484634255E+02 -0.55648877000E+01  0.33955345928E+01  0.20546255197E+02  0.51100000000E-03 0. -1.
        -11    1    3    3    0    0 -0.75650741896E+01 -0.15501615948E+02  0.92526290149E+01  0.19574002873E+02  0.51100000000E-03 0.  1.
         12    1    3    3    0    0 -0.68053861008E+01  0.64673908349E+01  0.44942920811E+01  0.10408606319E+02  0.00000000000E+00 0. -1.
</event>
<event>
 7    1  0.1381607E-011  0.5052886E+02  0.7816164E-02  0.1300439E+00
        -11   -1    0    0    0    0  0.00000000000E+00  0.00000000000E+00  0.45593999997E+02  0.45594000000E+02  0.51100000000E-03 0.  1.
         11   -1    0    0    0    0 -0.00000000000E+00 -0.00000000000E+00 -0.45593999997E+02  0.45594000000E+02  0.51100000000E-03 0. -1.
    9900012    2    1    2    0    0  0.14873641074E+02  0.20120880818E+02  0.32048257818E+02  0.50528857451E+02  0.29999992707E+02 0.  0.
         12    1    1    2    0    0 -0.14873641074E+02 -0.20120880818E+02 -0.32048257818E+02  0.40659142549E+02  0.00000000000E+00 0. -1.
         11    1    3    3    0    0 -0.23604896768E+01 -0.14537839446E+01 -0.74892048250E+00  0.28716339290E+01  0.51100000000E-03 0. -1.
        -11    1    3    3    0    0  0.10377286380E+02  0.23609623493E+02  0.30918170492E+02  0.40262087140E+02  0.51100000000E-03 0.  1.
         12    1    3    3    0    0  0.68568443705E+01 -0.20349587297E+01  0.18790078085E+01  0.73951363813E+01  0.00000000000E+00 0. -1.
</event>
<event>
 7    1  0.1381607E-011  0.5052886E+02  0.7816164E-02  0.1300439E+00
        -11   -1    0    0    0    0  0.00000000000E+00  0.00000000000E+00  0.45593999997E+02  0.45594000000E+02  0.51100000000E-03 0. -1.
         11   -1    0    0    0    0 -0.00000000000E+00 -0.00000000000E+00 -0.45593999997E+02  0.45594000000E+02  0.51100000000E-03 0.  1.
    9900012    2    1    2    0    0 -0.10400047434E+02 -0.32345040948E+02 -0.22333898535E+02  0.50528859769E+02  0.29999999754E+02 0.  0.
         12    1    1    2    0    0  0.10400047434E+02  0.32345040948E+02  0.22333898535E+02  0.40659140231E+02  0.00000000000E+00 0. -1.
         11    1    3    3    0    0 -0.79379870102E+01  0.78725875704E+00 -0.12784817027E+01  0.80787331835E+01  0.51100000000E-03 0. -1.
        -11    1    3    3    0    0 -0.11657191899E+01 -0.32113419278E+01 -0.99302826346E+01  0.10501529968E+02  0.51100000000E-03 0.  1.
         12    1    3    3    0    0 -0.12963412338E+01 -0.29920957777E+02 -0.11125134198E+02  0.31948596617E+02  0.00000000000E+00 0. -1.
</event>
<event>
 7    1  0.1381607E-011  0.5052896E+02  0.7816164E-02  0.1300438E+00
        -11   -1    0    0    0    0  0.00000000000E+00  0.00000000000E+00  0.45593999997E+02  0.45594000000E+02  0.51100000000E-03 0.  1.
         11   -1    0    0    0    0 -0.00000000000E+00 -0.00000000000E+00 -0.45593999997E+02  0.45594000000E+02  0.51100000000E-03 0. -1.
    9900012    2    1    2    0    0  0.17249149548E+02  0.27021191696E+02  0.25009585007E+02  0.50528962837E+02  0.30000313039E+02 0.  0.
         12    1    1    2    0    0 -0.17249149548E+02 -0.27021191696E+02 -0.25009585007E+02  0.40659037163E+02  0.00000000000E+00 0. -1.
         11    1    3    3    0    0 -0.24114163955E+01 -0.16275746369E+01  0.15516898376E+01  0.32972215340E+01  0.51100000000E-03 0. -1.
        -11    1    3    3    0    0  0.13151533274E+01  0.12882329468E+02  0.18431247964E+02  0.22525428799E+02  0.51100000000E-03 0.  1.
         12    1    3    3    0    0  0.18345412616E+02  0.15766436865E+02  0.50266472053E+01  0.24706312505E+02  0.00000000000E+00 0. -1.
</event>
<event>
 7    1  0.1381607E-011  0.5052886E+02  0.7816164E-02  0.1300439E+00
        -11   -1    0    0    0    0  0.00000000000E+00  0.00000000000E+00  0.45593999997E+02  0.45594000000E+02  0.51100000000E-03 0.  1.
         11   -1    0    0    0    0 -0.00000000000E+00 -0.00000000000E+00 -0.45593999997E+02  0.45594000000E+02  0.51100000000E-03 0. -1.
    9900012    2    1    2    0    0  0.38353986320E+02  0.12078434676E+02 -0.60206856654E+01  0.50528861953E+02  0.30000006391E+02 0.  0.
         12    1    1    2    0    0 -0.38353986320E+02 -0.12078434676E+02  0.60206856654E+01  0.40659138047E+02  0.00000000000E+00 0. -1.
         11    1    3    3    0    0  0.17092857857E+01  0.54025893430E+01 -0.92812709906E+01  0.10874356117E+02  0.51100000000E-03 0. -1.
        -11    1    3    3    0    0  0.97653650502E+01 -0.47552095857E+00 -0.45216779683E+01  0.10771910075E+02  0.51100000000E-03 0.  1.
        -12    1    3    3    0    0  0.26879335484E+02  0.71513662913E+01  0.77822632935E+01  0.28882595761E+02  0.00000000000E+00 0.  1.
</event>
<event>
 7    1  0.1381607E-011  0.5052885E+02  0.7816164E-02  0.1300439E+00
        -11   -1    0    0    0    0  0.00000000000E+00  0.00000000000E+00  0.45593999997E+02  0.45594000000E+02  0.51100000000E-03 0.  1.
         11   -1    0    0    0    0 -0.00000000000E+00 -0.00000000000E+00 -0.45593999997E+02  0.45594000000E+02  0.51100000000E-03 0. -1.
    9900012    2    1    2    0    0 -0.33167902803E+02  0.21476799278E+02 -0.95814209935E+01  0.50528852052E+02  0.29999976297E+02 0.  0.
         12    1    1    2    0    0  0.33167902803E+02 -0.21476799278E+02  0.95814209935E+01  0.40659147948E+02  0.00000000000E+00 0. -1.
         11    1    3    3    0    0 -0.43323550647E+01 -0.28590121024E+01  0.76666197639E+00  0.52470011869E+01  0.51100000000E-03 0. -1.
        -11    1    3    3    0    0  0.20581707188E+00  0.55181110435E+01 -0.91122120883E+01  0.10654779189E+02  0.51100000000E-03 0.  1.
        -12    1    3    3    0    0 -0.29041364811E+02  0.18817700337E+02 -0.12358708816E+01  0.34627071676E+02  0.00000000000E+00 0.  1.
</event>
<event>
 7    1  0.1381607E-011  0.5052887E+02  0.7816164E-02  0.1300439E+00
        -11   -1    0    0    0    0  0.00000000000E+00  0.00000000000E+00  0.45593999997E+02  0.45594000000E+02  0.51100000000E-03 0.  1.
         11   -1    0    0    0    0 -0.00000000000E+00 -0.00000000000E+00 -0.45593999997E+02  0.45594000000E+02  0.51100000000E-03 0. -1.
    9900012    2    1    2    0    0  0.15906660160E+02  0.62180166836E+01  0.36898232586E+02  0.50528866501E+02  0.30000020216E+02 0.  0.
         12    1    1    2    0    0 -0.15906660160E+02 -0.62180166836E+01 -0.36898232586E+02  0.40659133499E+02  0.00000000000E+00 0. -1.
         11    1    3    3    0    0  0.31498725588E+01 -0.26248135618E+01  0.36282896679E+01  0.54750186800E+01  0.51100000000E-03 0. -1.
        -11    1    3    3    0    0  0.16137102343E+02  0.10306109888E+02  0.35790600785E+02  0.40590504775E+02  0.51100000000E-03 0.  1.
         12    1    3    3    0    0 -0.33803147416E+01 -0.14632796423E+01 -0.25206578671E+01  0.44633430461E+01  0.00000000000E+00 0. -1.
</event>
<event>
 7    1  0.1381607E-011  0.5052885E+02  0.7816164E-02  0.1300439E+00
        -11   -1    0    0    0    0  0.00000000000E+00  0.00000000000E+00  0.45593999997E+02  0.45594000000E+02  0.51100000000E-03 0.  1.
         11   -1    0    0    0    0 -0.00000000000E+00 -0.00000000000E+00 -0.45593999997E+02  0.45594000000E+02  0.51100000000E-03 0. -1.
    9900012    2    1    2    0    0 -0.17795704021E+02 -0.21358456054E+01  0.36495442511E+02  0.50528852910E+02  0.29999978905E+02 0.  0.
         12    1    1    2    0    0  0.17795704021E+02  0.21358456054E+01 -0.36495442511E+02  0.40659147090E+02  0.00000000000E+00 0. -1.
         11    1    3    3    0    0 -0.14634205865E+02  0.49950040852E+01  0.63441600400E+01  0.16714018487E+02  0.51100000000E-03 0. -1.
        -11    1    3    3    0    0 -0.40762033758E+01 -0.68459918112E+01  0.68891099710E+01  0.10532942338E+02  0.51100000000E-03 0.  1.
        -12    1    3    3    0    0  0.91470522004E+00 -0.28485787942E+00  0.23262172500E+02  0.23281892085E+02  0.00000000000E+00 0.  1.
</event>
<event>
 7    1  0.1381607E-011  0.5052885E+02  0.7816164E-02  0.1300439E+00
        -11   -1    0    0    0    0  0.00000000000E+00  0.00000000000E+00  0.45593999997E+02  0.45594000000E+02  0.51100000000E-03 0. -1.
         11   -1    0    0    0    0 -0.00000000000E+00 -0.00000000000E+00 -0.45593999997E+02  0.45594000000E+02  0.51100000000E-03 0.  1.
    9900012    2    1    2    0    0  0.50434602047E+01 -0.10120711687E+02 -0.39055104254E+02  0.50528850179E+02  0.29999970604E+02 0.  0.
         12    1    1    2    0    0 -0.50434602047E+01  0.10120711687E+02  0.39055104254E+02  0.40659149821E+02  0.00000000000E+00 0. -1.
         11    1    3    3    0    0  0.14100921388E+02 -0.30773441280E+01 -0.18252798567E+02  0.23269522699E+02  0.51100000000E-03 0. -1.
        -11    1    3    3    0    0 -0.22574217595E+01 -0.55789486792E+01 -0.19200110879E+02  0.20121254419E+02  0.51100000000E-03 0.  1.
        -12    1    3    3    0    0 -0.68000394233E+01 -0.14644188801E+01 -0.16021948074E+01  0.71380730604E+01  0.00000000000E+00 0.  1.
</event>
<event>
 7    1  0.1381607E-011  0.5052886E+02  0.7816164E-02  0.1300439E+00
        -11   -1    0    0    0    0  0.00000000000E+00  0.00000000000E+00  0.45593999997E+02  0.45594000000E+02  0.51100000000E-03 0. -1.
         11   -1    0    0    0    0 -0.00000000000E+00 -0.00000000000E+00 -0.45593999997E+02  0.45594000000E+02  0.51100000000E-03 0.  1.
    9900012    2    1    2    0    0  0.55291649244E+01 -0.36534096963E+02 -0.16966255669E+02  0.50528859120E+02  0.29999997780E+02 0.  0.
         12    1    1    2    0    0 -0.55291649244E+01  0.36534096963E+02  0.16966255669E+02  0.40659140880E+02  0.00000000000E+00 0. -1.
         11    1    3    3    0    0  0.14901806673E+02 -0.14873038935E+02 -0.14741131506E+02  0.25701596986E+02  0.51100000000E-03 0. -1.
        -11    1    3    3    0    0 -0.15991881414E+01 -0.12244748268E+02  0.32679336674E+00  0.12353058610E+02  0.51100000000E-03 0.  1.
        -12    1    3    3    0    0 -0.77734536069E+01 -0.94163097599E+01 -0.25519175307E+01  0.12474203524E+02  0.00000000000E+00 0.  1.
</event>
<event>
 7    1  0.1381607E-011  0.5052885E+02  0.7816164E-02  0.1300439E+00
        -11   -1    0    0    0    0  0.00000000000E+00  0.00000000000E+00  0.45593999997E+02  0.45594000000E+02  0.51100000000E-03 0.  1.
         11   -1    0    0    0    0 -0.00000000000E+00 -0.00000000000E+00 -0.45593999997E+02  0.45594000000E+02  0.51100000000E-03 0. -1.
    9900012    2    1    2    0    0  0.26445206938E+02 -0.43726063918E+01  0.30572821634E+02  0.50528854912E+02  0.29999984990E+02 0.  0.
         12    1    1    2    0    0 -0.26445206938E+02  0.43726063918E+01 -0.30572821634E+02  0.40659145088E+02  0.00000000000E+00 0. -1.
         11    1    3    3    0    0  0.93270133556E+01 -0.31860016804E+01 -0.29930721536E+01  0.10300595421E+02  0.51100000000E-03 0. -1.
        -11    1    3    3    0    0  0.15466559755E+02 -0.34580297003E+01  0.16296882632E+02  0.22732373916E+02  0.51100000000E-03 0.  1.
        -12    1    3    3    0    0  0.16516338271E+01  0.22714249890E+01  0.17269011155E+02  0.17495885575E+02  0.00000000000E+00 0.  1.
</event>
<event>
 7    1  0.1381607E-011  0.5052887E+02  0.7816164E-02  0.1300439E+00
        -11   -1    0    0    0    0  0.00000000000E+00  0.00000000000E+00  0.45593999997E+02  0.45594000000E+02  0.51100000000E-03 0. -1.
         11   -1    0    0    0    0 -0.00000000000E+00 -0.00000000000E+00 -0.45593999997E+02  0.45594000000E+02  0.51100000000E-03 0.  1.
    9900012    2    1    2    0    0 -0.38206562724E+02  0.20612696619E+01 -0.13754079106E+02  0.50528868678E+02  0.30000026834E+02 0.  0.
         12    1    1    2    0    0  0.38206562724E+02 -0.20612696619E+01  0.13754079106E+02  0.40659131322E+02  0.00000000000E+00 0. -1.
         11    1    3    3    0    0 -0.27804440997E+02  0.58687973276E+01 -0.94409386810E+01  0.29944299034E+02  0.51100000000E-03 0. -1.
        -11    1    3    3    0    0 -0.10931708500E+02 -0.72986414644E+01 -0.80738683184E+01  0.15425944634E+02  0.51100000000E-03 0.  1.
         12    1    3    3    0    0  0.52958677240E+00  0.34911137988E+01  0.37607278938E+01  0.51586250103E+01  0.00000000000E+00 0. -1.
</event>
<event>
 7    1  0.1381607E-011  0.5052885E+02  0.7816164E-02  0.1300439E+00
        -11   -1    0    0    0    0  0.00000000000E+00  0.00000000000E+00  0.45593999997E+02  0.45594000000E+02  0.51100000000E-03 0. -1.
         11   -1    0    0    0    0 -0.00000000000E+00 -0.00000000000E+00 -0.45593999997E+02  0.45594000000E+02  0.51100000000E-03 0.  1.
    9900012    2    1    2    0    0 -0.91186300155E+00 -0.68619874582E+01 -0.40065543014E+02  0.50528854620E+02  0.29999984103E+02 0.  0.
         12    1    1    2    0    0  0.91186300155E+00  0.68619874582E+01  0.40065543014E+02  0.40659145380E+02  0.00000000000E+00 0. -1.
         11    1    3    3    0    0  0.33654692022E+01  0.11715397258E+01 -0.99733365688E+00  0.37004814503E+01  0.51100000000E-03 0.  1.
        -11    1    3    3    0    0 -0.10882867070E+02 -0.13411280807E+02 -0.27191267630E+02  0.32212796900E+02  0.51100000000E-03 0. -1.
         12    1    3    3    0    0  0.66055348660E+01  0.53777536231E+01 -0.11876941727E+02  0.14615576270E+02  0.00000000000E+00 0. -1.
</event>
<event>
 7    1  0.1381607E-011  0.5052885E+02  0.7816164E-02  0.1300439E+00
        -11   -1    0    0    0    0  0.00000000000E+00  0.00000000000E+00  0.45593999997E+02  0.45594000000E+02  0.51100000000E-03 0. -1.
         11   -1    0    0    0    0 -0.00000000000E+00 -0.00000000000E+00 -0.45593999997E+02  0.45594000000E+02  0.51100000000E-03 0.  1.
    9900012    2    1    2    0    0 -0.62347358530E+01 -0.40013103873E+02  0.36395646061E+01  0.50528845518E+02  0.29999956436E+02 0.  0.
         12    1    1    2    0    0  0.62347358530E+01  0.40013103873E+02 -0.36395646061E+01  0.40659154482E+02  0.00000000000E+00 0. -1.
         11    1    3    3    0    0 -0.49913126583E+01 -0.29385695572E+02  0.10604538124E+02  0.31636822460E+02  0.51100000000E-03 0. -1.
        -11    1    3    3    0    0 -0.39131856403E+01  0.72631613277E+00  0.17345264102E+01  0.43415595250E+01  0.51100000000E-03 0.  1.
        -12    1    3    3    0    0  0.26697624456E+01 -0.11353724434E+02 -0.86994999278E+01  0.14550463533E+02  0.00000000000E+00 0.  1.
</event>
<event>
 7    1  0.1381607E-011  0.5052885E+02  0.7816164E-02  0.1300439E+00
        -11   -1    0    0    0    0  0.00000000000E+00  0.00000000000E+00  0.45593999997E+02  0.45594000000E+02  0.51100000000E-03 0.  1.
         11   -1    0    0    0    0 -0.00000000000E+00 -0.00000000000E+00 -0.45593999997E+02  0.45594000000E+02  0.51100000000E-03 0. -1.
    9900012    2    1    2    0    0 -0.22972616472E+02  0.76310577824E+01  0.32667911275E+02  0.50528848785E+02  0.29999966367E+02 0.  0.
         12    1    1    2    0    0  0.22972616472E+02 -0.76310577824E+01 -0.32667911275E+02  0.40659151215E+02  0.00000000000E+00 0. -1.
         11    1    3    3    0    0 -0.12778650910E+02  0.10391003658E+02  0.28002845343E+02  0.32487324046E+02  0.51100000000E-03 0. -1.
        -11    1    3    3    0    0 -0.34416567762E+00  0.39697506484E+01 -0.19116348176E+01  0.44194703485E+01  0.51100000000E-03 0.  1.
        -12    1    3    3    0    0 -0.98497998839E+01 -0.67296965243E+01  0.65767007499E+01  0.13622054390E+02  0.00000000000E+00 0.  1.
</event>
<event>
 7    1  0.1381607E-011  0.5052887E+02  0.7816164E-02  0.1300439E+00
        -11   -1    0    0    0    0  0.00000000000E+00  0.00000000000E+00  0.45593999997E+02  0.45594000000E+02  0.51100000000E-03 0. -1.
         11   -1    0    0    0    0 -0.00000000000E+00 -0.00000000000E+00 -0.45593999997E+02  0.45594000000E+02  0.51100000000E-03 0.  1.
    9900012    2    1    2    0    0 -0.99839336615E+01 -0.33114441681E+02 -0.21375685730E+02  0.50528866713E+02  0.30000020862E+02 0.  0.
         12    1    1    2    0    0  0.99839336615E+01  0.33114441681E+02  0.21375685730E+02  0.40659133287E+02  0.00000000000E+00 0. -1.
         11    1    3    3    0    0  0.18570809356E+01 -0.77478516681E+01  0.52760001843E+01  0.95558428868E+01  0.51100000000E-03 0.  1.
        -11    1    3    3    0    0 -0.25913307337E+01 -0.49118047418E+00 -0.82936184355E+01  0.87028937857E+01  0.51100000000E-03 0. -1.
        -12    1    3    3    0    0 -0.92496838634E+01 -0.24875409539E+02 -0.18358067479E+02  0.32270130041E+02  0.00000000000E+00 0.  1.
</event>
<event>
 7    1  0.1381607E-011  0.5052894E+02  0.7816164E-02  0.1300439E+00
        -11   -1    0    0    0    0  0.00000000000E+00  0.00000000000E+00  0.45593999997E+02  0.45594000000E+02  0.51100000000E-03 0. -1.
         11   -1    0    0    0    0 -0.00000000000E+00 -0.00000000000E+00 -0.45593999997E+02  0.45594000000E+02  0.51100000000E-03 0.  1.
    9900012    2    1    2    0    0 -0.36213100022E+02 -0.58773681611E+01 -0.17527892312E+02  0.50528941002E+02  0.30000246669E+02 0.  0.
         12    1    1    2    0    0  0.36213100022E+02  0.58773681611E+01  0.17527892312E+02  0.40659058998E+02  0.00000000000E+00 0. -1.
         11    1    3    3    0    0 -0.65081491180E+00 -0.94520565016E+01 -0.37177776578E+01  0.10177760222E+02  0.51100000000E-03 0. -1.
        -11    1    3    3    0    0 -0.53476619664E+01  0.52007156968E+01 -0.11354596456E+01  0.75454755406E+01  0.51100000000E-03 0.  1.
        -12    1    3    3    0    0 -0.30214623144E+02 -0.16260273563E+01 -0.12674655008E+02  0.32805705240E+02  0.00000000000E+00 0.  1.
</event>
<event>
 7    1  0.1381607E-011  0.5052887E+02  0.7816164E-02  0.1300439E+00
        -11   -1    0    0    0    0  0.00000000000E+00  0.00000000000E+00  0.45593999997E+02  0.45594000000E+02  0.51100000000E-03 0.  1.
         11   -1    0    0    0    0 -0.00000000000E+00 -0.00000000000E+00 -0.45593999997E+02  0.45594000000E+02  0.51100000000E-03 0. -1.
    9900012    2    1    2    0    0  0.34830049765E+02 -0.16158303620E+02  0.13376912045E+02  0.50528869188E+02  0.30000028385E+02 0.  0.
         12    1    1    2    0    0 -0.34830049765E+02  0.16158303620E+02 -0.13376912045E+02  0.40659130812E+02  0.00000000000E+00 0. -1.
         11    1    3    3    0    0  0.84234034023E+01 -0.11853308233E+02 -0.32203042546E+01  0.14893790676E+02  0.51100000000E-03 0.  1.
        -11    1    3    3    0    0  0.45065516793E+00 -0.41294141243E+01  0.66438425985E+01  0.78355469385E+01  0.51100000000E-03 0. -1.
        -12    1    3    3    0    0  0.25955991195E+02 -0.17558126267E+00  0.99533737013E+01  0.27799531574E+02  0.00000000000E+00 0.  1.
</event>
<event>
 7    1  0.1381607E-011  0.5052886E+02  0.7816164E-02  0.1300439E+00
        -11   -1    0    0    0    0  0.00000000000E+00  0.00000000000E+00  0.45593999997E+02  0.45594000000E+02  0.51100000000E-03 0.  1.
         11   -1    0    0    0    0 -0.00000000000E+00 -0.00000000000E+00 -0.45593999997E+02  0.45594000000E+02  0.51100000000E-03 0. -1.
    9900012    2    1    2    0    0 -0.28619228855E+02 -0.27103136682E+02 -0.99762546254E+01  0.50528856691E+02  0.29999990397E+02 0.  0.
         12    1    1    2    0    0  0.28619228855E+02  0.27103136682E+02  0.99762546254E+01  0.40659143309E+02  0.00000000000E+00 0. -1.
         11    1    3    3    0    0 -0.11195598760E+02 -0.48894235746E+01  0.52840190011E+01  0.13310475256E+02  0.51100000000E-03 0.  1.
        -11    1    3    3    0    0  0.13402045599E+01 -0.12207113153E+02 -0.83819952284E+01  0.14868342344E+02  0.51100000000E-03 0. -1.
         12    1    3    3    0    0 -0.18763834655E+02 -0.10006599955E+02 -0.68782783982E+01  0.22350039090E+02  0.00000000000E+00 0. -1.
</event>
<event>
 7    1  0.1381607E-011  0.5052886E+02  0.7816164E-02  0.1300439E+00
        -11   -1    0    0    0    0  0.00000000000E+00  0.00000000000E+00  0.45593999997E+02  0.45594000000E+02  0.51100000000E-03 0. -1.
         11   -1    0    0    0    0 -0.00000000000E+00 -0.00000000000E+00 -0.45593999997E+02  0.45594000000E+02  0.51100000000E-03 0.  1.
    9900012    2    1    2    0    0 -0.35796157097E+02 -0.87200839888E+01 -0.17197709761E+02  0.50528856517E+02  0.29999989870E+02 0.  0.
         12    1    1    2    0    0  0.35796157097E+02  0.87200839888E+01  0.17197709761E+02  0.40659143483E+02  0.00000000000E+00 0. -1.
         11    1    3    3    0    0 -0.30911027526E+01 -0.42086673282E+01 -0.88366691556E+01  0.10264234941E+02  0.51100000000E-03 0. -1.
        -11    1    3    3    0    0 -0.23508863428E+02 -0.11207494501E+02 -0.11491099261E+02  0.28466119426E+02  0.51100000000E-03 0.  1.
        -12    1    3    3    0    0 -0.91961909163E+01  0.66960778399E+01  0.31300586552E+01  0.11798502150E+02  0.00000000000E+00 0.  1.
</event>
<event>
 7    1  0.1381607E-011  0.5052886E+02  0.7816164E-02  0.1300439E+00
        -11   -1    0    0    0    0  0.00000000000E+00  0.00000000000E+00  0.45593999997E+02  0.45594000000E+02  0.51100000000E-03 0. -1.
         11   -1    0    0    0    0 -0.00000000000E+00 -0.00000000000E+00 -0.45593999997E+02  0.45594000000E+02  0.51100000000E-03 0.  1.
    9900012    2    1    2    0    0  0.17679305974E+02  0.99618125300E+00 -0.36600760338E+02  0.50528857189E+02  0.29999991911E+02 0.  0.
         12    1    1    2    0    0 -0.17679305974E+02 -0.99618125300E+00  0.36600760338E+02  0.40659142811E+02  0.00000000000E+00 0. -1.
         11    1    3    3    0    0  0.53874489422E+01 -0.38641736178E+01 -0.40838896790E+01  0.77868221390E+01  0.51100000000E-03 0. -1.
        -11    1    3    3    0    0 -0.14549406960E+01  0.10895886707E+02 -0.66894976137E+01  0.12868044845E+02  0.51100000000E-03 0.  1.
         12    1    3    3    0    0  0.13746797728E+02 -0.60355318359E+01 -0.25827373045E+02  0.29873990205E+02  0.00000000000E+00 0. -1.
</event>
<event>
 7    1  0.1381607E-011  0.5052885E+02  0.7816164E-02  0.1300439E+00
        -11   -1    0    0    0    0  0.00000000000E+00  0.00000000000E+00  0.45593999997E+02  0.45594000000E+02  0.51100000000E-03 0. -1.
         11   -1    0    0    0    0 -0.00000000000E+00 -0.00000000000E+00 -0.45593999997E+02  0.45594000000E+02  0.51100000000E-03 0.  1.
    9900012    2    1    2    0    0  0.17440109917E+02  0.20167481357E+02 -0.30696601591E+02  0.50528854812E+02  0.29999984686E+02 0.  0.
         12    1    1    2    0    0 -0.17440109917E+02 -0.20167481357E+02  0.30696601591E+02  0.40659145188E+02  0.00000000000E+00 0. -1.
         11    1    3    3    0    0  0.12438247925E+02  0.52022861633E+01 -0.39854843470E+01  0.14059085265E+02  0.51100000000E-03 0. -1.
        -11    1    3    3    0    0  0.12204232847E+02  0.92907827074E+01 -0.13789755133E+02  0.20625694888E+02  0.51100000000E-03 0.  1.
         12    1    3    3    0    0 -0.72023708546E+01  0.56744124862E+01 -0.12921362111E+02  0.15844074659E+02  0.00000000000E+00 0. -1.
</event>
<event>
 7    1  0.1381607E-011  0.5052885E+02  0.7816164E-02  0.1300439E+00
        -11   -1    0    0    0    0  0.00000000000E+00  0.00000000000E+00  0.45593999997E+02  0.45594000000E+02  0.51100000000E-03 0.  1.
         11   -1    0    0    0    0 -0.00000000000E+00 -0.00000000000E+00 -0.45593999997E+02  0.45594000000E+02  0.51100000000E-03 0. -1.
    9900012    2    1    2    0    0  0.71873080364E+01 -0.32770118434E+02  0.22970170615E+02  0.50528846085E+02  0.29999958159E+02 0.  0.
         12    1    1    2    0    0 -0.71873080364E+01  0.32770118434E+02 -0.22970170615E+02  0.40659153915E+02  0.00000000000E+00 0. -1.
         11    1    3    3    0    0  0.53693752103E+01 -0.27637911640E+01  0.77784187389E+01  0.98474631295E+01  0.51100000000E-03 0.  1.
        -11    1    3    3    0    0  0.11570443376E+02 -0.16889677678E+02  0.39678604189E+01  0.20853783555E+02  0.51100000000E-03 0. -1.
        -12    1    3    3    0    0 -0.97525105495E+01 -0.13116649592E+02  0.11223891457E+02  0.19827599401E+02  0.00000000000E+00 0.  1.
</event>
<event>
 7    1  0.1381607E-011  0.5052885E+02  0.7816164E-02  0.1300439E+00
        -11   -1    0    0    0    0  0.00000000000E+00  0.00000000000E+00  0.45593999997E+02  0.45594000000E+02  0.51100000000E-03 0.  1.
         11   -1    0    0    0    0 -0.00000000000E+00 -0.00000000000E+00 -0.45593999997E+02  0.45594000000E+02  0.51100000000E-03 0. -1.
    9900012    2    1    2    0    0  0.32678272362E+02  0.20521473618E+02  0.12812723515E+02  0.50528852839E+02  0.29999978688E+02 0.  0.
         12    1    1    2    0    0 -0.32678272362E+02 -0.20521473618E+02 -0.12812723515E+02  0.40659147161E+02  0.00000000000E+00 0. -1.
         11    1    3    3    0    0 -0.74552430436E+00  0.47073714608E+01  0.83140155768E+01  0.95832149005E+01  0.51100000000E-03 0. -1.
        -11    1    3    3    0    0  0.13711785055E+02  0.10661634277E+02  0.97324155131E+01  0.19909882140E+02  0.51100000000E-03 0.  1.
        -12    1    3    3    0    0  0.19712011611E+02  0.51524678801E+01 -0.52337075746E+01  0.21035755798E+02  0.00000000000E+00 0.  1.
</event>
<event>
 7    1  0.1381607E-011  0.5052886E+02  0.7816164E-02  0.1300439E+00
        -11   -1    0    0    0    0  0.00000000000E+00  0.00000000000E+00  0.45593999997E+02  0.45594000000E+02  0.51100000000E-03 0.  1.
         11   -1    0    0    0    0 -0.00000000000E+00 -0.00000000000E+00 -0.45593999997E+02  0.45594000000E+02  0.51100000000E-03 0. -1.
    9900012    2    1    2    0    0 -0.34267202845E+02  0.21877319802E+02 -0.55423498453E+00  0.50528862171E+02  0.30000007056E+02 0.  0.
         12    1    1    2    0    0  0.34267202845E+02 -0.21877319802E+02  0.55423498453E+00  0.40659137829E+02  0.00000000000E+00 0. -1.
         11    1    3    3    0    0 -0.43215962242E+01  0.96951944570E+01 -0.97447149554E+00  0.10659389497E+02  0.51100000000E-03 0. -1.
        -11    1    3    3    0    0 -0.29640446460E+02  0.17005711245E+02  0.31524074942E+01  0.34317458451E+02  0.51100000000E-03 0.  1.
         12    1    3    3    0    0 -0.30516016111E+00 -0.48235858998E+01 -0.27321709832E+01  0.55520142235E+01  0.00000000000E+00 0. -1.
</event>
<event>
 7    1  0.1381607E-011  0.5052883E+02  0.7816164E-02  0.1300439E+00
        -11   -1    0    0    0    0  0.00000000000E+00  0.00000000000E+00  0.45593999997E+02  0.45594000000E+02  0.51100000000E-03 0. -1.
         11   -1    0    0    0    0 -0.00000000000E+00 -0.00000000000E+00 -0.45593999997E+02  0.45594000000E+02  0.51100000000E-03 0.  1.
    9900012    2    1    2    0    0  0.30879678857E+01  0.29993753711E+01 -0.40430635147E+02  0.50528830596E+02  0.29999911078E+02 0.  0.
         12    1    1    2    0    0 -0.30879678857E+01 -0.29993753711E+01  0.40430635147E+02  0.40659169404E+02  0.00000000000E+00 0. -1.
         11    1    3    3    0    0 -0.14972228875E+01  0.66261096469E+01 -0.34334291770E+01  0.76115334594E+01  0.51100000000E-03 0. -1.
        -11    1    3    3    0    0  0.10046335066E+02 -0.56010398155E+01 -0.98118238735E+01  0.15118610493E+02  0.51100000000E-03 0.  1.
        -12    1    3    3    0    0 -0.54611442923E+01  0.19743055396E+01 -0.27185382096E+02  0.27798686643E+02  0.00000000000E+00 0.  1.
</event>
<event>
 7    1  0.1381607E-011  0.5052886E+02  0.7816164E-02  0.1300439E+00
        -11   -1    0    0    0    0  0.00000000000E+00  0.00000000000E+00  0.45593999997E+02  0.45594000000E+02  0.51100000000E-03 0.  1.
         11   -1    0    0    0    0 -0.00000000000E+00 -0.00000000000E+00 -0.45593999997E+02  0.45594000000E+02  0.51100000000E-03 0. -1.
    9900012    2    1    2    0    0  0.28621420813E+02 -0.27062806552E+02  0.10078906677E+02  0.50528860958E+02  0.30000003369E+02 0.  0.
         12    1    1    2    0    0 -0.28621420813E+02  0.27062806552E+02 -0.10078906677E+02  0.40659139042E+02  0.00000000000E+00 0. -1.
         11    1    3    3    0    0  0.79763566737E+01 -0.12924674902E+02  0.13347368997E+02  0.20219340902E+02  0.51100000000E-03 0.  1.
        -11    1    3    3    0    0  0.57014753815E+01  0.13018231773E+01  0.45857818431E+01  0.74317535269E+01  0.51100000000E-03 0. -1.
         12    1    3    3    0    0  0.14943588758E+02 -0.15439954827E+02 -0.78542441628E+01  0.22877766530E+02  0.00000000000E+00 0. -1.
</event>
<event>
 7    1  0.1381607E-011  0.5052887E+02  0.7816164E-02  0.1300439E+00
        -11   -1    0    0    0    0  0.00000000000E+00  0.00000000000E+00  0.45593999997E+02  0.45594000000E+02  0.51100000000E-03 0. -1.
         11   -1    0    0    0    0 -0.00000000000E+00 -0.00000000000E+00 -0.45593999997E+02  0.45594000000E+02  0.51100000000E-03 0.  1.
    9900012    2    1    2    0    0  0.20525392454E+02 -0.33014919381E+02 -0.11911692664E+02  0.50528867456E+02  0.30000023119E+02 0.  0.
         12    1    1    2    0    0 -0.20525392454E+02  0.33014919381E+02  0.11911692664E+02  0.40659132544E+02  0.00000000000E+00 0. -1.
         11    1    3    3    0    0  0.20578969521E+01 -0.72771666560E+01  0.51332634077E+01  0.91401579788E+01  0.51100000000E-03 0. -1.
        -11    1    3    3    0    0  0.63278907733E+01 -0.24735673107E+02 -0.11301993860E+02  0.27921869407E+02  0.51100000000E-03 0.  1.
         12    1    3    3    0    0  0.12139604728E+02 -0.10020796180E+01 -0.57429622116E+01  0.13466840071E+02  0.00000000000E+00 0. -1.
</event>
<event>
 7    1  0.1381607E-011  0.5052886E+02  0.7816164E-02  0.1300439E+00
        -11   -1    0    0    0    0  0.00000000000E+00  0.00000000000E+00  0.45593999997E+02  0.45594000000E+02  0.51100000000E-03 0.  1.
         11   -1    0    0    0    0 -0.00000000000E+00 -0.00000000000E+00 -0.45593999997E+02  0.45594000000E+02  0.51100000000E-03 0. -1.
    9900012    2    1    2    0    0 -0.15449841474E+02  0.34562056046E+02 -0.14830107525E+02  0.50528863156E+02  0.30000010049E+02 0.  0.
         12    1    1    2    0    0  0.15449841474E+02 -0.34562056046E+02  0.14830107525E+02  0.40659136844E+02  0.00000000000E+00 0. -1.
         11    1    3    3    0    0  0.81558112774E+00 -0.29171403343E+01  0.50705799005E+00  0.30711542410E+01  0.51100000000E-03 0. -1.
        -11    1    3    3    0    0  0.37310715371E+01  0.11730706935E+02 -0.42241738494E+01  0.13014377625E+02  0.51100000000E-03 0.  1.
        -12    1    3    3    0    0 -0.19996494139E+02  0.25748489445E+02 -0.11112991666E+02  0.34443331290E+02  0.00000000000E+00 0.  1.
</event>
<event>
 7    1  0.1381607E-011  0.5052886E+02  0.7816164E-02  0.1300439E+00
        -11   -1    0    0    0    0  0.00000000000E+00  0.00000000000E+00  0.45593999997E+02  0.45594000000E+02  0.51100000000E-03 0. -1.
         11   -1    0    0    0    0 -0.00000000000E+00 -0.00000000000E+00 -0.45593999997E+02  0.45594000000E+02  0.51100000000E-03 0.  1.
    9900012    2    1    2    0    0 -0.15810169996E+02  0.32162401112E+02 -0.19203756057E+02  0.50528858749E+02  0.29999996652E+02 0.  0.
         12    1    1    2    0    0  0.15810169996E+02 -0.32162401112E+02  0.19203756057E+02  0.40659141251E+02  0.00000000000E+00 0. -1.
         11    1    3    3    0    0 -0.15078977941E+02  0.14123166916E+02 -0.17532609270E+01  0.20734351777E+02  0.51100000000E-03 0. -1.
        -11    1    3    3    0    0 -0.47533764185E+01  0.12154920231E+02 -0.25797335669E+01  0.13303822711E+02  0.51100000000E-03 0.  1.
        -12    1    3    3    0    0  0.40221843630E+01  0.58843139648E+01 -0.14870761563E+02  0.16490684260E+02  0.00000000000E+00 0.  1.
</event>
<event>
 7    1  0.1381607E-011  0.5052887E+02  0.7816164E-02  0.1300439E+00
        -11   -1    0    0    0    0  0.00000000000E+00  0.00000000000E+00  0.45593999997E+02  0.45594000000E+02  0.51100000000E-03 0.  1.
         11   -1    0    0    0    0 -0.00000000000E+00 -0.00000000000E+00 -0.45593999997E+02  0.45594000000E+02  0.51100000000E-03 0. -1.
    9900012    2    1    2    0    0 -0.27470841012E+02 -0.64710125922E+00  0.29968303578E+02  0.50528867381E+02  0.30000022892E+02 0.  0.
         12    1    1    2    0    0  0.27470841012E+02  0.64710125922E+00 -0.29968303578E+02  0.40659132619E+02  0.00000000000E+00 0. -1.
         11    1    3    3    0    0 -0.13123223593E+02  0.31771450681E+01  0.22468826990E+02  0.26213764225E+02  0.51100000000E-03 0. -1.
        -11    1    3    3    0    0 -0.16439162353E+02 -0.70163588907E+01  0.92396302826E+01  0.20120788229E+02  0.51100000000E-03 0.  1.
         12    1    3    3    0    0  0.20915449337E+01  0.31921125634E+01 -0.17401536948E+01  0.41943149272E+01  0.00000000000E+00 0. -1.
</event>
<event>
 7    1  0.1381607E-011  0.5052889E+02  0.7816164E-02  0.1300439E+00
        -11   -1    0    0    0    0  0.00000000000E+00  0.00000000000E+00  0.45593999997E+02  0.45594000000E+02  0.51100000000E-03 0. -1.
         11   -1    0    0    0    0 -0.00000000000E+00 -0.00000000000E+00 -0.45593999997E+02  0.45594000000E+02  0.51100000000E-03 0.  1.
    9900012    2    1    2    0    0 -0.31956486261E+02 -0.21737339144E+02 -0.12626717903E+02  0.50528893612E+02  0.30000102624E+02 0.  0.
         12    1    1    2    0    0  0.31956486261E+02  0.21737339144E+02  0.12626717903E+02  0.40659106388E+02  0.00000000000E+00 0. -1.
         11    1    3    3    0    0 -0.52169289048E+01 -0.69352634313E+01 -0.10728450341E+02  0.13799053339E+02  0.51100000000E-03 0. -1.
        -11    1    3    3    0    0 -0.71320741270E+01  0.30482375014E+01  0.51290153710E+01  0.92986575459E+01  0.51100000000E-03 0.  1.
         12    1    3    3    0    0 -0.19607483230E+02 -0.17850313214E+02 -0.70272829331E+01  0.27431182728E+02  0.00000000000E+00 0. -1.
</event>
<event>
 7    1  0.1381607E-011  0.5052886E+02  0.7816164E-02  0.1300439E+00
        -11   -1    0    0    0    0  0.00000000000E+00  0.00000000000E+00  0.45593999997E+02  0.45594000000E+02  0.51100000000E-03 0.  1.
         11   -1    0    0    0    0 -0.00000000000E+00 -0.00000000000E+00 -0.45593999997E+02  0.45594000000E+02  0.51100000000E-03 0. -1.
    9900012    2    1    2    0    0 -0.43517246401E+01 -0.36531735341E+01  0.40260187180E+02  0.50528857658E+02  0.29999993336E+02 0.  0.
         12    1    1    2    0    0  0.43517246401E+01  0.36531735341E+01 -0.40260187180E+02  0.40659142342E+02  0.00000000000E+00 0. -1.
         11    1    3    3    0    0 -0.86709463859E+01 -0.45565998595E+01  0.85211742567E+01  0.12983001366E+02  0.51100000000E-03 0. -1.
        -11    1    3    3    0    0 -0.65283761510E+01 -0.20207265372E+01  0.20685312594E+02  0.21784976206E+02  0.51100000000E-03 0.  1.
         12    1    3    3    0    0  0.10847597897E+02  0.29241528626E+01  0.11053700330E+02  0.15760880086E+02  0.00000000000E+00 0. -1.
</event>
<event>
 7    1  0.1381607E-011  0.5052885E+02  0.7816164E-02  0.1300439E+00
        -11   -1    0    0    0    0  0.00000000000E+00  0.00000000000E+00  0.45593999997E+02  0.45594000000E+02  0.51100000000E-03 0.  1.
         11   -1    0    0    0    0 -0.00000000000E+00 -0.00000000000E+00 -0.45593999997E+02  0.45594000000E+02  0.51100000000E-03 0. -1.
    9900012    2    1    2    0    0  0.24990765810E+02 -0.32021579086E+02 -0.18018231161E+01  0.50528850114E+02  0.29999970406E+02 0.  0.
         12    1    1    2    0    0 -0.24990765810E+02  0.32021579086E+02  0.18018231161E+01  0.40659149886E+02  0.00000000000E+00 0. -1.
         11    1    3    3    0    0  0.89524905742E+01 -0.10538920079E+02  0.20326601251E+01  0.13976681701E+02  0.51100000000E-03 0. -1.
        -11    1    3    3    0    0 -0.22207465183E+01 -0.15479345627E+02  0.34211393693E+01  0.16007687247E+02  0.51100000000E-03 0.  1.
         12    1    3    3    0    0  0.18259021754E+02 -0.60033133798E+01 -0.72556226105E+01  0.20544481167E+02  0.00000000000E+00 0. -1.
</event>
<event>
 7    1  0.1381607E-011  0.5052886E+02  0.7816164E-02  0.1300439E+00
        -11   -1    0    0    0    0  0.00000000000E+00  0.00000000000E+00  0.45593999997E+02  0.45594000000E+02  0.51100000000E-03 0.  1.
         11   -1    0    0    0    0 -0.00000000000E+00 -0.00000000000E+00 -0.45593999997E+02  0.45594000000E+02  0.51100000000E-03 0. -1.
    9900012    2    1    2    0    0 -0.20996349666E+02  0.28331827081E+02  0.20239225747E+02  0.50528863463E+02  0.30000010983E+02 0.  0.
         12    1    1    2    0    0  0.20996349666E+02 -0.28331827081E+02 -0.20239225747E+02  0.40659136537E+02  0.00000000000E+00 0. -1.
         11    1    3    3    0    0 -0.80001092797E+01  0.12058694143E+02 -0.13932645124E+01  0.14538054863E+02  0.51100000000E-03 0. -1.
        -11    1    3    3    0    0 -0.91621493450E+01  0.19624683133E+02  0.11202003702E+02  0.24383561182E+02  0.51100000000E-03 0.  1.
         12    1    3    3    0    0 -0.38340910416E+01 -0.33515501954E+01  0.10430486557E+02  0.11607247419E+02  0.00000000000E+00 0. -1.
</event>
<event>
 7    1  0.1381607E-011  0.5052885E+02  0.7816164E-02  0.1300439E+00
        -11   -1    0    0    0    0  0.00000000000E+00  0.00000000000E+00  0.45593999997E+02  0.45594000000E+02  0.51100000000E-03 0. -1.
         11   -1    0    0    0    0 -0.00000000000E+00 -0.00000000000E+00 -0.45593999997E+02  0.45594000000E+02  0.51100000000E-03 0.  1.
    9900012    2    1    2    0    0 -0.40734905187E+01  0.35982684117E+02 -0.18488356685E+02  0.50528853253E+02  0.29999979947E+02 0.  0.
         12    1    1    2    0    0  0.40734905187E+01 -0.35982684117E+02  0.18488356685E+02  0.40659146747E+02  0.00000000000E+00 0. -1.
         11    1    3    3    0    0 -0.36378981191E+01  0.27581913441E+02 -0.10316533202E+02  0.29671992002E+02  0.51100000000E-03 0.  1.
        -11    1    3    3    0    0 -0.60509881224E+01  0.11306306003E+02 -0.61240509434E+01  0.14210946940E+02  0.51100000000E-03 0. -1.
        -12    1    3    3    0    0  0.56153957228E+01 -0.29055353272E+01 -0.20477725394E+01  0.66459143113E+01  0.00000000000E+00 0.  1.
</event>
<event>
 7    1  0.1381607E-011  0.5052886E+02  0.7816164E-02  0.1300439E+00
        -11   -1    0    0    0    0  0.00000000000E+00  0.00000000000E+00  0.45593999997E+02  0.45594000000E+02  0.51100000000E-03 0.  1.
         11   -1    0    0    0    0 -0.00000000000E+00 -0.00000000000E+00 -0.45593999997E+02  0.45594000000E+02  0.51100000000E-03 0. -1.
    9900012    2    1    2    0    0  0.14904025642E+01  0.23962436235E+02  0.32813809975E+02  0.50528858652E+02  0.29999996358E+02 0.  0.
         12    1    1    2    0    0 -0.14904025642E+01 -0.23962436235E+02 -0.32813809975E+02  0.40659141348E+02  0.00000000000E+00 0. -1.
         11    1    3    3    0    0  0.51938325628E+00  0.12478544163E+02  0.11095603713E+02  0.16706173872E+02  0.51100000000E-03 0. -1.
        -11    1    3    3    0    0  0.75609368568E+01 -0.85575664681E+00  0.17702596761E+02  0.19268679714E+02  0.51100000000E-03 0.  1.
         12    1    3    3    0    0 -0.65899175489E+01  0.12339648718E+02  0.40156095006E+01  0.14554005066E+02  0.00000000000E+00 0. -1.
</event>
<event>
 7    1  0.1381607E-011  0.5052886E+02  0.7816164E-02  0.1300439E+00
        -11   -1    0    0    0    0  0.00000000000E+00  0.00000000000E+00  0.45593999997E+02  0.45594000000E+02  0.51100000000E-03 0. -1.
         11   -1    0    0    0    0 -0.00000000000E+00 -0.00000000000E+00 -0.45593999997E+02  0.45594000000E+02  0.51100000000E-03 0.  1.
    9900012    2    1    2    0    0 -0.95235809112E+01 -0.39335684769E+02 -0.38950381173E+01  0.50528855745E+02  0.29999987523E+02 0.  0.
         12    1    1    2    0    0  0.95235809112E+01  0.39335684769E+02  0.38950381173E+01  0.40659144255E+02  0.00000000000E+00 0. -1.
         11    1    3    3    0    0 -0.13684826257E+02 -0.15895962278E+02  0.47252808968E+00  0.20980452080E+02  0.51100000000E-03 0. -1.
        -11    1    3    3    0    0  0.55442550147E+00 -0.18492057575E+02 -0.10171304658E+02  0.21112058632E+02  0.51100000000E-03 0.  1.
         12    1    3    3    0    0  0.36068198439E+01 -0.49476649158E+01  0.58037384510E+01  0.84363450329E+01  0.00000000000E+00 0. -1.
</event>
<event>
 7    1  0.1381607E-011  0.5052886E+02  0.7816164E-02  0.1300439E+00
        -11   -1    0    0    0    0  0.00000000000E+00  0.00000000000E+00  0.45593999997E+02  0.45594000000E+02  0.51100000000E-03 0. -1.
         11   -1    0    0    0    0 -0.00000000000E+00 -0.00000000000E+00 -0.45593999997E+02  0.45594000000E+02  0.51100000000E-03 0.  1.
    9900012    2    1    2    0    0 -0.94791251154E+01  0.14840774480E+02 -0.36647830338E+02  0.50528857503E+02  0.29999992867E+02 0.  0.
         12    1    1    2    0    0  0.94791251154E+01 -0.14840774480E+02  0.36647830338E+02  0.40659142497E+02  0.00000000000E+00 0. -1.
         11    1    3    3    0    0  0.77836516833E+01  0.68274960421E+01 -0.60347800565E+01  0.11984093888E+02  0.51100000000E-03 0. -1.
        -11    1    3    3    0    0 -0.94366435716E+00  0.32238436399E+01 -0.15283584151E+02  0.15648374197E+02  0.51100000000E-03 0.  1.
        -12    1    3    3    0    0 -0.16319112442E+02  0.47894347982E+01 -0.15329466130E+02  0.22896389418E+02  0.00000000000E+00 0.  1.
</event>
<event>
 7    1  0.1381607E-011  0.5052887E+02  0.7816164E-02  0.1300439E+00
        -11   -1    0    0    0    0  0.00000000000E+00  0.00000000000E+00  0.45593999997E+02  0.45594000000E+02  0.51100000000E-03 0. -1.
         11   -1    0    0    0    0 -0.00000000000E+00 -0.00000000000E+00 -0.45593999997E+02  0.45594000000E+02  0.51100000000E-03 0.  1.
    9900012    2    1    2    0    0 -0.74572236471E+01 -0.24439424400E+02 -0.31627032657E+02  0.50528870101E+02  0.30000031157E+02 0.  0.
         12    1    1    2    0    0  0.74572236471E+01  0.24439424400E+02  0.31627032657E+02  0.40659129899E+02  0.00000000000E+00 0. -1.
         11    1    3    3    0    0  0.29949027433E+01 -0.33990492251E+01 -0.12400332747E+02  0.13201940409E+02  0.51100000000E-03 0. -1.
        -11    1    3    3    0    0 -0.99171707622E+01 -0.15151885413E+02 -0.23761527580E+02  0.29875409632E+02  0.51100000000E-03 0.  1.
         12    1    3    3    0    0 -0.53495562824E+00 -0.58884897614E+01  0.45348276700E+01  0.74515200591E+01  0.00000000000E+00 0. -1.
</event>
<event>
 7    1  0.1381607E-011  0.5052887E+02  0.7816164E-02  0.1300439E+00
        -11   -1    0    0    0    0  0.00000000000E+00  0.00000000000E+00  0.45593999997E+02  0.45594000000E+02  0.51100000000E-03 0.  1.
         11   -1    0    0    0    0 -0.00000000000E+00 -0.00000000000E+00 -0.45593999997E+02  0.45594000000E+02  0.51100000000E-03 0. -1.
    9900012    2    1    2    0    0 -0.21939336023E+02  0.13629058210E+02  0.31401903781E+02  0.50528865062E+02  0.30000015843E+02 0.  0.
         12    1    1    2    0    0  0.21939336023E+02 -0.13629058210E+02 -0.31401903781E+02  0.40659134938E+02  0.00000000000E+00 0. -1.
         11    1    3    3    0    0 -0.51158224027E+00 -0.19549516023E+01 -0.11419174031E+01  0.23211048603E+01  0.51100000000E-03 0. -1.
        -11    1    3    3    0    0 -0.35468671405E+01  0.41608237123E+00  0.22361155819E+02  0.22644528718E+02  0.51100000000E-03 0.  1.
         12    1    3    3    0    0 -0.17880886642E+02  0.15167927441E+02  0.10182665365E+02  0.25563231484E+02  0.00000000000E+00 0. -1.
</event>
<event>
 7    1  0.1381607E-011  0.5052886E+02  0.7816164E-02  0.1300439E+00
        -11   -1    0    0    0    0  0.00000000000E+00  0.00000000000E+00  0.45593999997E+02  0.45594000000E+02  0.51100000000E-03 0.  1.
         11   -1    0    0    0    0 -0.00000000000E+00 -0.00000000000E+00 -0.45593999997E+02  0.45594000000E+02  0.51100000000E-03 0. -1.
    9900012    2    1    2    0    0 -0.18614738373E+02  0.33224313375E+02  0.14240856354E+02  0.50528862359E+02  0.30000007627E+02 0.  0.
         12    1    1    2    0    0  0.18614738373E+02 -0.33224313375E+02 -0.14240856354E+02  0.40659137641E+02  0.00000000000E+00 0. -1.
         11    1    3    3    0    0 -0.12993634687E+02  0.25617275339E+01 -0.13202236821E+00  0.13244410916E+02  0.51100000000E-03 0. -1.
        -11    1    3    3    0    0 -0.63145851061E+01  0.89878693693E+01  0.10615345576E+02  0.15275514487E+02  0.51100000000E-03 0.  1.
         12    1    3    3    0    0  0.69348141981E+00  0.21674716472E+02  0.37575331462E+01  0.22008936957E+02  0.00000000000E+00 0. -1.
</event>
<event>
 7    1  0.1381607E-011  0.5052887E+02  0.7816164E-02  0.1300439E+00
        -11   -1    0    0    0    0  0.00000000000E+00  0.00000000000E+00  0.45593999997E+02  0.45594000000E+02  0.51100000000E-03 0.  1.
         11   -1    0    0    0    0 -0.00000000000E+00 -0.00000000000E+00 -0.45593999997E+02  0.45594000000E+02  0.51100000000E-03 0. -1.
    9900012    2    1    2    0    0  0.89238954006E+01  0.12726743866E+02  0.37570717818E+02  0.50528871186E+02  0.30000034457E+02 0.  0.
         12    1    1    2    0    0 -0.89238954006E+01 -0.12726743866E+02 -0.37570717818E+02  0.40659128814E+02  0.00000000000E+00 0. -1.
         11    1    3    3    0    0  0.76790394744E+01  0.72137063239E+01  0.10155523755E+02  0.14633518688E+02  0.51100000000E-03 0. -1.
        -11    1    3    3    0    0  0.58210580208E+01  0.99750969386E+01  0.49973150574E+01  0.12584134196E+02  0.51100000000E-03 0.  1.
         12    1    3    3    0    0 -0.45762020946E+01 -0.44620593963E+01  0.22417879005E+02  0.23311218303E+02  0.00000000000E+00 0. -1.
</event>
<event>
 7    1  0.1381607E-011  0.5052891E+02  0.7816164E-02  0.1300439E+00
        -11   -1    0    0    0    0  0.00000000000E+00  0.00000000000E+00  0.45593999997E+02  0.45594000000E+02  0.51100000000E-03 0.  1.
         11   -1    0    0    0    0 -0.00000000000E+00 -0.00000000000E+00 -0.45593999997E+02  0.45594000000E+02  0.51100000000E-03 0. -1.
    9900012    2    1    2    0    0  0.10599023311E+02 -0.82316230468E+01  0.38380495513E+02  0.50528913083E+02  0.30000161806E+02 0.  0.
         12    1    1    2    0    0 -0.10599023311E+02  0.82316230468E+01 -0.38380495513E+02  0.40659086917E+02  0.00000000000E+00 0. -1.
         11    1    3    3    0    0  0.14418415400E+02 -0.53186457471E-02  0.47079916404E+01  0.15167594288E+02  0.51100000000E-03 0. -1.
        -11    1    3    3    0    0 -0.17496059930E+01 -0.24514283012E+01  0.37164634650E+01  0.47835889031E+01  0.51100000000E-03 0.  1.
        -12    1    3    3    0    0 -0.20697860961E+01 -0.57748760998E+01  0.29956040407E+02  0.30577729892E+02  0.00000000000E+00 0.  1.
</event>
<event>
 7    1  0.1381607E-011  0.5052886E+02  0.7816164E-02  0.1300439E+00
        -11   -1    0    0    0    0  0.00000000000E+00  0.00000000000E+00  0.45593999997E+02  0.45594000000E+02  0.51100000000E-03 0.  1.
         11   -1    0    0    0    0 -0.00000000000E+00 -0.00000000000E+00 -0.45593999997E+02  0.45594000000E+02  0.51100000000E-03 0. -1.
    9900012    2    1    2    0    0  0.29806983135E+02  0.88124846467E+01  0.26211636701E+02  0.50528855545E+02  0.29999986915E+02 0.  0.
         12    1    1    2    0    0 -0.29806983135E+02 -0.88124846467E+01 -0.26211636701E+02  0.40659144455E+02  0.00000000000E+00 0. -1.
         11    1    3    3    0    0 -0.10535709647E+01 -0.33006248307E+01 -0.38215115101E+01  0.51583026795E+01  0.51100000000E-03 0. -1.
        -11    1    3    3    0    0  0.44765016862E+01 -0.88433399050E+00  0.47318925540E+01  0.65735775158E+01  0.51100000000E-03 0.  1.
         12    1    3    3    0    0  0.26384052414E+02  0.12997443468E+02  0.25301255657E+02  0.38796975350E+02  0.00000000000E+00 0. -1.
</event>
<event>
 7    1  0.1381607E-011  0.5052886E+02  0.7816164E-02  0.1300439E+00
        -11   -1    0    0    0    0  0.00000000000E+00  0.00000000000E+00  0.45593999997E+02  0.45594000000E+02  0.51100000000E-03 0.  1.
         11   -1    0    0    0    0 -0.00000000000E+00 -0.00000000000E+00 -0.45593999997E+02  0.45594000000E+02  0.51100000000E-03 0. -1.
    9900012    2    1    2    0    0  0.10535291188E+02 -0.28753704268E+02  0.26746923784E+02  0.50528858328E+02  0.29999995375E+02 0.  0.
         12    1    1    2    0    0 -0.10535291188E+02  0.28753704268E+02 -0.26746923784E+02  0.40659141672E+02  0.00000000000E+00 0. -1.
         11    1    3    3    0    0 -0.12724212522E+01 -0.15096931762E+02  0.10760303571E+01  0.15188622256E+02  0.51100000000E-03 0. -1.
        -11    1    3    3    0    0  0.12004540743E+01 -0.13527367343E+02  0.15989968230E+02  0.20978795044E+02  0.51100000000E-03 0.  1.
         12    1    3    3    0    0  0.10607258366E+02 -0.12940516331E+00  0.96809251969E+01  0.14361441028E+02  0.00000000000E+00 0. -1.
</event>
<event>
 7    1  0.1381607E-011  0.5052886E+02  0.7816164E-02  0.1300439E+00
        -11   -1    0    0    0    0  0.00000000000E+00  0.00000000000E+00  0.45593999997E+02  0.45594000000E+02  0.51100000000E-03 0.  1.
         11   -1    0    0    0    0 -0.00000000000E+00 -0.00000000000E+00 -0.45593999997E+02  0.45594000000E+02  0.51100000000E-03 0. -1.
    9900012    2    1    2    0    0  0.39288213375E+02  0.98009226015E+00  0.10423116390E+02  0.50528860236E+02  0.30000001174E+02 0.  0.
         12    1    1    2    0    0 -0.39288213375E+02 -0.98009226015E+00 -0.10423116390E+02  0.40659139764E+02  0.00000000000E+00 0. -1.
         11    1    3    3    0    0  0.35179577524E+01  0.18190634568E+01  0.99989446047E+01  0.10754715806E+02  0.51100000000E-03 0. -1.
        -11    1    3    3    0    0  0.14887341090E+02  0.65837439631E+01  0.52271084001E+01  0.17096820517E+02  0.51100000000E-03 0.  1.
         12    1    3    3    0    0  0.20882914533E+02 -0.74227151598E+01 -0.48029366146E+01  0.22677323913E+02  0.00000000000E+00 0. -1.
</event>
<event>
 7    1  0.1381607E-011  0.5052887E+02  0.7816164E-02  0.1300439E+00
        -11   -1    0    0    0    0  0.00000000000E+00  0.00000000000E+00  0.45593999997E+02  0.45594000000E+02  0.51100000000E-03 0. -1.
         11   -1    0    0    0    0 -0.00000000000E+00 -0.00000000000E+00 -0.45593999997E+02  0.45594000000E+02  0.51100000000E-03 0.  1.
    9900012    2    1    2    0    0 -0.30629385992E+02 -0.35322122873E+01 -0.26505265812E+02  0.50528869099E+02  0.30000028113E+02 0.  0.
         12    1    1    2    0    0  0.30629385992E+02  0.35322122873E+01  0.26505265812E+02  0.40659130901E+02  0.00000000000E+00 0. -1.
         11    1    3    3    0    0 -0.86939625435E+01 -0.70715126384E+01 -0.63409626718E+01  0.12876299296E+02  0.51100000000E-03 0.  1.
        -11    1    3    3    0    0 -0.15592090856E+02  0.19036233729E+01  0.76054794244E+00  0.15726268236E+02  0.51100000000E-03 0. -1.
         12    1    3    3    0    0 -0.63433325929E+01  0.16356769783E+01 -0.20924851082E+02  0.21926301567E+02  0.00000000000E+00 0. -1.
</event>
<event>
 7    1  0.1381607E-011  0.5052886E+02  0.7816164E-02  0.1300439E+00
        -11   -1    0    0    0    0  0.00000000000E+00  0.00000000000E+00  0.45593999997E+02  0.45594000000E+02  0.51100000000E-03 0. -1.
         11   -1    0    0    0    0 -0.00000000000E+00 -0.00000000000E+00 -0.45593999997E+02  0.45594000000E+02  0.51100000000E-03 0.  1.
    9900012    2    1    2    0    0 -0.13319163014E+02  0.15575188662E+02 -0.35116647513E+02  0.50528861571E+02  0.30000005230E+02 0.  0.
         12    1    1    2    0    0  0.13319163014E+02 -0.15575188662E+02  0.35116647513E+02  0.40659138429E+02  0.00000000000E+00 0. -1.
         11    1    3    3    0    0  0.19774053197E+01  0.63924039669E+01 -0.31374453438E+01  0.73902993052E+01  0.51100000000E-03 0. -1.
        -11    1    3    3    0    0 -0.88960345939E+01  0.87570340272E+01 -0.34155201875E+02  0.36364857924E+02  0.51100000000E-03 0.  1.
         12    1    3    3    0    0 -0.64005337402E+01  0.42575066778E+00  0.21759997054E+01  0.67737043417E+01  0.00000000000E+00 0. -1.
</event>
<event>
 7    1  0.1381607E-011  0.5052885E+02  0.7816164E-02  0.1300439E+00
        -11   -1    0    0    0    0  0.00000000000E+00  0.00000000000E+00  0.45593999997E+02  0.45594000000E+02  0.51100000000E-03 0.  1.
         11   -1    0    0    0    0 -0.00000000000E+00 -0.00000000000E+00 -0.45593999997E+02  0.45594000000E+02  0.51100000000E-03 0. -1.
    9900012    2    1    2    0    0  0.25382956671E+02 -0.36448246804E+01  0.31552933251E+02  0.50528845643E+02  0.29999956817E+02 0.  0.
         12    1    1    2    0    0 -0.25382956671E+02  0.36448246804E+01 -0.31552933251E+02  0.40659154357E+02  0.00000000000E+00 0. -1.
         11    1    3    3    0    0  0.17963221937E+01 -0.30619786571E+01 -0.15994017039E+01  0.38936580220E+01  0.51100000000E-03 0. -1.
        -11    1    3    3    0    0 -0.64835309212E+00 -0.64461547261E+01  0.13187355622E+02  0.14692842510E+02  0.51100000000E-03 0.  1.
         12    1    3    3    0    0  0.24234987569E+02  0.58633087029E+01  0.19964979333E+02  0.31942345111E+02  0.00000000000E+00 0. -1.
</event>
<event>
 7    1  0.1381607E-011  0.5052886E+02  0.7816164E-02  0.1300439E+00
        -11   -1    0    0    0    0  0.00000000000E+00  0.00000000000E+00  0.45593999997E+02  0.45594000000E+02  0.51100000000E-03 0. -1.
         11   -1    0    0    0    0 -0.00000000000E+00 -0.00000000000E+00 -0.45593999997E+02  0.45594000000E+02  0.51100000000E-03 0.  1.
    9900012    2    1    2    0    0 -0.40380097071E+02 -0.14092352371E+01 -0.45417442421E+01  0.50528860509E+02  0.30000002003E+02 0.  0.
         12    1    1    2    0    0  0.40380097071E+02  0.14092352371E+01  0.45417442421E+01  0.40659139491E+02  0.00000000000E+00 0. -1.
         11    1    3    3    0    0  0.70497134639E+00  0.15532000894E+01  0.39850611298E+01  0.43347580771E+01  0.51100000000E-03 0. -1.
        -11    1    3    3    0    0 -0.13663872497E+02 -0.79448945412E+01 -0.92519114225E+01  0.18314492243E+02  0.51100000000E-03 0.  1.
        -12    1    3    3    0    0 -0.27421195920E+02  0.49824592147E+01  0.72510605053E+00  0.27879610189E+02  0.00000000000E+00 0.  1.
</event>
<event>
 7    1  0.1381607E-011  0.5052884E+02  0.7816164E-02  0.1300439E+00
        -11   -1    0    0    0    0  0.00000000000E+00  0.00000000000E+00  0.45593999997E+02  0.45594000000E+02  0.51100000000E-03 0. -1.
         11   -1    0    0    0    0 -0.00000000000E+00 -0.00000000000E+00 -0.45593999997E+02  0.45594000000E+02  0.51100000000E-03 0.  1.
    9900012    2    1    2    0    0  0.88325269475E-01 -0.32170758675E+02 -0.24863665481E+02  0.50528838963E+02  0.29999936512E+02 0.  0.
         12    1    1    2    0    0 -0.88325269475E-01  0.32170758675E+02  0.24863665481E+02  0.40659161037E+02  0.00000000000E+00 0. -1.
         11    1    3    3    0    0  0.12027191450E+01 -0.10228946161E+02  0.16798283740E+01  0.10435501738E+02  0.51100000000E-03 0. -1.
        -11    1    3    3    0    0  0.50831550394E+01 -0.91184439174E+01 -0.55045572877E+00  0.10454065544E+02  0.51100000000E-03 0.  1.
         12    1    3    3    0    0 -0.61975489149E+01 -0.12823368597E+02 -0.25993038126E+02  0.29639271681E+02  0.00000000000E+00 0. -1.
</event>
<event>
 7    1  0.1381607E-011  0.5052887E+02  0.7816164E-02  0.1300439E+00
        -11   -1    0    0    0    0  0.00000000000E+00  0.00000000000E+00  0.45593999997E+02  0.45594000000E+02  0.51100000000E-03 0.  1.
         11   -1    0    0    0    0 -0.00000000000E+00 -0.00000000000E+00 -0.45593999997E+02  0.45594000000E+02  0.51100000000E-03 0. -1.
    9900012    2    1    2    0    0 -0.14911362350E+02 -0.61592886178E+01  0.37321298961E+02  0.50528869173E+02  0.30000028340E+02 0.  0.
         12    1    1    2    0    0  0.14911362350E+02  0.61592886178E+01 -0.37321298961E+02  0.40659130827E+02  0.00000000000E+00 0. -1.
         11    1    3    3    0    0  0.25607983832E+01 -0.19278921184E+01  0.10305398054E+02  0.10792390175E+02  0.51100000000E-03 0. -1.
        -11    1    3    3    0    0 -0.52836303462E+01 -0.97210815169E+01  0.23406866980E+02  0.25890106171E+02  0.51100000000E-03 0.  1.
         12    1    3    3    0    0 -0.12188530387E+02  0.54896850174E+01  0.36090339279E+01  0.13846372827E+02  0.00000000000E+00 0. -1.
</event>
<event>
 7    1  0.1381607E-011  0.5052887E+02  0.7816164E-02  0.1300439E+00
        -11   -1    0    0    0    0  0.00000000000E+00  0.00000000000E+00  0.45593999997E+02  0.45594000000E+02  0.51100000000E-03 0. -1.
         11   -1    0    0    0    0 -0.00000000000E+00 -0.00000000000E+00 -0.45593999997E+02  0.45594000000E+02  0.51100000000E-03 0.  1.
    9900012    2    1    2    0    0 -0.31960243183E+02 -0.12197421048E+02 -0.21975677020E+02  0.50528873041E+02  0.30000040096E+02 0.  0.
         12    1    1    2    0    0  0.31960243183E+02  0.12197421048E+02  0.21975677020E+02  0.40659126959E+02  0.00000000000E+00 0. -1.
         11    1    3    3    0    0  0.16846610950E+01  0.13587587706E+01  0.30949511712E+01  0.37766428762E+01  0.51100000000E-03 0. -1.
        -11    1    3    3    0    0 -0.11984558359E+02 -0.10392458900E+02 -0.39792314671E+01  0.16354422166E+02  0.51100000000E-03 0.  1.
        -12    1    3    3    0    0 -0.21660345919E+02 -0.31637209192E+01 -0.21091396724E+02  0.30397807999E+02  0.00000000000E+00 0.  1.
</event>
<event>
 7    1  0.1381607E-011  0.5052886E+02  0.7816164E-02  0.1300439E+00
        -11   -1    0    0    0    0  0.00000000000E+00  0.00000000000E+00  0.45593999997E+02  0.45594000000E+02  0.51100000000E-03 0.  1.
         11   -1    0    0    0    0 -0.00000000000E+00 -0.00000000000E+00 -0.45593999997E+02  0.45594000000E+02  0.51100000000E-03 0. -1.
    9900012    2    1    2    0    0 -0.34578401740E+02 -0.34796838495E+01  0.21104298278E+02  0.50528862376E+02  0.30000007677E+02 0.  0.
         12    1    1    2    0    0  0.34578401740E+02  0.34796838495E+01 -0.21104298278E+02  0.40659137624E+02  0.00000000000E+00 0. -1.
         11    1    3    3    0    0 -0.73425336861E+00  0.21734183511E+01 -0.10767870433E+01  0.25342347831E+01  0.51100000000E-03 0. -1.
        -11    1    3    3    0    0 -0.18670714664E+02 -0.10477048124E+02  0.91540985910E+00  0.21429001351E+02  0.51100000000E-03 0.  1.
         12    1    3    3    0    0 -0.15173433707E+02  0.48239459230E+01  0.21265675462E+02  0.26565626241E+02  0.00000000000E+00 0. -1.
</event>
<event>
 7    1  0.1381607E-011  0.5052885E+02  0.7816164E-02  0.1300439E+00
        -11   -1    0    0    0    0  0.00000000000E+00  0.00000000000E+00  0.45593999997E+02  0.45594000000E+02  0.51100000000E-03 0.  1.
         11   -1    0    0    0    0 -0.00000000000E+00 -0.00000000000E+00 -0.45593999997E+02  0.45594000000E+02  0.51100000000E-03 0. -1.
    9900012    2    1    2    0    0  0.31372688181E+02  0.93539739078E+01  0.24112729454E+02  0.50528854494E+02  0.29999983720E+02 0.  0.
         12    1    1    2    0    0 -0.31372688181E+02 -0.93539739078E+01 -0.24112729454E+02  0.40659145506E+02  0.00000000000E+00 0. -1.
         11    1    3    3    0    0  0.53282875612E+01  0.63744095957E+01  0.54309330836E+00  0.83257850460E+01  0.51100000000E-03 0. -1.
        -11    1    3    3    0    0  0.14995620678E+01  0.57996359136E+01  0.14833966249E+02  0.15997844169E+02  0.51100000000E-03 0.  1.
         12    1    3    3    0    0  0.24544838552E+02 -0.28200716015E+01  0.87356698970E+01  0.26205225279E+02  0.00000000000E+00 0. -1.
</event>
<event>
 7    1  0.1381607E-011  0.5052886E+02  0.7816164E-02  0.1300439E+00
        -11   -1    0    0    0    0  0.00000000000E+00  0.00000000000E+00  0.45593999997E+02  0.45594000000E+02  0.51100000000E-03 0. -1.
         11   -1    0    0    0    0 -0.00000000000E+00 -0.00000000000E+00 -0.45593999997E+02  0.45594000000E+02  0.51100000000E-03 0.  1.
    9900012    2    1    2    0    0 -0.14627473952E+02  0.31055488490E+02 -0.21788971112E+02  0.50528860539E+02  0.30000002095E+02 0.  0.
         12    1    1    2    0    0  0.14627473952E+02 -0.31055488490E+02  0.21788971112E+02  0.40659139461E+02  0.00000000000E+00 0. -1.
         11    1    3    3    0    0 -0.18506262668E+02  0.19484628015E+02 -0.61051987779E+01  0.27557320973E+02  0.51100000000E-03 0. -1.
        -11    1    3    3    0    0  0.57477582547E+00  0.12864299521E+02 -0.14071429312E+02  0.19074215385E+02  0.51100000000E-03 0.  1.
        -12    1    3    3    0    0  0.33040128907E+01 -0.12934390465E+01 -0.16123430228E+01  0.38973241811E+01  0.00000000000E+00 0.  1.
</event>
<event>
 7    1  0.1381607E-011  0.5052886E+02  0.7816164E-02  0.1300439E+00
        -11   -1    0    0    0    0  0.00000000000E+00  0.00000000000E+00  0.45593999997E+02  0.45594000000E+02  0.51100000000E-03 0. -1.
         11   -1    0    0    0    0 -0.00000000000E+00 -0.00000000000E+00 -0.45593999997E+02  0.45594000000E+02  0.51100000000E-03 0.  1.
    9900012    2    1    2    0    0 -0.51617323549E+01 -0.38300098177E+02 -0.12634274752E+02  0.50528857120E+02  0.29999991701E+02 0.  0.
         12    1    1    2    0    0  0.51617323549E+01  0.38300098177E+02  0.12634274752E+02  0.40659142880E+02  0.00000000000E+00 0. -1.
         11    1    3    3    0    0 -0.52234992794E+01 -0.11979461754E+02 -0.56084708841E+01  0.14221371050E+02  0.51100000000E-03 0. -1.
        -11    1    3    3    0    0 -0.63032588682E+01 -0.22664116984E+02 -0.12969213687E+02  0.26862497556E+02  0.51100000000E-03 0.  1.
         12    1    3    3    0    0  0.63650257927E+01 -0.36565194394E+01  0.59434098189E+01  0.94449885139E+01  0.00000000000E+00 0. -1.
</event>
<event>
 7    1  0.1381607E-011  0.5052889E+02  0.7816164E-02  0.1300439E+00
        -11   -1    0    0    0    0  0.00000000000E+00  0.00000000000E+00  0.45593999997E+02  0.45594000000E+02  0.51100000000E-03 0. -1.
         11   -1    0    0    0    0 -0.00000000000E+00 -0.00000000000E+00 -0.45593999997E+02  0.45594000000E+02  0.51100000000E-03 0.  1.
    9900012    2    1    2    0    0  0.12973517658E+02  0.50427100139E+01 -0.38202379205E+02  0.50528894480E+02  0.30000105262E+02 0.  0.
         12    1    1    2    0    0 -0.12973517658E+02 -0.50427100139E+01  0.38202379205E+02  0.40659105520E+02  0.00000000000E+00 0. -1.
         11    1    3    3    0    0 -0.17340979562E+01 -0.25729546255E-01 -0.20955960110E+02  0.21027601435E+02  0.51100000000E-03 0. -1.
        -11    1    3    3    0    0  0.85858839124E+00  0.39240824192E+01 -0.14870414371E+02  0.15403402893E+02  0.51100000000E-03 0.  1.
         12    1    3    3    0    0  0.13849027223E+02  0.11443571410E+01 -0.23760047242E+01  0.14097890152E+02  0.00000000000E+00 0. -1.
</event>
<event>
 7    1  0.1381607E-011  0.5052887E+02  0.7816164E-02  0.1300439E+00
        -11   -1    0    0    0    0  0.00000000000E+00  0.00000000000E+00  0.45593999997E+02  0.45594000000E+02  0.51100000000E-03 0. -1.
         11   -1    0    0    0    0 -0.00000000000E+00 -0.00000000000E+00 -0.45593999997E+02  0.45594000000E+02  0.51100000000E-03 0.  1.
    9900012    2    1    2    0    0  0.27445750901E+02  0.21719849442E+02  0.20691638646E+02  0.50528868035E+02  0.30000024878E+02 0.  0.
         12    1    1    2    0    0 -0.27445750901E+02 -0.21719849442E+02 -0.20691638646E+02  0.40659131965E+02  0.00000000000E+00 0. -1.
         11    1    3    3    0    0  0.26073013398E+00  0.10611357414E+02  0.47215915024E+00  0.10625056277E+02  0.51100000000E-03 0. -1.
        -11    1    3    3    0    0  0.16702755984E+02  0.10513070357E+02  0.33269630752E+01  0.20014379564E+02  0.51100000000E-03 0.  1.
         12    1    3    3    0    0  0.10482264783E+02  0.59542167132E+00  0.16892516421E+02  0.19889432193E+02  0.00000000000E+00 0. -1.
</event>
<event>
 7    1  0.1381607E-011  0.5052886E+02  0.7816164E-02  0.1300439E+00
        -11   -1    0    0    0    0  0.00000000000E+00  0.00000000000E+00  0.45593999997E+02  0.45594000000E+02  0.51100000000E-03 0.  1.
         11   -1    0    0    0    0 -0.00000000000E+00 -0.00000000000E+00 -0.45593999997E+02  0.45594000000E+02  0.51100000000E-03 0. -1.
    9900012    2    1    2    0    0  0.33195515665E+01 -0.22281279059E+02  0.33848050198E+02  0.50528864233E+02  0.30000013322E+02 0.  0.
         12    1    1    2    0    0 -0.33195515665E+01  0.22281279059E+02 -0.33848050198E+02  0.40659135767E+02  0.00000000000E+00 0. -1.
         11    1    3    3    0    0 -0.93417930685E+00  0.27098688728E+01  0.43675670658E+01  0.52241480282E+01  0.51100000000E-03 0. -1.
        -11    1    3    3    0    0  0.13657219469E+02 -0.11261088737E+02  0.13877588674E+02  0.22492648373E+02  0.51100000000E-03 0.  1.
        -12    1    3    3    0    0 -0.94034885956E+01 -0.13730059195E+02  0.15602894458E+02  0.22812067831E+02  0.00000000000E+00 0.  1.
</event>
<event>
 7    1  0.1381607E-011  0.5052884E+02  0.7816164E-02  0.1300439E+00
        -11   -1    0    0    0    0  0.00000000000E+00  0.00000000000E+00  0.45593999997E+02  0.45594000000E+02  0.51100000000E-03 0.  1.
         11   -1    0    0    0    0 -0.00000000000E+00 -0.00000000000E+00 -0.45593999997E+02  0.45594000000E+02  0.51100000000E-03 0. -1.
    9900012    2    1    2    0    0  0.26031675356E+02  0.20286512126E+02  0.23748186626E+02  0.50528842801E+02  0.29999948178E+02 0.  0.
         12    1    1    2    0    0 -0.26031675356E+02 -0.20286512126E+02 -0.23748186626E+02  0.40659157199E+02  0.00000000000E+00 0. -1.
         11    1    3    3    0    0  0.76562487927E+01 -0.16016821002E-01 -0.36902553921E+01  0.84991992113E+01  0.51100000000E-03 0. -1.
        -11    1    3    3    0    0  0.78298099066E+01 -0.10765641779E+01  0.82807715576E+01  0.11447099696E+02  0.51100000000E-03 0.  1.
         12    1    3    3    0    0  0.10545616657E+02  0.21379093125E+02  0.19157670461E+02  0.30582543894E+02  0.00000000000E+00 0. -1.
</event>
<event>
 7    1  0.1381607E-011  0.5052886E+02  0.7816164E-02  0.1300439E+00
        -11   -1    0    0    0    0  0.00000000000E+00  0.00000000000E+00  0.45593999997E+02  0.45594000000E+02  0.51100000000E-03 0. -1.
         11   -1    0    0    0    0 -0.00000000000E+00 -0.00000000000E+00 -0.45593999997E+02  0.45594000000E+02  0.51100000000E-03 0.  1.
    9900012    2    1    2    0    0 -0.29201348327E+02  0.20852786110E+02 -0.19120882653E+02  0.50528860977E+02  0.30000003424E+02 0.  0.
         12    1    1    2    0    0  0.29201348327E+02 -0.20852786110E+02  0.19120882653E+02  0.40659139023E+02  0.00000000000E+00 0. -1.
         11    1    3    3    0    0 -0.13404701029E+02 -0.11544449690E+01  0.16471388920E+01  0.13554771103E+02  0.51100000000E-03 0. -1.
        -11    1    3    3    0    0 -0.35775103049E+01  0.66851739166E+01  0.10409892971E+01  0.76533515047E+01  0.51100000000E-03 0.  1.
         12    1    3    3    0    0 -0.12219136993E+02  0.15322057163E+02 -0.21809010843E+02  0.29320738368E+02  0.00000000000E+00 0. -1.
</event>
<event>
 7    1  0.1381607E-011  0.5052886E+02  0.7816164E-02  0.1300439E+00
        -11   -1    0    0    0    0  0.00000000000E+00  0.00000000000E+00  0.45593999997E+02  0.45594000000E+02  0.51100000000E-03 0.  1.
         11   -1    0    0    0    0 -0.00000000000E+00 -0.00000000000E+00 -0.45593999997E+02  0.45594000000E+02  0.51100000000E-03 0. -1.
    9900012    2    1    2    0    0 -0.65379201023E+01  0.34010123764E+02  0.21301006876E+02  0.50528858203E+02  0.29999994994E+02 0.  0.
         12    1    1    2    0    0  0.65379201023E+01 -0.34010123764E+02 -0.21301006876E+02  0.40659141797E+02  0.00000000000E+00 0. -1.
         11    1    3    3    0    0 -0.23219965355E+01  0.81559926648E+01 -0.12558528088E+01  0.85725755055E+01  0.51100000000E-03 0. -1.
        -11    1    3    3    0    0  0.87947840915E+01  0.47609657774E+01  0.31697455894E+01  0.10491058560E+02  0.51100000000E-03 0.  1.
        -12    1    3    3    0    0 -0.13010707658E+02  0.21093165322E+02  0.19387114096E+02  0.31465224138E+02  0.00000000000E+00 0.  1.
</event>
<event>
 7    1  0.1381607E-011  0.5052887E+02  0.7816164E-02  0.1300439E+00
        -11   -1    0    0    0    0  0.00000000000E+00  0.00000000000E+00  0.45593999997E+02  0.45594000000E+02  0.51100000000E-03 0.  1.
         11   -1    0    0    0    0 -0.00000000000E+00 -0.00000000000E+00 -0.45593999997E+02  0.45594000000E+02  0.51100000000E-03 0. -1.
    9900012    2    1    2    0    0 -0.11182620868E+01 -0.23422461701E+02  0.33215999016E+02  0.50528870485E+02  0.30000032327E+02 0.  0.
         12    1    1    2    0    0  0.11182620868E+01  0.23422461701E+02 -0.33215999016E+02  0.40659129515E+02  0.00000000000E+00 0. -1.
         11    1    3    3    0    0 -0.56779523215E+01 -0.66329030347E+01  0.52860686764E+01  0.10206716786E+02  0.51100000000E-03 0. -1.
        -11    1    3    3    0    0 -0.97714299318E+00 -0.19670269215E+02  0.27812745569E+02  0.34079658387E+02  0.51100000000E-03 0.  1.
         12    1    3    3    0    0  0.55368332279E+01  0.28807105489E+01  0.11718477131E+00  0.62424953128E+01  0.00000000000E+00 0. -1.
</event>
<event>
 7    1  0.1381607E-011  0.5052886E+02  0.7816164E-02  0.1300439E+00
        -11   -1    0    0    0    0  0.00000000000E+00  0.00000000000E+00  0.45593999997E+02  0.45594000000E+02  0.51100000000E-03 0. -1.
         11   -1    0    0    0    0 -0.00000000000E+00 -0.00000000000E+00 -0.45593999997E+02  0.45594000000E+02  0.51100000000E-03 0.  1.
    9900012    2    1    2    0    0 -0.35651890524E+02  0.21994881260E+01 -0.19423451978E+02  0.50528861634E+02  0.30000005423E+02 0.  0.
         12    1    1    2    0    0  0.35651890524E+02 -0.21994881260E+01  0.19423451978E+02  0.40659138366E+02  0.00000000000E+00 0. -1.
         11    1    3    3    0    0 -0.11578417485E+02 -0.74264337847E+01 -0.36294856305E+01  0.14226202459E+02  0.51100000000E-03 0. -1.
        -11    1    3    3    0    0 -0.22629314968E+02  0.10679258456E+01 -0.15806333567E+02  0.27623659110E+02  0.51100000000E-03 0.  1.
         12    1    3    3    0    0 -0.14441580712E+01  0.85579960650E+01  0.12367219499E-01  0.86790000652E+01  0.00000000000E+00 0. -1.
</event>
<event>
 7    1  0.1381607E-011  0.5052886E+02  0.7816164E-02  0.1300439E+00
        -11   -1    0    0    0    0  0.00000000000E+00  0.00000000000E+00  0.45593999997E+02  0.45594000000E+02  0.51100000000E-03 0. -1.
         11   -1    0    0    0    0 -0.00000000000E+00 -0.00000000000E+00 -0.45593999997E+02  0.45594000000E+02  0.51100000000E-03 0.  1.
    9900012    2    1    2    0    0  0.29941129022E+02 -0.79560467798E+01 -0.26332411491E+02  0.50528858563E+02  0.29999996087E+02 0.  0.
         12    1    1    2    0    0 -0.29941129022E+02  0.79560467798E+01  0.26332411491E+02  0.40659141437E+02  0.00000000000E+00 0. -1.
         11    1    3    3    0    0  0.80124218970E+00  0.21688450848E+01 -0.43805146393E+01  0.49532602208E+01  0.51100000000E-03 0. -1.
        -11    1    3    3    0    0  0.29485836428E+02 -0.15216918711E+01 -0.22234464042E+02  0.36960810157E+02  0.51100000000E-03 0.  1.
         12    1    3    3    0    0 -0.34594959498E+00 -0.86031999936E+01  0.28256718989E+00  0.86147881848E+01  0.00000000000E+00 0. -1.
</event>
<event>
 7    1  0.1381607E-011  0.5052886E+02  0.7816164E-02  0.1300439E+00
        -11   -1    0    0    0    0  0.00000000000E+00  0.00000000000E+00  0.45593999997E+02  0.45594000000E+02  0.51100000000E-03 0. -1.
         11   -1    0    0    0    0 -0.00000000000E+00 -0.00000000000E+00 -0.45593999997E+02  0.45594000000E+02  0.51100000000E-03 0.  1.
    9900012    2    1    2    0    0 -0.71204169258E+01  0.37639646106E+02 -0.13628005417E+02  0.50528858005E+02  0.29999994391E+02 0.  0.
         12    1    1    2    0    0  0.71204169258E+01 -0.37639646106E+02  0.13628005417E+02  0.40659141995E+02  0.00000000000E+00 0. -1.
         11    1    3    3    0    0 -0.94200576630E+01  0.95931560649E+01  0.55691445793E+01  0.14552714567E+02  0.51100000000E-03 0. -1.
        -11    1    3    3    0    0 -0.44957385419E+01  0.74224654962E+01 -0.62547608459E+01  0.10697041300E+02  0.51100000000E-03 0.  1.
         12    1    3    3    0    0  0.67953792791E+01  0.20624024545E+02 -0.12942389150E+02  0.25279102137E+02  0.00000000000E+00 0. -1.
</event>
<event>
 7    1  0.1381607E-011  0.5052882E+02  0.7816164E-02  0.1300439E+00
        -11   -1    0    0    0    0  0.00000000000E+00  0.00000000000E+00  0.45593999997E+02  0.45594000000E+02  0.51100000000E-03 0.  1.
         11   -1    0    0    0    0 -0.00000000000E+00 -0.00000000000E+00 -0.45593999997E+02  0.45594000000E+02  0.51100000000E-03 0. -1.
    9900012    2    1    2    0    0 -0.14072543144E+02 -0.25877572414E+02  0.28026478961E+02  0.50528822099E+02  0.29999885253E+02 0.  0.
         12    1    1    2    0    0  0.14072543144E+02  0.25877572414E+02 -0.28026478961E+02  0.40659177901E+02  0.00000000000E+00 0. -1.
         11    1    3    3    0    0 -0.10319226059E+02 -0.12190059484E+02  0.20778654738E+02  0.26207565123E+02  0.51100000000E-03 0. -1.
        -11    1    3    3    0    0  0.38519789014E+01 -0.12971389479E+02  0.92908284145E+01  0.16413841091E+02  0.51100000000E-03 0.  1.
         12    1    3    3    0    0 -0.76052959873E+01 -0.71612345054E+00 -0.20430041917E+01  0.79074158849E+01  0.00000000000E+00 0. -1.
</event>
<event>
 7    1  0.1381607E-011  0.5052886E+02  0.7816164E-02  0.1300439E+00
        -11   -1    0    0    0    0  0.00000000000E+00  0.00000000000E+00  0.45593999997E+02  0.45594000000E+02  0.51100000000E-03 0.  1.
         11   -1    0    0    0    0 -0.00000000000E+00 -0.00000000000E+00 -0.45593999997E+02  0.45594000000E+02  0.51100000000E-03 0. -1.
    9900012    2    1    2    0    0 -0.11596511976E+02  0.15048087405E+02  0.35947762402E+02  0.50528860237E+02  0.30000001175E+02 0.  0.
         12    1    1    2    0    0  0.11596511976E+02 -0.15048087405E+02 -0.35947762402E+02  0.40659139763E+02  0.00000000000E+00 0. -1.
         11    1    3    3    0    0  0.17439380225E+01 -0.33323600306E+01 -0.13211059824E+01  0.39863848883E+01  0.51100000000E-03 0. -1.
        -11    1    3    3    0    0  0.21124017772E+01  0.10138245475E+02  0.14435180560E+02  0.17765717003E+02  0.51100000000E-03 0.  1.
         12    1    3    3    0    0 -0.15452851776E+02  0.82422019608E+01  0.22833687825E+02  0.28776758345E+02  0.00000000000E+00 0. -1.
</event>
<event>
 7    1  0.1381607E-011  0.5052885E+02  0.7816164E-02  0.1300439E+00
        -11   -1    0    0    0    0  0.00000000000E+00  0.00000000000E+00  0.45593999997E+02  0.45594000000E+02  0.51100000000E-03 0. -1.
         11   -1    0    0    0    0 -0.00000000000E+00 -0.00000000000E+00 -0.45593999997E+02  0.45594000000E+02  0.51100000000E-03 0.  1.
    9900012    2    1    2    0    0 -0.32239531392E+02 -0.19787709980E+02 -0.14907222932E+02  0.50528854089E+02  0.29999982490E+02 0.  0.
         12    1    1    2    0    0  0.32239531392E+02  0.19787709980E+02  0.14907222932E+02  0.40659145911E+02  0.00000000000E+00 0. -1.
         11    1    3    3    0    0 -0.94233827052E+01 -0.17898701012E+02 -0.80256204786E+01  0.21761760587E+02  0.51100000000E-03 0. -1.
        -11    1    3    3    0    0 -0.23787148380E+02 -0.50586132865E+01 -0.73814098014E+01  0.25414625855E+02  0.51100000000E-03 0.  1.
        -12    1    3    3    0    0  0.97099969352E+00  0.31696043183E+01  0.49980734803E+00  0.33524676471E+01  0.00000000000E+00 0.  1.
</event>
<event>
 7    1  0.1381607E-011  0.5052885E+02  0.7816164E-02  0.1300439E+00
        -11   -1    0    0    0    0  0.00000000000E+00  0.00000000000E+00  0.45593999997E+02  0.45594000000E+02  0.51100000000E-03 0. -1.
         11   -1    0    0    0    0 -0.00000000000E+00 -0.00000000000E+00 -0.45593999997E+02  0.45594000000E+02  0.51100000000E-03 0.  1.
    9900012    2    1    2    0    0 -0.22675571891E+02 -0.23537970571E+02 -0.24185710293E+02  0.50528853408E+02  0.29999980419E+02 0.  0.
         12    1    1    2    0    0  0.22675571891E+02  0.23537970571E+02  0.24185710293E+02  0.40659146592E+02  0.00000000000E+00 0. -1.
         11    1    3    3    0    0 -0.42759748450E+01 -0.12839408772E+01  0.17699864789E+01  0.48026365101E+01  0.51100000000E-03 0. -1.
        -11    1    3    3    0    0 -0.23082552799E+01 -0.17132469085E+02 -0.35140187836E+01  0.17640801219E+02  0.51100000000E-03 0.  1.
        -12    1    3    3    0    0 -0.16091341766E+02 -0.51215606091E+01 -0.22441677989E+02  0.28085415679E+02  0.00000000000E+00 0.  1.
</event>
<event>
 7    1  0.1381607E-011  0.5052887E+02  0.7816164E-02  0.1300439E+00
        -11   -1    0    0    0    0  0.00000000000E+00  0.00000000000E+00  0.45593999997E+02  0.45594000000E+02  0.51100000000E-03 0. -1.
         11   -1    0    0    0    0 -0.00000000000E+00 -0.00000000000E+00 -0.45593999997E+02  0.45594000000E+02  0.51100000000E-03 0.  1.
    9900012    2    1    2    0    0  0.12469507217E+02  0.13479223702E+02 -0.36276537413E+02  0.50528865129E+02  0.30000016045E+02 0.  0.
         12    1    1    2    0    0 -0.12469507217E+02 -0.13479223702E+02  0.36276537413E+02  0.40659134871E+02  0.00000000000E+00 0. -1.
         11    1    3    3    0    0  0.87705672679E+01  0.96899939889E+01 -0.65579493588E+01  0.14622774489E+02  0.51100000000E-03 0. -1.
        -11    1    3    3    0    0 -0.43550391422E+01  0.75312020269E+01 -0.59694769413E+01  0.10550830541E+02  0.51100000000E-03 0.  1.
         12    1    3    3    0    0  0.80539790916E+01 -0.37419723142E+01 -0.23749111113E+02  0.25355260098E+02  0.00000000000E+00 0. -1.
</event>
<event>
 7    1  0.1381607E-011  0.5052878E+02  0.7816164E-02  0.1300439E+00
        -11   -1    0    0    0    0  0.00000000000E+00  0.00000000000E+00  0.45593999997E+02  0.45594000000E+02  0.51100000000E-03 0.  1.
         11   -1    0    0    0    0 -0.00000000000E+00 -0.00000000000E+00 -0.45593999997E+02  0.45594000000E+02  0.51100000000E-03 0. -1.
    9900012    2    1    2    0    0  0.20788181275E+02  0.25653957385E+02  0.23725467011E+02  0.50528784623E+02  0.29999771338E+02 0.  0.
         12    1    1    2    0    0 -0.20788181275E+02 -0.25653957385E+02 -0.23725467011E+02  0.40659215377E+02  0.00000000000E+00 0. -1.
         11    1    3    3    0    0  0.15124200698E+01 -0.26192849179E+01  0.35544321019E+01  0.46671250012E+01  0.51100000000E-03 0. -1.
        -11    1    3    3    0    0  0.11608433342E+02  0.18636224154E+02  0.24415531934E+02  0.32835693617E+02  0.51100000000E-03 0.  1.
         12    1    3    3    0    0  0.76673278627E+01  0.96370181488E+01 -0.42444970255E+01  0.13025966005E+02  0.00000000000E+00 0. -1.
</event>
<event>
 7    1  0.1381607E-011  0.5052877E+02  0.7816164E-02  0.1300439E+00
        -11   -1    0    0    0    0  0.00000000000E+00  0.00000000000E+00  0.45593999997E+02  0.45594000000E+02  0.51100000000E-03 0.  1.
         11   -1    0    0    0    0 -0.00000000000E+00 -0.00000000000E+00 -0.45593999997E+02  0.45594000000E+02  0.51100000000E-03 0. -1.
    9900012    2    1    2    0    0  0.34911523174E+01 -0.36304873648E+02  0.17970562646E+02  0.50528768368E+02  0.29999721930E+02 0.  0.
         12    1    1    2    0    0 -0.34911523174E+01  0.36304873648E+02 -0.17970562646E+02  0.40659231632E+02  0.00000000000E+00 0. -1.
         11    1    3    3    0    0  0.65398710450E+01 -0.35511511322E+02  0.20448128863E+02  0.41496545928E+02  0.51100000000E-03 0. -1.
        -11    1    3    3    0    0 -0.27549947054E+01 -0.33334730508E+01 -0.41363557624E+01  0.59842691836E+01  0.51100000000E-03 0.  1.
        -12    1    3    3    0    0 -0.29372402212E+00  0.25401107252E+01  0.16587895457E+01  0.30479532566E+01  0.00000000000E+00 0.  1.
</event>
<event>
 7    1  0.1381607E-011  0.5052886E+02  0.7816164E-02  0.1300439E+00
        -11   -1    0    0    0    0  0.00000000000E+00  0.00000000000E+00  0.45593999997E+02  0.45594000000E+02  0.51100000000E-03 0.  1.
         11   -1    0    0    0    0 -0.00000000000E+00 -0.00000000000E+00 -0.45593999997E+02  0.45594000000E+02  0.51100000000E-03 0. -1.
    9900012    2    1    2    0    0  0.24772056027E+02 -0.88214949837E+00  0.32229372389E+02  0.50528863362E+02  0.30000010676E+02 0.  0.
         12    1    1    2    0    0 -0.24772056027E+02  0.88214949837E+00 -0.32229372389E+02  0.40659136638E+02  0.00000000000E+00 0. -1.
         11    1    3    3    0    0  0.37314400950E+00  0.32541515894E+01  0.14351292478E+01  0.35760781923E+01  0.51100000000E-03 0. -1.
        -11    1    3    3    0    0  0.18820190991E+02  0.55651425036E+01  0.29847477420E+02  0.35721734401E+02  0.51100000000E-03 0.  1.
        -12    1    3    3    0    0  0.55787210267E+01 -0.97014435914E+01  0.94676572176E+00  0.11231050769E+02  0.00000000000E+00 0.  1.
</event>
<event>
 7    1  0.1381607E-011  0.5052887E+02  0.7816164E-02  0.1300439E+00
        -11   -1    0    0    0    0  0.00000000000E+00  0.00000000000E+00  0.45593999997E+02  0.45594000000E+02  0.51100000000E-03 0.  1.
         11   -1    0    0    0    0 -0.00000000000E+00 -0.00000000000E+00 -0.45593999997E+02  0.45594000000E+02  0.51100000000E-03 0. -1.
    9900012    2    1    2    0    0 -0.29825904379E+02 -0.23003628937E+02  0.15310570356E+02  0.50528867189E+02  0.30000022307E+02 0.  0.
         12    1    1    2    0    0  0.29825904379E+02  0.23003628937E+02 -0.15310570356E+02  0.40659132811E+02  0.00000000000E+00 0. -1.
         11    1    3    3    0    0 -0.32932074490E+02 -0.11579711111E+02  0.59842261723E+01  0.35417823236E+02  0.51100000000E-03 0. -1.
        -11    1    3    3    0    0  0.59783335350E+00 -0.17985138266E+01  0.10215817463E+01  0.21530643810E+01  0.51100000000E-03 0.  1.
         12    1    3    3    0    0  0.25083367568E+01 -0.96254039998E+01  0.83047624376E+01  0.12957979572E+02  0.00000000000E+00 0. -1.
</event>
<event>
 7    1  0.1381607E-011  0.5052886E+02  0.7816164E-02  0.1300439E+00
        -11   -1    0    0    0    0  0.00000000000E+00  0.00000000000E+00  0.45593999997E+02  0.45594000000E+02  0.51100000000E-03 0.  1.
         11   -1    0    0    0    0 -0.00000000000E+00 -0.00000000000E+00 -0.45593999997E+02  0.45594000000E+02  0.51100000000E-03 0. -1.
    9900012    2    1    2    0    0 -0.64990129500E+01  0.24348685082E+01  0.40062451863E+02  0.50528858307E+02  0.29999995310E+02 0.  0.
         12    1    1    2    0    0  0.64990129500E+01 -0.24348685082E+01 -0.40062451863E+02  0.40659141693E+02  0.00000000000E+00 0. -1.
         11    1    3    3    0    0 -0.74690954146E+01 -0.66981548060E+01  0.25793025254E+02  0.27675491254E+02  0.51100000000E-03 0. -1.
        -11    1    3    3    0    0  0.69145127117E+01  0.89213441190E+01  0.12033874084E+02  0.16498939137E+02  0.51100000000E-03 0.  1.
        -12    1    3    3    0    0 -0.59444302471E+01  0.21167919515E+00  0.22355525243E+01  0.63544279155E+01  0.00000000000E+00 0.  1.
</event>
<event>
 7    1  0.1381607E-011  0.5052887E+02  0.7816164E-02  0.1300439E+00
        -11   -1    0    0    0    0  0.00000000000E+00  0.00000000000E+00  0.45593999997E+02  0.45594000000E+02  0.51100000000E-03 0.  1.
         11   -1    0    0    0    0 -0.00000000000E+00 -0.00000000000E+00 -0.45593999997E+02  0.45594000000E+02  0.51100000000E-03 0. -1.
    9900012    2    1    2    0    0  0.25118438872E+02  0.13408142788E+02  0.29025002498E+02  0.50528867762E+02  0.30000024048E+02 0.  0.
         12    1    1    2    0    0 -0.25118438872E+02 -0.13408142788E+02 -0.29025002498E+02  0.40659132238E+02  0.00000000000E+00 0. -1.
         11    1    3    3    0    0  0.22229535287E+01  0.13007584570E+02  0.12791836269E+02  0.18378516102E+02  0.51100000000E-03 0. -1.
        -11    1    3    3    0    0 -0.42304524466E+00  0.68860676441E+00 -0.22518293229E+01  0.23924636080E+01  0.51100000000E-03 0.  1.
        -12    1    3    3    0    0  0.23318530588E+02 -0.28804854616E+00  0.18484995552E+02  0.29757888051E+02  0.00000000000E+00 0.  1.
</event>
<event>
 7    1  0.1381607E-011  0.5052886E+02  0.7816164E-02  0.1300439E+00
        -11   -1    0    0    0    0  0.00000000000E+00  0.00000000000E+00  0.45593999997E+02  0.45594000000E+02  0.51100000000E-03 0.  1.
         11   -1    0    0    0    0 -0.00000000000E+00 -0.00000000000E+00 -0.45593999997E+02  0.45594000000E+02  0.51100000000E-03 0. -1.
    9900012    2    1    2    0    0  0.32683989202E+02  0.23924996308E+02  0.35379022094E+01  0.50528863874E+02  0.30000012231E+02 0.  0.
         12    1    1    2    0    0 -0.32683989202E+02 -0.23924996308E+02 -0.35379022094E+01  0.40659136126E+02  0.00000000000E+00 0. -1.
         11    1    3    3    0    0  0.40297411217E+01 -0.30451916840E+01 -0.37027676123E+01  0.62627864527E+01  0.51100000000E-03 0. -1.
        -11    1    3    3    0    0  0.21484202159E+02  0.17499934676E+02 -0.38977720724E+01  0.27982338778E+02  0.51100000000E-03 0.  1.
         12    1    3    3    0    0  0.71700459206E+01  0.94702533160E+01  0.11138441894E+02  0.16283738643E+02  0.00000000000E+00 0. -1.
</event>
<event>
 7    1  0.1381607E-011  0.5052886E+02  0.7816164E-02  0.1300439E+00
        -11   -1    0    0    0    0  0.00000000000E+00  0.00000000000E+00  0.45593999997E+02  0.45594000000E+02  0.51100000000E-03 0.  1.
         11   -1    0    0    0    0 -0.00000000000E+00 -0.00000000000E+00 -0.45593999997E+02  0.45594000000E+02  0.51100000000E-03 0. -1.
    9900012    2    1    2    0    0 -0.11769600607E+01  0.29630625638E+02 -0.27817376492E+02  0.50528860245E+02  0.30000001202E+02 0.  0.
         12    1    1    2    0    0  0.11769600607E+01 -0.29630625638E+02  0.27817376492E+02  0.40659139755E+02  0.00000000000E+00 0. -1.
         11    1    3    3    0    0  0.20493351770E+01 -0.48893393968E+01 -0.36379223093E+01  0.64296106721E+01  0.51100000000E-03 0. -1.
        -11    1    3    3    0    0 -0.31762971482E+01  0.54094919599E+01 -0.97878723030E+01  0.11625571441E+02  0.51100000000E-03 0.  1.
        -12    1    3    3    0    0 -0.49998089511E-01  0.29110473075E+02 -0.14391581880E+02  0.32473678133E+02  0.00000000000E+00 0.  1.
</event>
<event>
 7    1  0.1381607E-011  0.5052886E+02  0.7816164E-02  0.1300439E+00
        -11   -1    0    0    0    0  0.00000000000E+00  0.00000000000E+00  0.45593999997E+02  0.45594000000E+02  0.51100000000E-03 0.  1.
         11   -1    0    0    0    0 -0.00000000000E+00 -0.00000000000E+00 -0.45593999997E+02  0.45594000000E+02  0.51100000000E-03 0. -1.
    9900012    2    1    2    0    0  0.17107858882E+02 -0.19831321261E+02  0.31099929214E+02  0.50528859139E+02  0.29999997838E+02 0.  0.
         12    1    1    2    0    0 -0.17107858882E+02  0.19831321261E+02 -0.31099929214E+02  0.40659140861E+02  0.00000000000E+00 0. -1.
         11    1    3    3    0    0  0.16353490907E+02 -0.22188291682E+02  0.20716899034E+02  0.34481108718E+02  0.51100000000E-03 0. -1.
        -11    1    3    3    0    0  0.16184002649E+01 -0.16541504004E+01  0.11551870811E+02  0.11781390091E+02  0.51100000000E-03 0.  1.
        -12    1    3    3    0    0 -0.86403228986E+00  0.40111208212E+01 -0.11688406318E+01  0.42663603297E+01  0.00000000000E+00 0.  1.
</event>
<event>
 7    1  0.1381607E-011  0.5052886E+02  0.7816164E-02  0.1300439E+00
        -11   -1    0    0    0    0  0.00000000000E+00  0.00000000000E+00  0.45593999997E+02  0.45594000000E+02  0.51100000000E-03 0.  1.
         11   -1    0    0    0    0 -0.00000000000E+00 -0.00000000000E+00 -0.45593999997E+02  0.45594000000E+02  0.51100000000E-03 0. -1.
    9900012    2    1    2    0    0  0.37665475503E+02 -0.13560101324E+02 -0.71134604109E+01  0.50528859431E+02  0.29999998726E+02 0.  0.
         12    1    1    2    0    0 -0.37665475503E+02  0.13560101324E+02  0.71134604109E+01  0.40659140569E+02  0.00000000000E+00 0. -1.
         11    1    3    3    0    0  0.12698586254E+02  0.70680033521E+00  0.48087572117E+01  0.13596977817E+02  0.51100000000E-03 0. -1.
        -11    1    3    3    0    0  0.26018718799E+02 -0.15391859176E+02 -0.60096844009E+01  0.30822059692E+02  0.51100000000E-03 0.  1.
         12    1    3    3    0    0 -0.10518295497E+01  0.11249575170E+01 -0.59125332216E+01  0.61098219216E+01  0.00000000000E+00 0. -1.
</event>
<event>
 7    1  0.1381607E-011  0.5052886E+02  0.7816164E-02  0.1300439E+00
        -11   -1    0    0    0    0  0.00000000000E+00  0.00000000000E+00  0.45593999997E+02  0.45594000000E+02  0.51100000000E-03 0.  1.
         11   -1    0    0    0    0 -0.00000000000E+00 -0.00000000000E+00 -0.45593999997E+02  0.45594000000E+02  0.51100000000E-03 0. -1.
    9900012    2    1    2    0    0 -0.31763549635E+02  0.14429141888E+02  0.20881633891E+02  0.50528857670E+02  0.29999993374E+02 0.  0.
         12    1    1    2    0    0  0.31763549635E+02 -0.14429141888E+02 -0.20881633891E+02  0.40659142330E+02  0.00000000000E+00 0. -1.
         11    1    3    3    0    0 -0.25413621662E+01  0.12489544819E+02  0.91450560909E+01  0.15686915012E+02  0.51100000000E-03 0. -1.
        -11    1    3    3    0    0  0.14295908488E+00 -0.26482676713E+01 -0.50232386322E+00  0.26992755479E+01  0.51100000000E-03 0.  1.
        -12    1    3    3    0    0 -0.29365146554E+02  0.45878647406E+01  0.12238901663E+02  0.32142667110E+02  0.00000000000E+00 0.  1.
</event>
<event>
 7    1  0.1381607E-011  0.5052886E+02  0.7816164E-02  0.1300439E+00
        -11   -1    0    0    0    0  0.00000000000E+00  0.00000000000E+00  0.45593999997E+02  0.45594000000E+02  0.51100000000E-03 0. -1.
         11   -1    0    0    0    0 -0.00000000000E+00 -0.00000000000E+00 -0.45593999997E+02  0.45594000000E+02  0.51100000000E-03 0.  1.
    9900012    2    1    2    0    0  0.16080070945E+02 -0.27558466601E+02  0.25201743971E+02  0.50528860042E+02  0.30000000583E+02 0.  0.
         12    1    1    2    0    0 -0.16080070945E+02  0.27558466601E+02 -0.25201743971E+02  0.40659139958E+02  0.00000000000E+00 0. -1.
         11    1    3    3    0    0  0.67947246393E+01 -0.59177462158E+01  0.21014355147E+00  0.90128887584E+01  0.51100000000E-03 0. -1.
        -11    1    3    3    0    0  0.13653819383E+02 -0.24077733174E+02  0.18384335179E+02  0.33228719487E+02  0.51100000000E-03 0.  1.
        -12    1    3    3    0    0 -0.43684730777E+01  0.24370127892E+01  0.66072652409E+01  0.82872517960E+01  0.00000000000E+00 0.  1.
</event>
<event>
 7    1  0.1381607E-011  0.5052886E+02  0.7816164E-02  0.1300439E+00
        -11   -1    0    0    0    0  0.00000000000E+00  0.00000000000E+00  0.45593999997E+02  0.45594000000E+02  0.51100000000E-03 0.  1.
         11   -1    0    0    0    0 -0.00000000000E+00 -0.00000000000E+00 -0.45593999997E+02  0.45594000000E+02  0.51100000000E-03 0. -1.
    9900012    2    1    2    0    0 -0.83756743309E+01  0.35787826659E+02 -0.17385195341E+02  0.50528862349E+02  0.30000007595E+02 0.  0.
         12    1    1    2    0    0  0.83756743309E+01 -0.35787826659E+02  0.17385195341E+02  0.40659137651E+02  0.00000000000E+00 0. -1.
         11    1    3    3    0    0  0.52991462783E+00  0.76684562630E+01  0.38454631942E+01  0.85949763472E+01  0.51100000000E-03 0. -1.
        -11    1    3    3    0    0 -0.13845435020E+02  0.93486232878E+01 -0.87646115883E+01  0.18865610110E+02  0.51100000000E-03 0.  1.
         12    1    3    3    0    0  0.49398460611E+01  0.18770747109E+02 -0.12466046947E+02  0.23068275892E+02  0.00000000000E+00 0. -1.
</event>
<event>
 7    1  0.1381607E-011  0.5052885E+02  0.7816164E-02  0.1300439E+00
        -11   -1    0    0    0    0  0.00000000000E+00  0.00000000000E+00  0.45593999997E+02  0.45594000000E+02  0.51100000000E-03 0.  1.
         11   -1    0    0    0    0 -0.00000000000E+00 -0.00000000000E+00 -0.45593999997E+02  0.45594000000E+02  0.51100000000E-03 0. -1.
    9900012    2    1    2    0    0 -0.97356003672E+01 -0.33127136364E+02  0.21470388225E+02  0.50528847909E+02  0.29999963704E+02 0.  0.
         12    1    1    2    0    0  0.97356003672E+01  0.33127136364E+02 -0.21470388225E+02  0.40659152091E+02  0.00000000000E+00 0. -1.
         11    1    3    3    0    0 -0.59299985217E+01 -0.21514512105E+02  0.10699555301E+02  0.24749133267E+02  0.51100000000E-03 0. -1.
        -11    1    3    3    0    0 -0.71355312196E+01 -0.87840058813E+01  0.15596616481E+02  0.19269899092E+02  0.51100000000E-03 0.  1.
         12    1    3    3    0    0  0.33299293741E+01 -0.28286183779E+01 -0.48257835557E+01  0.65098155497E+01  0.00000000000E+00 0. -1.
</event>
<event>
 7    1  0.1381607E-011  0.5052886E+02  0.7816164E-02  0.1300439E+00
        -11   -1    0    0    0    0  0.00000000000E+00  0.00000000000E+00  0.45593999997E+02  0.45594000000E+02  0.51100000000E-03 0.  1.
         11   -1    0    0    0    0 -0.00000000000E+00 -0.00000000000E+00 -0.45593999997E+02  0.45594000000E+02  0.51100000000E-03 0. -1.
    9900012    2    1    2    0    0 -0.35501005242E+02 -0.15750604310E+02 -0.12031736497E+02  0.50528860899E+02  0.30000003188E+02 0.  0.
         12    1    1    2    0    0  0.35501005242E+02  0.15750604310E+02  0.12031736497E+02  0.40659139101E+02  0.00000000000E+00 0. -1.
         11    1    3    3    0    0 -0.38605061539E+01 -0.11095644302E+01 -0.77283832411E+01  0.87099109509E+01  0.51100000000E-03 0. -1.
        -11    1    3    3    0    0 -0.28194236414E+02 -0.20055962445E+02 -0.61449947648E+01  0.35141393789E+02  0.51100000000E-03 0.  1.
         12    1    3    3    0    0 -0.34462626743E+01  0.54149225648E+01  0.18416415086E+01  0.66775561585E+01  0.00000000000E+00 0. -1.
</event>
<event>
 7    1  0.1381607E-011  0.5052886E+02  0.7816164E-02  0.1300439E+00
        -11   -1    0    0    0    0  0.00000000000E+00  0.00000000000E+00  0.45593999997E+02  0.45594000000E+02  0.51100000000E-03 0.  1.
         11   -1    0    0    0    0 -0.00000000000E+00 -0.00000000000E+00 -0.45593999997E+02  0.45594000000E+02  0.51100000000E-03 0. -1.
    9900012    2    1    2    0    0 -0.26114868472E+02  0.13955435991E+02  0.27864399195E+02  0.50528864599E+02  0.30000014436E+02 0.  0.
         12    1    1    2    0    0  0.26114868472E+02 -0.13955435991E+02 -0.27864399195E+02  0.40659135401E+02  0.00000000000E+00 0. -1.
         11    1    3    3    0    0 -0.35810101338E+01  0.94624144120E+01  0.52078477723E+01  0.11379042085E+02  0.51100000000E-03 0. -1.
        -11    1    3    3    0    0 -0.21757544336E+02  0.52077622145E+01  0.69770023906E+01  0.23434805001E+02  0.51100000000E-03 0.  1.
        -12    1    3    3    0    0 -0.77631400245E+00 -0.71474063536E+00  0.15679549032E+02  0.15715017514E+02  0.00000000000E+00 0.  1.
</event>
<event>
 7    1  0.1381607E-011  0.5052886E+02  0.7816164E-02  0.1300439E+00
        -11   -1    0    0    0    0  0.00000000000E+00  0.00000000000E+00  0.45593999997E+02  0.45594000000E+02  0.51100000000E-03 0.  1.
         11   -1    0    0    0    0 -0.00000000000E+00 -0.00000000000E+00 -0.45593999997E+02  0.45594000000E+02  0.51100000000E-03 0. -1.
    9900012    2    1    2    0    0 -0.84233561551E+01  0.18991875529E+02  0.34950273905E+02  0.50528856981E+02  0.29999991279E+02 0.  0.
         12    1    1    2    0    0  0.84233561551E+01 -0.18991875529E+02 -0.34950273905E+02  0.40659143019E+02  0.00000000000E+00 0. -1.
         11    1    3    3    0    0  0.31358462518E+01  0.17133346067E+01 -0.12114521165E+01  0.37731503656E+01  0.51100000000E-03 0. -1.
        -11    1    3    3    0    0 -0.61070167983E+01  0.21653299710E+02  0.25492456676E+02  0.34000388089E+02  0.51100000000E-03 0.  1.
         12    1    3    3    0    0 -0.54521856087E+01 -0.43747587881E+01  0.10669269345E+02  0.12755318527E+02  0.00000000000E+00 0. -1.
</event>
<event>
 7    1  0.1381607E-011  0.5052886E+02  0.7816164E-02  0.1300439E+00
        -11   -1    0    0    0    0  0.00000000000E+00  0.00000000000E+00  0.45593999997E+02  0.45594000000E+02  0.51100000000E-03 0.  1.
         11   -1    0    0    0    0 -0.00000000000E+00 -0.00000000000E+00 -0.45593999997E+02  0.45594000000E+02  0.51100000000E-03 0. -1.
    9900012    2    1    2    0    0  0.20699279788E+02 -0.70203568078E+01  0.34284402813E+02  0.50528857489E+02  0.29999992825E+02 0.  0.
         12    1    1    2    0    0 -0.20699279788E+02  0.70203568078E+01 -0.34284402813E+02  0.40659142511E+02  0.00000000000E+00 0. -1.
         11    1    3    3    0    0 -0.58625639855E+00 -0.27060261468E+01  0.39456319778E+01  0.48201956431E+01  0.51100000000E-03 0. -1.
        -11    1    3    3    0    0  0.99734272359E+01 -0.13294890310E+01 -0.28998508696E+01  0.10471195120E+02  0.51100000000E-03 0.  1.
        -12    1    3    3    0    0  0.11312108951E+02 -0.29848416299E+01  0.33238621705E+02  0.35237466726E+02  0.00000000000E+00 0.  1.
</event>
<event>
 7    1  0.1381607E-011  0.5052886E+02  0.7816164E-02  0.1300439E+00
        -11   -1    0    0    0    0  0.00000000000E+00  0.00000000000E+00  0.45593999997E+02  0.45594000000E+02  0.51100000000E-03 0.  1.
         11   -1    0    0    0    0 -0.00000000000E+00 -0.00000000000E+00 -0.45593999997E+02  0.45594000000E+02  0.51100000000E-03 0. -1.
    9900012    2    1    2    0    0 -0.18200616383E+00 -0.14090273715E+02  0.38139173165E+02  0.50528862413E+02  0.30000007791E+02 0.  0.
         12    1    1    2    0    0  0.18200616383E+00  0.14090273715E+02 -0.38139173165E+02  0.40659137587E+02  0.00000000000E+00 0. -1.
         11    1    3    3    0    0  0.35905571692E+01  0.39836695910E+01  0.60538124590E+01  0.80876677569E+01  0.51100000000E-03 0. -1.
        -11    1    3    3    0    0  0.19689485516E+01 -0.12240615634E+02  0.31932525688E+02  0.34254862817E+02  0.51100000000E-03 0.  1.
         12    1    3    3    0    0 -0.57415118846E+01 -0.58333276717E+01  0.15283501759E+00  0.81863318397E+01  0.00000000000E+00 0. -1.
</event>
<event>
 7    1  0.1381607E-011  0.5052886E+02  0.7816164E-02  0.1300439E+00
        -11   -1    0    0    0    0  0.00000000000E+00  0.00000000000E+00  0.45593999997E+02  0.45594000000E+02  0.51100000000E-03 0.  1.
         11   -1    0    0    0    0 -0.00000000000E+00 -0.00000000000E+00 -0.45593999997E+02  0.45594000000E+02  0.51100000000E-03 0. -1.
    9900012    2    1    2    0    0 -0.11408893756E+02 -0.15962407401E+02  0.35611854613E+02  0.50528862088E+02  0.30000006801E+02 0.  0.
         12    1    1    2    0    0  0.11408893756E+02  0.15962407401E+02 -0.35611854613E+02  0.40659137912E+02  0.00000000000E+00 0. -1.
         11    1    3    3    0    0  0.17909694422E+01 -0.55990885626E+01  0.51356458430E+01  0.78059094768E+01  0.51100000000E-03 0. -1.
        -11    1    3    3    0    0 -0.15185742333E+02 -0.16666439805E+02  0.27250961496E+02  0.35369363702E+02  0.51100000000E-03 0.  1.
         12    1    3    3    0    0  0.19858791340E+01  0.63031209668E+01  0.32252472744E+01  0.73535889087E+01  0.00000000000E+00 0. -1.
</event>
<event>
 7    1  0.1381607E-011  0.5052886E+02  0.7816164E-02  0.1300439E+00
        -11   -1    0    0    0    0  0.00000000000E+00  0.00000000000E+00  0.45593999997E+02  0.45594000000E+02  0.51100000000E-03 0. -1.
         11   -1    0    0    0    0 -0.00000000000E+00 -0.00000000000E+00 -0.45593999997E+02  0.45594000000E+02  0.51100000000E-03 0.  1.
    9900012    2    1    2    0    0 -0.23577025380E+02  0.32157735118E+02  0.79479449163E+01  0.50528857337E+02  0.29999992361E+02 0.  0.
         12    1    1    2    0    0  0.23577025380E+02 -0.32157735118E+02 -0.79479449163E+01  0.40659142663E+02  0.00000000000E+00 0. -1.
         11    1    3    3    0    0 -0.10641304460E+02  0.14133735031E+01  0.12493825890E+02  0.16472117985E+02  0.51100000000E-03 0. -1.
        -11    1    3    3    0    0 -0.55668421977E+01  0.12820306500E+02  0.65241271954E+00  0.13991984613E+02  0.51100000000E-03 0.  1.
         12    1    3    3    0    0 -0.73688787221E+01  0.17924055115E+02 -0.51982936935E+01  0.20064754739E+02  0.00000000000E+00 0. -1.
</event>
<event>
 7    1  0.1381607E-011  0.5052883E+02  0.7816164E-02  0.1300439E+00
        -11   -1    0    0    0    0  0.00000000000E+00  0.00000000000E+00  0.45593999997E+02  0.45594000000E+02  0.51100000000E-03 0. -1.
         11   -1    0    0    0    0 -0.00000000000E+00 -0.00000000000E+00 -0.45593999997E+02  0.45594000000E+02  0.51100000000E-03 0.  1.
    9900012    2    1    2    0    0 -0.39595916726E+02 -0.29955178229E+00 -0.92326337211E+01  0.50528832792E+02  0.29999917755E+02 0.  0.
         12    1    1    2    0    0  0.39595916726E+02  0.29955178229E+00  0.92326337211E+01  0.40659167208E+02  0.00000000000E+00 0. -1.
         11    1    3    3    0    0 -0.16002766749E+02  0.47215141439E+01 -0.13734444256E+02  0.21610557576E+02  0.51100000000E-03 0. -1.
        -11    1    3    3    0    0 -0.19181076591E+02  0.26897479021E+01  0.10820946615E+01  0.19398952861E+02  0.51100000000E-03 0.  1.
         12    1    3    3    0    0 -0.44120733851E+01 -0.77108138283E+01  0.34197158737E+01  0.95193223554E+01  0.00000000000E+00 0. -1.
</event>
<event>
 7    1  0.1381607E-011  0.5052881E+02  0.7816164E-02  0.1300439E+00
        -11   -1    0    0    0    0  0.00000000000E+00  0.00000000000E+00  0.45593999997E+02  0.45594000000E+02  0.51100000000E-03 0.  1.
         11   -1    0    0    0    0 -0.00000000000E+00 -0.00000000000E+00 -0.45593999997E+02  0.45594000000E+02  0.51100000000E-03 0. -1.
    9900012    2    1    2    0    0  0.47334583953E+01 -0.34673475692E+01  0.40233592244E+02  0.50528805807E+02  0.29999835731E+02 0.  0.
         12    1    1    2    0    0 -0.47334583953E+01  0.34673475692E+01 -0.40233592244E+02  0.40659194193E+02  0.00000000000E+00 0. -1.
         11    1    3    3    0    0  0.29576937569E+01 -0.11845105695E+02  0.71051734191E+01  0.14125790982E+02  0.51100000000E-03 0. -1.
        -11    1    3    3    0    0  0.20301999265E+01 -0.29840253735E+01  0.61876634739E+01  0.71633301403E+01  0.51100000000E-03 0.  1.
         12    1    3    3    0    0 -0.25443528805E+00  0.11361783499E+02  0.26940755351E+02  0.29239684685E+02  0.00000000000E+00 0. -1.
</event>
<event>
 7    1  0.1381607E-011  0.5052886E+02  0.7816164E-02  0.1300439E+00
        -11   -1    0    0    0    0  0.00000000000E+00  0.00000000000E+00  0.45593999997E+02  0.45594000000E+02  0.51100000000E-03 0.  1.
         11   -1    0    0    0    0 -0.00000000000E+00 -0.00000000000E+00 -0.45593999997E+02  0.45594000000E+02  0.51100000000E-03 0. -1.
    9900012    2    1    2    0    0 -0.14315416935E+02 -0.25879516597E+02  0.27901348564E+02  0.50528858432E+02  0.29999995690E+02 0.  0.
         12    1    1    2    0    0  0.14315416935E+02  0.25879516597E+02 -0.27901348564E+02  0.40659141568E+02  0.00000000000E+00 0. -1.
         11    1    3    3    0    0 -0.32160126265E+01 -0.15932286204E+02  0.15033189956E+02  0.22139947638E+02  0.51100000000E-03 0. -1.
        -11    1    3    3    0    0 -0.10085819855E+02 -0.15625002804E+02  0.62713729009E+01  0.19626374935E+02  0.51100000000E-03 0.  1.
         12    1    3    3    0    0 -0.10135844540E+01  0.56777724113E+01  0.65967857080E+01  0.87625358588E+01  0.00000000000E+00 0. -1.
</event>
<event>
 7    1  0.1381607E-011  0.5052887E+02  0.7816164E-02  0.1300439E+00
        -11   -1    0    0    0    0  0.00000000000E+00  0.00000000000E+00  0.45593999997E+02  0.45594000000E+02  0.51100000000E-03 0.  1.
         11   -1    0    0    0    0 -0.00000000000E+00 -0.00000000000E+00 -0.45593999997E+02  0.45594000000E+02  0.51100000000E-03 0. -1.
    9900012    2    1    2    0    0 -0.27252923062E+02  0.90039173903E+01  0.28798822896E+02  0.50528873792E+02  0.30000042379E+02 0.  0.
         12    1    1    2    0    0  0.27252923062E+02 -0.90039173903E+01 -0.28798822896E+02  0.40659126208E+02  0.00000000000E+00 0. -1.
         11    1    3    3    0    0 -0.33632582005E+01  0.74719817553E+01  0.14925980160E+02  0.17027239972E+02  0.51100000000E-03 0.  1.
        -11    1    3    3    0    0 -0.29750849973E+01 -0.62390400664E+01  0.77095427940E+01  0.10354409787E+02  0.51100000000E-03 0. -1.
         12    1    3    3    0    0 -0.20914579864E+02  0.77709757014E+01  0.61632999422E+01  0.23147224033E+02  0.00000000000E+00 0. -1.
</event>
<event>
 7    1  0.1381607E-011  0.5052886E+02  0.7816164E-02  0.1300439E+00
        -11   -1    0    0    0    0  0.00000000000E+00  0.00000000000E+00  0.45593999997E+02  0.45594000000E+02  0.51100000000E-03 0.  1.
         11   -1    0    0    0    0 -0.00000000000E+00 -0.00000000000E+00 -0.45593999997E+02  0.45594000000E+02  0.51100000000E-03 0. -1.
    9900012    2    1    2    0    0 -0.18135858731E+02 -0.11151235845E+02  0.34639663476E+02  0.50528859349E+02  0.29999998477E+02 0.  0.
         12    1    1    2    0    0  0.18135858731E+02  0.11151235845E+02 -0.34639663476E+02  0.40659140651E+02  0.00000000000E+00 0. -1.
         11    1    3    3    0    0 -0.10305063629E+02 -0.12203592235E+02  0.66089252815E+01  0.17285829268E+02  0.51100000000E-03 0. -1.
        -11    1    3    3    0    0  0.42006334679E+01 -0.24298990098E+01  0.46623374357E+01  0.67295706665E+01  0.51100000000E-03 0.  1.
        -12    1    3    3    0    0 -0.12031428570E+02  0.34822554002E+01  0.23368400759E+02  0.26513459414E+02  0.00000000000E+00 0.  1.
</event>
<event>
 7    1  0.1381607E-011  0.5052885E+02  0.7816164E-02  0.1300439E+00
        -11   -1    0    0    0    0  0.00000000000E+00  0.00000000000E+00  0.45593999997E+02  0.45594000000E+02  0.51100000000E-03 0. -1.
         11   -1    0    0    0    0 -0.00000000000E+00 -0.00000000000E+00 -0.45593999997E+02  0.45594000000E+02  0.51100000000E-03 0.  1.
    9900012    2    1    2    0    0 -0.34206239811E+02  0.27821949680E+01 -0.21802735220E+02  0.50528847108E+02  0.29999961268E+02 0.  0.
         12    1    1    2    0    0  0.34206239811E+02 -0.27821949680E+01  0.21802735220E+02  0.40659152892E+02  0.00000000000E+00 0. -1.
         11    1    3    3    0    0 -0.24385512825E+02  0.50784384636E+01 -0.33714069933E+01  0.25135834149E+02  0.51100000000E-03 0. -1.
        -11    1    3    3    0    0 -0.12975436314E+02  0.39332394233E+00 -0.11636780622E+02  0.17433625978E+02  0.51100000000E-03 0.  1.
         12    1    3    3    0    0  0.31547093278E+01 -0.26895674380E+01 -0.67945476051E+01  0.79593869804E+01  0.00000000000E+00 0. -1.
</event>
<event>
 7    1  0.1381607E-011  0.5052886E+02  0.7816164E-02  0.1300439E+00
        -11   -1    0    0    0    0  0.00000000000E+00  0.00000000000E+00  0.45593999997E+02  0.45594000000E+02  0.51100000000E-03 0.  1.
         11   -1    0    0    0    0 -0.00000000000E+00 -0.00000000000E+00 -0.45593999997E+02  0.45594000000E+02  0.51100000000E-03 0. -1.
    9900012    2    1    2    0    0  0.94593627117E+01 -0.29135837786E+02  0.26735539042E+02  0.50528860385E+02  0.30000001626E+02 0.  0.
         12    1    1    2    0    0 -0.94593627117E+01  0.29135837786E+02 -0.26735539042E+02  0.40659139615E+02  0.00000000000E+00 0. -1.
         11    1    3    3    0    0  0.80813314784E+01 -0.47379529058E+01 -0.15758793235E+01  0.94994479894E+01  0.51100000000E-03 0. -1.
        -11    1    3    3    0    0  0.71794729931E+01 -0.44723601166E+01  0.11751947404E+02  0.14479471866E+02  0.51100000000E-03 0.  1.
         12    1    3    3    0    0 -0.58014417598E+01 -0.19925524764E+02  0.16559470961E+02  0.26549940529E+02  0.00000000000E+00 0. -1.
</event>
<event>
 7    1  0.1381607E-011  0.5052886E+02  0.7816164E-02  0.1300439E+00
        -11   -1    0    0    0    0  0.00000000000E+00  0.00000000000E+00  0.45593999997E+02  0.45594000000E+02  0.51100000000E-03 0.  1.
         11   -1    0    0    0    0 -0.00000000000E+00 -0.00000000000E+00 -0.45593999997E+02  0.45594000000E+02  0.51100000000E-03 0. -1.
    9900012    2    1    2    0    0 -0.23643577925E+02 -0.14320684007E+02  0.29817191325E+02  0.50528859994E+02  0.30000000438E+02 0.  0.
         12    1    1    2    0    0  0.23643577925E+02  0.14320684007E+02 -0.29817191325E+02  0.40659140006E+02  0.00000000000E+00 0. -1.
         11    1    3    3    0    0 -0.22060673171E+01 -0.17654970885E+02  0.10019332319E+02  0.20419396424E+02  0.51100000000E-03 0.  1.
        -11    1    3    3    0    0 -0.64274394292E+01  0.22823048015E+01  0.27055370032E+01  0.73376306503E+01  0.51100000000E-03 0. -1.
        -12    1    3    3    0    0 -0.15010071178E+02  0.10519820764E+01  0.17092322003E+02  0.22771832919E+02  0.00000000000E+00 0.  1.
</event>
<event>
 7    1  0.1381607E-011  0.5052886E+02  0.7816164E-02  0.1300439E+00
        -11   -1    0    0    0    0  0.00000000000E+00  0.00000000000E+00  0.45593999997E+02  0.45594000000E+02  0.51100000000E-03 0.  1.
         11   -1    0    0    0    0 -0.00000000000E+00 -0.00000000000E+00 -0.45593999997E+02  0.45594000000E+02  0.51100000000E-03 0. -1.
    9900012    2    1    2    0    0  0.10955036979E+02 -0.14334833164E+02  0.36437144377E+02  0.50528858747E+02  0.29999996648E+02 0.  0.
         12    1    1    2    0    0 -0.10955036979E+02  0.14334833164E+02 -0.36437144377E+02  0.40659141253E+02  0.00000000000E+00 0. -1.
         11    1    3    3    0    0 -0.24627739325E+01 -0.63703712510E+01  0.17754181737E+02  0.19022561729E+02  0.51100000000E-03 0. -1.
        -11    1    3    3    0    0  0.25161576162E+01 -0.10358049896E+02  0.17216346637E+02  0.20249020682E+02  0.51100000000E-03 0.  1.
         12    1    3    3    0    0  0.10901653295E+02  0.23935879823E+01  0.14666160022E+01  0.11257276336E+02  0.00000000000E+00 0. -1.
</event>
<event>
 7    1  0.1381607E-011  0.5052886E+02  0.7816164E-02  0.1300439E+00
        -11   -1    0    0    0    0  0.00000000000E+00  0.00000000000E+00  0.45593999997E+02  0.45594000000E+02  0.51100000000E-03 0.  1.
         11   -1    0    0    0    0 -0.00000000000E+00 -0.00000000000E+00 -0.45593999997E+02  0.45594000000E+02  0.51100000000E-03 0. -1.
    9900012    2    1    2    0    0  0.14172031082E+02 -0.29398269681E+02  0.24249969897E+02  0.50528858774E+02  0.29999996729E+02 0.  0.
         12    1    1    2    0    0 -0.14172031082E+02  0.29398269681E+02 -0.24249969897E+02  0.40659141226E+02  0.00000000000E+00 0. -1.
         11    1    3    3    0    0  0.14859949326E+01 -0.35664157641E+01  0.17497549578E+02  0.17919033005E+02  0.51100000000E-03 0. -1.
        -11    1    3    3    0    0  0.81150279612E+01 -0.20020724474E+02  0.10831044932E+02  0.24165980673E+02  0.51100000000E-03 0.  1.
         12    1    3    3    0    0  0.45710081887E+01 -0.58111294430E+01 -0.40786246136E+01  0.84438450958E+01  0.00000000000E+00 0. -1.
</event>
<event>
 7    1  0.1381607E-011  0.5052887E+02  0.7816164E-02  0.1300439E+00
        -11   -1    0    0    0    0  0.00000000000E+00  0.00000000000E+00  0.45593999997E+02  0.45594000000E+02  0.51100000000E-03 0.  1.
         11   -1    0    0    0    0 -0.00000000000E+00 -0.00000000000E+00 -0.45593999997E+02  0.45594000000E+02  0.51100000000E-03 0. -1.
    9900012    2    1    2    0    0 -0.20819954100E+02 -0.25946592891E+02  0.23376665879E+02  0.50528872132E+02  0.30000037332E+02 0.  0.
         12    1    1    2    0    0  0.20819954100E+02  0.25946592891E+02 -0.23376665879E+02  0.40659127868E+02  0.00000000000E+00 0. -1.
         11    1    3    3    0    0  0.39550335344E+01 -0.98248852309E+01  0.33690898983E+01  0.11114019393E+02  0.51100000000E-03 0. -1.
        -11    1    3    3    0    0 -0.13250356592E+02 -0.99264406985E+01  0.20463962911E+02  0.26322612960E+02  0.51100000000E-03 0.  1.
        -12    1    3    3    0    0 -0.11524631043E+02 -0.61952669614E+01 -0.45638693024E+00  0.13092239779E+02  0.00000000000E+00 0.  1.
</event>
<event>
 7    1  0.1381607E-011  0.5052889E+02  0.7816164E-02  0.1300439E+00
        -11   -1    0    0    0    0  0.00000000000E+00  0.00000000000E+00  0.45593999997E+02  0.45594000000E+02  0.51100000000E-03 0. -1.
         11   -1    0    0    0    0 -0.00000000000E+00 -0.00000000000E+00 -0.45593999997E+02  0.45594000000E+02  0.51100000000E-03 0.  1.
    9900012    2    1    2    0    0  0.28138133050E+02 -0.27077935768E+02  0.11322276779E+02  0.50528891691E+02  0.30000096784E+02 0.  0.
         12    1    1    2    0    0 -0.28138133050E+02  0.27077935768E+02 -0.11322276779E+02  0.40659108309E+02  0.00000000000E+00 0. -1.
         11    1    3    3    0    0 -0.11342477771E+01 -0.10977082756E+02  0.31933642146E+01  0.11488273983E+02  0.51100000000E-03 0. -1.
        -11    1    3    3    0    0  0.57778726350E+00  0.19835585065E+01 -0.27329056740E+01  0.34259474827E+01  0.51100000000E-03 0.  1.
         12    1    3    3    0    0  0.28694593564E+02 -0.18084411519E+02  0.10861818238E+02  0.35614670225E+02  0.00000000000E+00 0. -1.
</event>
<event>
 7    1  0.1381607E-011  0.5052886E+02  0.7816164E-02  0.1300439E+00
        -11   -1    0    0    0    0  0.00000000000E+00  0.00000000000E+00  0.45593999997E+02  0.45594000000E+02  0.51100000000E-03 0.  1.
         11   -1    0    0    0    0 -0.00000000000E+00 -0.00000000000E+00 -0.45593999997E+02  0.45594000000E+02  0.51100000000E-03 0. -1.
    9900012    2    1    2    0    0 -0.19358239717E+02  0.35397700545E+02  0.50425352016E+01  0.50528858222E+02  0.29999995053E+02 0.  0.
         12    1    1    2    0    0  0.19358239717E+02 -0.35397700545E+02 -0.50425352016E+01  0.40659141778E+02  0.00000000000E+00 0. -1.
         11    1    3    3    0    0  0.23232506573E+01  0.95737263565E+01  0.71767951984E+01  0.12188524092E+02  0.51100000000E-03 0. -1.
        -11    1    3    3    0    0 -0.17068459095E+02  0.26511016902E+02 -0.62221640124E+01  0.32138475980E+02  0.51100000000E-03 0.  1.
         12    1    3    3    0    0 -0.46130312792E+01 -0.68704271353E+00  0.40879040156E+01  0.62018581501E+01  0.00000000000E+00 0. -1.
</event>
<event>
 7    1  0.1381607E-011  0.5052892E+02  0.7816164E-02  0.1300439E+00
        -11   -1    0    0    0    0  0.00000000000E+00  0.00000000000E+00  0.45593999997E+02  0.45594000000E+02  0.51100000000E-03 0.  1.
         11   -1    0    0    0    0 -0.00000000000E+00 -0.00000000000E+00 -0.45593999997E+02  0.45594000000E+02  0.51100000000E-03 0. -1.
    9900012    2    1    2    0    0 -0.41873572836E+00 -0.39997310452E+02  0.72938534792E+01  0.50528923749E+02  0.30000194227E+02 0.  0.
         12    1    1    2    0    0  0.41873572836E+00  0.39997310452E+02 -0.72938534792E+01  0.40659076251E+02  0.00000000000E+00 0. -1.
         11    1    3    3    0    0 -0.24810990316E+01  0.23940368858E+01  0.21731751564E+01  0.40755313196E+01  0.51100000000E-03 0. -1.
        -11    1    3    3    0    0 -0.24932545592E+01 -0.17858665882E+02  0.10586247952E+02  0.20909732455E+02  0.51100000000E-03 0.  1.
         12    1    3    3    0    0  0.45556178624E+01 -0.24532681456E+02 -0.54655696289E+01  0.25543659975E+02  0.00000000000E+00 0. -1.
</event>
<event>
 7    1  0.1381607E-011  0.5052885E+02  0.7816164E-02  0.1300439E+00
        -11   -1    0    0    0    0  0.00000000000E+00  0.00000000000E+00  0.45593999997E+02  0.45594000000E+02  0.51100000000E-03 0. -1.
         11   -1    0    0    0    0 -0.00000000000E+00 -0.00000000000E+00 -0.45593999997E+02  0.45594000000E+02  0.51100000000E-03 0.  1.
    9900012    2    1    2    0    0  0.17038039916E+02 -0.60496614729E+01 -0.36418031225E+02  0.50528853349E+02  0.29999980238E+02 0.  0.
         12    1    1    2    0    0 -0.17038039916E+02  0.60496614729E+01  0.36418031225E+02  0.40659146651E+02  0.00000000000E+00 0. -1.
         11    1    3    3    0    0  0.34895284003E+01  0.60509549121E+00 -0.21323878615E+01  0.41340086192E+01  0.51100000000E-03 0. -1.
        -11    1    3    3    0    0  0.18625900970E+02  0.41785049855E+01 -0.18450622344E+02  0.26548249585E+02  0.51100000000E-03 0.  1.
        -12    1    3    3    0    0 -0.50773894549E+01 -0.10833261950E+02 -0.15835021019E+02  0.19846595144E+02  0.00000000000E+00 0.  1.
</event>
<event>
 7    1  0.1381607E-011  0.5052888E+02  0.7816164E-02  0.1300439E+00
        -11   -1    0    0    0    0  0.00000000000E+00  0.00000000000E+00  0.45593999997E+02  0.45594000000E+02  0.51100000000E-03 0.  1.
         11   -1    0    0    0    0 -0.00000000000E+00 -0.00000000000E+00 -0.45593999997E+02  0.45594000000E+02  0.51100000000E-03 0. -1.
    9900012    2    1    2    0    0  0.72749397102E+01 -0.23071888667E+02  0.32679155039E+02  0.50528880869E+02  0.30000063889E+02 0.  0.
         12    1    1    2    0    0 -0.72749397102E+01  0.23071888667E+02 -0.32679155039E+02  0.40659119131E+02  0.00000000000E+00 0. -1.
         11    1    3    3    0    0 -0.30114814351E+01  0.24759935196E+01  0.10126633586E+01  0.40280332275E+01  0.51100000000E-03 0. -1.
        -11    1    3    3    0    0 -0.86973030809E+00 -0.15708811792E+02  0.60053019362E+01  0.16840037123E+02  0.51100000000E-03 0.  1.
        -12    1    3    3    0    0  0.11156151453E+02 -0.98390703951E+01  0.25661189744E+02  0.29660810518E+02  0.00000000000E+00 0.  1.
</event>
<event>
 7    1  0.1381607E-011  0.5052885E+02  0.7816164E-02  0.1300439E+00
        -11   -1    0    0    0    0  0.00000000000E+00  0.00000000000E+00  0.45593999997E+02  0.45594000000E+02  0.51100000000E-03 0. -1.
         11   -1    0    0    0    0 -0.00000000000E+00 -0.00000000000E+00 -0.45593999997E+02  0.45594000000E+02  0.51100000000E-03 0.  1.
    9900012    2    1    2    0    0 -0.39930271790E+02  0.69569974994E+01 -0.32155365058E+01  0.50528854725E+02  0.29999984423E+02 0.  0.
         12    1    1    2    0    0  0.39930271790E+02 -0.69569974994E+01  0.32155365058E+01  0.40659145275E+02  0.00000000000E+00 0. -1.
         11    1    3    3    0    0 -0.81291792083E+01  0.58606358244E+00 -0.60544416004E+01  0.10152994065E+02  0.51100000000E-03 0. -1.
        -11    1    3    3    0    0 -0.28814503432E+02 -0.43547451110E+01  0.21433283222E+01  0.29220425555E+02  0.51100000000E-03 0.  1.
         12    1    3    3    0    0 -0.29865891496E+01  0.10725679028E+02  0.69557677248E+00  0.11155435106E+02  0.00000000000E+00 0. -1.
</event>
<event>
 7    1  0.1381607E-011  0.5052885E+02  0.7816164E-02  0.1300439E+00
        -11   -1    0    0    0    0  0.00000000000E+00  0.00000000000E+00  0.45593999997E+02  0.45594000000E+02  0.51100000000E-03 0.  1.
         11   -1    0    0    0    0 -0.00000000000E+00 -0.00000000000E+00 -0.45593999997E+02  0.45594000000E+02  0.51100000000E-03 0. -1.
    9900012    2    1    2    0    0  0.16352397326E+02 -0.17736937980E+02  0.32728675898E+02  0.50528854741E+02  0.29999984470E+02 0.  0.
         12    1    1    2    0    0 -0.16352397326E+02  0.17736937980E+02 -0.32728675898E+02  0.40659145259E+02  0.00000000000E+00 0. -1.
         11    1    3    3    0    0  0.24259705198E+01 -0.54025203052E+01 -0.14664730710E+00  0.59240243336E+01  0.51100000000E-03 0. -1.
        -11    1    3    3    0    0  0.27049242651E+01  0.68845168559E+01  0.49687382764E+01  0.89107546223E+01  0.51100000000E-03 0.  1.
        -12    1    3    3    0    0  0.11221502541E+02 -0.19218934530E+02  0.27906584929E+02  0.35694075785E+02  0.00000000000E+00 0.  1.
</event>
<event>
 7    1  0.1381607E-011  0.5052885E+02  0.7816164E-02  0.1300439E+00
        -11   -1    0    0    0    0  0.00000000000E+00  0.00000000000E+00  0.45593999997E+02  0.45594000000E+02  0.51100000000E-03 0. -1.
         11   -1    0    0    0    0 -0.00000000000E+00 -0.00000000000E+00 -0.45593999997E+02  0.45594000000E+02  0.51100000000E-03 0.  1.
    9900012    2    1    2    0    0  0.19854650955E+02  0.34531243574E+02 -0.81579831116E+01  0.50528848069E+02  0.29999964190E+02 0.  0.
         12    1    1    2    0    0 -0.19854650955E+02 -0.34531243574E+02  0.81579831116E+01  0.40659151931E+02  0.00000000000E+00 0. -1.
         11    1    3    3    0    0  0.19071328526E+00 -0.10954631176E+01 -0.26141605008E+01  0.28408179076E+01  0.51100000000E-03 0. -1.
        -11    1    3    3    0    0  0.19076154639E+02  0.14210741669E+02 -0.10002532504E+02  0.25804951295E+02  0.51100000000E-03 0.  1.
        -12    1    3    3    0    0  0.58778303131E+00  0.21415965023E+02  0.44587098931E+01  0.21883078866E+02  0.00000000000E+00 0.  1.
</event>
<event>
 7    1  0.1381607E-011  0.5052886E+02  0.7816164E-02  0.1300439E+00
        -11   -1    0    0    0    0  0.00000000000E+00  0.00000000000E+00  0.45593999997E+02  0.45594000000E+02  0.51100000000E-03 0.  1.
         11   -1    0    0    0    0 -0.00000000000E+00 -0.00000000000E+00 -0.45593999997E+02  0.45594000000E+02  0.51100000000E-03 0. -1.
    9900012    2    1    2    0    0  0.78097600247E+01 -0.30440882321E+02  0.25797789697E+02  0.50528860543E+02  0.30000002107E+02 0.  0.
         12    1    1    2    0    0 -0.78097600247E+01  0.30440882321E+02 -0.25797789697E+02  0.40659139457E+02  0.00000000000E+00 0. -1.
         11    1    3    3    0    0  0.34838080665E+01 -0.17071485583E+01  0.11402361397E+02  0.12044298259E+02  0.51100000000E-03 0.  1.
        -11    1    3    3    0    0 -0.35180272796E+01 -0.22116258665E+02  0.21349270422E+01  0.22495851329E+02  0.51100000000E-03 0. -1.
         12    1    3    3    0    0  0.78439792378E+01 -0.66174750985E+01  0.12260501257E+02  0.15988710956E+02  0.00000000000E+00 0. -1.
</event>
<event>
 7    1  0.1381607E-011  0.5052886E+02  0.7816164E-02  0.1300439E+00
        -11   -1    0    0    0    0  0.00000000000E+00  0.00000000000E+00  0.45593999997E+02  0.45594000000E+02  0.51100000000E-03 0. -1.
         11   -1    0    0    0    0 -0.00000000000E+00 -0.00000000000E+00 -0.45593999997E+02  0.45594000000E+02  0.51100000000E-03 0.  1.
    9900012    2    1    2    0    0  0.35052163177E+02  0.13437433495E+02 -0.15618809977E+02  0.50528856042E+02  0.29999988425E+02 0.  0.
         12    1    1    2    0    0 -0.35052163177E+02 -0.13437433495E+02  0.15618809977E+02  0.40659143958E+02  0.00000000000E+00 0. -1.
         11    1    3    3    0    0  0.18030126244E+01  0.69654472802E+01  0.35459925779E+01  0.80213698307E+01  0.51100000000E-03 0. -1.
        -11    1    3    3    0    0  0.33638331345E+02  0.23267487256E+01 -0.16286650350E+02  0.37446042184E+02  0.51100000000E-03 0.  1.
         12    1    3    3    0    0 -0.38918079257E+00  0.41452374894E+01 -0.28781522041E+01  0.50614440274E+01  0.00000000000E+00 0. -1.
</event>
<event>
 7    1  0.1381607E-011  0.5052887E+02  0.7816164E-02  0.1300439E+00
        -11   -1    0    0    0    0  0.00000000000E+00  0.00000000000E+00  0.45593999997E+02  0.45594000000E+02  0.51100000000E-03 0.  1.
         11   -1    0    0    0    0 -0.00000000000E+00 -0.00000000000E+00 -0.45593999997E+02  0.45594000000E+02  0.51100000000E-03 0. -1.
    9900012    2    1    2    0    0 -0.25034258768E+02  0.31393317698E+01  0.31884091625E+02  0.50528870462E+02  0.30000032256E+02 0.  0.
         12    1    1    2    0    0  0.25034258768E+02 -0.31393317698E+01 -0.31884091625E+02  0.40659129538E+02  0.00000000000E+00 0. -1.
         11    1    3    3    0    0  0.49072553177E+00  0.46857444279E+01  0.54325754200E+01  0.71909587919E+01  0.51100000000E-03 0. -1.
        -11    1    3    3    0    0 -0.22418462910E+02  0.56281135261E+01  0.10121968561E+02  0.25233259578E+02  0.51100000000E-03 0.  1.
         12    1    3    3    0    0 -0.31065213891E+01 -0.71745261842E+01  0.16329547644E+02  0.18104652092E+02  0.00000000000E+00 0. -1.
</event>
<event>
 7    1  0.1381607E-011  0.5052886E+02  0.7816164E-02  0.1300439E+00
        -11   -1    0    0    0    0  0.00000000000E+00  0.00000000000E+00  0.45593999997E+02  0.45594000000E+02  0.51100000000E-03 0.  1.
         11   -1    0    0    0    0 -0.00000000000E+00 -0.00000000000E+00 -0.45593999997E+02  0.45594000000E+02  0.51100000000E-03 0. -1.
    9900012    2    1    2    0    0  0.21461719432E+02  0.24866860495E+02  0.23962459863E+02  0.50528860381E+02  0.30000001614E+02 0.  0.
         12    1    1    2    0    0 -0.21461719432E+02 -0.24866860495E+02 -0.23962459863E+02  0.40659139619E+02  0.00000000000E+00 0. -1.
         11    1    3    3    0    0  0.33249914803E+01  0.63437109550E+01 -0.29179547832E+01  0.77338669113E+01  0.51100000000E-03 0. -1.
        -11    1    3    3    0    0  0.26414786108E+01  0.81391456118E+01  0.21864682514E+02  0.23479511116E+02  0.51100000000E-03 0.  1.
         12    1    3    3    0    0  0.15495249341E+02  0.10384003929E+02  0.50157321323E+01  0.19315482354E+02  0.00000000000E+00 0. -1.
</event>
<event>
 7    1  0.1381607E-011  0.5052884E+02  0.7816164E-02  0.1300439E+00
        -11   -1    0    0    0    0  0.00000000000E+00  0.00000000000E+00  0.45593999997E+02  0.45594000000E+02  0.51100000000E-03 0.  1.
         11   -1    0    0    0    0 -0.00000000000E+00 -0.00000000000E+00 -0.45593999997E+02  0.45594000000E+02  0.51100000000E-03 0. -1.
    9900012    2    1    2    0    0  0.28765826877E+02  0.95952543064E-01  0.28734736800E+02  0.50528842338E+02  0.29999946771E+02 0.  0.
         12    1    1    2    0    0 -0.28765826877E+02 -0.95952543064E-01 -0.28734736800E+02  0.40659157662E+02  0.00000000000E+00 0. -1.
         11    1    3    3    0    0 -0.89302908272E+00 -0.56590710535E+01  0.28380345831E+01  0.63935144238E+01  0.51100000000E-03 0. -1.
        -11    1    3    3    0    0  0.21749557887E+02  0.35492788880E+00  0.26798935010E+02  0.34515969637E+02  0.51100000000E-03 0.  1.
         12    1    3    3    0    0  0.79092980725E+01  0.54000957077E+01 -0.90223279281E+00  0.96193582772E+01  0.00000000000E+00 0. -1.
</event>
<event>
 7    1  0.1381607E-011  0.5052887E+02  0.7816164E-02  0.1300439E+00
        -11   -1    0    0    0    0  0.00000000000E+00  0.00000000000E+00  0.45593999997E+02  0.45594000000E+02  0.51100000000E-03 0.  1.
         11   -1    0    0    0    0 -0.00000000000E+00 -0.00000000000E+00 -0.45593999997E+02  0.45594000000E+02  0.51100000000E-03 0. -1.
    9900012    2    1    2    0    0 -0.64299175067E+01  0.22408048759E+02  0.33312160783E+02  0.50528873788E+02  0.30000042364E+02 0.  0.
         12    1    1    2    0    0  0.64299175067E+01 -0.22408048759E+02 -0.33312160783E+02  0.40659126212E+02  0.00000000000E+00 0. -1.
         11    1    3    3    0    0  0.59335484664E+01 -0.80938914580E+00 -0.62849366683E+00  0.60213879416E+01  0.51100000000E-03 0. -1.
        -11    1    3    3    0    0 -0.16655798787E+01  0.24175812382E+01  0.12288713314E+02  0.12634529296E+02  0.51100000000E-03 0.  1.
        -12    1    3    3    0    0 -0.10697886094E+02  0.20799856667E+02  0.21651941136E+02  0.31872956550E+02  0.00000000000E+00 0.  1.
</event>
<event>
 7    1  0.1381607E-011  0.5052886E+02  0.7816164E-02  0.1300439E+00
        -11   -1    0    0    0    0  0.00000000000E+00  0.00000000000E+00  0.45593999997E+02  0.45594000000E+02  0.51100000000E-03 0.  1.
         11   -1    0    0    0    0 -0.00000000000E+00 -0.00000000000E+00 -0.45593999997E+02  0.45594000000E+02  0.51100000000E-03 0. -1.
    9900012    2    1    2    0    0  0.45511219737E+01  0.10898334415E+02  0.38906029046E+02  0.50528862031E+02  0.30000006629E+02 0.  0.
         12    1    1    2    0    0 -0.45511219737E+01 -0.10898334415E+02 -0.38906029046E+02  0.40659137969E+02  0.00000000000E+00 0. -1.
         11    1    3    3    0    0  0.56806042913E+01 -0.19911107100E+01 -0.73309066808E+00  0.60639268764E+01  0.51100000000E-03 0. -1.
        -11    1    3    3    0    0  0.32611743812E+01 -0.13069686056E+01  0.17175313267E+02  0.17530967212E+02  0.51100000000E-03 0.  1.
        -12    1    3    3    0    0 -0.43906566988E+01  0.14196413730E+02  0.22463806447E+02  0.26933967943E+02  0.00000000000E+00 0.  1.
</event>
<event>
 7    1  0.1381607E-011  0.5052886E+02  0.7816164E-02  0.1300439E+00
        -11   -1    0    0    0    0  0.00000000000E+00  0.00000000000E+00  0.45593999997E+02  0.45594000000E+02  0.51100000000E-03 0. -1.
         11   -1    0    0    0    0 -0.00000000000E+00 -0.00000000000E+00 -0.45593999997E+02  0.45594000000E+02  0.51100000000E-03 0.  1.
    9900012    2    1    2    0    0  0.39105304716E+02  0.90891172918E+01  0.64287463043E+01  0.50528859710E+02  0.29999999576E+02 0.  0.
         12    1    1    2    0    0 -0.39105304716E+02 -0.90891172918E+01 -0.64287463043E+01  0.40659140290E+02  0.00000000000E+00 0. -1.
         11    1    3    3    0    0  0.12624171616E+02  0.40878266908E+00  0.89117964295E+01  0.15458231727E+02  0.51100000000E-03 0. -1.
        -11    1    3    3    0    0  0.30142929220E+02  0.82252098841E+01 -0.27817337670E+01  0.31368587833E+02  0.51100000000E-03 0.  1.
         12    1    3    3    0    0 -0.36617961208E+01  0.45512473862E+00  0.29868364183E+00  0.37020401505E+01  0.00000000000E+00 0. -1.
</event>
<event>
 7    1  0.1381607E-011  0.5052886E+02  0.7816164E-02  0.1300439E+00
        -11   -1    0    0    0    0  0.00000000000E+00  0.00000000000E+00  0.45593999997E+02  0.45594000000E+02  0.51100000000E-03 0. -1.
         11   -1    0    0    0    0 -0.00000000000E+00 -0.00000000000E+00 -0.45593999997E+02  0.45594000000E+02  0.51100000000E-03 0.  1.
    9900012    2    1    2    0    0  0.46705250701E+01  0.23217333844E+02 -0.33050072730E+02  0.50528859543E+02  0.29999999066E+02 0.  0.
         12    1    1    2    0    0 -0.46705250701E+01 -0.23217333844E+02  0.33050072730E+02  0.40659140457E+02  0.00000000000E+00 0. -1.
         11    1    3    3    0    0 -0.25356318438E+01 -0.69938117868E-01 -0.14515835827E+01  0.29225699900E+01  0.51100000000E-03 0. -1.
        -11    1    3    3    0    0 -0.18725623713E+01  0.24866435632E+02 -0.16445843312E+02  0.29871589737E+02  0.51100000000E-03 0.  1.
        -12    1    3    3    0    0  0.90787192853E+01 -0.15791636701E+01 -0.15152645835E+02  0.17734699816E+02  0.00000000000E+00 0.  1.
</event>
<event>
 7    1  0.1381607E-011  0.5052885E+02  0.7816164E-02  0.1300439E+00
        -11   -1    0    0    0    0  0.00000000000E+00  0.00000000000E+00  0.45593999997E+02  0.45594000000E+02  0.51100000000E-03 0. -1.
         11   -1    0    0    0    0 -0.00000000000E+00 -0.00000000000E+00 -0.45593999997E+02  0.45594000000E+02  0.51100000000E-03 0.  1.
    9900012    2    1    2    0    0  0.17475613735E+02 -0.16785231451E+01 -0.36673581615E+02  0.50528854610E+02  0.29999984074E+02 0.  0.
         12    1    1    2    0    0 -0.17475613735E+02  0.16785231451E+01  0.36673581615E+02  0.40659145390E+02  0.00000000000E+00 0. -1.
         11    1    3    3    0    0  0.31628021181E+01  0.97169324417E+01 -0.42332755191E+01  0.11060864125E+02  0.51100000000E-03 0. -1.
        -11    1    3    3    0    0  0.56942594925E+00 -0.43813322405E+01 -0.11272155607E+01  0.45597075888E+01  0.51100000000E-03 0.  1.
        -12    1    3    3    0    0  0.13743385668E+02 -0.70141233463E+01 -0.31313090535E+02  0.34908282896E+02  0.00000000000E+00 0.  1.
</event>
<event>
 7    1  0.1381607E-011  0.5052887E+02  0.7816164E-02  0.1300439E+00
        -11   -1    0    0    0    0  0.00000000000E+00  0.00000000000E+00  0.45593999997E+02  0.45594000000E+02  0.51100000000E-03 0. -1.
         11   -1    0    0    0    0 -0.00000000000E+00 -0.00000000000E+00 -0.45593999997E+02  0.45594000000E+02  0.51100000000E-03 0.  1.
    9900012    2    1    2    0    0 -0.26509756925E+02  0.29091684067E+02 -0.10201536206E+02  0.50528872673E+02  0.30000038976E+02 0.  0.
         12    1    1    2    0    0  0.26509756925E+02 -0.29091684067E+02  0.10201536206E+02  0.40659127327E+02  0.00000000000E+00 0. -1.
         11    1    3    3    0    0 -0.16477736063E+02  0.10194590044E+02 -0.50257064579E+01  0.20017571721E+02  0.51100000000E-03 0. -1.
        -11    1    3    3    0    0 -0.10567891394E+02  0.23325221600E+02 -0.45012433784E+01  0.26000143912E+02  0.51100000000E-03 0.  1.
         12    1    3    3    0    0  0.53587053285E+00 -0.44281275776E+01 -0.67458636928E+00  0.45111570402E+01  0.00000000000E+00 0. -1.
</event>
<event>
 7    1  0.1381607E-011  0.5052886E+02  0.7816164E-02  0.1300439E+00
        -11   -1    0    0    0    0  0.00000000000E+00  0.00000000000E+00  0.45593999997E+02  0.45594000000E+02  0.51100000000E-03 0.  1.
         11   -1    0    0    0    0 -0.00000000000E+00 -0.00000000000E+00 -0.45593999997E+02  0.45594000000E+02  0.51100000000E-03 0. -1.
    9900012    2    1    2    0    0 -0.24347933977E+02  0.79482852344E+01  0.31577976632E+02  0.50528859143E+02  0.29999997850E+02 0.  0.
         12    1    1    2    0    0  0.24347933977E+02 -0.79482852344E+01 -0.31577976632E+02  0.40659140857E+02  0.00000000000E+00 0. -1.
         11    1    3    3    0    0 -0.22071141166E+02  0.23965142046E+01  0.85070634795E+01  0.23774959138E+02  0.51100000000E-03 0. -1.
        -11    1    3    3    0    0 -0.33207056802E+01  0.77090816968E+01  0.83520188302E+01  0.11841167410E+02  0.51100000000E-03 0.  1.
        -12    1    3    3    0    0  0.10439128696E+01 -0.21573106670E+01  0.14718894322E+02  0.14912732595E+02  0.00000000000E+00 0.  1.
</event>
<event>
 7    1  0.1381607E-011  0.5052885E+02  0.7816164E-02  0.1300439E+00
        -11   -1    0    0    0    0  0.00000000000E+00  0.00000000000E+00  0.45593999997E+02  0.45594000000E+02  0.51100000000E-03 0. -1.
         11   -1    0    0    0    0 -0.00000000000E+00 -0.00000000000E+00 -0.45593999997E+02  0.45594000000E+02  0.51100000000E-03 0.  1.
    9900012    2    1    2    0    0 -0.16628780167E+02 -0.10323216079E+02 -0.35638202556E+02  0.50528848490E+02  0.29999965470E+02 0.  0.
         12    1    1    2    0    0  0.16628780167E+02  0.10323216079E+02  0.35638202556E+02  0.40659151510E+02  0.00000000000E+00 0. -1.
         11    1    3    3    0    0 -0.13993876195E+01  0.10355704382E+01  0.29348986948E+01  0.34123778296E+01  0.51100000000E-03 0. -1.
        -11    1    3    3    0    0 -0.75704562059E+01 -0.98286533272E+01 -0.63046758532E+01  0.13916291577E+02  0.51100000000E-03 0.  1.
        -12    1    3    3    0    0 -0.76589363419E+01 -0.15301331897E+01 -0.32268425398E+02  0.33200179083E+02  0.00000000000E+00 0.  1.
</event>
<event>
 7    1  0.1381607E-011  0.5052887E+02  0.7816164E-02  0.1300439E+00
        -11   -1    0    0    0    0  0.00000000000E+00  0.00000000000E+00  0.45593999997E+02  0.45594000000E+02  0.51100000000E-03 0. -1.
         11   -1    0    0    0    0 -0.00000000000E+00 -0.00000000000E+00 -0.45593999997E+02  0.45594000000E+02  0.51100000000E-03 0.  1.
    9900012    2    1    2    0    0  0.36345097473E+02  0.17619818343E+02  0.46627336997E+01  0.50528865795E+02  0.30000018070E+02 0.  0.
         12    1    1    2    0    0 -0.36345097473E+02 -0.17619818343E+02 -0.46627336997E+01  0.40659134205E+02  0.00000000000E+00 0. -1.
         11    1    3    3    0    0  0.17409606622E+01  0.10321714654E+01  0.53747967842E+01  0.57432362561E+01  0.51100000000E-03 0. -1.
        -11    1    3    3    0    0 -0.14867984247E+01 -0.29603486681E+01 -0.17112470537E+01  0.37286191187E+01  0.51100000000E-03 0.  1.
        -12    1    3    3    0    0  0.36090935236E+02  0.19547995545E+02  0.99918396929E+00  0.41057010420E+02  0.00000000000E+00 0.  1.
</event>
<event>
 7    1  0.1381607E-011  0.5052886E+02  0.7816164E-02  0.1300439E+00
        -11   -1    0    0    0    0  0.00000000000E+00  0.00000000000E+00  0.45593999997E+02  0.45594000000E+02  0.51100000000E-03 0. -1.
         11   -1    0    0    0    0 -0.00000000000E+00 -0.00000000000E+00 -0.45593999997E+02  0.45594000000E+02  0.51100000000E-03 0.  1.
    9900012    2    1    2    0    0 -0.34792625915E+02  0.34335716603E+01 -0.20756914661E+02  0.50528859101E+02  0.29999997723E+02 0.  0.
         12    1    1    2    0    0  0.34792625915E+02 -0.34335716603E+01  0.20756914661E+02  0.40659140899E+02  0.00000000000E+00 0. -1.
         11    1    3    3    0    0  0.39199412691E+01  0.38670175124E+00 -0.32766977562E+01  0.51236926375E+01  0.51100000000E-03 0. -1.
        -11    1    3    3    0    0 -0.18035840929E+02  0.60503539144E+01 -0.15271493342E+02  0.24395016902E+02  0.51100000000E-03 0.  1.
        -12    1    3    3    0    0 -0.20676726255E+02 -0.30034840053E+01 -0.22087235623E+01  0.21010149561E+02  0.00000000000E+00 0.  1.
</event>
<event>
 7    1  0.1381607E-011  0.5052886E+02  0.7816164E-02  0.1300439E+00
        -11   -1    0    0    0    0  0.00000000000E+00  0.00000000000E+00  0.45593999997E+02  0.45594000000E+02  0.51100000000E-03 0. -1.
         11   -1    0    0    0    0 -0.00000000000E+00 -0.00000000000E+00 -0.45593999997E+02  0.45594000000E+02  0.51100000000E-03 0.  1.
    9900012    2    1    2    0    0 -0.27050408361E+02 -0.70435750307E-01 -0.30355165864E+02  0.50528860212E+02  0.30000001100E+02 0.  0.
         12    1    1    2    0    0  0.27050408361E+02  0.70435750307E-01  0.30355165864E+02  0.40659139788E+02  0.00000000000E+00 0. -1.
         11    1    3    3    0    0 -0.19361809582E+01 -0.21186634481E+01  0.44466932884E+01  0.52925053586E+01  0.51100000000E-03 0. -1.
        -11    1    3    3    0    0 -0.46827706226E+00  0.41209117763E+01 -0.44425257894E+01  0.60776009185E+01  0.51100000000E-03 0.  1.
        -12    1    3    3    0    0 -0.24645950340E+02 -0.20726840785E+01 -0.30359333363E+02  0.39158753935E+02  0.00000000000E+00 0.  1.
</event>
<event>
 7    1  0.1381607E-011  0.5052884E+02  0.7816164E-02  0.1300439E+00
        -11   -1    0    0    0    0  0.00000000000E+00  0.00000000000E+00  0.45593999997E+02  0.45594000000E+02  0.51100000000E-03 0. -1.
         11   -1    0    0    0    0 -0.00000000000E+00 -0.00000000000E+00 -0.45593999997E+02  0.45594000000E+02  0.51100000000E-03 0.  1.
    9900012    2    1    2    0    0 -0.60312729151E+01  0.30083540280E+02 -0.26679051998E+02  0.50528837881E+02  0.29999933222E+02 0.  0.
         12    1    1    2    0    0  0.60312729151E+01 -0.30083540280E+02  0.26679051998E+02  0.40659162119E+02  0.00000000000E+00 0. -1.
         11    1    3    3    0    0 -0.59389928516E+01  0.10206115308E+02 -0.25997593009E+02  0.28553655953E+02  0.51100000000E-03 0. -1.
        -11    1    3    3    0    0 -0.38674465725E+01  0.38565506498E+01  0.42617982360E+00  0.54782985870E+01  0.51100000000E-03 0.  1.
        -12    1    3    3    0    0  0.37751665090E+01  0.16020874322E+02 -0.11076388125E+01  0.16496883341E+02  0.00000000000E+00 0.  1.
</event>
<event>
 7    1  0.1381607E-011  0.5052886E+02  0.7816164E-02  0.1300439E+00
        -11   -1    0    0    0    0  0.00000000000E+00  0.00000000000E+00  0.45593999997E+02  0.45594000000E+02  0.51100000000E-03 0. -1.
         11   -1    0    0    0    0 -0.00000000000E+00 -0.00000000000E+00 -0.45593999997E+02  0.45594000000E+02  0.51100000000E-03 0.  1.
    9900012    2    1    2    0    0 -0.29754159653E+02  0.27656461614E+02 -0.17249680716E+01  0.50528863259E+02  0.30000010361E+02 0.  0.
         12    1    1    2    0    0  0.29754159653E+02 -0.27656461614E+02  0.17249680716E+01  0.40659136741E+02  0.00000000000E+00 0. -1.
         11    1    3    3    0    0 -0.14729378608E+01 -0.26778502284E+01 -0.20985753880E+01  0.37073503622E+01  0.51100000000E-03 0. -1.
        -11    1    3    3    0    0 -0.26304390482E+02  0.22815779274E+02 -0.76482211892E+01  0.35650750766E+02  0.51100000000E-03 0.  1.
         12    1    3    3    0    0 -0.19768313102E+01  0.75185325680E+01  0.80218285056E+01  0.11170762131E+02  0.00000000000E+00 0. -1.
</event>
<event>
 7    1  0.1381607E-011  0.5052885E+02  0.7816164E-02  0.1300439E+00
        -11   -1    0    0    0    0  0.00000000000E+00  0.00000000000E+00  0.45593999997E+02  0.45594000000E+02  0.51100000000E-03 0.  1.
         11   -1    0    0    0    0 -0.00000000000E+00 -0.00000000000E+00 -0.45593999997E+02  0.45594000000E+02  0.51100000000E-03 0. -1.
    9900012    2    1    2    0    0 -0.12107084703E+02  0.34896806686E+02  0.16994049187E+02  0.50528851895E+02  0.29999975819E+02 0.  0.
         12    1    1    2    0    0  0.12107084703E+02 -0.34896806686E+02 -0.16994049187E+02  0.40659148105E+02  0.00000000000E+00 0. -1.
         11    1    3    3    0    0  0.48182965099E+01  0.16388460378E+02  0.53208633666E+01  0.17891595849E+02  0.51100000000E-03 0. -1.
        -11    1    3    3    0    0  0.24356383605E+01  0.81793045422E+01  0.33028083830E+01  0.91510600749E+01  0.51100000000E-03 0.  1.
         12    1    3    3    0    0 -0.19361019573E+02  0.10329041766E+02  0.83703774375E+01  0.23486195970E+02  0.00000000000E+00 0. -1.
</event>
<event>
 7    1  0.1381607E-011  0.5052886E+02  0.7816164E-02  0.1300439E+00
        -11   -1    0    0    0    0  0.00000000000E+00  0.00000000000E+00  0.45593999997E+02  0.45594000000E+02  0.51100000000E-03 0.  1.
         11   -1    0    0    0    0 -0.00000000000E+00 -0.00000000000E+00 -0.45593999997E+02  0.45594000000E+02  0.51100000000E-03 0. -1.
    9900012    2    1    2    0    0 -0.39263712383E+02  0.40459735529E+01 -0.97548146931E+01  0.50528862998E+02  0.30000009567E+02 0.  0.
         12    1    1    2    0    0  0.39263712383E+02 -0.40459735529E+01  0.97548146931E+01  0.40659137002E+02  0.00000000000E+00 0. -1.
         11    1    3    3    0    0 -0.27886223494E+02 -0.83013331834E+00 -0.10424818825E+02  0.29782669958E+02  0.51100000000E-03 0. -1.
        -11    1    3    3    0    0 -0.15101549622E+02  0.65424879817E+01 -0.61319129494E+00  0.16469273020E+02  0.51100000000E-03 0.  1.
         12    1    3    3    0    0  0.37240607327E+01 -0.16663811105E+01  0.12831954267E+01  0.42769200191E+01  0.00000000000E+00 0. -1.
</event>
<event>
 7    1  0.1381607E-011  0.5052886E+02  0.7816164E-02  0.1300439E+00
        -11   -1    0    0    0    0  0.00000000000E+00  0.00000000000E+00  0.45593999997E+02  0.45594000000E+02  0.51100000000E-03 0.  1.
         11   -1    0    0    0    0 -0.00000000000E+00 -0.00000000000E+00 -0.45593999997E+02  0.45594000000E+02  0.51100000000E-03 0. -1.
    9900012    2    1    2    0    0 -0.18528763036E+02  0.16784233542E+02  0.32064627874E+02  0.50528856920E+02  0.29999991095E+02 0.  0.
         12    1    1    2    0    0  0.18528763036E+02 -0.16784233542E+02 -0.32064627874E+02  0.40659143080E+02  0.00000000000E+00 0. -1.
         11    1    3    3    0    0 -0.82934981885E+01  0.11400665104E+02  0.25334895234E+02  0.28993347405E+02  0.51100000000E-03 0. -1.
        -11    1    3    3    0    0 -0.49536203869E+00 -0.43060576091E+01  0.64780602301E+01  0.77944069876E+01  0.51100000000E-03 0.  1.
         12    1    3    3    0    0 -0.97399028092E+01  0.96896260472E+01  0.25167241063E+00  0.13741102527E+02  0.00000000000E+00 0. -1.
</event>
<event>
 7    1  0.1381607E-011  0.5052886E+02  0.7816164E-02  0.1300439E+00
        -11   -1    0    0    0    0  0.00000000000E+00  0.00000000000E+00  0.45593999997E+02  0.45594000000E+02  0.51100000000E-03 0. -1.
         11   -1    0    0    0    0 -0.00000000000E+00 -0.00000000000E+00 -0.45593999997E+02  0.45594000000E+02  0.51100000000E-03 0.  1.
    9900012    2    1    2    0    0 -0.11913981049E+02 -0.34360624096E+02 -0.18181599592E+02  0.50528855931E+02  0.29999988088E+02 0.  0.
         12    1    1    2    0    0  0.11913981049E+02  0.34360624096E+02  0.18181599592E+02  0.40659144069E+02  0.00000000000E+00 0. -1.
         11    1    3    3    0    0 -0.21907338832E+01 -0.32178513066E+00  0.46307284464E+01  0.51328848441E+01  0.51100000000E-03 0. -1.
        -11    1    3    3    0    0 -0.13190985484E+02 -0.30970151954E+02 -0.16289208173E+02  0.37396399737E+02  0.51100000000E-03 0.  1.
         12    1    3    3    0    0  0.34677383181E+01 -0.30686870110E+01 -0.65231198648E+01  0.79995713501E+01  0.00000000000E+00 0. -1.
</event>
<event>
 7    1  0.1381607E-011  0.5052881E+02  0.7816164E-02  0.1300439E+00
        -11   -1    0    0    0    0  0.00000000000E+00  0.00000000000E+00  0.45593999997E+02  0.45594000000E+02  0.51100000000E-03 0.  1.
         11   -1    0    0    0    0 -0.00000000000E+00 -0.00000000000E+00 -0.45593999997E+02  0.45594000000E+02  0.51100000000E-03 0. -1.
    9900012    2    1    2    0    0 -0.19114265144E+02  0.21731192188E+02  0.28558179280E+02  0.50528813464E+02  0.29999859006E+02 0.  0.
         12    1    1    2    0    0  0.19114265144E+02 -0.21731192188E+02 -0.28558179280E+02  0.40659186536E+02  0.00000000000E+00 0. -1.
         11    1    3    3    0    0 -0.25825939145E+01  0.22347062201E+01 -0.52818827739E+01  0.62898322009E+01  0.51100000000E-03 0. -1.
        -11    1    3    3    0    0 -0.10284680020E+02  0.50892263455E+01  0.79536712366E+01  0.13961939490E+02  0.51100000000E-03 0.  1.
         12    1    3    3    0    0 -0.62469912098E+01  0.14407259623E+02  0.25886390818E+02  0.30277041774E+02  0.00000000000E+00 0. -1.
</event>
<event>
 7    1  0.1381607E-011  0.5052886E+02  0.7816164E-02  0.1300439E+00
        -11   -1    0    0    0    0  0.00000000000E+00  0.00000000000E+00  0.45593999997E+02  0.45594000000E+02  0.51100000000E-03 0. -1.
         11   -1    0    0    0    0 -0.00000000000E+00 -0.00000000000E+00 -0.45593999997E+02  0.45594000000E+02  0.51100000000E-03 0.  1.
    9900012    2    1    2    0    0 -0.53673870099E+01  0.20410979109E+02 -0.34752678800E+02  0.50528860864E+02  0.30000003081E+02 0.  0.
         12    1    1    2    0    0  0.53673870099E+01 -0.20410979109E+02  0.34752678800E+02  0.40659139136E+02  0.00000000000E+00 0. -1.
         11    1    3    3    0    0 -0.57105346633E+01 -0.14399620699E+01 -0.11237418118E+02  0.12687129822E+02  0.51100000000E-03 0. -1.
        -11    1    3    3    0    0 -0.71664028472E+01  0.90595227104E+01 -0.20217317978E+01  0.11726878580E+02  0.51100000000E-03 0.  1.
        -12    1    3    3    0    0  0.75095505005E+01  0.12791418469E+02 -0.21493528884E+02  0.26114852461E+02  0.00000000000E+00 0.  1.
</event>
<event>
 7    1  0.1381607E-011  0.5052885E+02  0.7816164E-02  0.1300439E+00
        -11   -1    0    0    0    0  0.00000000000E+00  0.00000000000E+00  0.45593999997E+02  0.45594000000E+02  0.51100000000E-03 0. -1.
         11   -1    0    0    0    0 -0.00000000000E+00 -0.00000000000E+00 -0.45593999997E+02  0.45594000000E+02  0.51100000000E-03 0.  1.
    9900012    2    1    2    0    0 -0.62316769715E+01  0.37739539768E+02 -0.13786206235E+02  0.50528854140E+02  0.29999982643E+02 0.  0.
         12    1    1    2    0    0  0.62316769715E+01 -0.37739539768E+02  0.13786206235E+02  0.40659145860E+02  0.00000000000E+00 0. -1.
         11    1    3    3    0    0 -0.21926403601E+01  0.10380481187E+02 -0.57047367510E+01  0.12045998633E+02  0.51100000000E-03 0. -1.
        -11    1    3    3    0    0 -0.10865762034E+02  0.17527693972E+02 -0.14202009952E+02  0.25039607175E+02  0.51100000000E-03 0.  1.
         12    1    3    3    0    0  0.68267254230E+01  0.98313646089E+01  0.61205404676E+01  0.13443248331E+02  0.00000000000E+00 0. -1.
</event>
<event>
 7    1  0.1381607E-011  0.5052880E+02  0.7816164E-02  0.1300439E+00
        -11   -1    0    0    0    0  0.00000000000E+00  0.00000000000E+00  0.45593999997E+02  0.45594000000E+02  0.51100000000E-03 0. -1.
         11   -1    0    0    0    0 -0.00000000000E+00 -0.00000000000E+00 -0.45593999997E+02  0.45594000000E+02  0.51100000000E-03 0.  1.
    9900012    2    1    2    0    0 -0.22062099296E+02 -0.28286656265E+02 -0.19138950524E+02  0.50528799625E+02  0.29999816939E+02 0.  0.
         12    1    1    2    0    0  0.22062099296E+02  0.28286656265E+02  0.19138950524E+02  0.40659200375E+02  0.00000000000E+00 0. -1.
         11    1    3    3    0    0 -0.41242650785E+01 -0.11279476026E+02  0.38412114256E+01  0.12609165211E+02  0.51100000000E-03 0. -1.
        -11    1    3    3    0    0  0.63311248822E+00 -0.16922723713E+01 -0.10785198536E+02  0.10935498385E+02  0.51100000000E-03 0.  1.
        -12    1    3    3    0    0 -0.18570946706E+02 -0.15314907868E+02 -0.12194963413E+02  0.26984136029E+02  0.00000000000E+00 0.  1.
</event>
<event>
 7    1  0.1381607E-011  0.5052875E+02  0.7816164E-02  0.1300439E+00
        -11   -1    0    0    0    0  0.00000000000E+00  0.00000000000E+00  0.45593999997E+02  0.45594000000E+02  0.51100000000E-03 0.  1.
         11   -1    0    0    0    0 -0.00000000000E+00 -0.00000000000E+00 -0.45593999997E+02  0.45594000000E+02  0.51100000000E-03 0. -1.
    9900012    2    1    2    0    0 -0.37823318786E+02  0.43000603578E+01  0.14285688889E+02  0.50528746808E+02  0.29999656397E+02 0.  0.
         12    1    1    2    0    0  0.37823318786E+02 -0.43000603578E+01 -0.14285688889E+02  0.40659253192E+02  0.00000000000E+00 0. -1.
         11    1    3    3    0    0 -0.58908014773E+01  0.19734463362E+01 -0.37283424355E+01  0.72454516811E+01  0.51100000000E-03 0. -1.
        -11    1    3    3    0    0 -0.15404632449E+02 -0.96837736261E+01  0.43623479830E+01  0.18711179886E+02  0.51100000000E-03 0.  1.
        -12    1    3    3    0    0 -0.16527884860E+02  0.12010387648E+02  0.13651683342E+02  0.24572115242E+02  0.00000000000E+00 0.  1.
</event>
<event>
 7    1  0.1381607E-011  0.5052886E+02  0.7816164E-02  0.1300439E+00
        -11   -1    0    0    0    0  0.00000000000E+00  0.00000000000E+00  0.45593999997E+02  0.45594000000E+02  0.51100000000E-03 0.  1.
         11   -1    0    0    0    0 -0.00000000000E+00 -0.00000000000E+00 -0.45593999997E+02  0.45594000000E+02  0.51100000000E-03 0. -1.
    9900012    2    1    2    0    0  0.24383404231E+02 -0.65333511687E+00  0.32529808893E+02  0.50528859389E+02  0.29999998598E+02 0.  0.
         12    1    1    2    0    0 -0.24383404231E+02  0.65333511687E+00 -0.32529808893E+02  0.40659140611E+02  0.00000000000E+00 0. -1.
         11    1    3    3    0    0  0.16664881175E+01 -0.67547818115E+01  0.12074971949E+02  0.13935896375E+02  0.51100000000E-03 0. -1.
        -11    1    3    3    0    0 -0.22179118213E+01  0.48073558738E+01  0.26060863539E+01  0.59009736222E+01  0.51100000000E-03 0.  1.
        -12    1    3    3    0    0  0.24934827934E+02  0.12940908208E+01  0.17848750590E+02  0.30691989391E+02  0.00000000000E+00 0.  1.
</event>
<event>
 7    1  0.1381607E-011  0.5052886E+02  0.7816164E-02  0.1300439E+00
        -11   -1    0    0    0    0  0.00000000000E+00  0.00000000000E+00  0.45593999997E+02  0.45594000000E+02  0.51100000000E-03 0. -1.
         11   -1    0    0    0    0 -0.00000000000E+00 -0.00000000000E+00 -0.45593999997E+02  0.45594000000E+02  0.51100000000E-03 0.  1.
    9900012    2    1    2    0    0 -0.10960893615E+02 -0.29783099150E+02 -0.25416357419E+02  0.50528863164E+02  0.30000010072E+02 0.  0.
         12    1    1    2    0    0  0.10960893615E+02  0.29783099150E+02  0.25416357419E+02  0.40659136836E+02  0.00000000000E+00 0. -1.
         11    1    3    3    0    0 -0.11000026195E+02 -0.17692476091E+02 -0.67497551243E+01  0.21899394535E+02  0.51100000000E-03 0. -1.
        -11    1    3    3    0    0  0.78815096196E+01 -0.61868105658E+01 -0.35991546402E+01  0.10646536209E+02  0.51100000000E-03 0.  1.
         12    1    3    3    0    0 -0.78423770397E+01 -0.59038124939E+01 -0.15067447654E+02  0.17982932420E+02  0.00000000000E+00 0. -1.
</event>
<event>
 7    1  0.1381607E-011  0.5052887E+02  0.7816164E-02  0.1300439E+00
        -11   -1    0    0    0    0  0.00000000000E+00  0.00000000000E+00  0.45593999997E+02  0.45594000000E+02  0.51100000000E-03 0. -1.
         11   -1    0    0    0    0 -0.00000000000E+00 -0.00000000000E+00 -0.45593999997E+02  0.45594000000E+02  0.51100000000E-03 0.  1.
    9900012    2    1    2    0    0  0.23100147449E+02 -0.14028200057E+02 -0.30376923544E+02  0.50528871960E+02  0.30000036809E+02 0.  0.
         12    1    1    2    0    0 -0.23100147449E+02  0.14028200057E+02  0.30376923544E+02  0.40659128040E+02  0.00000000000E+00 0. -1.
         11    1    3    3    0    0 -0.29074289203E+01 -0.41506577031E+01  0.20527891132E+01  0.54676362076E+01  0.51100000000E-03 0. -1.
        -11    1    3    3    0    0  0.71041402137E+00 -0.18664507072E+01 -0.10350635868E+02  0.10541536390E+02  0.51100000000E-03 0.  1.
         12    1    3    3    0    0  0.25297162348E+02 -0.80110916468E+01 -0.22079076789E+02  0.34519699363E+02  0.00000000000E+00 0. -1.
</event>
<event>
 7    1  0.1381607E-011  0.5052886E+02  0.7816164E-02  0.1300439E+00
        -11   -1    0    0    0    0  0.00000000000E+00  0.00000000000E+00  0.45593999997E+02  0.45594000000E+02  0.51100000000E-03 0.  1.
         11   -1    0    0    0    0 -0.00000000000E+00 -0.00000000000E+00 -0.45593999997E+02  0.45594000000E+02  0.51100000000E-03 0. -1.
    9900012    2    1    2    0    0  0.21616918065E+01 -0.38865016909E+02  0.11747477555E+02  0.50528859826E+02  0.29999999926E+02 0.  0.
         12    1    1    2    0    0 -0.21616918065E+01  0.38865016909E+02 -0.11747477555E+02  0.40659140174E+02  0.00000000000E+00 0. -1.
         11    1    3    3    0    0  0.10456300715E+02 -0.25403241429E+02  0.65062210914E+01  0.28231008004E+02  0.51100000000E-03 0. -1.
        -11    1    3    3    0    0 -0.27285665155E+01 -0.87310443618E+01  0.10020992929E+02  0.13568216921E+02  0.51100000000E-03 0.  1.
        -12    1    3    3    0    0 -0.55660423930E+01 -0.47307311179E+01 -0.47797364649E+01  0.87296349010E+01  0.00000000000E+00 0.  1.
</event>
<event>
 7    1  0.1381607E-011  0.5052886E+02  0.7816164E-02  0.1300439E+00
        -11   -1    0    0    0    0  0.00000000000E+00  0.00000000000E+00  0.45593999997E+02  0.45594000000E+02  0.51100000000E-03 0.  1.
         11   -1    0    0    0    0 -0.00000000000E+00 -0.00000000000E+00 -0.45593999997E+02  0.45594000000E+02  0.51100000000E-03 0. -1.
    9900012    2    1    2    0    0  0.35715545933E+02 -0.17373674239E+02 -0.87017675735E+01  0.50528861584E+02  0.30000005271E+02 0.  0.
         12    1    1    2    0    0 -0.35715545933E+02  0.17373674239E+02  0.87017675735E+01  0.40659138416E+02  0.00000000000E+00 0. -1.
         11    1    3    3    0    0  0.65069453488E+01  0.89932622025E+00 -0.77293880017E+01  0.10143597220E+02  0.51100000000E-03 0. -1.
        -11    1    3    3    0    0  0.30835818062E+02 -0.11922201953E+02 -0.37357087539E+01  0.33270739323E+02  0.51100000000E-03 0.  1.
        -12    1    3    3    0    0 -0.16272174779E+01 -0.63507985064E+01  0.27633291820E+01  0.71145250409E+01  0.00000000000E+00 0.  1.
</event>
<event>
 7    1  0.1381607E-011  0.5052885E+02  0.7816164E-02  0.1300439E+00
        -11   -1    0    0    0    0  0.00000000000E+00  0.00000000000E+00  0.45593999997E+02  0.45594000000E+02  0.51100000000E-03 0.  1.
         11   -1    0    0    0    0 -0.00000000000E+00 -0.00000000000E+00 -0.45593999997E+02  0.45594000000E+02  0.51100000000E-03 0. -1.
    9900012    2    1    2    0    0  0.17469694031E+02 -0.29530562413E+02  0.21815648366E+02  0.50528845562E+02  0.29999956569E+02 0.  0.
         12    1    1    2    0    0 -0.17469694031E+02  0.29530562413E+02 -0.21815648366E+02  0.40659154438E+02  0.00000000000E+00 0. -1.
         11    1    3    3    0    0  0.82793027034E+01 -0.46025472846E+01 -0.89025511971E+00  0.95143496467E+01  0.51100000000E-03 0. -1.
        -11    1    3    3    0    0  0.66177303059E+01 -0.11696942838E+02  0.23965917396E+02  0.27476863414E+02  0.51100000000E-03 0.  1.
         12    1    3    3    0    0  0.25726610222E+01 -0.13231072290E+02 -0.12600139099E+01  0.13537632501E+02  0.00000000000E+00 0. -1.
</event>
<event>
 7    1  0.1381607E-011  0.5052886E+02  0.7816164E-02  0.1300439E+00
        -11   -1    0    0    0    0  0.00000000000E+00  0.00000000000E+00  0.45593999997E+02  0.45594000000E+02  0.51100000000E-03 0. -1.
         11   -1    0    0    0    0 -0.00000000000E+00 -0.00000000000E+00 -0.45593999997E+02  0.45594000000E+02  0.51100000000E-03 0.  1.
    9900012    2    1    2    0    0 -0.35296166967E+02 -0.78203527162E+01 -0.18606138508E+02  0.50528859462E+02  0.29999998819E+02 0.  0.
         12    1    1    2    0    0  0.35296166967E+02  0.78203527162E+01  0.18606138508E+02  0.40659140538E+02  0.00000000000E+00 0. -1.
         11    1    3    3    0    0 -0.15600242255E+02 -0.99392347759E+01 -0.15626028751E+01  0.18563342219E+02  0.51100000000E-03 0. -1.
        -11    1    3    3    0    0 -0.22912597124E+02  0.65685953114E-01 -0.12750143711E+02  0.26221319313E+02  0.51100000000E-03 0.  1.
         12    1    3    3    0    0  0.32166724119E+01  0.20531961066E+01 -0.42933919219E+01  0.57441979295E+01  0.00000000000E+00 0. -1.
</event>
<event>
 7    1  0.1381607E-011  0.5052886E+02  0.7816164E-02  0.1300439E+00
        -11   -1    0    0    0    0  0.00000000000E+00  0.00000000000E+00  0.45593999997E+02  0.45594000000E+02  0.51100000000E-03 0.  1.
         11   -1    0    0    0    0 -0.00000000000E+00 -0.00000000000E+00 -0.45593999997E+02  0.45594000000E+02  0.51100000000E-03 0. -1.
    9900012    2    1    2    0    0  0.10525956930E+02 -0.62186864278E+01  0.38777544561E+02  0.50528858441E+02  0.29999995716E+02 0.  0.
         12    1    1    2    0    0 -0.10525956930E+02  0.62186864278E+01 -0.38777544561E+02  0.40659141559E+02  0.00000000000E+00 0. -1.
         11    1    3    3    0    0  0.12421807414E+01 -0.79783674343E+01  0.13686858058E+02  0.15891112096E+02  0.51100000000E-03 0.  1.
        -11    1    3    3    0    0  0.13750992733E+02 -0.54842457369E+01  0.19385067917E+02  0.24391547939E+02  0.51100000000E-03 0. -1.
        -12    1    3    3    0    0 -0.44672165439E+01  0.72439267434E+01  0.57056185858E+01  0.10246198405E+02  0.00000000000E+00 0.  1.
</event>
<event>
 7    1  0.1381607E-011  0.5052900E+02  0.7816164E-02  0.1300438E+00
        -11   -1    0    0    0    0  0.00000000000E+00  0.00000000000E+00  0.45593999997E+02  0.45594000000E+02  0.51100000000E-03 0.  1.
         11   -1    0    0    0    0 -0.00000000000E+00 -0.00000000000E+00 -0.45593999997E+02  0.45594000000E+02  0.51100000000E-03 0. -1.
    9900012    2    1    2    0    0 -0.16278866064E+02 -0.27194839338E+02  0.25467495059E+02  0.50529002576E+02  0.30000433826E+02 0.  0.
         12    1    1    2    0    0  0.16278866064E+02  0.27194839338E+02 -0.25467495059E+02  0.40658997424E+02  0.00000000000E+00 0. -1.
         11    1    3    3    0    0 -0.39913070441E+01 -0.24874961808E+02  0.10029583245E+02  0.27116172244E+02  0.51100000000E-03 0. -1.
        -11    1    3    3    0    0  0.36455871311E+00  0.71276222216E+00 -0.17098482053E+01  0.18879921046E+01  0.51100000000E-03 0.  1.
        -12    1    3    3    0    0 -0.12652117733E+02 -0.30326397528E+01  0.17147760020E+02  0.21524838227E+02  0.00000000000E+00 0.  1.
</event>
<event>
 7    1  0.1381607E-011  0.5052886E+02  0.7816164E-02  0.1300439E+00
        -11   -1    0    0    0    0  0.00000000000E+00  0.00000000000E+00  0.45593999997E+02  0.45594000000E+02  0.51100000000E-03 0.  1.
         11   -1    0    0    0    0 -0.00000000000E+00 -0.00000000000E+00 -0.45593999997E+02  0.45594000000E+02  0.51100000000E-03 0. -1.
    9900012    2    1    2    0    0 -0.60946543329E+01 -0.38778234330E+02  0.10595714140E+02  0.50528862929E+02  0.30000009360E+02 0.  0.
         12    1    1    2    0    0  0.60946543329E+01  0.38778234330E+02 -0.10595714140E+02  0.40659137071E+02  0.00000000000E+00 0. -1.
         11    1    3    3    0    0 -0.59802307500E+01 -0.73554075370E+01 -0.83088526054E+01  0.12605642060E+02  0.51100000000E-03 0. -1.
        -11    1    3    3    0    0  0.15287942476E+01 -0.20789529098E+01  0.45135108756E+01  0.51991381726E+01  0.51100000000E-03 0.  1.
        -12    1    3    3    0    0 -0.16432178305E+01 -0.29343873883E+02  0.14391055869E+02  0.32724082697E+02  0.00000000000E+00 0.  1.
</event>
<event>
 7    1  0.1381607E-011  0.5052885E+02  0.7816164E-02  0.1300439E+00
        -11   -1    0    0    0    0  0.00000000000E+00  0.00000000000E+00  0.45593999997E+02  0.45594000000E+02  0.51100000000E-03 0.  1.
         11   -1    0    0    0    0 -0.00000000000E+00 -0.00000000000E+00 -0.45593999997E+02  0.45594000000E+02  0.51100000000E-03 0. -1.
    9900012    2    1    2    0    0  0.38854380061E+02 -0.11559192872E+02  0.31446235256E+01  0.50528850392E+02  0.29999971250E+02 0.  0.
         12    1    1    2    0    0 -0.38854380061E+02  0.11559192872E+02 -0.31446235256E+01  0.40659149608E+02  0.00000000000E+00 0. -1.
         11    1    3    3    0    0  0.66962612795E+01  0.59712512861E+01  0.56252639906E+01  0.10589586974E+02  0.51100000000E-03 0. -1.
        -11    1    3    3    0    0  0.16645636486E+02 -0.34581433223E+01  0.49643325716E+01  0.17711029541E+02  0.51100000000E-03 0.  1.
         12    1    3    3    0    0  0.15512482296E+02 -0.14072300836E+02 -0.74449730366E+01  0.22228233877E+02  0.00000000000E+00 0. -1.
</event>
<event>
 7    1  0.1381607E-011  0.5052886E+02  0.7816164E-02  0.1300439E+00
        -11   -1    0    0    0    0  0.00000000000E+00  0.00000000000E+00  0.45593999997E+02  0.45594000000E+02  0.51100000000E-03 0.  1.
         11   -1    0    0    0    0 -0.00000000000E+00 -0.00000000000E+00 -0.45593999997E+02  0.45594000000E+02  0.51100000000E-03 0. -1.
    9900012    2    1    2    0    0  0.14833365349E+02 -0.28247469697E+02  0.25203511878E+02  0.50528864706E+02  0.30000014762E+02 0.  0.
         12    1    1    2    0    0 -0.14833365349E+02  0.28247469697E+02 -0.25203511878E+02  0.40659135294E+02  0.00000000000E+00 0. -1.
         11    1    3    3    0    0  0.57299184899E+01 -0.18286361859E+02  0.20401130234E+02  0.27989803698E+02  0.51100000000E-03 0. -1.
        -11    1    3    3    0    0 -0.40825170399E+01 -0.73269165004E+01  0.32823411242E+01  0.90069092536E+01  0.51100000000E-03 0.  1.
         12    1    3    3    0    0  0.13185963899E+02 -0.26341913369E+01  0.15200405196E+01  0.13532151755E+02  0.00000000000E+00 0. -1.
</event>
<event>
 7    1  0.1381607E-011  0.5052887E+02  0.7816164E-02  0.1300439E+00
        -11   -1    0    0    0    0  0.00000000000E+00  0.00000000000E+00  0.45593999997E+02  0.45594000000E+02  0.51100000000E-03 0.  1.
         11   -1    0    0    0    0 -0.00000000000E+00 -0.00000000000E+00 -0.45593999997E+02  0.45594000000E+02  0.51100000000E-03 0. -1.
    9900012    2    1    2    0    0 -0.14888354493E+02  0.66463363999E+01  0.37246850321E+02  0.50528871309E+02  0.30000034831E+02 0.  0.
         12    1    1    2    0    0  0.14888354493E+02 -0.66463363999E+01 -0.37246850321E+02  0.40659128691E+02  0.00000000000E+00 0. -1.
         11    1    3    3    0    0 -0.13341993157E+01  0.15060013996E+02  0.11884417303E+02  0.19230795206E+02  0.51100000000E-03 0. -1.
        -11    1    3    3    0    0 -0.34516164318E+00 -0.14721024819E-01  0.76595307146E+01  0.76673179337E+01  0.51100000000E-03 0.  1.
        -12    1    3    3    0    0 -0.13208993535E+02 -0.83989565710E+01  0.17702902304E+02  0.23630758169E+02  0.00000000000E+00 0.  1.
</event>
<event>
 7    1  0.1381607E-011  0.5052886E+02  0.7816164E-02  0.1300439E+00
        -11   -1    0    0    0    0  0.00000000000E+00  0.00000000000E+00  0.45593999997E+02  0.45594000000E+02  0.51100000000E-03 0.  1.
         11   -1    0    0    0    0 -0.00000000000E+00 -0.00000000000E+00 -0.45593999997E+02  0.45594000000E+02  0.51100000000E-03 0. -1.
    9900012    2    1    2    0    0 -0.29862951295E+02 -0.42778456732E+01  0.27259303925E+02  0.50528862354E+02  0.30000007610E+02 0.  0.
         12    1    1    2    0    0  0.29862951295E+02  0.42778456732E+01 -0.27259303925E+02  0.40659137646E+02  0.00000000000E+00 0. -1.
         11    1    3    3    0    0 -0.23416588226E+02 -0.10528701694E+02  0.17203702410E+02  0.30905623119E+02  0.51100000000E-03 0. -1.
        -11    1    3    3    0    0 -0.96709513883E+00  0.39287862173E+01  0.12538422588E+02  0.13175077814E+02  0.51100000000E-03 0.  1.
         12    1    3    3    0    0 -0.54792679306E+01  0.23220698037E+01 -0.24828210729E+01  0.64481614208E+01  0.00000000000E+00 0. -1.
</event>
<event>
 7    1  0.1381607E-011  0.5052887E+02  0.7816164E-02  0.1300439E+00
        -11   -1    0    0    0    0  0.00000000000E+00  0.00000000000E+00  0.45593999997E+02  0.45594000000E+02  0.51100000000E-03 0.  1.
         11   -1    0    0    0    0 -0.00000000000E+00 -0.00000000000E+00 -0.45593999997E+02  0.45594000000E+02  0.51100000000E-03 0. -1.
    9900012    2    1    2    0    0  0.21163232555E+02  0.31274010265E+02  0.15073777043E+02  0.50528869604E+02  0.30000029648E+02 0.  0.
         12    1    1    2    0    0 -0.21163232555E+02 -0.31274010265E+02 -0.15073777043E+02  0.40659130396E+02  0.00000000000E+00 0. -1.
         11    1    3    3    0    0  0.89823784781E+01  0.47140883284E+01  0.47891118480E+01  0.11217902854E+02  0.51100000000E-03 0. -1.
        -11    1    3    3    0    0  0.10686241423E+02  0.23657096819E+02  0.17557551403E+02  0.31338819333E+02  0.51100000000E-03 0.  1.
        -12    1    3    3    0    0  0.14946126539E+01  0.29028251173E+01 -0.72728862075E+01  0.79721474167E+01  0.00000000000E+00 0.  1.
</event>
<event>
 7    1  0.1381607E-011  0.5052885E+02  0.7816164E-02  0.1300439E+00
        -11   -1    0    0    0    0  0.00000000000E+00  0.00000000000E+00  0.45593999997E+02  0.45594000000E+02  0.51100000000E-03 0.  1.
         11   -1    0    0    0    0 -0.00000000000E+00 -0.00000000000E+00 -0.45593999997E+02  0.45594000000E+02  0.51100000000E-03 0. -1.
    9900012    2    1    2    0    0  0.21068542731E+02  0.17430175724E+01  0.34731034806E+02  0.50528851192E+02  0.29999973684E+02 0.  0.
         12    1    1    2    0    0 -0.21068542731E+02 -0.17430175724E+01 -0.34731034806E+02  0.40659148808E+02  0.00000000000E+00 0. -1.
         11    1    3    3    0    0  0.80969402390E+01 -0.41332448761E+01  0.14026679628E+02  0.16715020075E+02  0.51100000000E-03 0. -1.
        -11    1    3    3    0    0  0.18440832417E+02  0.35572266985E+01  0.93051939621E+01  0.20959599160E+02  0.51100000000E-03 0.  1.
         12    1    3    3    0    0 -0.54692299252E+01  0.23190357501E+01  0.11399161216E+02  0.12854231957E+02  0.00000000000E+00 0. -1.
</event>
<event>
 7    1  0.1381607E-011  0.5052885E+02  0.7816164E-02  0.1300439E+00
        -11   -1    0    0    0    0  0.00000000000E+00  0.00000000000E+00  0.45593999997E+02  0.45594000000E+02  0.51100000000E-03 0.  1.
         11   -1    0    0    0    0 -0.00000000000E+00 -0.00000000000E+00 -0.45593999997E+02  0.45594000000E+02  0.51100000000E-03 0. -1.
    9900012    2    1    2    0    0 -0.15662171309E+02  0.77330339282E+01  0.36715973578E+02  0.50528854170E+02  0.29999982735E+02 0.  0.
         12    1    1    2    0    0  0.15662171309E+02 -0.77330339282E+01 -0.36715973578E+02  0.40659145830E+02  0.00000000000E+00 0. -1.
         11    1    3    3    0    0 -0.70686574548E+00  0.71449752794E+01 -0.15737169245E+01  0.73503004119E+01  0.51100000000E-03 0. -1.
        -11    1    3    3    0    0 -0.23126865656E+01  0.58278705892E+01  0.11769457315E+02  0.13335393526E+02  0.51100000000E-03 0.  1.
        -12    1    3    3    0    0 -0.12642618998E+02 -0.52398119404E+01  0.26520233188E+02  0.29843160232E+02  0.00000000000E+00 0.  1.
</event>
<event>
 7    1  0.1381607E-011  0.5052886E+02  0.7816164E-02  0.1300439E+00
        -11   -1    0    0    0    0  0.00000000000E+00  0.00000000000E+00  0.45593999997E+02  0.45594000000E+02  0.51100000000E-03 0. -1.
         11   -1    0    0    0    0 -0.00000000000E+00 -0.00000000000E+00 -0.45593999997E+02  0.45594000000E+02  0.51100000000E-03 0.  1.
    9900012    2    1    2    0    0  0.28899820699E+02  0.28518432702E+02 -0.21599164240E+01  0.50528857373E+02  0.29999992470E+02 0.  0.
         12    1    1    2    0    0 -0.28899820699E+02 -0.28518432702E+02  0.21599164240E+01  0.40659142627E+02  0.00000000000E+00 0. -1.
         11    1    3    3    0    0  0.79227885525E+01  0.37814085853E+01  0.47480712285E+01  0.99806718205E+01  0.51100000000E-03 0. -1.
        -11    1    3    3    0    0  0.64358434882E+00 -0.43850747419E+01 -0.56322476805E+00  0.44676955700E+01  0.51100000000E-03 0.  1.
        -12    1    3    3    0    0  0.20333447798E+02  0.29122098859E+02 -0.63447628844E+01  0.36080489982E+02  0.00000000000E+00 0.  1.
</event>
<event>
 7    1  0.1381607E-011  0.5052888E+02  0.7816164E-02  0.1300439E+00
        -11   -1    0    0    0    0  0.00000000000E+00  0.00000000000E+00  0.45593999997E+02  0.45594000000E+02  0.51100000000E-03 0. -1.
         11   -1    0    0    0    0 -0.00000000000E+00 -0.00000000000E+00 -0.45593999997E+02  0.45594000000E+02  0.51100000000E-03 0.  1.
    9900012    2    1    2    0    0 -0.17399413868E+02 -0.35771209811E+02  0.84169421540E+01  0.50528880856E+02  0.30000063851E+02 0.  0.
         12    1    1    2    0    0  0.17399413868E+02  0.35771209811E+02 -0.84169421540E+01  0.40659119144E+02  0.00000000000E+00 0. -1.
         11    1    3    3    0    0 -0.10765163493E+02 -0.11342794556E+02 -0.47122301625E+01  0.16332570120E+02  0.51100000000E-03 0. -1.
        -11    1    3    3    0    0 -0.13038436164E+02 -0.12647881132E+02  0.73786974987E+01  0.19606501263E+02  0.51100000000E-03 0.  1.
         12    1    3    3    0    0  0.64041857886E+01 -0.11780534123E+02  0.57504748178E+01  0.14589809474E+02  0.00000000000E+00 0. -1.
</event>
<event>
 7    1  0.1381607E-011  0.5052887E+02  0.7816164E-02  0.1300439E+00
        -11   -1    0    0    0    0  0.00000000000E+00  0.00000000000E+00  0.45593999997E+02  0.45594000000E+02  0.51100000000E-03 0. -1.
         11   -1    0    0    0    0 -0.00000000000E+00 -0.00000000000E+00 -0.45593999997E+02  0.45594000000E+02  0.51100000000E-03 0.  1.
    9900012    2    1    2    0    0 -0.25418276145E+02  0.31733932254E+02  0.18406728964E+00  0.50528866964E+02  0.30000021622E+02 0.  0.
         12    1    1    2    0    0  0.25418276145E+02 -0.31733932254E+02 -0.18406728964E+00  0.40659133036E+02  0.00000000000E+00 0. -1.
         11    1    3    3    0    0  0.49728418359E+01  0.73072185336E+01  0.42247193467E+01  0.97965735052E+01  0.51100000000E-03 0. -1.
        -11    1    3    3    0    0 -0.98176679828E+00  0.52313247449E+01 -0.14544232709E+01  0.55177868702E+01  0.51100000000E-03 0.  1.
        -12    1    3    3    0    0 -0.29409351182E+02  0.19195388976E+02 -0.25862287862E+01  0.35214506588E+02  0.00000000000E+00 0.  1.
</event>
<event>
 7    1  0.1381607E-011  0.5052886E+02  0.7816164E-02  0.1300439E+00
        -11   -1    0    0    0    0  0.00000000000E+00  0.00000000000E+00  0.45593999997E+02  0.45594000000E+02  0.51100000000E-03 0. -1.
         11   -1    0    0    0    0 -0.00000000000E+00 -0.00000000000E+00 -0.45593999997E+02  0.45594000000E+02  0.51100000000E-03 0.  1.
    9900012    2    1    2    0    0  0.31659324738E+02  0.81836777969E+01 -0.24163611596E+02  0.50528861414E+02  0.30000004755E+02 0.  0.
         12    1    1    2    0    0 -0.31659324738E+02 -0.81836777969E+01  0.24163611596E+02  0.40659138586E+02  0.00000000000E+00 0. -1.
         11    1    3    3    0    0  0.66946546776E+01 -0.45592302905E+01  0.33329727108E+00  0.81065448513E+01  0.51100000000E-03 0. -1.
        -11    1    3    3    0    0  0.64019357358E+01  0.12322518368E+02 -0.33574400330E+01  0.14286414663E+02  0.51100000000E-03 0.  1.
        -12    1    3    3    0    0  0.18562734325E+02  0.42038971964E+00 -0.21139468834E+02  0.28135901900E+02  0.00000000000E+00 0.  1.
</event>
<event>
 7    1  0.1381607E-011  0.5052873E+02  0.7816164E-02  0.1300439E+00
        -11   -1    0    0    0    0  0.00000000000E+00  0.00000000000E+00  0.45593999997E+02  0.45594000000E+02  0.51100000000E-03 0. -1.
         11   -1    0    0    0    0 -0.00000000000E+00 -0.00000000000E+00 -0.45593999997E+02  0.45594000000E+02  0.51100000000E-03 0.  1.
    9900012    2    1    2    0    0  0.16580886787E+02  0.29409243191E+02 -0.22657159998E+02  0.50528729336E+02  0.29999603288E+02 0.  0.
         12    1    1    2    0    0 -0.16580886787E+02 -0.29409243191E+02  0.22657159998E+02  0.40659270664E+02  0.00000000000E+00 0. -1.
         11    1    3    3    0    0 -0.51655022432E+01  0.11895396127E+02 -0.12994528484E+02  0.18358666433E+02  0.51100000000E-03 0. -1.
        -11    1    3    3    0    0  0.10420123214E+02  0.13129767890E+02 -0.10849591819E+02  0.19967058259E+02  0.51100000000E-03 0.  1.
        -12    1    3    3    0    0  0.11326265817E+02  0.43840791748E+01  0.11869603050E+01  0.12203004644E+02  0.00000000000E+00 0.  1.
</event>
<event>
 7    1  0.1381607E-011  0.5052887E+02  0.7816164E-02  0.1300439E+00
        -11   -1    0    0    0    0  0.00000000000E+00  0.00000000000E+00  0.45593999997E+02  0.45594000000E+02  0.51100000000E-03 0.  1.
         11   -1    0    0    0    0 -0.00000000000E+00 -0.00000000000E+00 -0.45593999997E+02  0.45594000000E+02  0.51100000000E-03 0. -1.
    9900012    2    1    2    0    0 -0.20357657907E+02 -0.51057136320E+01  0.34823301729E+02  0.50528869532E+02  0.30000029428E+02 0.  0.
         12    1    1    2    0    0  0.20357657907E+02  0.51057136320E+01 -0.34823301729E+02  0.40659130468E+02  0.00000000000E+00 0. -1.
         11    1    3    3    0    0 -0.69080256147E+01  0.15193217224E+00 -0.15772910206E+00  0.69114962207E+01  0.51100000000E-03 0. -1.
        -11    1    3    3    0    0 -0.15688663293E+02  0.10167273199E+01  0.33180144840E+02  0.36716343803E+02  0.51100000000E-03 0.  1.
         12    1    3    3    0    0  0.22390310003E+01 -0.62743731241E+01  0.18008859903E+01  0.69010295080E+01  0.00000000000E+00 0. -1.
</event>
<event>
 7    1  0.1381607E-011  0.5052886E+02  0.7816164E-02  0.1300439E+00
        -11   -1    0    0    0    0  0.00000000000E+00  0.00000000000E+00  0.45593999997E+02  0.45594000000E+02  0.51100000000E-03 0. -1.
         11   -1    0    0    0    0 -0.00000000000E+00 -0.00000000000E+00 -0.45593999997E+02  0.45594000000E+02  0.51100000000E-03 0.  1.
    9900012    2    1    2    0    0 -0.11574641334E+02  0.83876533173E+01 -0.38063643269E+02  0.50528856022E+02  0.29999988363E+02 0.  0.
         12    1    1    2    0    0  0.11574641334E+02 -0.83876533173E+01  0.38063643269E+02  0.40659143978E+02  0.00000000000E+00 0. -1.
         11    1    3    3    0    0 -0.24951282680E+01  0.52449852284E+01 -0.43957143483E+01  0.72840812744E+01  0.51100000000E-03 0. -1.
        -11    1    3    3    0    0  0.57896131416E+01  0.24530309034E+01 -0.25504330962E+02  0.26268001047E+02  0.51100000000E-03 0.  1.
         12    1    3    3    0    0 -0.14869126208E+02  0.68963718554E+00 -0.81635979583E+01  0.16976773700E+02  0.00000000000E+00 0. -1.
</event>
<event>
 7    1  0.1381607E-011  0.5052884E+02  0.7816164E-02  0.1300439E+00
        -11   -1    0    0    0    0  0.00000000000E+00  0.00000000000E+00  0.45593999997E+02  0.45594000000E+02  0.51100000000E-03 0.  1.
         11   -1    0    0    0    0 -0.00000000000E+00 -0.00000000000E+00 -0.45593999997E+02  0.45594000000E+02  0.51100000000E-03 0. -1.
    9900012    2    1    2    0    0  0.96689771311E+01  0.25616712704E+02  0.30057646751E+02  0.50528840924E+02  0.29999942473E+02 0.  0.
         12    1    1    2    0    0 -0.96689771311E+01 -0.25616712704E+02 -0.30057646751E+02  0.40659159076E+02  0.00000000000E+00 0. -1.
         11    1    3    3    0    0  0.32686549036E+00  0.38941886250E+01 -0.98835995723E-01  0.39091322453E+01  0.51100000000E-03 0. -1.
        -11    1    3    3    0    0 -0.46872515870E+01  0.14686845059E+02  0.26256110074E+02  0.30447611757E+02  0.51100000000E-03 0.  1.
         12    1    3    3    0    0  0.14029363228E+02  0.70356790206E+01  0.39003726723E+01  0.16172096922E+02  0.00000000000E+00 0. -1.
</event>
<event>
 7    1  0.1381607E-011  0.5052886E+02  0.7816164E-02  0.1300439E+00
        -11   -1    0    0    0    0  0.00000000000E+00  0.00000000000E+00  0.45593999997E+02  0.45594000000E+02  0.51100000000E-03 0.  1.
         11   -1    0    0    0    0 -0.00000000000E+00 -0.00000000000E+00 -0.45593999997E+02  0.45594000000E+02  0.51100000000E-03 0. -1.
    9900012    2    1    2    0    0  0.35493596601E+02 -0.86820683424E+01  0.17832321034E+02  0.50528863465E+02  0.30000010987E+02 0.  0.
         12    1    1    2    0    0 -0.35493596601E+02  0.86820683424E+01 -0.17832321034E+02  0.40659136535E+02  0.00000000000E+00 0. -1.
         11    1    3    3    0    0  0.76153777829E+01  0.18774516226E+01 -0.70291985948E+01  0.10532256953E+02  0.51100000000E-03 0. -1.
        -11    1    3    3    0    0  0.12478300141E+02 -0.31710421493E+01  0.50279565390E+01  0.13821860582E+02  0.51100000000E-03 0.  1.
        -12    1    3    3    0    0  0.15399918677E+02 -0.73884778157E+01  0.19833563089E+02  0.26174745930E+02  0.00000000000E+00 0.  1.
</event>
<event>
 7    1  0.1381607E-011  0.5052886E+02  0.7816164E-02  0.1300439E+00
        -11   -1    0    0    0    0  0.00000000000E+00  0.00000000000E+00  0.45593999997E+02  0.45594000000E+02  0.51100000000E-03 0.  1.
         11   -1    0    0    0    0 -0.00000000000E+00 -0.00000000000E+00 -0.45593999997E+02  0.45594000000E+02  0.51100000000E-03 0. -1.
    9900012    2    1    2    0    0  0.58950334617E+01 -0.25070336544E+02  0.31462561714E+02  0.50528856090E+02  0.29999988570E+02 0.  0.
         12    1    1    2    0    0 -0.58950334617E+01  0.25070336544E+02 -0.31462561714E+02  0.40659143910E+02  0.00000000000E+00 0. -1.
         11    1    3    3    0    0  0.37455540800E+01 -0.17889587995E+01 -0.24315126934E+01  0.48105928109E+01  0.51100000000E-03 0. -1.
        -11    1    3    3    0    0  0.92327538564E+01 -0.19978503743E+02  0.19810596191E+02  0.29611553104E+02  0.51100000000E-03 0.  1.
         12    1    3    3    0    0 -0.70832744747E+01 -0.33028740014E+01  0.14083478217E+02  0.16106710174E+02  0.00000000000E+00 0. -1.
</event>
<event>
 7    1  0.1381607E-011  0.5052887E+02  0.7816164E-02  0.1300439E+00
        -11   -1    0    0    0    0  0.00000000000E+00  0.00000000000E+00  0.45593999997E+02  0.45594000000E+02  0.51100000000E-03 0. -1.
         11   -1    0    0    0    0 -0.00000000000E+00 -0.00000000000E+00 -0.45593999997E+02  0.45594000000E+02  0.51100000000E-03 0.  1.
    9900012    2    1    2    0    0 -0.25048257189E+02  0.28727839675E+02 -0.14158431912E+02  0.50528866281E+02  0.30000019548E+02 0.  0.
         12    1    1    2    0    0  0.25048257189E+02 -0.28727839675E+02  0.14158431912E+02  0.40659133719E+02  0.00000000000E+00 0. -1.
         11    1    3    3    0    0 -0.11702709812E+02  0.12574987566E+02 -0.15503424035E+02  0.23139574030E+02  0.51100000000E-03 0. -1.
        -11    1    3    3    0    0 -0.21907689838E+01  0.15572066078E+02 -0.16858163309E+01  0.15815520467E+02  0.51100000000E-03 0.  1.
         12    1    3    3    0    0 -0.11154778393E+02  0.58078603088E+00  0.30308084542E+01  0.11573771784E+02  0.00000000000E+00 0. -1.
</event>
<event>
 7    1  0.1381607E-011  0.5052885E+02  0.7816164E-02  0.1300439E+00
        -11   -1    0    0    0    0  0.00000000000E+00  0.00000000000E+00  0.45593999997E+02  0.45594000000E+02  0.51100000000E-03 0.  1.
         11   -1    0    0    0    0 -0.00000000000E+00 -0.00000000000E+00 -0.45593999997E+02  0.45594000000E+02  0.51100000000E-03 0. -1.
    9900012    2    1    2    0    0  0.26910043826E+02  0.14500106703E+02 -0.26809754950E+02  0.50528849571E+02  0.29999968755E+02 0.  0.
         12    1    1    2    0    0 -0.26910043826E+02 -0.14500106703E+02  0.26809754950E+02  0.40659150429E+02  0.00000000000E+00 0. -1.
         11    1    3    3    0    0  0.12933887194E+02 -0.33936705821E+01 -0.19655657534E+02  0.23772827163E+02  0.51100000000E-03 0. -1.
        -11    1    3    3    0    0  0.10095248997E+02  0.33465975104E+01 -0.40685879716E+01  0.11387149580E+02  0.51100000000E-03 0.  1.
         12    1    3    3    0    0  0.38809076351E+01  0.14547179774E+02 -0.30855094447E+01  0.15368872828E+02  0.00000000000E+00 0. -1.
</event>
<event>
 7    1  0.1381607E-011  0.5052886E+02  0.7816164E-02  0.1300439E+00
        -11   -1    0    0    0    0  0.00000000000E+00  0.00000000000E+00  0.45593999997E+02  0.45594000000E+02  0.51100000000E-03 0. -1.
         11   -1    0    0    0    0 -0.00000000000E+00 -0.00000000000E+00 -0.45593999997E+02  0.45594000000E+02  0.51100000000E-03 0.  1.
    9900012    2    1    2    0    0  0.33547571523E+02  0.21800652799E+02 -0.72427515766E+01  0.50528862430E+02  0.30000007842E+02 0.  0.
         12    1    1    2    0    0 -0.33547571523E+02 -0.21800652799E+02  0.72427515766E+01  0.40659137570E+02  0.00000000000E+00 0. -1.
         11    1    3    3    0    0  0.37113812646E+01  0.25834576590E+01 -0.71984660803E+01  0.85009716231E+01  0.51100000000E-03 0. -1.
        -11    1    3    3    0    0  0.66719057297E+01 -0.44887877912E+01  0.33475015350E+01  0.87102990011E+01  0.51100000000E-03 0.  1.
        -12    1    3    3    0    0  0.23164284529E+02  0.23705982931E+02 -0.33917870313E+01  0.33317591806E+02  0.00000000000E+00 0.  1.
</event>
<event>
 7    1  0.1381607E-011  0.5052886E+02  0.7816164E-02  0.1300439E+00
        -11   -1    0    0    0    0  0.00000000000E+00  0.00000000000E+00  0.45593999997E+02  0.45594000000E+02  0.51100000000E-03 0.  1.
         11   -1    0    0    0    0 -0.00000000000E+00 -0.00000000000E+00 -0.45593999997E+02  0.45594000000E+02  0.51100000000E-03 0. -1.
    9900012    2    1    2    0    0  0.30682347275E+02  0.26645010464E+02  0.13426269673E+01  0.50528860018E+02  0.30000000510E+02 0.  0.
         12    1    1    2    0    0 -0.30682347275E+02 -0.26645010464E+02 -0.13426269673E+01  0.40659139982E+02  0.00000000000E+00 0. -1.
         11    1    3    3    0    0  0.56675161929E+01  0.20224183328E+02 -0.39951186241E+01  0.21379880827E+02  0.51100000000E-03 0. -1.
        -11    1    3    3    0    0  0.60518446674E+01  0.27897749724E+01 -0.39256838328E+01  0.77342525231E+01  0.51100000000E-03 0.  1.
        -12    1    3    3    0    0  0.18962986414E+02  0.36310521636E+01  0.92634294241E+01  0.21414726668E+02  0.00000000000E+00 0.  1.
</event>
<event>
 7    1  0.1381607E-011  0.5052886E+02  0.7816164E-02  0.1300439E+00
        -11   -1    0    0    0    0  0.00000000000E+00  0.00000000000E+00  0.45593999997E+02  0.45594000000E+02  0.51100000000E-03 0.  1.
         11   -1    0    0    0    0 -0.00000000000E+00 -0.00000000000E+00 -0.45593999997E+02  0.45594000000E+02  0.51100000000E-03 0. -1.
    9900012    2    1    2    0    0 -0.11070821980E+02 -0.10745665042E+02  0.37618256182E+02  0.50528860626E+02  0.30000002358E+02 0.  0.
         12    1    1    2    0    0  0.11070821980E+02  0.10745665042E+02 -0.37618256182E+02  0.40659139374E+02  0.00000000000E+00 0. -1.
         11    1    3    3    0    0 -0.89671626691E+01  0.35948994045E+01  0.35404287691E+01  0.10289214945E+02  0.51100000000E-03 0. -1.
        -11    1    3    3    0    0 -0.75881148928E+01 -0.36384755875E+01  0.20161602156E+02  0.21847384145E+02  0.51100000000E-03 0.  1.
        -12    1    3    3    0    0  0.54844555819E+01 -0.10702088859E+02  0.13916225257E+02  0.18392261535E+02  0.00000000000E+00 0.  1.
</event>
<event>
 7    1  0.1381607E-011  0.5052886E+02  0.7816164E-02  0.1300439E+00
        -11   -1    0    0    0    0  0.00000000000E+00  0.00000000000E+00  0.45593999997E+02  0.45594000000E+02  0.51100000000E-03 0. -1.
         11   -1    0    0    0    0 -0.00000000000E+00 -0.00000000000E+00 -0.45593999997E+02  0.45594000000E+02  0.51100000000E-03 0.  1.
    9900012    2    1    2    0    0  0.31047753546E+02 -0.23763691236E+02 -0.11157485040E+02  0.50528862112E+02  0.30000006875E+02 0.  0.
         12    1    1    2    0    0 -0.31047753546E+02  0.23763691236E+02  0.11157485040E+02  0.40659137888E+02  0.00000000000E+00 0. -1.
         11    1    3    3    0    0  0.16409039974E+02 -0.16094948809E+02 -0.22205637164E+01  0.23091878951E+02  0.51100000000E-03 0. -1.
        -11    1    3    3    0    0  0.13771418031E+02 -0.33624981436E+01  0.31973500787E+01  0.14532081617E+02  0.51100000000E-03 0.  1.
         12    1    3    3    0    0  0.86729554138E+00 -0.43062442838E+01 -0.12134271402E+02  0.12904901543E+02  0.00000000000E+00 0. -1.
</event>
<event>
 7    1  0.1381607E-011  0.5052887E+02  0.7816164E-02  0.1300439E+00
        -11   -1    0    0    0    0  0.00000000000E+00  0.00000000000E+00  0.45593999997E+02  0.45594000000E+02  0.51100000000E-03 0. -1.
         11   -1    0    0    0    0 -0.00000000000E+00 -0.00000000000E+00 -0.45593999997E+02  0.45594000000E+02  0.51100000000E-03 0.  1.
    9900012    2    1    2    0    0  0.28802046962E+02 -0.21111661371E+01 -0.28620801471E+02  0.50528865621E+02  0.30000017540E+02 0.  0.
         12    1    1    2    0    0 -0.28802046962E+02  0.21111661371E+01  0.28620801471E+02  0.40659134379E+02  0.00000000000E+00 0. -1.
         11    1    3    3    0    0  0.11052419915E+01 -0.63436846010E+01 -0.32744170487E+01  0.72239671544E+01  0.51100000000E-03 0. -1.
        -11    1    3    3    0    0  0.16894652607E+02  0.81451019393E+01 -0.25693431129E+02  0.31810758805E+02  0.51100000000E-03 0.  1.
         12    1    3    3    0    0  0.10802152364E+02 -0.39125834753E+01  0.34704670667E+00  0.11494139662E+02  0.00000000000E+00 0. -1.
</event>
<event>
 7    1  0.1381607E-011  0.5052886E+02  0.7816164E-02  0.1300439E+00
        -11   -1    0    0    0    0  0.00000000000E+00  0.00000000000E+00  0.45593999997E+02  0.45594000000E+02  0.51100000000E-03 0. -1.
         11   -1    0    0    0    0 -0.00000000000E+00 -0.00000000000E+00 -0.45593999997E+02  0.45594000000E+02  0.51100000000E-03 0.  1.
    9900012    2    1    2    0    0  0.26965724829E+01  0.19625400771E+01 -0.40522127214E+02  0.50528857600E+02  0.29999993161E+02 0.  0.
         12    1    1    2    0    0 -0.26965724829E+01 -0.19625400771E+01  0.40522127214E+02  0.40659142400E+02  0.00000000000E+00 0. -1.
         11    1    3    3    0    0  0.29731500387E-01  0.30989829947E+01 -0.22974828891E+02  0.23182910568E+02  0.51100000000E-03 0. -1.
        -11    1    3    3    0    0 -0.81598010950E+01  0.92916029318E+00 -0.13098264145E+02  0.15459955260E+02  0.51100000000E-03 0.  1.
         12    1    3    3    0    0  0.10826642078E+02 -0.20656032108E+01 -0.44490341788E+01  0.11885991773E+02  0.00000000000E+00 0. -1.
</event>
<event>
 7    1  0.1381607E-011  0.5052887E+02  0.7816164E-02  0.1300439E+00
        -11   -1    0    0    0    0  0.00000000000E+00  0.00000000000E+00  0.45593999997E+02  0.45594000000E+02  0.51100000000E-03 0. -1.
         11   -1    0    0    0    0 -0.00000000000E+00 -0.00000000000E+00 -0.45593999997E+02  0.45594000000E+02  0.51100000000E-03 0.  1.
    9900012    2    1    2    0    0  0.29352992122E+01  0.24926954757E+01 -0.40476359203E+02  0.50528866137E+02  0.30000019109E+02 0.  0.
         12    1    1    2    0    0 -0.29352992122E+01 -0.24926954757E+01  0.40476359203E+02  0.40659133863E+02  0.00000000000E+00 0. -1.
         11    1    3    3    0    0 -0.36757103112E+01 -0.24672777910E+01 -0.11769921291E+01  0.45807877841E+01  0.51100000000E-03 0. -1.
        -11    1    3    3    0    0 -0.46993013114E+01 -0.78404730170E+00 -0.29596218865E+02  0.29977230265E+02  0.51100000000E-03 0.  1.
         12    1    3    3    0    0  0.11310310835E+02  0.57440205684E+01 -0.97031482087E+01  0.15970848087E+02  0.00000000000E+00 0. -1.
</event>
<event>
 7    1  0.1381607E-011  0.5052886E+02  0.7816164E-02  0.1300439E+00
        -11   -1    0    0    0    0  0.00000000000E+00  0.00000000000E+00  0.45593999997E+02  0.45594000000E+02  0.51100000000E-03 0.  1.
         11   -1    0    0    0    0 -0.00000000000E+00 -0.00000000000E+00 -0.45593999997E+02  0.45594000000E+02  0.51100000000E-03 0. -1.
    9900012    2    1    2    0    0 -0.26076231535E+02 -0.12949089934E+01  0.31169196743E+02  0.50528862454E+02  0.30000007915E+02 0.  0.
         12    1    1    2    0    0  0.26076231535E+02  0.12949089934E+01 -0.31169196743E+02  0.40659137546E+02  0.00000000000E+00 0. -1.
         11    1    3    3    0    0 -0.16943189447E+02  0.22215196647E+01  0.51770299797E+01  0.17855208146E+02  0.51100000000E-03 0. -1.
        -11    1    3    3    0    0 -0.84484523933E+01  0.56872142567E+01  0.16813110493E+02  0.19657096392E+02  0.51100000000E-03 0.  1.
        -12    1    3    3    0    0 -0.68458969435E+00 -0.92036429149E+01  0.91790562706E+01  0.13016557916E+02  0.00000000000E+00 0.  1.
</event>
<event>
 7    1  0.1381607E-011  0.5052887E+02  0.7816164E-02  0.1300439E+00
        -11   -1    0    0    0    0  0.00000000000E+00  0.00000000000E+00  0.45593999997E+02  0.45594000000E+02  0.51100000000E-03 0.  1.
         11   -1    0    0    0    0 -0.00000000000E+00 -0.00000000000E+00 -0.45593999997E+02  0.45594000000E+02  0.51100000000E-03 0. -1.
    9900012    2    1    2    0    0 -0.39915613974E+02 -0.73729945715E+01 -0.23553720985E+01  0.50528867378E+02  0.30000022883E+02 0.  0.
         12    1    1    2    0    0  0.39915613974E+02  0.73729945715E+01  0.23553720985E+01  0.40659132622E+02  0.00000000000E+00 0. -1.
         11    1    3    3    0    0 -0.44567139222E+01 -0.37942951651E+01 -0.41547238479E+01  0.71777925087E+01  0.51100000000E-03 0. -1.
        -11    1    3    3    0    0 -0.36221820610E+02 -0.94069410108E+01  0.19094544199E+01  0.37472080859E+02  0.51100000000E-03 0.  1.
         12    1    3    3    0    0  0.76292055825E+00  0.58282416045E+01 -0.11010267043E+00  0.58789940106E+01  0.00000000000E+00 0. -1.
</event>
<event>
 7    1  0.1381607E-011  0.5052886E+02  0.7816164E-02  0.1300439E+00
        -11   -1    0    0    0    0  0.00000000000E+00  0.00000000000E+00  0.45593999997E+02  0.45594000000E+02  0.51100000000E-03 0.  1.
         11   -1    0    0    0    0 -0.00000000000E+00 -0.00000000000E+00 -0.45593999997E+02  0.45594000000E+02  0.51100000000E-03 0. -1.
    9900012    2    1    2    0    0 -0.22877595617E+02 -0.30388307769E+02  0.14364262914E+02  0.50528859830E+02  0.29999999940E+02 0.  0.
         12    1    1    2    0    0  0.22877595617E+02  0.30388307769E+02 -0.14364262914E+02  0.40659140170E+02  0.00000000000E+00 0. -1.
         11    1    3    3    0    0 -0.90369618413E+01 -0.91221754096E+01 -0.57227154281E+01  0.14058102136E+02  0.51100000000E-03 0. -1.
        -11    1    3    3    0    0 -0.45449655094E+01 -0.16453798273E+02  0.44272619010E+01  0.17634762184E+02  0.51100000000E-03 0.  1.
        -12    1    3    3    0    0 -0.92956682666E+01 -0.48123340866E+01  0.15659716441E+02  0.18835995511E+02  0.00000000000E+00 0.  1.
</event>
<event>
 7    1  0.1381607E-011  0.5052886E+02  0.7816164E-02  0.1300439E+00
        -11   -1    0    0    0    0  0.00000000000E+00  0.00000000000E+00  0.45593999997E+02  0.45594000000E+02  0.51100000000E-03 0. -1.
         11   -1    0    0    0    0 -0.00000000000E+00 -0.00000000000E+00 -0.45593999997E+02  0.45594000000E+02  0.51100000000E-03 0.  1.
    9900012    2    1    2    0    0  0.27317618467E+02 -0.26206770047E+02 -0.14836394542E+02  0.50528859846E+02  0.29999999989E+02 0.  0.
         12    1    1    2    0    0 -0.27317618467E+02  0.26206770047E+02  0.14836394542E+02  0.40659140154E+02  0.00000000000E+00 0. -1.
         11    1    3    3    0    0  0.38857055543E+01 -0.78084700602E+01 -0.24026251062E+01  0.90467408495E+01  0.51100000000E-03 0. -1.
        -11    1    3    3    0    0  0.25067570436E+02 -0.51444131139E+01 -0.46017312358E+01  0.26000461620E+02  0.51100000000E-03 0.  1.
         12    1    3    3    0    0 -0.16356575226E+01 -0.13253886873E+02 -0.78320381996E+01  0.15481657377E+02  0.00000000000E+00 0. -1.
</event>
<event>
 7    1  0.1381607E-011  0.5052886E+02  0.7816164E-02  0.1300439E+00
        -11   -1    0    0    0    0  0.00000000000E+00  0.00000000000E+00  0.45593999997E+02  0.45594000000E+02  0.51100000000E-03 0.  1.
         11   -1    0    0    0    0 -0.00000000000E+00 -0.00000000000E+00 -0.45593999997E+02  0.45594000000E+02  0.51100000000E-03 0. -1.
    9900012    2    1    2    0    0 -0.26141036070E+02 -0.90004832127E+01  0.29812797015E+02  0.50528864117E+02  0.30000012970E+02 0.  0.
         12    1    1    2    0    0  0.26141036070E+02  0.90004832127E+01 -0.29812797015E+02  0.40659135883E+02  0.00000000000E+00 0. -1.
         11    1    3    3    0    0  0.34122850986E+01 -0.68024729269E+01  0.10616722674E+02  0.13062623325E+02  0.51100000000E-03 0. -1.
        -11    1    3    3    0    0 -0.69256197962E+01 -0.37881844334E+01  0.10582402187E+02  0.13202340216E+02  0.51100000000E-03 0.  1.
        -12    1    3    3    0    0 -0.22627701372E+02  0.15901741476E+01  0.86136721538E+01  0.24263900576E+02  0.00000000000E+00 0.  1.
</event>
<event>
 7    1  0.1381607E-011  0.5052888E+02  0.7816164E-02  0.1300439E+00
        -11   -1    0    0    0    0  0.00000000000E+00  0.00000000000E+00  0.45593999997E+02  0.45594000000E+02  0.51100000000E-03 0.  1.
         11   -1    0    0    0    0 -0.00000000000E+00 -0.00000000000E+00 -0.45593999997E+02  0.45594000000E+02  0.51100000000E-03 0. -1.
    9900012    2    1    2    0    0  0.28906332790E+02 -0.11057646890E+01  0.28572105029E+02  0.50528880768E+02  0.30000063583E+02 0.  0.
         12    1    1    2    0    0 -0.28906332790E+02  0.11057646890E+01 -0.28572105029E+02  0.40659119232E+02  0.00000000000E+00 0. -1.
         11    1    3    3    0    0  0.32809017928E+01 -0.29700015451E+01 -0.71100897513E+00  0.44822717204E+01  0.51100000000E-03 0. -1.
        -11    1    3    3    0    0  0.12803714952E+02 -0.87965533450E+01  0.23936843763E+02  0.28535713709E+02  0.51100000000E-03 0.  1.
        -12    1    3    3    0    0  0.12821716045E+02  0.10660790201E+02  0.53462702412E+01  0.17510895338E+02  0.00000000000E+00 0.  1.
</event>
<event>
 7    1  0.1381607E-011  0.5052886E+02  0.7816164E-02  0.1300439E+00
        -11   -1    0    0    0    0  0.00000000000E+00  0.00000000000E+00  0.45593999997E+02  0.45594000000E+02  0.51100000000E-03 0.  1.
         11   -1    0    0    0    0 -0.00000000000E+00 -0.00000000000E+00 -0.45593999997E+02  0.45594000000E+02  0.51100000000E-03 0. -1.
    9900012    2    1    2    0    0  0.89651316632E+01 -0.19651071186E+02  0.34447462163E+02  0.50528857929E+02  0.29999994160E+02 0.  0.
         12    1    1    2    0    0 -0.89651316632E+01  0.19651071186E+02 -0.34447462163E+02  0.40659142071E+02  0.00000000000E+00 0. -1.
         11    1    3    3    0    0  0.15000346434E+02 -0.46021332143E+01  0.10969081144E+02  0.19144470864E+02  0.51100000000E-03 0. -1.
        -11    1    3    3    0    0 -0.41532835514E+01 -0.16160425802E+01  0.14371681513E+02  0.15046813206E+02  0.51100000000E-03 0.  1.
        -12    1    3    3    0    0 -0.18819312192E+01 -0.13432895391E+02  0.91066995066E+01  0.16337573859E+02  0.00000000000E+00 0.  1.
</event>
<event>
 7    1  0.1381607E-011  0.5052886E+02  0.7816164E-02  0.1300439E+00
        -11   -1    0    0    0    0  0.00000000000E+00  0.00000000000E+00  0.45593999997E+02  0.45594000000E+02  0.51100000000E-03 0.  1.
         11   -1    0    0    0    0 -0.00000000000E+00 -0.00000000000E+00 -0.45593999997E+02  0.45594000000E+02  0.51100000000E-03 0. -1.
    9900012    2    1    2    0    0  0.26206231456E+02 -0.12684708958E+02  0.28381290239E+02  0.50528855345E+02  0.29999986306E+02 0.  0.
         12    1    1    2    0    0 -0.26206231456E+02  0.12684708958E+02 -0.28381290239E+02  0.40659144655E+02  0.00000000000E+00 0. -1.
         11    1    3    3    0    0  0.80023180865E+01 -0.15827923910E+02  0.16597270650E+02  0.24290526206E+02  0.51100000000E-03 0. -1.
        -11    1    3    3    0    0  0.63883332882E+01 -0.25415245863E+01 -0.20533031493E+01  0.71753887357E+01  0.51100000000E-03 0.  1.
        -12    1    3    3    0    0  0.11815580081E+02  0.56847395381E+01  0.13837322738E+02  0.19062940404E+02  0.00000000000E+00 0.  1.
</event>
<event>
 7    1  0.1381607E-011  0.5052887E+02  0.7816164E-02  0.1300439E+00
        -11   -1    0    0    0    0  0.00000000000E+00  0.00000000000E+00  0.45593999997E+02  0.45594000000E+02  0.51100000000E-03 0.  1.
         11   -1    0    0    0    0 -0.00000000000E+00 -0.00000000000E+00 -0.45593999997E+02  0.45594000000E+02  0.51100000000E-03 0. -1.
    9900012    2    1    2    0    0 -0.32441048237E+02 -0.12065548603E+02  0.21334606519E+02  0.50528874221E+02  0.30000043681E+02 0.  0.
         12    1    1    2    0    0  0.32441048237E+02  0.12065548603E+02 -0.21334606519E+02  0.40659125779E+02  0.00000000000E+00 0. -1.
         11    1    3    3    0    0 -0.14211941888E+02  0.51854330714E+01  0.40010595431E+01  0.15648529839E+02  0.51100000000E-03 0. -1.
        -11    1    3    3    0    0 -0.17661182872E+02 -0.97164217192E+01  0.55939774320E+01  0.20919340698E+02  0.51100000000E-03 0.  1.
         12    1    3    3    0    0 -0.56792347650E+00 -0.75345599552E+01  0.11739569544E+02  0.13961003684E+02  0.00000000000E+00 0. -1.
</event>
<event>
 7    1  0.1381607E-011  0.5052886E+02  0.7816164E-02  0.1300439E+00
        -11   -1    0    0    0    0  0.00000000000E+00  0.00000000000E+00  0.45593999997E+02  0.45594000000E+02  0.51100000000E-03 0. -1.
         11   -1    0    0    0    0 -0.00000000000E+00 -0.00000000000E+00 -0.45593999997E+02  0.45594000000E+02  0.51100000000E-03 0.  1.
    9900012    2    1    2    0    0  0.26607143544E+02 -0.90848866712E+01 -0.29371586075E+02  0.50528864225E+02  0.30000013298E+02 0.  0.
         12    1    1    2    0    0 -0.26607143544E+02  0.90848866712E+01  0.29371586075E+02  0.40659135775E+02  0.00000000000E+00 0. -1.
         11    1    3    3    0    0  0.86993300078E+01  0.49921259150E+01 -0.44400357013E-01  0.10030036659E+02  0.51100000000E-03 0. -1.
        -11    1    3    3    0    0  0.46147224918E+01 -0.37418531190E+00  0.92980426603E+00  0.47223102988E+01  0.51100000000E-03 0.  1.
         12    1    3    3    0    0  0.13293091045E+02 -0.13702827274E+02 -0.30256989984E+02  0.35776517267E+02  0.00000000000E+00 0. -1.
</event>
<event>
 7    1  0.1381607E-011  0.5052886E+02  0.7816164E-02  0.1300439E+00
        -11   -1    0    0    0    0  0.00000000000E+00  0.00000000000E+00  0.45593999997E+02  0.45594000000E+02  0.51100000000E-03 0. -1.
         11   -1    0    0    0    0 -0.00000000000E+00 -0.00000000000E+00 -0.45593999997E+02  0.45594000000E+02  0.51100000000E-03 0.  1.
    9900012    2    1    2    0    0  0.10599244585E+02 -0.36522210215E+02 -0.14385740110E+02  0.50528863963E+02  0.30000012502E+02 0.  0.
         12    1    1    2    0    0 -0.10599244585E+02  0.36522210215E+02  0.14385740110E+02  0.40659136037E+02  0.00000000000E+00 0. -1.
         11    1    3    3    0    0  0.25458808046E+01  0.99822429816E+00 -0.58733692930E+01  0.64787674703E+01  0.51100000000E-03 0. -1.
        -11    1    3    3    0    0  0.41751910856E+01 -0.17357832982E+02 -0.14124623253E+02  0.22764700059E+02  0.51100000000E-03 0.  1.
        -12    1    3    3    0    0  0.38781726952E+01 -0.20162601531E+02  0.56122524367E+01  0.21285396434E+02  0.00000000000E+00 0.  1.
</event>
<event>
 7    1  0.1381607E-011  0.5052886E+02  0.7816164E-02  0.1300439E+00
        -11   -1    0    0    0    0  0.00000000000E+00  0.00000000000E+00  0.45593999997E+02  0.45594000000E+02  0.51100000000E-03 0.  1.
         11   -1    0    0    0    0 -0.00000000000E+00 -0.00000000000E+00 -0.45593999997E+02  0.45594000000E+02  0.51100000000E-03 0. -1.
    9900012    2    1    2    0    0 -0.21864070180E+02  0.23714065935E+02  0.24754217523E+02  0.50528858676E+02  0.29999996432E+02 0.  0.
         12    1    1    2    0    0  0.21864070180E+02 -0.23714065935E+02 -0.24754217523E+02  0.40659141324E+02  0.00000000000E+00 0. -1.
         11    1    3    3    0    0  0.34232496680E+01  0.72206553161E+01  0.19790998321E+01  0.82324563704E+01  0.51100000000E-03 0. -1.
        -11    1    3    3    0    0 -0.79197851697E+01  0.15311235280E+02  0.16297095819E+02  0.23722399864E+02  0.51100000000E-03 0.  1.
         12    1    3    3    0    0 -0.17367534678E+02  0.11821753397E+01  0.64780218725E+01  0.18574002442E+02  0.00000000000E+00 0. -1.
</event>
<event>
 7    1  0.1381607E-011  0.5052886E+02  0.7816164E-02  0.1300439E+00
        -11   -1    0    0    0    0  0.00000000000E+00  0.00000000000E+00  0.45593999997E+02  0.45594000000E+02  0.51100000000E-03 0.  1.
         11   -1    0    0    0    0 -0.00000000000E+00 -0.00000000000E+00 -0.45593999997E+02  0.45594000000E+02  0.51100000000E-03 0. -1.
    9900012    2    1    2    0    0  0.23537223929E+02 -0.14115690862E+02  0.29998532944E+02  0.50528860590E+02  0.30000002250E+02 0.  0.
         12    1    1    2    0    0 -0.23537223929E+02  0.14115690862E+02 -0.29998532944E+02  0.40659139410E+02  0.00000000000E+00 0. -1.
         11    1    3    3    0    0  0.27446166081E+02 -0.13048521110E+02  0.19266197366E+02  0.35982527662E+02  0.51100000000E-03 0.  1.
        -11    1    3    3    0    0 -0.15100608664E+01  0.19588200869E+01 -0.62452284608E+00  0.25509388467E+01  0.51100000000E-03 0. -1.
        -12    1    3    3    0    0 -0.23988812863E+01 -0.30259898380E+01  0.11356858423E+02  0.11995394082E+02  0.00000000000E+00 0.  1.
</event>
<event>
 7    1  0.1381607E-011  0.5052886E+02  0.7816164E-02  0.1300439E+00
        -11   -1    0    0    0    0  0.00000000000E+00  0.00000000000E+00  0.45593999997E+02  0.45594000000E+02  0.51100000000E-03 0.  1.
         11   -1    0    0    0    0 -0.00000000000E+00 -0.00000000000E+00 -0.45593999997E+02  0.45594000000E+02  0.51100000000E-03 0. -1.
    9900012    2    1    2    0    0 -0.35465967053E+00  0.26620981565E+02  0.30730497638E+02  0.50528856772E+02  0.29999990644E+02 0.  0.
         12    1    1    2    0    0  0.35465967053E+00 -0.26620981565E+02 -0.30730497638E+02  0.40659143228E+02  0.00000000000E+00 0. -1.
         11    1    3    3    0    0  0.66478511749E+01  0.43431161910E+01  0.10368029757E+02  0.13059579810E+02  0.51100000000E-03 0. -1.
        -11    1    3    3    0    0 -0.20890559596E+01 -0.23075074333E+01 -0.21424343667E+01  0.37787260596E+01  0.51100000000E-03 0.  1.
         12    1    3    3    0    0 -0.49134548859E+01  0.24585372807E+02  0.22504902247E+02  0.33690550903E+02  0.00000000000E+00 0. -1.
</event>
<event>
 7    1  0.1381607E-011  0.5052881E+02  0.7816164E-02  0.1300439E+00
        -11   -1    0    0    0    0  0.00000000000E+00  0.00000000000E+00  0.45593999997E+02  0.45594000000E+02  0.51100000000E-03 0. -1.
         11   -1    0    0    0    0 -0.00000000000E+00 -0.00000000000E+00 -0.45593999997E+02  0.45594000000E+02  0.51100000000E-03 0.  1.
    9900012    2    1    2    0    0 -0.36925422032E+02  0.12820013031E+01 -0.16971718672E+02  0.50528812179E+02  0.29999855100E+02 0.  0.
         12    1    1    2    0    0  0.36925422032E+02 -0.12820013031E+01  0.16971718672E+02  0.40659187821E+02  0.00000000000E+00 0. -1.
         11    1    3    3    0    0 -0.89339922170E+01  0.15736295550E+01  0.82911512270E+01  0.12289658898E+02  0.51100000000E-03 0. -1.
        -11    1    3    3    0    0 -0.96480346486E+01 -0.23699140911E+01 -0.62437811858E+01  0.11733962210E+02  0.51100000000E-03 0.  1.
        -12    1    3    3    0    0 -0.18343395166E+02  0.20782858392E+01 -0.19019088713E+02  0.26505191071E+02  0.00000000000E+00 0.  1.
</event>
<event>
 7    1  0.1381607E-011  0.5052886E+02  0.7816164E-02  0.1300439E+00
        -11   -1    0    0    0    0  0.00000000000E+00  0.00000000000E+00  0.45593999997E+02  0.45594000000E+02  0.51100000000E-03 0.  1.
         11   -1    0    0    0    0 -0.00000000000E+00 -0.00000000000E+00 -0.45593999997E+02  0.45594000000E+02  0.51100000000E-03 0. -1.
    9900012    2    1    2    0    0  0.13538438439E+02  0.38221981213E+02 -0.29927031224E+01  0.50528862833E+02  0.30000009068E+02 0.  0.
         12    1    1    2    0    0 -0.13538438439E+02 -0.38221981213E+02  0.29927031224E+01  0.40659137167E+02  0.00000000000E+00 0. -1.
         11    1    3    3    0    0  0.79704435254E+01  0.23119945501E+02 -0.14174591445E+02  0.28266214689E+02  0.51100000000E-03 0. -1.
        -11    1    3    3    0    0  0.64025265711E+01  0.43778505026E+01  0.17377327763E+01  0.79484361342E+01  0.51100000000E-03 0.  1.
        -12    1    3    3    0    0 -0.83453165755E+00  0.10724185209E+02  0.94441555462E+01  0.14314212010E+02  0.00000000000E+00 0.  1.
</event>
<event>
 7    1  0.1381607E-011  0.5052886E+02  0.7816164E-02  0.1300439E+00
        -11   -1    0    0    0    0  0.00000000000E+00  0.00000000000E+00  0.45593999997E+02  0.45594000000E+02  0.51100000000E-03 0.  1.
         11   -1    0    0    0    0 -0.00000000000E+00 -0.00000000000E+00 -0.45593999997E+02  0.45594000000E+02  0.51100000000E-03 0. -1.
    9900012    2    1    2    0    0  0.15841192094E+02  0.37442538818E+02 -0.52796132427E+00  0.50528858061E+02  0.29999994562E+02 0.  0.
         12    1    1    2    0    0 -0.15841192094E+02 -0.37442538818E+02  0.52796132427E+00  0.40659141939E+02  0.00000000000E+00 0. -1.
         11    1    3    3    0    0 -0.13392391810E+00 -0.27825610498E+01  0.16230510544E+00  0.27905061943E+01  0.51100000000E-03 0. -1.
        -11    1    3    3    0    0  0.48367963136E+00  0.16653615225E+02 -0.81715444432E+01  0.18556696497E+02  0.51100000000E-03 0.  1.
        -12    1    3    3    0    0  0.15491436381E+02  0.23571484642E+02  0.74812780134E+01  0.29181655369E+02  0.00000000000E+00 0.  1.
</event>
<event>
 7    1  0.1381607E-011  0.5052886E+02  0.7816164E-02  0.1300439E+00
        -11   -1    0    0    0    0  0.00000000000E+00  0.00000000000E+00  0.45593999997E+02  0.45594000000E+02  0.51100000000E-03 0.  1.
         11   -1    0    0    0    0 -0.00000000000E+00 -0.00000000000E+00 -0.45593999997E+02  0.45594000000E+02  0.51100000000E-03 0. -1.
    9900012    2    1    2    0    0 -0.12889259845E+02 -0.12107830617E+02  0.36611930166E+02  0.50528855738E+02  0.29999987502E+02 0.  0.
         12    1    1    2    0    0  0.12889259845E+02  0.12107830617E+02 -0.36611930166E+02  0.40659144262E+02  0.00000000000E+00 0. -1.
         11    1    3    3    0    0  0.42352985916E+01  0.74146977889E+00  0.90021692519E+01  0.99763010727E+01  0.51100000000E-03 0. -1.
        -11    1    3    3    0    0 -0.73460221622E+01  0.43260784435E+01  0.31099832079E+01  0.90747447414E+01  0.51100000000E-03 0.  1.
        -12    1    3    3    0    0 -0.97785362747E+01 -0.17175378839E+02  0.24499777707E+02  0.31477809924E+02  0.00000000000E+00 0.  1.
</event>
<event>
 7    1  0.1381607E-011  0.5052886E+02  0.7816164E-02  0.1300439E+00
        -11   -1    0    0    0    0  0.00000000000E+00  0.00000000000E+00  0.45593999997E+02  0.45594000000E+02  0.51100000000E-03 0. -1.
         11   -1    0    0    0    0 -0.00000000000E+00 -0.00000000000E+00 -0.45593999997E+02  0.45594000000E+02  0.51100000000E-03 0.  1.
    9900012    2    1    2    0    0 -0.30537584382E+02  0.26844278111E+02  0.81646996079E-01  0.50528855968E+02  0.29999988201E+02 0.  0.
         12    1    1    2    0    0  0.30537584382E+02 -0.26844278111E+02 -0.81646996079E-01  0.40659144032E+02  0.00000000000E+00 0. -1.
         11    1    3    3    0    0 -0.17836747720E+02  0.72397602299E+01  0.69811580781E+01  0.20476822648E+02  0.51100000000E-03 0. -1.
        -11    1    3    3    0    0 -0.63538247946E+01  0.46663364772E+01  0.55124879299E+01  0.96194235315E+01  0.51100000000E-03 0.  1.
        -12    1    3    3    0    0 -0.63470118672E+01  0.14938181404E+02 -0.12411999012E+02  0.20432609788E+02  0.00000000000E+00 0.  1.
</event>
<event>
 7    1  0.1381607E-011  0.5052885E+02  0.7816164E-02  0.1300439E+00
        -11   -1    0    0    0    0  0.00000000000E+00  0.00000000000E+00  0.45593999997E+02  0.45594000000E+02  0.51100000000E-03 0.  1.
         11   -1    0    0    0    0 -0.00000000000E+00 -0.00000000000E+00 -0.45593999997E+02  0.45594000000E+02  0.51100000000E-03 0. -1.
    9900012    2    1    2    0    0 -0.10474558149E+00  0.16460533237E+02  0.37178033782E+02  0.50528851927E+02  0.29999975918E+02 0.  0.
         12    1    1    2    0    0  0.10474558149E+00 -0.16460533237E+02 -0.37178033782E+02  0.40659148073E+02  0.00000000000E+00 0. -1.
         11    1    3    3    0    0  0.14420755211E+00 -0.57125703362E+01  0.69676018078E+00  0.57567117936E+01  0.51100000000E-03 0. -1.
        -11    1    3    3    0    0 -0.50426185681E+00  0.18380588545E+01  0.15263802548E+02  0.15382340812E+02  0.51100000000E-03 0.  1.
         12    1    3    3    0    0  0.25530872322E+00  0.20335044719E+02  0.21217471054E+02  0.29389799322E+02  0.00000000000E+00 0. -1.
</event>
<event>
 7    1  0.1381607E-011  0.5052886E+02  0.7816164E-02  0.1300439E+00
        -11   -1    0    0    0    0  0.00000000000E+00  0.00000000000E+00  0.45593999997E+02  0.45594000000E+02  0.51100000000E-03 0.  1.
         11   -1    0    0    0    0 -0.00000000000E+00 -0.00000000000E+00 -0.45593999997E+02  0.45594000000E+02  0.51100000000E-03 0. -1.
    9900012    2    1    2    0    0  0.34928941225E+02  0.19016711821E+02  0.84557372450E+01  0.50528858888E+02  0.29999997076E+02 0.  0.
         12    1    1    2    0    0 -0.34928941225E+02 -0.19016711821E+02 -0.84557372450E+01  0.40659141112E+02  0.00000000000E+00 0. -1.
         11    1    3    3    0    0  0.16732019933E+02 -0.26156862789E+01  0.91593037050E+01  0.19253445156E+02  0.51100000000E-03 0. -1.
        -11    1    3    3    0    0  0.50176870497E+01  0.70061288636E+01  0.59739669009E+01  0.10485766819E+02  0.51100000000E-03 0.  1.
         12    1    3    3    0    0  0.13179234242E+02  0.14626269237E+02 -0.66775333609E+01  0.20789646913E+02  0.00000000000E+00 0. -1.
</event>
<event>
 7    1  0.1381607E-011  0.5052886E+02  0.7816164E-02  0.1300439E+00
        -11   -1    0    0    0    0  0.00000000000E+00  0.00000000000E+00  0.45593999997E+02  0.45594000000E+02  0.51100000000E-03 0.  1.
         11   -1    0    0    0    0 -0.00000000000E+00 -0.00000000000E+00 -0.45593999997E+02  0.45594000000E+02  0.51100000000E-03 0. -1.
    9900012    2    1    2    0    0  0.26912413386E+02  0.30224609278E+02 -0.39192347257E+01  0.50528863252E+02  0.30000010340E+02 0.  0.
         12    1    1    2    0    0 -0.26912413386E+02 -0.30224609278E+02  0.39192347257E+01  0.40659136748E+02  0.00000000000E+00 0. -1.
         11    1    3    3    0    0 -0.20129358453E+00 -0.20144764997E+01 -0.14302215067E+01  0.24787433296E+01  0.51100000000E-03 0. -1.
        -11    1    3    3    0    0  0.18685735779E+02  0.55558761213E+01 -0.44610797683E+01  0.19998142765E+02  0.51100000000E-03 0.  1.
        -12    1    3    3    0    0  0.84279711917E+01  0.26683209656E+02  0.19720665493E+01  0.28051977158E+02  0.00000000000E+00 0.  1.
</event>
<event>
 7    1  0.1381607E-011  0.5052888E+02  0.7816164E-02  0.1300439E+00
        -11   -1    0    0    0    0  0.00000000000E+00  0.00000000000E+00  0.45593999997E+02  0.45594000000E+02  0.51100000000E-03 0.  1.
         11   -1    0    0    0    0 -0.00000000000E+00 -0.00000000000E+00 -0.45593999997E+02  0.45594000000E+02  0.51100000000E-03 0. -1.
    9900012    2    1    2    0    0  0.35731338926E+02 -0.13362883671E+02  0.14066589164E+02  0.50528878365E+02  0.30000056278E+02 0.  0.
         12    1    1    2    0    0 -0.35731338926E+02  0.13362883671E+02 -0.14066589164E+02  0.40659121635E+02  0.00000000000E+00 0. -1.
         11    1    3    3    0    0  0.19306449897E+02 -0.36325040171E+01  0.32653765648E+01  0.19914737694E+02  0.51100000000E-03 0. -1.
        -11    1    3    3    0    0  0.19406577627E+02 -0.12139813736E+02  0.12867173257E+02  0.26259369387E+02  0.51100000000E-03 0.  1.
        -12    1    3    3    0    0 -0.29816885984E+01  0.24094340817E+01 -0.20659606575E+01  0.43547712833E+01  0.00000000000E+00 0.  1.
</event>
<event>
 7    1  0.1381607E-011  0.5052886E+02  0.7816164E-02  0.1300439E+00
        -11   -1    0    0    0    0  0.00000000000E+00  0.00000000000E+00  0.45593999997E+02  0.45594000000E+02  0.51100000000E-03 0.  1.
         11   -1    0    0    0    0 -0.00000000000E+00 -0.00000000000E+00 -0.45593999997E+02  0.45594000000E+02  0.51100000000E-03 0. -1.
    9900012    2    1    2    0    0  0.20266834463E+02  0.24472127798E+02  0.25368016408E+02  0.50528857429E+02  0.29999992642E+02 0.  0.
         12    1    1    2    0    0 -0.20266834463E+02 -0.24472127798E+02 -0.25368016408E+02  0.40659142571E+02  0.00000000000E+00 0. -1.
         11    1    3    3    0    0  0.36725897078E+01  0.68588956186E+01 -0.18898354373E+01  0.80064875264E+01  0.51100000000E-03 0. -1.
        -11    1    3    3    0    0  0.53962075128E+01  0.45704869258E+01 -0.30321568475E+01  0.76943083944E+01  0.51100000000E-03 0.  1.
        -12    1    3    3    0    0  0.11198037243E+02  0.13042745253E+02  0.30290008693E+02  0.34828061508E+02  0.00000000000E+00 0.  1.
</event>
<event>
 7    1  0.1381607E-011  0.5052886E+02  0.7816164E-02  0.1300439E+00
        -11   -1    0    0    0    0  0.00000000000E+00  0.00000000000E+00  0.45593999997E+02  0.45594000000E+02  0.51100000000E-03 0. -1.
         11   -1    0    0    0    0 -0.00000000000E+00 -0.00000000000E+00 -0.45593999997E+02  0.45594000000E+02  0.51100000000E-03 0.  1.
    9900012    2    1    2    0    0 -0.66585202052E+01 -0.60379527736E+01 -0.39653156530E+02  0.50528860956E+02  0.30000003362E+02 0.  0.
         12    1    1    2    0    0  0.66585202052E+01  0.60379527736E+01  0.39653156530E+02  0.40659139044E+02  0.00000000000E+00 0. -1.
         11    1    3    3    0    0 -0.10395217000E+02 -0.10349617347E+02 -0.11471935110E+02  0.18622041003E+02  0.51100000000E-03 0. -1.
        -11    1    3    3    0    0 -0.64059912082E-01 -0.21520429343E+01  0.54267331492E+00  0.22203348961E+01  0.51100000000E-03 0.  1.
        -12    1    3    3    0    0  0.38007567068E+01  0.64637075077E+01 -0.28723894735E+02  0.29686485057E+02  0.00000000000E+00 0.  1.
</event>
<event>
 7    1  0.1381607E-011  0.5052887E+02  0.7816164E-02  0.1300439E+00
        -11   -1    0    0    0    0  0.00000000000E+00  0.00000000000E+00  0.45593999997E+02  0.45594000000E+02  0.51100000000E-03 0.  1.
         11   -1    0    0    0    0 -0.00000000000E+00 -0.00000000000E+00 -0.45593999997E+02  0.45594000000E+02  0.51100000000E-03 0. -1.
    9900012    2    1    2    0    0 -0.16084992187E+02 -0.41218873605E+01  0.37113989541E+02  0.50528866356E+02  0.30000019775E+02 0.  0.
         12    1    1    2    0    0  0.16084992187E+02  0.41218873605E+01 -0.37113989541E+02  0.40659133644E+02  0.00000000000E+00 0. -1.
         11    1    3    3    0    0 -0.43737984921E+01  0.44941637216E+01  0.68648859751E+00  0.63086359589E+01  0.51100000000E-03 0. -1.
        -11    1    3    3    0    0 -0.14068926387E+02 -0.48501678236E+01  0.11254262095E+02  0.18657900020E+02  0.51100000000E-03 0.  1.
        -12    1    3    3    0    0  0.23577326920E+01 -0.37658832586E+01  0.25173238848E+02  0.25562330376E+02  0.00000000000E+00 0.  1.
</event>
<event>
 7    1  0.1381607E-011  0.5052889E+02  0.7816164E-02  0.1300439E+00
        -11   -1    0    0    0    0  0.00000000000E+00  0.00000000000E+00  0.45593999997E+02  0.45594000000E+02  0.51100000000E-03 0.  1.
         11   -1    0    0    0    0 -0.00000000000E+00 -0.00000000000E+00 -0.45593999997E+02  0.45594000000E+02  0.51100000000E-03 0. -1.
    9900012    2    1    2    0    0  0.39924621493E+02 -0.61474293801E+01  0.46256916075E+01  0.50528888940E+02  0.30000088423E+02 0.  0.
         12    1    1    2    0    0 -0.39924621493E+02  0.61474293801E+01 -0.46256916075E+01  0.40659111060E+02  0.00000000000E+00 0. -1.
         11    1    3    3    0    0  0.44079593920E+01  0.78365827954E+01 -0.49322936681E+01  0.10255225839E+02  0.51100000000E-03 0. -1.
        -11    1    3    3    0    0  0.71641498770E+01 -0.65999478029E+01  0.35367157180E+01  0.10363045537E+02  0.51100000000E-03 0.  1.
        -12    1    3    3    0    0  0.28352512224E+02 -0.73840643726E+01  0.60212695577E+01  0.29910617565E+02  0.00000000000E+00 0.  1.
</event>
<event>
 7    1  0.1381607E-011  0.5052884E+02  0.7816164E-02  0.1300439E+00
        -11   -1    0    0    0    0  0.00000000000E+00  0.00000000000E+00  0.45593999997E+02  0.45594000000E+02  0.51100000000E-03 0. -1.
         11   -1    0    0    0    0 -0.00000000000E+00 -0.00000000000E+00 -0.45593999997E+02  0.45594000000E+02  0.51100000000E-03 0.  1.
    9900012    2    1    2    0    0  0.25075626739E+01 -0.29334046743E+01 -0.40475600961E+02  0.50528843508E+02  0.29999950326E+02 0.  0.
         12    1    1    2    0    0 -0.25075626739E+01  0.29334046743E+01  0.40475600961E+02  0.40659156492E+02  0.00000000000E+00 0. -1.
         11    1    3    3    0    0 -0.11315523615E+01  0.26669615553E+01 -0.20672771816E+01  0.35590349663E+01  0.51100000000E-03 0. -1.
        -11    1    3    3    0    0  0.58627551794E+01  0.34174327695E+01 -0.36950151907E+02  0.37568131059E+02  0.51100000000E-03 0.  1.
        -12    1    3    3    0    0 -0.22236401440E+01 -0.90177989991E+01 -0.14581718718E+01  0.94016774826E+01  0.00000000000E+00 0.  1.
</event>
<event>
 7    1  0.1381607E-011  0.5052886E+02  0.7816164E-02  0.1300439E+00
        -11   -1    0    0    0    0  0.00000000000E+00  0.00000000000E+00  0.45593999997E+02  0.45594000000E+02  0.51100000000E-03 0. -1.
         11   -1    0    0    0    0 -0.00000000000E+00 -0.00000000000E+00 -0.45593999997E+02  0.45594000000E+02  0.51100000000E-03 0.  1.
    9900012    2    1    2    0    0 -0.38435429210E+02  0.12870325378E+02  0.31997753629E+01  0.50528855195E+02  0.29999985851E+02 0.  0.
         12    1    1    2    0    0  0.38435429210E+02 -0.12870325378E+02 -0.31997753629E+01  0.40659144805E+02  0.00000000000E+00 0. -1.
         11    1    3    3    0    0 -0.44065905655E+01  0.88916913207E+01 -0.18471031689E+01  0.10094156990E+02  0.51100000000E-03 0. -1.
        -11    1    3    3    0    0 -0.28739459544E+02  0.11366656249E+02  0.52383005768E+01  0.31346406530E+02  0.51100000000E-03 0.  1.
        -12    1    3    3    0    0 -0.52893791008E+01 -0.73880221916E+01 -0.19142204505E+00  0.90882916753E+01  0.00000000000E+00 0.  1.
</event>
<event>
 7    1  0.1381607E-011  0.5052886E+02  0.7816164E-02  0.1300439E+00
        -11   -1    0    0    0    0  0.00000000000E+00  0.00000000000E+00  0.45593999997E+02  0.45594000000E+02  0.51100000000E-03 0.  1.
         11   -1    0    0    0    0 -0.00000000000E+00 -0.00000000000E+00 -0.45593999997E+02  0.45594000000E+02  0.51100000000E-03 0. -1.
    9900012    2    1    2    0    0 -0.12749437956E+02  0.36031132599E+02  0.13869921591E+02  0.50528863149E+02  0.30000010027E+02 0.  0.
         12    1    1    2    0    0  0.12749437956E+02 -0.36031132599E+02 -0.13869921591E+02  0.40659136851E+02  0.00000000000E+00 0. -1.
         11    1    3    3    0    0  0.43864016230E+01  0.17554164713E+02  0.17642765646E+01  0.18179710944E+02  0.51100000000E-03 0. -1.
        -11    1    3    3    0    0 -0.10388657038E+01  0.11333676344E+02  0.89025516620E+01  0.14449459774E+02  0.51100000000E-03 0.  1.
        -12    1    3    3    0    0 -0.16096973875E+02  0.71432915429E+01  0.32030933640E+01  0.17899692430E+02  0.00000000000E+00 0.  1.
</event>
<event>
 7    1  0.1381607E-011  0.5052879E+02  0.7816164E-02  0.1300439E+00
        -11   -1    0    0    0    0  0.00000000000E+00  0.00000000000E+00  0.45593999997E+02  0.45594000000E+02  0.51100000000E-03 0. -1.
         11   -1    0    0    0    0 -0.00000000000E+00 -0.00000000000E+00 -0.45593999997E+02  0.45594000000E+02  0.51100000000E-03 0.  1.
    9900012    2    1    2    0    0  0.23528780649E+02 -0.30849390357E+02 -0.12160706448E+02  0.50528792119E+02  0.29999794123E+02 0.  0.
         12    1    1    2    0    0 -0.23528780649E+02  0.30849390357E+02  0.12160706448E+02  0.40659207881E+02  0.00000000000E+00 0. -1.
         11    1    3    3    0    0  0.10048350848E+02 -0.13521109039E+02  0.61243989452E+00  0.16857189188E+02  0.51100000000E-03 0.  1.
        -11    1    3    3    0    0 -0.37980797640E+01 -0.12040740089E+02 -0.24495593257E+01  0.12860994244E+02  0.51100000000E-03 0. -1.
        -12    1    3    3    0    0  0.17278509565E+02 -0.52875412281E+01 -0.10323587017E+02  0.20810608687E+02  0.00000000000E+00 0.  1.
</event>
<event>
 7    1  0.1381607E-011  0.5052884E+02  0.7816164E-02  0.1300439E+00
        -11   -1    0    0    0    0  0.00000000000E+00  0.00000000000E+00  0.45593999997E+02  0.45594000000E+02  0.51100000000E-03 0.  1.
         11   -1    0    0    0    0 -0.00000000000E+00 -0.00000000000E+00 -0.45593999997E+02  0.45594000000E+02  0.51100000000E-03 0. -1.
    9900012    2    1    2    0    0  0.32717771858E+02 -0.98736793304E+01  0.22027819122E+02  0.50528844153E+02  0.29999952288E+02 0.  0.
         12    1    1    2    0    0 -0.32717771858E+02  0.98736793304E+01 -0.22027819122E+02  0.40659155847E+02  0.00000000000E+00 0. -1.
         11    1    3    3    0    0  0.72389446685E+01 -0.53079497132E+01 -0.19877265310E+01  0.91938950992E+01  0.51100000000E-03 0. -1.
        -11    1    3    3    0    0  0.19486158291E+02 -0.12212570591E+02  0.12181963692E+02  0.26024171170E+02  0.51100000000E-03 0.  1.
        -12    1    3    3    0    0  0.59926688983E+01  0.76468409739E+01  0.11833581961E+02  0.15310777885E+02  0.00000000000E+00 0.  1.
</event>
<event>
 7    1  0.1381607E-011  0.5052886E+02  0.7816164E-02  0.1300439E+00
        -11   -1    0    0    0    0  0.00000000000E+00  0.00000000000E+00  0.45593999997E+02  0.45594000000E+02  0.51100000000E-03 0.  1.
         11   -1    0    0    0    0 -0.00000000000E+00 -0.00000000000E+00 -0.45593999997E+02  0.45594000000E+02  0.51100000000E-03 0. -1.
    9900012    2    1    2    0    0 -0.32225305862E+02  0.14554562469E+02  0.20071377932E+02  0.50528857871E+02  0.29999993985E+02 0.  0.
         12    1    1    2    0    0  0.32225305862E+02 -0.14554562469E+02 -0.20071377932E+02  0.40659142129E+02  0.00000000000E+00 0. -1.
         11    1    3    3    0    0 -0.16483257461E+01 -0.35169925687E+01  0.46821720642E+01  0.60834981707E+01  0.51100000000E-03 0. -1.
        -11    1    3    3    0    0 -0.27723041892E+02  0.10377804620E+02  0.19317748226E+02  0.35347436644E+02  0.51100000000E-03 0.  1.
         12    1    3    3    0    0 -0.28539382238E+01  0.76937504180E+01 -0.39285423585E+01  0.90979230565E+01  0.00000000000E+00 0. -1.
</event>
<event>
 7    1  0.1381607E-011  0.5052882E+02  0.7816164E-02  0.1300439E+00
        -11   -1    0    0    0    0  0.00000000000E+00  0.00000000000E+00  0.45593999997E+02  0.45594000000E+02  0.51100000000E-03 0.  1.
         11   -1    0    0    0    0 -0.00000000000E+00 -0.00000000000E+00 -0.45593999997E+02  0.45594000000E+02  0.51100000000E-03 0. -1.
    9900012    2    1    2    0    0  0.67366146123E+01 -0.50992162958E+00  0.40093976967E+02  0.50528819172E+02  0.29999876356E+02 0.  0.
         12    1    1    2    0    0 -0.67366146123E+01  0.50992162958E+00 -0.40093976967E+02  0.40659180828E+02  0.00000000000E+00 0. -1.
         11    1    3    3    0    0  0.45856746077E+00  0.11685851915E+02  0.11255045464E+02  0.16231003288E+02  0.51100000000E-03 0. -1.
        -11    1    3    3    0    0  0.20716458333E+01  0.88418217300E+00 -0.10859454960E+00  0.22550582278E+01  0.51100000000E-03 0.  1.
        -12    1    3    3    0    0  0.42064013183E+01 -0.13079955717E+02  0.28947526053E+02  0.32042757656E+02  0.00000000000E+00 0.  1.
</event>
<event>
 7    1  0.1381607E-011  0.5052891E+02  0.7816164E-02  0.1300439E+00
        -11   -1    0    0    0    0  0.00000000000E+00  0.00000000000E+00  0.45593999997E+02  0.45594000000E+02  0.51100000000E-03 0.  1.
         11   -1    0    0    0    0 -0.00000000000E+00 -0.00000000000E+00 -0.45593999997E+02  0.45594000000E+02  0.51100000000E-03 0. -1.
    9900012    2    1    2    0    0 -0.38398544879E+02  0.12433824760E+02  0.49105036771E+01  0.50528913766E+02  0.30000163884E+02 0.  0.
         12    1    1    2    0    0  0.38398544879E+02 -0.12433824760E+02 -0.49105036771E+01  0.40659086234E+02  0.00000000000E+00 0. -1.
         11    1    3    3    0    0  0.87433246553E+00  0.40993073289E-01  0.75439368587E+00  0.11555292237E+01  0.51100000000E-03 0. -1.
        -11    1    3    3    0    0 -0.34129525275E+02  0.45213004796E+01  0.12673547642E+02  0.36686311666E+02  0.51100000000E-03 0.  1.
        -12    1    3    3    0    0 -0.51433520695E+01  0.78715312071E+01 -0.85174376509E+01  0.12687072877E+02  0.00000000000E+00 0.  1.
</event>
<event>
 7    1  0.1381607E-011  0.5052886E+02  0.7816164E-02  0.1300439E+00
        -11   -1    0    0    0    0  0.00000000000E+00  0.00000000000E+00  0.45593999997E+02  0.45594000000E+02  0.51100000000E-03 0. -1.
         11   -1    0    0    0    0 -0.00000000000E+00 -0.00000000000E+00 -0.45593999997E+02  0.45594000000E+02  0.51100000000E-03 0.  1.
    9900012    2    1    2    0    0 -0.19751220251E+02  0.10484141447E+02 -0.33957887183E+02  0.50528855577E+02  0.29999987011E+02 0.  0.
         12    1    1    2    0    0  0.19751220251E+02 -0.10484141447E+02  0.33957887183E+02  0.40659144423E+02  0.00000000000E+00 0. -1.
         11    1    3    3    0    0 -0.66572248853E+01 -0.40857364773E+01 -0.23048281988E+01  0.81439621206E+01  0.51100000000E-03 0. -1.
        -11    1    3    3    0    0 -0.12651638993E+02  0.19319509123E+02 -0.28432015238E+02  0.36629044387E+02  0.51100000000E-03 0.  1.
         12    1    3    3    0    0 -0.44235637261E+00 -0.47496311988E+01 -0.32210437467E+01  0.57558490689E+01  0.00000000000E+00 0. -1.
</event>
<event>
 7    1  0.1381607E-011  0.5052897E+02  0.7816164E-02  0.1300438E+00
        -11   -1    0    0    0    0  0.00000000000E+00  0.00000000000E+00  0.45593999997E+02  0.45594000000E+02  0.51100000000E-03 0.  1.
         11   -1    0    0    0    0 -0.00000000000E+00 -0.00000000000E+00 -0.45593999997E+02  0.45594000000E+02  0.51100000000E-03 0. -1.
    9900012    2    1    2    0    0 -0.36427163240E+02  0.19557472310E+01  0.17955328148E+02  0.50528966836E+02  0.30000325194E+02 0.  0.
         12    1    1    2    0    0  0.36427163240E+02 -0.19557472310E+01 -0.17955328148E+02  0.40659033164E+02  0.00000000000E+00 0. -1.
         11    1    3    3    0    0 -0.62215823206E+01 -0.53304545533E+01  0.92464458024E+01  0.12353889774E+02  0.51100000000E-03 0. -1.
        -11    1    3    3    0    0 -0.13411593931E+02 -0.46556039148E+01 -0.29481266503E+01  0.14499550013E+02  0.51100000000E-03 0.  1.
        -12    1    3    3    0    0 -0.16793986988E+02  0.11941805699E+02  0.11657008996E+02  0.23675527049E+02  0.00000000000E+00 0.  1.
</event>
<event>
 7    1  0.1381607E-011  0.5052887E+02  0.7816164E-02  0.1300439E+00
        -11   -1    0    0    0    0  0.00000000000E+00  0.00000000000E+00  0.45593999997E+02  0.45594000000E+02  0.51100000000E-03 0.  1.
         11   -1    0    0    0    0 -0.00000000000E+00 -0.00000000000E+00 -0.45593999997E+02  0.45594000000E+02  0.51100000000E-03 0. -1.
    9900012    2    1    2    0    0  0.90767452948E+01 -0.15827581407E+01  0.39601421787E+02  0.50528867741E+02  0.30000023986E+02 0.  0.
         12    1    1    2    0    0 -0.90767452948E+01  0.15827581407E+01 -0.39601421787E+02  0.40659132259E+02  0.00000000000E+00 0. -1.
         11    1    3    3    0    0  0.15398411566E+00  0.56416161493E+00  0.22802707731E+01  0.23540655249E+01  0.51100000000E-03 0. -1.
        -11    1    3    3    0    0  0.98800312757E+01  0.14314165426E+01  0.41445697897E+02  0.42631090131E+02  0.51100000000E-03 0.  1.
         12    1    3    3    0    0 -0.95727009653E+00 -0.35783362983E+01 -0.41245468827E+01  0.55437120857E+01  0.00000000000E+00 0. -1.
</event>
<event>
 7    1  0.1381607E-011  0.5052888E+02  0.7816164E-02  0.1300439E+00
        -11   -1    0    0    0    0  0.00000000000E+00  0.00000000000E+00  0.45593999997E+02  0.45594000000E+02  0.51100000000E-03 0.  1.
         11   -1    0    0    0    0 -0.00000000000E+00 -0.00000000000E+00 -0.45593999997E+02  0.45594000000E+02  0.51100000000E-03 0. -1.
    9900012    2    1    2    0    0 -0.22022130794E+02  0.32351058258E+01  0.34025343910E+02  0.50528878236E+02  0.30000055887E+02 0.  0.
         12    1    1    2    0    0  0.22022130794E+02 -0.32351058258E+01 -0.34025343910E+02  0.40659121764E+02  0.00000000000E+00 0. -1.
         11    1    3    3    0    0 -0.59797361828E+01 -0.22628851168E+00  0.76956701999E+00  0.60332980174E+01  0.51100000000E-03 0. -1.
        -11    1    3    3    0    0 -0.22533611194E+02  0.21111281585E+01  0.28193605213E+02  0.36153836183E+02  0.51100000000E-03 0.  1.
         12    1    3    3    0    0  0.64912165829E+01  0.13502661790E+01  0.50621716767E+01  0.83417440361E+01  0.00000000000E+00 0. -1.
</event>
<event>
 7    1  0.1381607E-011  0.5052886E+02  0.7816164E-02  0.1300439E+00
        -11   -1    0    0    0    0  0.00000000000E+00  0.00000000000E+00  0.45593999997E+02  0.45594000000E+02  0.51100000000E-03 0. -1.
         11   -1    0    0    0    0 -0.00000000000E+00 -0.00000000000E+00 -0.45593999997E+02  0.45594000000E+02  0.51100000000E-03 0.  1.
    9900012    2    1    2    0    0 -0.23704166289E+02  0.26482808098E+02 -0.19746870630E+02  0.50528861742E+02  0.30000005751E+02 0.  0.
         12    1    1    2    0    0  0.23704166289E+02 -0.26482808098E+02  0.19746870630E+02  0.40659138258E+02  0.00000000000E+00 0. -1.
         11    1    3    3    0    0  0.24952013276E+01  0.53621057947E+01 -0.61460081869E+00  0.59460863302E+01  0.51100000000E-03 0. -1.
        -11    1    3    3    0    0 -0.13193266966E+02  0.23405785575E+02 -0.14859636002E+02  0.30703450523E+02  0.51100000000E-03 0.  1.
         12    1    3    3    0    0 -0.13006100651E+02 -0.22850832723E+01 -0.42726338087E+01  0.13879324889E+02  0.00000000000E+00 0. -1.
</event>
<event>
 7    1  0.1381607E-011  0.5052886E+02  0.7816164E-02  0.1300439E+00
        -11   -1    0    0    0    0  0.00000000000E+00  0.00000000000E+00  0.45593999997E+02  0.45594000000E+02  0.51100000000E-03 0. -1.
         11   -1    0    0    0    0 -0.00000000000E+00 -0.00000000000E+00 -0.45593999997E+02  0.45594000000E+02  0.51100000000E-03 0.  1.
    9900012    2    1    2    0    0  0.15958729821E+01 -0.38836736590E+02 -0.11930090225E+02  0.50528856228E+02  0.29999988990E+02 0.  0.
         12    1    1    2    0    0 -0.15958729821E+01  0.38836736590E+02  0.11930090225E+02  0.40659143772E+02  0.00000000000E+00 0. -1.
         11    1    3    3    0    0 -0.39005158847E+01 -0.18496961935E+02 -0.57118308912E+01  0.19747826143E+02  0.51100000000E-03 0. -1.
        -11    1    3    3    0    0  0.62501375520E+01 -0.16342197884E+02 -0.13728585677E+02  0.22239732823E+02  0.51100000000E-03 0.  1.
         12    1    3    3    0    0 -0.75374868518E+00 -0.39975767708E+01  0.75103263436E+01  0.85412972614E+01  0.00000000000E+00 0. -1.
</event>
<event>
 7    1  0.1381607E-011  0.5052886E+02  0.7816164E-02  0.1300439E+00
        -11   -1    0    0    0    0  0.00000000000E+00  0.00000000000E+00  0.45593999997E+02  0.45594000000E+02  0.51100000000E-03 0. -1.
         11   -1    0    0    0    0 -0.00000000000E+00 -0.00000000000E+00 -0.45593999997E+02  0.45594000000E+02  0.51100000000E-03 0.  1.
    9900012    2    1    2    0    0  0.26785836014E+02 -0.85782274164E+01 -0.29361513760E+02  0.50528862198E+02  0.30000007136E+02 0.  0.
         12    1    1    2    0    0 -0.26785836014E+02  0.85782274164E+01  0.29361513760E+02  0.40659137802E+02  0.00000000000E+00 0. -1.
         11    1    3    3    0    0  0.10015701217E+02  0.40905245506E+00 -0.11082907200E+02  0.14943641693E+02  0.51100000000E-03 0. -1.
        -11    1    3    3    0    0  0.13066645645E+02 -0.13681746443E+02 -0.21625284710E+02  0.28732914109E+02  0.51100000000E-03 0.  1.
         12    1    3    3    0    0  0.37034891517E+01  0.46944665716E+01  0.33466781509E+01  0.68523063952E+01  0.00000000000E+00 0. -1.
</event>
<event>
 7    1  0.1381607E-011  0.5052885E+02  0.7816164E-02  0.1300439E+00
        -11   -1    0    0    0    0  0.00000000000E+00  0.00000000000E+00  0.45593999997E+02  0.45594000000E+02  0.51100000000E-03 0.  1.
         11   -1    0    0    0    0 -0.00000000000E+00 -0.00000000000E+00 -0.45593999997E+02  0.45594000000E+02  0.51100000000E-03 0. -1.
    9900012    2    1    2    0    0  0.90275780210E+01  0.38304871193E+02  0.10217920867E+02  0.50528853072E+02  0.29999979399E+02 0.  0.
         12    1    1    2    0    0 -0.90275780210E+01 -0.38304871193E+02 -0.10217920867E+02  0.40659146928E+02  0.00000000000E+00 0. -1.
         11    1    3    3    0    0  0.13021998579E+02  0.14851788809E+02  0.60005161293E+01  0.20643504351E+02  0.51100000000E-03 0. -1.
        -11    1    3    3    0    0  0.39696764332E+01  0.62277331604E+01 -0.48679273389E+01  0.88453212570E+01  0.51100000000E-03 0.  1.
        -12    1    3    3    0    0 -0.79640969909E+01  0.17225349223E+02  0.90853320768E+01  0.21040027464E+02  0.00000000000E+00 0.  1.
</event>
<event>
 7    1  0.1381607E-011  0.5052881E+02  0.7816164E-02  0.1300439E+00
        -11   -1    0    0    0    0  0.00000000000E+00  0.00000000000E+00  0.45593999997E+02  0.45594000000E+02  0.51100000000E-03 0.  1.
         11   -1    0    0    0    0 -0.00000000000E+00 -0.00000000000E+00 -0.45593999997E+02  0.45594000000E+02  0.51100000000E-03 0. -1.
    9900012    2    1    2    0    0 -0.18058477829E+02 -0.80371292537E+01  0.35531189192E+02  0.50528813172E+02  0.29999858116E+02 0.  0.
         12    1    1    2    0    0  0.18058477829E+02  0.80371292537E+01 -0.35531189192E+02  0.40659186828E+02  0.00000000000E+00 0. -1.
         11    1    3    3    0    0 -0.16076730805E+02 -0.56232492091E+00  0.10356637003E+02  0.19132104248E+02  0.51100000000E-03 0. -1.
        -11    1    3    3    0    0 -0.47994591292E+01 -0.10719220918E+02  0.24331318006E+02  0.27017578374E+02  0.51100000000E-03 0.  1.
         12    1    3    3    0    0  0.28177121048E+01  0.32444165851E+01  0.84323418215E+00  0.43791305494E+01  0.00000000000E+00 0. -1.
</event>
<event>
 7    1  0.1381607E-011  0.5052885E+02  0.7816164E-02  0.1300439E+00
        -11   -1    0    0    0    0  0.00000000000E+00  0.00000000000E+00  0.45593999997E+02  0.45594000000E+02  0.51100000000E-03 0.  1.
         11   -1    0    0    0    0 -0.00000000000E+00 -0.00000000000E+00 -0.45593999997E+02  0.45594000000E+02  0.51100000000E-03 0. -1.
    9900012    2    1    2    0    0 -0.40358842161E+02 -0.40976383622E+01  0.27457794460E+01  0.50528854835E+02  0.29999984758E+02 0.  0.
         12    1    1    2    0    0  0.40358842161E+02  0.40976383622E+01 -0.27457794460E+01  0.40659145165E+02  0.00000000000E+00 0. -1.
         11    1    3    3    0    0 -0.19735457236E+02 -0.22189754601E+01 -0.41522285297E+01  0.20289236714E+02  0.51100000000E-03 0.  1.
        -11    1    3    3    0    0 -0.31794597973E+01 -0.18835055275E+01  0.11598905400E+02  0.12173379334E+02  0.51100000000E-03 0. -1.
         12    1    3    3    0    0 -0.17443925128E+02  0.48426253043E-02 -0.47008974245E+01  0.18066238787E+02  0.00000000000E+00 0. -1.
</event>
<event>
 7    1  0.1381607E-011  0.5052885E+02  0.7816164E-02  0.1300439E+00
        -11   -1    0    0    0    0  0.00000000000E+00  0.00000000000E+00  0.45593999997E+02  0.45594000000E+02  0.51100000000E-03 0.  1.
         11   -1    0    0    0    0 -0.00000000000E+00 -0.00000000000E+00 -0.45593999997E+02  0.45594000000E+02  0.51100000000E-03 0. -1.
    9900012    2    1    2    0    0  0.29295456809E+02  0.26155987187E+02 -0.10526484287E+02  0.50528851868E+02  0.29999975739E+02 0.  0.
         12    1    1    2    0    0 -0.29295456809E+02 -0.26155987187E+02  0.10526484287E+02  0.40659148132E+02  0.00000000000E+00 0. -1.
         11    1    3    3    0    0  0.10313449995E+02  0.18505183849E+02  0.21377524174E+01  0.21292699823E+02  0.51100000000E-03 0.  1.
        -11    1    3    3    0    0 -0.23191262615E+01  0.16645335758E+01  0.12307811558E+01  0.31086719281E+01  0.51100000000E-03 0. -1.
         12    1    3    3    0    0  0.21301133075E+02  0.59862697616E+01 -0.13895017860E+02  0.26127480117E+02  0.00000000000E+00 0. -1.
</event>
<event>
 7    1  0.1381607E-011  0.5052889E+02  0.7816164E-02  0.1300439E+00
        -11   -1    0    0    0    0  0.00000000000E+00  0.00000000000E+00  0.45593999997E+02  0.45594000000E+02  0.51100000000E-03 0.  1.
         11   -1    0    0    0    0 -0.00000000000E+00 -0.00000000000E+00 -0.45593999997E+02  0.45594000000E+02  0.51100000000E-03 0. -1.
    9900012    2    1    2    0    0  0.70020858632E+01 -0.18895035152E+02  0.35314471114E+02  0.50528887493E+02  0.30000084023E+02 0.  0.
         12    1    1    2    0    0 -0.70020858632E+01  0.18895035152E+02 -0.35314471114E+02  0.40659112507E+02  0.00000000000E+00 0. -1.
         11    1    3    3    0    0  0.15821271846E+02 -0.58723293119E+01  0.19815019293E+02  0.26027521669E+02  0.51100000000E-03 0. -1.
        -11    1    3    3    0    0 -0.29958102584E+01 -0.10344642279E+01  0.92561787442E+01  0.97837539088E+01  0.51100000000E-03 0.  1.
        -12    1    3    3    0    0 -0.58233757245E+01 -0.11988241612E+02  0.62432730769E+01  0.14717611915E+02  0.00000000000E+00 0.  1.
</event>
<event>
 7    1  0.1381607E-011  0.5052888E+02  0.7816164E-02  0.1300439E+00
        -11   -1    0    0    0    0  0.00000000000E+00  0.00000000000E+00  0.45593999997E+02  0.45594000000E+02  0.51100000000E-03 0. -1.
         11   -1    0    0    0    0 -0.00000000000E+00 -0.00000000000E+00 -0.45593999997E+02  0.45594000000E+02  0.51100000000E-03 0.  1.
    9900012    2    1    2    0    0 -0.38926346191E+02  0.10089956345E+02 -0.60080290017E+01  0.50528879752E+02  0.30000060494E+02 0.  0.
         12    1    1    2    0    0  0.38926346191E+02 -0.10089956345E+02  0.60080290017E+01  0.40659120248E+02  0.00000000000E+00 0. -1.
         11    1    3    3    0    0 -0.23481218049E+02  0.43178332685E+01 -0.60093421617E+01  0.24619575111E+02  0.51100000000E-03 0. -1.
        -11    1    3    3    0    0 -0.70161749136E+01 -0.65629455494E+01  0.40569362489E+01  0.10428695829E+02  0.51100000000E-03 0.  1.
         12    1    3    3    0    0 -0.84289532294E+01  0.12335068626E+02 -0.40556230889E+01  0.15480608812E+02  0.00000000000E+00 0. -1.
</event>
<event>
 7    1  0.1381607E-011  0.5052893E+02  0.7816164E-02  0.1300439E+00
        -11   -1    0    0    0    0  0.00000000000E+00  0.00000000000E+00  0.45593999997E+02  0.45594000000E+02  0.51100000000E-03 0. -1.
         11   -1    0    0    0    0 -0.00000000000E+00 -0.00000000000E+00 -0.45593999997E+02  0.45594000000E+02  0.51100000000E-03 0.  1.
    9900012    2    1    2    0    0 -0.15547457458E+02  0.22272166130E+02 -0.30255370844E+02  0.50528926198E+02  0.30000201671E+02 0.  0.
         12    1    1    2    0    0  0.15547457458E+02 -0.22272166130E+02  0.30255370844E+02  0.40659073802E+02  0.00000000000E+00 0. -1.
         11    1    3    3    0    0  0.16767594796E+01  0.28093405979E+01  0.12409866342E+01  0.34991377559E+01  0.51100000000E-03 0.  1.
        -11    1    3    3    0    0 -0.68006873631E+01  0.17897472689E+01 -0.24283007824E+02  0.25280763698E+02  0.51100000000E-03 0. -1.
         12    1    3    3    0    0 -0.10423529574E+02  0.17673078264E+02 -0.72133496536E+01  0.21749024744E+02  0.00000000000E+00 0. -1.
</event>
<event>
 7    1  0.1381607E-011  0.5052886E+02  0.7816164E-02  0.1300439E+00
        -11   -1    0    0    0    0  0.00000000000E+00  0.00000000000E+00  0.45593999997E+02  0.45594000000E+02  0.51100000000E-03 0.  1.
         11   -1    0    0    0    0 -0.00000000000E+00 -0.00000000000E+00 -0.45593999997E+02  0.45594000000E+02  0.51100000000E-03 0. -1.
    9900012    2    1    2    0    0  0.29206028311E+02  0.24627125135E+02  0.13916833692E+02  0.50528860288E+02  0.30000001330E+02 0.  0.
         12    1    1    2    0    0 -0.29206028311E+02 -0.24627125135E+02 -0.13916833692E+02  0.40659139712E+02  0.00000000000E+00 0. -1.
         11    1    3    3    0    0 -0.73064463353E+00  0.65538159237E+01  0.11662642407E+01  0.66967542349E+01  0.51100000000E-03 0. -1.
        -11    1    3    3    0    0  0.17055352922E+02  0.89273441030E+01 -0.51795118680E+01  0.19935141823E+02  0.51100000000E-03 0.  1.
        -12    1    3    3    0    0  0.12881320022E+02  0.91459651083E+01  0.17930081320E+02  0.23896964230E+02  0.00000000000E+00 0.  1.
</event>
<event>
 7    1  0.1381607E-011  0.5052886E+02  0.7816164E-02  0.1300439E+00
        -11   -1    0    0    0    0  0.00000000000E+00  0.00000000000E+00  0.45593999997E+02  0.45594000000E+02  0.51100000000E-03 0. -1.
         11   -1    0    0    0    0 -0.00000000000E+00 -0.00000000000E+00 -0.45593999997E+02  0.45594000000E+02  0.51100000000E-03 0.  1.
    9900012    2    1    2    0    0  0.56743314878E+01 -0.38577002361E+02 -0.11523118147E+02  0.50528863255E+02  0.30000010350E+02 0.  0.
         12    1    1    2    0    0 -0.56743314878E+01  0.38577002361E+02  0.11523118147E+02  0.40659136745E+02  0.00000000000E+00 0. -1.
         11    1    3    3    0    0  0.43271184094E+01  0.71863959006E+00  0.10974702809E+01  0.45215968272E+01  0.51100000000E-03 0. -1.
        -11    1    3    3    0    0 -0.91666721413E+01 -0.23887954016E+02 -0.75597656495E+01  0.26679810384E+02  0.51100000000E-03 0.  1.
         12    1    3    3    0    0  0.10513885220E+02 -0.15407687936E+02 -0.50608227784E+01  0.19327456044E+02  0.00000000000E+00 0. -1.
</event>
<event>
 7    1  0.1381607E-011  0.5052887E+02  0.7816164E-02  0.1300439E+00
        -11   -1    0    0    0    0  0.00000000000E+00  0.00000000000E+00  0.45593999997E+02  0.45594000000E+02  0.51100000000E-03 0.  1.
         11   -1    0    0    0    0 -0.00000000000E+00 -0.00000000000E+00 -0.45593999997E+02  0.45594000000E+02  0.51100000000E-03 0. -1.
    9900012    2    1    2    0    0 -0.38761920476E+02  0.86022282256E+01 -0.87567255738E+01  0.50528867542E+02  0.30000023382E+02 0.  0.
         12    1    1    2    0    0  0.38761920476E+02 -0.86022282256E+01  0.87567255738E+01  0.40659132458E+02  0.00000000000E+00 0. -1.
         11    1    3    3    0    0 -0.42752097794E+01  0.27864349775E+01 -0.10476018075E+02  0.11652836286E+02  0.51100000000E-03 0. -1.
        -11    1    3    3    0    0 -0.19436432509E+02  0.91579130969E+01 -0.49976437017E+01  0.22059436162E+02  0.51100000000E-03 0.  1.
         12    1    3    3    0    0 -0.15050278188E+02 -0.33421198488E+01  0.67169362028E+01  0.16816595094E+02  0.00000000000E+00 0. -1.
</event>
<event>
 7    1  0.1381607E-011  0.5052886E+02  0.7816164E-02  0.1300439E+00
        -11   -1    0    0    0    0  0.00000000000E+00  0.00000000000E+00  0.45593999997E+02  0.45594000000E+02  0.51100000000E-03 0.  1.
         11   -1    0    0    0    0 -0.00000000000E+00 -0.00000000000E+00 -0.45593999997E+02  0.45594000000E+02  0.51100000000E-03 0. -1.
    9900012    2    1    2    0    0  0.21710887797E+02  0.91938206447E+01  0.33125162310E+02  0.50528863696E+02  0.30000011690E+02 0.  0.
         12    1    1    2    0    0 -0.21710887797E+02 -0.91938206447E+01 -0.33125162310E+02  0.40659136304E+02  0.00000000000E+00 0. -1.
         11    1    3    3    0    0  0.77614911771E+01  0.21205091873E+01  0.14254597506E+02  0.16368593550E+02  0.51100000000E-03 0. -1.
        -11    1    3    3    0    0 -0.25586349440E+01  0.17450439069E+01  0.16338942690E+02  0.16629877916E+02  0.51100000000E-03 0.  1.
         12    1    3    3    0    0  0.16508031564E+02  0.53282675505E+01  0.25316221141E+01  0.17530392230E+02  0.00000000000E+00 0. -1.
</event>
<event>
 7    1  0.1381607E-011  0.5052886E+02  0.7816164E-02  0.1300439E+00
        -11   -1    0    0    0    0  0.00000000000E+00  0.00000000000E+00  0.45593999997E+02  0.45594000000E+02  0.51100000000E-03 0.  1.
         11   -1    0    0    0    0 -0.00000000000E+00 -0.00000000000E+00 -0.45593999997E+02  0.45594000000E+02  0.51100000000E-03 0. -1.
    9900012    2    1    2    0    0  0.78520920984E+01  0.14055910292E+02  0.37335533509E+02  0.50528855557E+02  0.29999986950E+02 0.  0.
         12    1    1    2    0    0 -0.78520920984E+01 -0.14055910292E+02 -0.37335533509E+02  0.40659144443E+02  0.00000000000E+00 0. -1.
         11    1    3    3    0    0  0.58045405870E+01  0.76726916532E+01  0.25683745043E+01  0.99578831328E+01  0.51100000000E-03 0. -1.
        -11    1    3    3    0    0  0.46815727684E+01  0.12901750955E+02  0.25243158352E+02  0.28733070583E+02  0.51100000000E-03 0.  1.
        -12    1    3    3    0    0 -0.26340212570E+01 -0.65185323168E+01  0.95240006529E+01  0.11837901840E+02  0.00000000000E+00 0.  1.
</event>
<event>
 7    1  0.1381607E-011  0.5052884E+02  0.7816164E-02  0.1300439E+00
        -11   -1    0    0    0    0  0.00000000000E+00  0.00000000000E+00  0.45593999997E+02  0.45594000000E+02  0.51100000000E-03 0. -1.
         11   -1    0    0    0    0 -0.00000000000E+00 -0.00000000000E+00 -0.45593999997E+02  0.45594000000E+02  0.51100000000E-03 0.  1.
    9900012    2    1    2    0    0 -0.10377961192E+02 -0.32413907463E+02  0.22244178896E+02  0.50528843955E+02  0.29999951687E+02 0.  0.
         12    1    1    2    0    0  0.10377961192E+02  0.32413907463E+02 -0.22244178896E+02  0.40659156045E+02  0.00000000000E+00 0. -1.
         11    1    3    3    0    0  0.17528800535E+01 -0.12512026218E+02  0.17405384119E+02  0.21507458826E+02  0.51100000000E-03 0. -1.
        -11    1    3    3    0    0 -0.12127479036E+02 -0.14763761839E+02  0.10147245490E+02  0.21633561951E+02  0.51100000000E-03 0.  1.
        -12    1    3    3    0    0 -0.33622091755E-02 -0.51381194062E+01 -0.53084507131E+01  0.73878231781E+01  0.00000000000E+00 0.  1.
</event>
<event>
 7    1  0.1381607E-011  0.5052886E+02  0.7816164E-02  0.1300439E+00
        -11   -1    0    0    0    0  0.00000000000E+00  0.00000000000E+00  0.45593999997E+02  0.45594000000E+02  0.51100000000E-03 0.  1.
         11   -1    0    0    0    0 -0.00000000000E+00 -0.00000000000E+00 -0.45593999997E+02  0.45594000000E+02  0.51100000000E-03 0. -1.
    9900012    2    1    2    0    0  0.15039714634E+02 -0.26010750498E+02  0.27393673586E+02  0.50528861909E+02  0.30000006259E+02 0.  0.
         12    1    1    2    0    0 -0.15039714634E+02  0.26010750498E+02 -0.27393673586E+02  0.40659138091E+02  0.00000000000E+00 0. -1.
         11    1    3    3    0    0  0.17877523606E+02 -0.54013306970E+01  0.14724126980E+02  0.23781928836E+02  0.51100000000E-03 0. -1.
        -11    1    3    3    0    0 -0.90078467596E+00  0.23984891828E-01 -0.14236449754E+01  0.16848601083E+01  0.51100000000E-03 0.  1.
        -12    1    3    3    0    0 -0.19370242957E+01 -0.20633404693E+02  0.14093191581E+02  0.25062072965E+02  0.00000000000E+00 0.  1.
</event>
<event>
 7    1  0.1381607E-011  0.5052883E+02  0.7816164E-02  0.1300439E+00
        -11   -1    0    0    0    0  0.00000000000E+00  0.00000000000E+00  0.45593999997E+02  0.45594000000E+02  0.51100000000E-03 0.  1.
         11   -1    0    0    0    0 -0.00000000000E+00 -0.00000000000E+00 -0.45593999997E+02  0.45594000000E+02  0.51100000000E-03 0. -1.
    9900012    2    1    2    0    0 -0.25843513045E+01  0.37173922724E+02 -0.16266186649E+02  0.50528828458E+02  0.29999904581E+02 0.  0.
         12    1    1    2    0    0  0.25843513045E+01 -0.37173922724E+02  0.16266186649E+02  0.40659171542E+02  0.00000000000E+00 0. -1.
         11    1    3    3    0    0  0.29119036762E+01  0.26038415460E+02 -0.19435574808E+02  0.32622382363E+02  0.51100000000E-03 0. -1.
        -11    1    3    3    0    0 -0.50405500218E+01  0.78016963862E+01 -0.39024966815E+01  0.10074874274E+02  0.51100000000E-03 0.  1.
        -12    1    3    3    0    0 -0.45570495887E+00  0.33338108784E+01  0.70718848409E+01  0.78315718208E+01  0.00000000000E+00 0.  1.
</event>
<event>
 7    1  0.1381607E-011  0.5052885E+02  0.7816164E-02  0.1300439E+00
        -11   -1    0    0    0    0  0.00000000000E+00  0.00000000000E+00  0.45593999997E+02  0.45594000000E+02  0.51100000000E-03 0.  1.
         11   -1    0    0    0    0 -0.00000000000E+00 -0.00000000000E+00 -0.45593999997E+02  0.45594000000E+02  0.51100000000E-03 0. -1.
    9900012    2    1    2    0    0 -0.37681223279E+02 -0.12175446382E+02  0.92222718757E+01  0.50528851202E+02  0.29999973715E+02 0.  0.
         12    1    1    2    0    0  0.37681223279E+02  0.12175446382E+02 -0.92222718757E+01  0.40659148798E+02  0.00000000000E+00 0. -1.
         11    1    3    3    0    0 -0.57090885670E+00  0.18288695762E+01  0.63896127481E+01  0.66706710443E+01  0.51100000000E-03 0. -1.
        -11    1    3    3    0    0 -0.10912961945E+02 -0.73941094315E+01  0.92306334204E+01  0.16092550646E+02  0.51100000000E-03 0.  1.
         12    1    3    3    0    0 -0.26197352477E+02 -0.66102065267E+01 -0.63979742928E+01  0.27765629512E+02  0.00000000000E+00 0. -1.
</event>
<event>
 7    1  0.1381607E-011  0.5052887E+02  0.7816164E-02  0.1300439E+00
        -11   -1    0    0    0    0  0.00000000000E+00  0.00000000000E+00  0.45593999997E+02  0.45594000000E+02  0.51100000000E-03 0. -1.
         11   -1    0    0    0    0 -0.00000000000E+00 -0.00000000000E+00 -0.45593999997E+02  0.45594000000E+02  0.51100000000E-03 0.  1.
    9900012    2    1    2    0    0 -0.20275676164E+02  0.13474473923E+02 -0.32565328107E+02  0.50528867125E+02  0.30000022114E+02 0.  0.
         12    1    1    2    0    0  0.20275676164E+02 -0.13474473923E+02  0.32565328107E+02  0.40659132875E+02  0.00000000000E+00 0. -1.
         11    1    3    3    0    0 -0.59254022626E+01  0.18291464578E+02 -0.73656006201E+01  0.20589806729E+02  0.51100000000E-03 0. -1.
        -11    1    3    3    0    0 -0.43624726752E+01 -0.39678991787E+01 -0.69240488340E+01  0.90949350878E+01  0.51100000000E-03 0.  1.
        -12    1    3    3    0    0 -0.99878012258E+01 -0.84909147642E+00 -0.18275678653E+02  0.20844125309E+02  0.00000000000E+00 0.  1.
</event>
<event>
 7    1  0.1381607E-011  0.5052886E+02  0.7816164E-02  0.1300439E+00
        -11   -1    0    0    0    0  0.00000000000E+00  0.00000000000E+00  0.45593999997E+02  0.45594000000E+02  0.51100000000E-03 0. -1.
         11   -1    0    0    0    0 -0.00000000000E+00 -0.00000000000E+00 -0.45593999997E+02  0.45594000000E+02  0.51100000000E-03 0.  1.
    9900012    2    1    2    0    0  0.19025086816E+01  0.28787023600E+02 -0.28650541566E+02  0.50528858359E+02  0.29999995467E+02 0.  0.
         12    1    1    2    0    0 -0.19025086816E+01 -0.28787023600E+02  0.28650541566E+02  0.40659141641E+02  0.00000000000E+00 0. -1.
         11    1    3    3    0    0  0.81582654705E+01 -0.19464676442E+01 -0.22950272684E+01  0.86955840633E+01  0.51100000000E-03 0. -1.
        -11    1    3    3    0    0 -0.15732058951E+01  0.53530712431E+01 -0.10289679308E+01  0.56735459622E+01  0.51100000000E-03 0.  1.
        -12    1    3    3    0    0 -0.46825508939E+01  0.25380420001E+02 -0.25326546366E+02  0.36159728333E+02  0.00000000000E+00 0.  1.
</event>
<event>
 7    1  0.1381607E-011  0.5052887E+02  0.7816164E-02  0.1300439E+00
        -11   -1    0    0    0    0  0.00000000000E+00  0.00000000000E+00  0.45593999997E+02  0.45594000000E+02  0.51100000000E-03 0. -1.
         11   -1    0    0    0    0 -0.00000000000E+00 -0.00000000000E+00 -0.45593999997E+02  0.45594000000E+02  0.51100000000E-03 0.  1.
    9900012    2    1    2    0    0 -0.24108122281E+02 -0.30021587009E+02 -0.13063982611E+02  0.50528869560E+02  0.30000029516E+02 0.  0.
         12    1    1    2    0    0  0.24108122281E+02  0.30021587009E+02  0.13063982611E+02  0.40659130440E+02  0.00000000000E+00 0. -1.
         11    1    3    3    0    0 -0.18527551917E+02 -0.79742365047E+01  0.38374551959E+00  0.20174386948E+02  0.51100000000E-03 0. -1.
        -11    1    3    3    0    0 -0.81938839819E+01 -0.21636531148E+02 -0.83236980559E+01  0.24587866203E+02  0.51100000000E-03 0.  1.
        -12    1    3    3    0    0  0.26133136174E+01 -0.41081935630E+00 -0.51240300745E+01  0.57666164092E+01  0.00000000000E+00 0.  1.
</event>
<event>
 7    1  0.1381607E-011  0.5052886E+02  0.7816164E-02  0.1300439E+00
        -11   -1    0    0    0    0  0.00000000000E+00  0.00000000000E+00  0.45593999997E+02  0.45594000000E+02  0.51100000000E-03 0.  1.
         11   -1    0    0    0    0 -0.00000000000E+00 -0.00000000000E+00 -0.45593999997E+02  0.45594000000E+02  0.51100000000E-03 0. -1.
    9900012    2    1    2    0    0 -0.38790754181E+01 -0.38892283604E+02  0.11203050462E+02  0.50528864622E+02  0.30000014506E+02 0.  0.
         12    1    1    2    0    0  0.38790754181E+01  0.38892283604E+02 -0.11203050462E+02  0.40659135378E+02  0.00000000000E+00 0. -1.
         11    1    3    3    0    0 -0.11179296951E+01 -0.20298081582E+02 -0.32443205339E+01  0.20586099648E+02  0.51100000000E-03 0. -1.
        -11    1    3    3    0    0  0.14766263574E+01 -0.19466323038E+02  0.16106632663E+02  0.25308926765E+02  0.51100000000E-03 0.  1.
         12    1    3    3    0    0 -0.42377720804E+01  0.87212101631E+00 -0.16592616671E+01  0.46338382095E+01  0.00000000000E+00 0. -1.
</event>
<event>
 7    1  0.1381607E-011  0.5052887E+02  0.7816164E-02  0.1300439E+00
        -11   -1    0    0    0    0  0.00000000000E+00  0.00000000000E+00  0.45593999997E+02  0.45594000000E+02  0.51100000000E-03 0.  1.
         11   -1    0    0    0    0 -0.00000000000E+00 -0.00000000000E+00 -0.45593999997E+02  0.45594000000E+02  0.51100000000E-03 0. -1.
    9900012    2    1    2    0    0  0.21524153191E+02  0.29239549177E+02  0.18300944129E+02  0.50528868643E+02  0.30000026727E+02 0.  0.
         12    1    1    2    0    0 -0.21524153191E+02 -0.29239549177E+02 -0.18300944129E+02  0.40659131357E+02  0.00000000000E+00 0. -1.
         11    1    3    3    0    0 -0.55928336073E+00 -0.20932565868E+01 -0.50701371855E+00  0.22252155374E+01  0.51100000000E-03 0. -1.
        -11    1    3    3    0    0 -0.28547419859E+01  0.11422883448E+02  0.93064585761E+01  0.15008064151E+02  0.51100000000E-03 0.  1.
        -12    1    3    3    0    0  0.24938178538E+02  0.19909922316E+02  0.95014992717E+01  0.33295588955E+02  0.00000000000E+00 0.  1.
</event>
<event>
 7    1  0.1381607E-011  0.5052885E+02  0.7816164E-02  0.1300439E+00
        -11   -1    0    0    0    0  0.00000000000E+00  0.00000000000E+00  0.45593999997E+02  0.45594000000E+02  0.51100000000E-03 0. -1.
         11   -1    0    0    0    0 -0.00000000000E+00 -0.00000000000E+00 -0.45593999997E+02  0.45594000000E+02  0.51100000000E-03 0.  1.
    9900012    2    1    2    0    0  0.23527317246E+02 -0.14293743690E+02 -0.29921914296E+02  0.50528847025E+02  0.29999961018E+02 0.  0.
         12    1    1    2    0    0 -0.23527317246E+02  0.14293743690E+02  0.29921914296E+02  0.40659152975E+02  0.00000000000E+00 0. -1.
         11    1    3    3    0    0  0.18399740648E+02 -0.15246766289E+01 -0.11537691401E+02  0.21771389893E+02  0.51100000000E-03 0. -1.
        -11    1    3    3    0    0 -0.33370804017E+00  0.19767746243E+01 -0.11359465092E+02  0.11535009597E+02  0.51100000000E-03 0.  1.
        -12    1    3    3    0    0  0.54612846379E+01 -0.14745841686E+02 -0.70247578035E+01  0.17222447535E+02  0.00000000000E+00 0.  1.
</event>
<event>
 7    1  0.1381607E-011  0.5052883E+02  0.7816164E-02  0.1300439E+00
        -11   -1    0    0    0    0  0.00000000000E+00  0.00000000000E+00  0.45593999997E+02  0.45594000000E+02  0.51100000000E-03 0. -1.
         11   -1    0    0    0    0 -0.00000000000E+00 -0.00000000000E+00 -0.45593999997E+02  0.45594000000E+02  0.51100000000E-03 0.  1.
    9900012    2    1    2    0    0 -0.38873001329E+02  0.83073393557E+01 -0.85466798023E+01  0.50528833073E+02  0.29999918609E+02 0.  0.
         12    1    1    2    0    0  0.38873001329E+02 -0.83073393557E+01  0.85466798023E+01  0.40659166927E+02  0.00000000000E+00 0. -1.
         11    1    3    3    0    0 -0.92225571402E+01 -0.35830857782E+01 -0.11055140752E+02  0.14836111391E+02  0.51100000000E-03 0.  1.
        -11    1    3    3    0    0 -0.33351366565E+01  0.71515143184E+01  0.41273021765E+01  0.89051623838E+01  0.51100000000E-03 0. -1.
         12    1    3    3    0    0 -0.26315307533E+02  0.47389108155E+01 -0.16188412270E+01  0.26787559299E+02  0.00000000000E+00 0. -1.
</event>
<event>
 7    1  0.1381607E-011  0.5052886E+02  0.7816164E-02  0.1300439E+00
        -11   -1    0    0    0    0  0.00000000000E+00  0.00000000000E+00  0.45593999997E+02  0.45594000000E+02  0.51100000000E-03 0. -1.
         11   -1    0    0    0    0 -0.00000000000E+00 -0.00000000000E+00 -0.45593999997E+02  0.45594000000E+02  0.51100000000E-03 0.  1.
    9900012    2    1    2    0    0 -0.26077742928E+02 -0.30150490528E+02 -0.80040442346E+01  0.50528862289E+02  0.30000007414E+02 0.  0.
         12    1    1    2    0    0  0.26077742928E+02  0.30150490528E+02  0.80040442346E+01  0.40659137711E+02  0.00000000000E+00 0. -1.
         11    1    3    3    0    0 -0.12868813037E+02 -0.31127676336E+01 -0.19698039499E+01  0.13385656472E+02  0.51100000000E-03 0. -1.
        -11    1    3    3    0    0 -0.92660583011E+01 -0.20552446778E+02 -0.13679534342E+02  0.26370297023E+02  0.51100000000E-03 0.  1.
         12    1    3    3    0    0 -0.39428715901E+01 -0.64852761163E+01  0.76452940571E+01  0.10772908795E+02  0.00000000000E+00 0. -1.
</event>
<event>
 7    1  0.1381607E-011  0.5052889E+02  0.7816164E-02  0.1300439E+00
        -11   -1    0    0    0    0  0.00000000000E+00  0.00000000000E+00  0.45593999997E+02  0.45594000000E+02  0.51100000000E-03 0. -1.
         11   -1    0    0    0    0 -0.00000000000E+00 -0.00000000000E+00 -0.45593999997E+02  0.45594000000E+02  0.51100000000E-03 0.  1.
    9900012    2    1    2    0    0 -0.17313824996E+02 -0.20250985938E+02 -0.30713059170E+02  0.50528893135E+02  0.30000101173E+02 0.  0.
         12    1    1    2    0    0  0.17313824996E+02  0.20250985938E+02  0.30713059170E+02  0.40659106865E+02  0.00000000000E+00 0. -1.
         11    1    3    3    0    0 -0.93654091787E+00 -0.10660531624E+01  0.99405108757E+00  0.17325461211E+01  0.51100000000E-03 0. -1.
        -11    1    3    3    0    0 -0.19753261268E+02 -0.91096474435E+01 -0.86515103499E+01  0.23409947434E+02  0.51100000000E-03 0.  1.
        -12    1    3    3    0    0  0.33759771895E+01 -0.10075285332E+02 -0.23055599908E+02  0.25386399580E+02  0.00000000000E+00 0.  1.
</event>
<event>
 7    1  0.1381607E-011  0.5052886E+02  0.7816164E-02  0.1300439E+00
        -11   -1    0    0    0    0  0.00000000000E+00  0.00000000000E+00  0.45593999997E+02  0.45594000000E+02  0.51100000000E-03 0.  1.
         11   -1    0    0    0    0 -0.00000000000E+00 -0.00000000000E+00 -0.45593999997E+02  0.45594000000E+02  0.51100000000E-03 0. -1.
    9900012    2    1    2    0    0 -0.66143807697E+01 -0.15951957541E+02  0.36809658396E+02  0.50528856703E+02  0.29999990435E+02 0.  0.
         12    1    1    2    0    0  0.66143807697E+01  0.15951957541E+02 -0.36809658396E+02  0.40659143297E+02  0.00000000000E+00 0. -1.
         11    1    3    3    0    0  0.74848633449E+01 -0.11592024646E+01  0.33339271300E+01  0.82753851883E+01  0.51100000000E-03 0. -1.
        -11    1    3    3    0    0  0.26325772170E+01 -0.64961704777E+01  0.75580614714E+01  0.10308005973E+02  0.51100000000E-03 0.  1.
         12    1    3    3    0    0 -0.16731821332E+02 -0.82965845992E+01  0.25917669795E+02  0.31945465542E+02  0.00000000000E+00 0. -1.
</event>
<event>
 7    1  0.1381607E-011  0.5052886E+02  0.7816164E-02  0.1300439E+00
        -11   -1    0    0    0    0  0.00000000000E+00  0.00000000000E+00  0.45593999997E+02  0.45594000000E+02  0.51100000000E-03 0.  1.
         11   -1    0    0    0    0 -0.00000000000E+00 -0.00000000000E+00 -0.45593999997E+02  0.45594000000E+02  0.51100000000E-03 0. -1.
    9900012    2    1    2    0    0  0.33384509077E+02 -0.10323198666E+02  0.20786336319E+02  0.50528860134E+02  0.30000000865E+02 0.  0.
         12    1    1    2    0    0 -0.33384509077E+02  0.10323198666E+02 -0.20786336319E+02  0.40659139866E+02  0.00000000000E+00 0. -1.
         11    1    3    3    0    0  0.23422428323E+02 -0.11393022015E+02  0.93672790421E+01  0.27679541472E+02  0.51100000000E-03 0. -1.
        -11    1    3    3    0    0  0.36068221876E+01 -0.64085707289E+01  0.10733916902E+02  0.13011376461E+02  0.51100000000E-03 0.  1.
        -12    1    3    3    0    0  0.63552585667E+01  0.74783940780E+01  0.68514037526E+00  0.98379422020E+01  0.00000000000E+00 0.  1.
</event>
<event>
 7    1  0.1381607E-011  0.5052886E+02  0.7816164E-02  0.1300439E+00
        -11   -1    0    0    0    0  0.00000000000E+00  0.00000000000E+00  0.45593999997E+02  0.45594000000E+02  0.51100000000E-03 0.  1.
         11   -1    0    0    0    0 -0.00000000000E+00 -0.00000000000E+00 -0.45593999997E+02  0.45594000000E+02  0.51100000000E-03 0. -1.
    9900012    2    1    2    0    0 -0.36834816280E+01 -0.11354562917E+02  0.38867356998E+02  0.50528861102E+02  0.30000003804E+02 0.  0.
         12    1    1    2    0    0  0.36834816280E+01  0.11354562917E+02 -0.38867356998E+02  0.40659138898E+02  0.00000000000E+00 0. -1.
         11    1    3    3    0    0 -0.27667708015E+01  0.17948566412E+01 -0.30031447462E+01  0.44604270713E+01  0.51100000000E-03 0. -1.
        -11    1    3    3    0    0  0.45015141104E+01 -0.24854378202E+01  0.45095253915E+01  0.68393603474E+01  0.51100000000E-03 0.  1.
        -12    1    3    3    0    0 -0.54182249370E+01 -0.10663981738E+02  0.37360976353E+02  0.39229073683E+02  0.00000000000E+00 0.  1.
</event>
<event>
 7    1  0.1381607E-011  0.5052887E+02  0.7816164E-02  0.1300439E+00
        -11   -1    0    0    0    0  0.00000000000E+00  0.00000000000E+00  0.45593999997E+02  0.45594000000E+02  0.51100000000E-03 0.  1.
         11   -1    0    0    0    0 -0.00000000000E+00 -0.00000000000E+00 -0.45593999997E+02  0.45594000000E+02  0.51100000000E-03 0. -1.
    9900012    2    1    2    0    0  0.51586197215E+01 -0.31995272208E+02 -0.24553120441E+02  0.50528874032E+02  0.30000043108E+02 0.  0.
         12    1    1    2    0    0 -0.51586197215E+01  0.31995272208E+02  0.24553120441E+02  0.40659125968E+02  0.00000000000E+00 0. -1.
         11    1    3    3    0    0  0.16377578514E+01 -0.13157294398E+02  0.23913135444E+01  0.13472751292E+02  0.51100000000E-03 0. -1.
        -11    1    3    3    0    0 -0.26942259210E+01 -0.16352058776E+02 -0.11352374055E+02  0.20087933604E+02  0.51100000000E-03 0.  1.
         12    1    3    3    0    0  0.62150877911E+01 -0.24859190346E+01 -0.15592059930E+02  0.16968189136E+02  0.00000000000E+00 0. -1.
</event>
<event>
 7    1  0.1381607E-011  0.5052886E+02  0.7816164E-02  0.1300439E+00
        -11   -1    0    0    0    0  0.00000000000E+00  0.00000000000E+00  0.45593999997E+02  0.45594000000E+02  0.51100000000E-03 0. -1.
         11   -1    0    0    0    0 -0.00000000000E+00 -0.00000000000E+00 -0.45593999997E+02  0.45594000000E+02  0.51100000000E-03 0.  1.
    9900012    2    1    2    0    0 -0.24728094559E+02 -0.31916581244E+02 -0.47977808804E+01  0.50528861788E+02  0.30000005889E+02 0.  0.
         12    1    1    2    0    0  0.24728094559E+02  0.31916581244E+02  0.47977808804E+01  0.40659138212E+02  0.00000000000E+00 0. -1.
         11    1    3    3    0    0 -0.35200552285E+01 -0.10391245679E+02  0.10763953177E+02  0.15369823156E+02  0.51100000000E-03 0. -1.
        -11    1    3    3    0    0 -0.16635190440E+02 -0.11420926210E+02 -0.78550923941E+01  0.21653396806E+02  0.51100000000E-03 0.  1.
        -12    1    3    3    0    0 -0.45728488903E+01 -0.10104409355E+02 -0.77066416638E+01  0.13505641825E+02  0.00000000000E+00 0.  1.
</event>
<event>
 7    1  0.1381607E-011  0.5052886E+02  0.7816164E-02  0.1300439E+00
        -11   -1    0    0    0    0  0.00000000000E+00  0.00000000000E+00  0.45593999997E+02  0.45594000000E+02  0.51100000000E-03 0.  1.
         11   -1    0    0    0    0 -0.00000000000E+00 -0.00000000000E+00 -0.45593999997E+02  0.45594000000E+02  0.51100000000E-03 0. -1.
    9900012    2    1    2    0    0  0.34827947120E+02  0.87753920275E+01  0.19057082214E+02  0.50528858490E+02  0.29999995867E+02 0.  0.
         12    1    1    2    0    0 -0.34827947120E+02 -0.87753920275E+01 -0.19057082214E+02  0.40659141510E+02  0.00000000000E+00 0. -1.
         11    1    3    3    0    0  0.94918990197E+01  0.82615217023E+01  0.12630073037E+02  0.17828842728E+02  0.51100000000E-03 0. -1.
        -11    1    3    3    0    0  0.15454756850E+02 -0.31318711542E+01  0.12869113498E+02  0.20353678014E+02  0.51100000000E-03 0.  1.
         12    1    3    3    0    0  0.98812912501E+01  0.36457414794E+01 -0.64421043212E+01  0.12346337748E+02  0.00000000000E+00 0. -1.
</event>
<event>
 7    1  0.1381607E-011  0.5052886E+02  0.7816164E-02  0.1300439E+00
        -11   -1    0    0    0    0  0.00000000000E+00  0.00000000000E+00  0.45593999997E+02  0.45594000000E+02  0.51100000000E-03 0.  1.
         11   -1    0    0    0    0 -0.00000000000E+00 -0.00000000000E+00 -0.45593999997E+02  0.45594000000E+02  0.51100000000E-03 0. -1.
    9900012    2    1    2    0    0  0.17348705972E+02  0.28069997561E+02 -0.23754226863E+02  0.50528860119E+02  0.30000000819E+02 0.  0.
         12    1    1    2    0    0 -0.17348705972E+02 -0.28069997561E+02  0.23754226863E+02  0.40659139881E+02  0.00000000000E+00 0. -1.
         11    1    3    3    0    0  0.65713020767E+01  0.13264208067E+02 -0.11881495048E+02  0.18981336925E+02  0.51100000000E-03 0. -1.
        -11    1    3    3    0    0  0.13974758026E+02  0.11495115503E+02  0.75128050156E+00  0.18110658877E+02  0.51100000000E-03 0.  1.
         12    1    3    3    0    0 -0.31973541307E+01  0.33106739909E+01 -0.12624012317E+02  0.13436864317E+02  0.00000000000E+00 0. -1.
</event>
<event>
 7    1  0.1381607E-011  0.5052886E+02  0.7816164E-02  0.1300439E+00
        -11   -1    0    0    0    0  0.00000000000E+00  0.00000000000E+00  0.45593999997E+02  0.45594000000E+02  0.51100000000E-03 0. -1.
         11   -1    0    0    0    0 -0.00000000000E+00 -0.00000000000E+00 -0.45593999997E+02  0.45594000000E+02  0.51100000000E-03 0.  1.
    9900012    2    1    2    0    0  0.31352149549E+02  0.25880030566E+02 -0.65744672059E+00  0.50528862040E+02  0.30000006658E+02 0.  0.
         12    1    1    2    0    0 -0.31352149549E+02 -0.25880030566E+02  0.65744672059E+00  0.40659137960E+02  0.00000000000E+00 0. -1.
         11    1    3    3    0    0  0.11606442311E+02  0.12340583846E+02  0.78598593369E+01  0.18675569652E+02  0.51100000000E-03 0. -1.
        -11    1    3    3    0    0  0.23276483795E+02  0.13595972245E+02 -0.86769681035E+01  0.28318455729E+02  0.51100000000E-03 0.  1.
        -12    1    3    3    0    0 -0.35307765575E+01 -0.56525524942E-01  0.15966204607E+00  0.35348366586E+01  0.00000000000E+00 0.  1.
</event>
<event>
 7    1  0.1381607E-011  0.5052895E+02  0.7816164E-02  0.1300438E+00
        -11   -1    0    0    0    0  0.00000000000E+00  0.00000000000E+00  0.45593999997E+02  0.45594000000E+02  0.51100000000E-03 0.  1.
         11   -1    0    0    0    0 -0.00000000000E+00 -0.00000000000E+00 -0.45593999997E+02  0.45594000000E+02  0.51100000000E-03 0. -1.
    9900012    2    1    2    0    0  0.31324649611E+02 -0.51155354792E+01  0.25411731475E+02  0.50528948448E+02  0.30000269302E+02 0.  0.
         12    1    1    2    0    0 -0.31324649611E+02  0.51155354792E+01 -0.25411731475E+02  0.40659051552E+02  0.00000000000E+00 0. -1.
         11    1    3    3    0    0  0.17124319246E+02 -0.53222091543E+01  0.74113709814E+00  0.17947632278E+02  0.51100000000E-03 0. -1.
        -11    1    3    3    0    0  0.73446328456E+01  0.51994455160E+01  0.32921886903E+01  0.95820859912E+01  0.51100000000E-03 0.  1.
        -12    1    3    3    0    0  0.68556975199E+01 -0.49927718409E+01  0.21378405687E+02  0.22999230179E+02  0.00000000000E+00 0.  1.
</event>
<event>
 7    1  0.1381607E-011  0.5052886E+02  0.7816164E-02  0.1300439E+00
        -11   -1    0    0    0    0  0.00000000000E+00  0.00000000000E+00  0.45593999997E+02  0.45594000000E+02  0.51100000000E-03 0. -1.
         11   -1    0    0    0    0 -0.00000000000E+00 -0.00000000000E+00 -0.45593999997E+02  0.45594000000E+02  0.51100000000E-03 0.  1.
    9900012    2    1    2    0    0 -0.35450475810E+02 -0.13361448922E+02 -0.14761467920E+02  0.50528862188E+02  0.30000007107E+02 0.  0.
         12    1    1    2    0    0  0.35450475810E+02  0.13361448922E+02  0.14761467920E+02  0.40659137812E+02  0.00000000000E+00 0. -1.
         11    1    3    3    0    0 -0.10590474051E+02  0.52374615821E+01 -0.36722596938E+01  0.12372333489E+02  0.51100000000E-03 0. -1.
        -11    1    3    3    0    0 -0.12805931200E+02 -0.16831760831E+02  0.75794381404E+00  0.21163046228E+02  0.51100000000E-03 0.  1.
         12    1    3    3    0    0 -0.12054070559E+02 -0.17671496736E+01 -0.11847152041E+02  0.16993482471E+02  0.00000000000E+00 0. -1.
</event>
<event>
 7    1  0.1381607E-011  0.5052887E+02  0.7816164E-02  0.1300439E+00
        -11   -1    0    0    0    0  0.00000000000E+00  0.00000000000E+00  0.45593999997E+02  0.45594000000E+02  0.51100000000E-03 0.  1.
         11   -1    0    0    0    0 -0.00000000000E+00 -0.00000000000E+00 -0.45593999997E+02  0.45594000000E+02  0.51100000000E-03 0. -1.
    9900012    2    1    2    0    0 -0.27792520811E+02  0.20897174169E+02  0.21072473269E+02  0.50528865344E+02  0.30000016701E+02 0.  0.
         12    1    1    2    0    0  0.27792520811E+02 -0.20897174169E+02 -0.21072473269E+02  0.40659134656E+02  0.00000000000E+00 0. -1.
         11    1    3    3    0    0 -0.25835718454E+01 -0.48326453741E+01  0.24926769372E+01  0.60201946286E+01  0.51100000000E-03 0. -1.
        -11    1    3    3    0    0 -0.67984867626E+01  0.88540616532E+01  0.15848186801E+02  0.19385016254E+02  0.51100000000E-03 0.  1.
        -12    1    3    3    0    0 -0.18410462203E+02  0.16875757890E+02  0.27316095306E+01  0.25123654462E+02  0.00000000000E+00 0.  1.
</event>
<event>
 7    1  0.1381607E-011  0.5052885E+02  0.7816164E-02  0.1300439E+00
        -11   -1    0    0    0    0  0.00000000000E+00  0.00000000000E+00  0.45593999997E+02  0.45594000000E+02  0.51100000000E-03 0. -1.
         11   -1    0    0    0    0 -0.00000000000E+00 -0.00000000000E+00 -0.45593999997E+02  0.45594000000E+02  0.51100000000E-03 0.  1.
    9900012    2    1    2    0    0  0.37952251930E+02 -0.86545635948E+00 -0.14561725746E+02  0.50528852223E+02  0.29999976817E+02 0.  0.
         12    1    1    2    0    0 -0.37952251930E+02  0.86545635948E+00  0.14561725746E+02  0.40659147777E+02  0.00000000000E+00 0. -1.
         11    1    3    3    0    0  0.78374856560E+01  0.75342742847E+01 -0.10156690459E+02  0.14877830210E+02  0.51100000000E-03 0. -1.
        -11    1    3    3    0    0  0.21393112892E+02 -0.31639740334E+01 -0.10235837447E+02  0.23925893492E+02  0.51100000000E-03 0.  1.
         12    1    3    3    0    0  0.87216533817E+01 -0.52357566109E+01  0.58308021605E+01  0.11725128521E+02  0.00000000000E+00 0. -1.
</event>
<event>
 7    1  0.1381607E-011  0.5052889E+02  0.7816164E-02  0.1300439E+00
        -11   -1    0    0    0    0  0.00000000000E+00  0.00000000000E+00  0.45593999997E+02  0.45594000000E+02  0.51100000000E-03 0. -1.
         11   -1    0    0    0    0 -0.00000000000E+00 -0.00000000000E+00 -0.45593999997E+02  0.45594000000E+02  0.51100000000E-03 0.  1.
    9900012    2    1    2    0    0 -0.30157711355E+02 -0.41642751092E+01 -0.26950600782E+02  0.50528885107E+02  0.30000076772E+02 0.  0.
         12    1    1    2    0    0  0.30157711355E+02  0.41642751092E+01  0.26950600782E+02  0.40659114893E+02  0.00000000000E+00 0. -1.
         11    1    3    3    0    0 -0.10550799079E+02  0.56188946389E+01  0.22427947492E+01  0.12162296934E+02  0.51100000000E-03 0. -1.
        -11    1    3    3    0    0 -0.15716771819E+02 -0.58308864354E+01 -0.12891545816E+02  0.21147295496E+02  0.51100000000E-03 0.  1.
        -12    1    3    3    0    0 -0.38901404573E+01 -0.39522833128E+01 -0.16301849714E+02  0.17219292676E+02  0.00000000000E+00 0.  1.
</event>
<event>
 7    1  0.1381607E-011  0.5052885E+02  0.7816164E-02  0.1300439E+00
        -11   -1    0    0    0    0  0.00000000000E+00  0.00000000000E+00  0.45593999997E+02  0.45594000000E+02  0.51100000000E-03 0. -1.
         11   -1    0    0    0    0 -0.00000000000E+00 -0.00000000000E+00 -0.45593999997E+02  0.45594000000E+02  0.51100000000E-03 0.  1.
    9900012    2    1    2    0    0 -0.30787926672E+02  0.40747042653E+01 -0.26242468537E+02  0.50528846067E+02  0.29999958104E+02 0.  0.
         12    1    1    2    0    0  0.30787926672E+02 -0.40747042653E+01  0.26242468537E+02  0.40659153933E+02  0.00000000000E+00 0. -1.
         11    1    3    3    0    0  0.19497933350E+01  0.28740701825E+00 -0.84674371140E+01  0.86937787172E+01  0.51100000000E-03 0. -1.
        -11    1    3    3    0    0 -0.10444335306E+01  0.26816822915E+01  0.28140425445E+01  0.40250586351E+01  0.51100000000E-03 0.  1.
        -12    1    3    3    0    0 -0.31693286477E+02  0.11056149555E+01 -0.20589073968E+02  0.37810008714E+02  0.00000000000E+00 0.  1.
</event>
<event>
 7    1  0.1381607E-011  0.5052886E+02  0.7816164E-02  0.1300439E+00
        -11   -1    0    0    0    0  0.00000000000E+00  0.00000000000E+00  0.45593999997E+02  0.45594000000E+02  0.51100000000E-03 0.  1.
         11   -1    0    0    0    0 -0.00000000000E+00 -0.00000000000E+00 -0.45593999997E+02  0.45594000000E+02  0.51100000000E-03 0. -1.
    9900012    2    1    2    0    0 -0.29622417741E+02 -0.19626673772E+02  0.19760350469E+02  0.50528863181E+02  0.30000010125E+02 0.  0.
         12    1    1    2    0    0  0.29622417741E+02  0.19626673772E+02 -0.19760350469E+02  0.40659136819E+02  0.00000000000E+00 0. -1.
         11    1    3    3    0    0 -0.45188447878E+01 -0.11818288645E+02  0.19067559909E+01  0.12795609535E+02  0.51100000000E-03 0. -1.
        -11    1    3    3    0    0 -0.14364050659E+02 -0.10475035207E+02  0.19676757344E+02  0.26518429323E+02  0.51100000000E-03 0.  1.
         12    1    3    3    0    0 -0.10739522294E+02  0.26666500791E+01 -0.18231628660E+01  0.11214824322E+02  0.00000000000E+00 0. -1.
</event>
<event>
 7    1  0.1381607E-011  0.5052886E+02  0.7816164E-02  0.1300439E+00
        -11   -1    0    0    0    0  0.00000000000E+00  0.00000000000E+00  0.45593999997E+02  0.45594000000E+02  0.51100000000E-03 0.  1.
         11   -1    0    0    0    0 -0.00000000000E+00 -0.00000000000E+00 -0.45593999997E+02  0.45594000000E+02  0.51100000000E-03 0. -1.
    9900012    2    1    2    0    0  0.36026254333E+02 -0.16246821806E+01  0.18778571275E+02  0.50528864094E+02  0.30000012901E+02 0.  0.
         12    1    1    2    0    0 -0.36026254333E+02  0.16246821806E+01 -0.18778571275E+02  0.40659135906E+02  0.00000000000E+00 0. -1.
         11    1    3    3    0    0  0.93481931063E+01 -0.37738810294E+01  0.11060485698E+02  0.14965468135E+02  0.51100000000E-03 0.  1.
        -11    1    3    3    0    0  0.21721297130E+02 -0.72625617847E+01  0.88463594937E+00  0.22920343228E+02  0.51100000000E-03 0. -1.
         12    1    3    3    0    0  0.49567640971E+01  0.94117606335E+01  0.68334496281E+01  0.12643052731E+02  0.00000000000E+00 0. -1.
</event>
<event>
 7    1  0.1381607E-011  0.5052885E+02  0.7816164E-02  0.1300439E+00
        -11   -1    0    0    0    0  0.00000000000E+00  0.00000000000E+00  0.45593999997E+02  0.45594000000E+02  0.51100000000E-03 0.  1.
         11   -1    0    0    0    0 -0.00000000000E+00 -0.00000000000E+00 -0.45593999997E+02  0.45594000000E+02  0.51100000000E-03 0. -1.
    9900012    2    1    2    0    0 -0.83398802615E+01 -0.20048645453E+02  0.34375345244E+02  0.50528854068E+02  0.29999982425E+02 0.  0.
         12    1    1    2    0    0  0.83398802615E+01  0.20048645453E+02 -0.34375345244E+02  0.40659145932E+02  0.00000000000E+00 0. -1.
         11    1    3    3    0    0  0.30606093393E+01 -0.17289747303E+02  0.26606771453E+02  0.31878252442E+02  0.51100000000E-03 0. -1.
        -11    1    3    3    0    0 -0.27449046843E+00  0.32561196246E+01  0.45461858270E+01  0.55987021587E+01  0.51100000000E-03 0.  1.
        -12    1    3    3    0    0 -0.11125999132E+02 -0.60150177746E+01  0.32223879643E+01  0.13051899468E+02  0.00000000000E+00 0.  1.
</event>
<event>
 7    1  0.1381607E-011  0.5052886E+02  0.7816164E-02  0.1300439E+00
        -11   -1    0    0    0    0  0.00000000000E+00  0.00000000000E+00  0.45593999997E+02  0.45594000000E+02  0.51100000000E-03 0.  1.
         11   -1    0    0    0    0 -0.00000000000E+00 -0.00000000000E+00 -0.45593999997E+02  0.45594000000E+02  0.51100000000E-03 0. -1.
    9900012    2    1    2    0    0 -0.15384932287E+02 -0.37082752167E+02 -0.64295499388E+01  0.50528858811E+02  0.29999996843E+02 0.  0.
         12    1    1    2    0    0  0.15384932287E+02  0.37082752167E+02  0.64295499388E+01  0.40659141189E+02  0.00000000000E+00 0. -1.
         11    1    3    3    0    0  0.24520356504E+01  0.22222530970E+01  0.21977326855E-01  0.33092855606E+01  0.51100000000E-03 0. -1.
        -11    1    3    3    0    0  0.13544462096E+01 -0.13885059911E+02  0.24128873948E+01  0.14158087410E+02  0.51100000000E-03 0.  1.
        -12    1    3    3    0    0 -0.19191414147E+02 -0.25419945353E+02 -0.88644146604E+01  0.33061485841E+02  0.00000000000E+00 0.  1.
</event>
<event>
 7    1  0.1381607E-011  0.5052886E+02  0.7816164E-02  0.1300439E+00
        -11   -1    0    0    0    0  0.00000000000E+00  0.00000000000E+00  0.45593999997E+02  0.45594000000E+02  0.51100000000E-03 0.  1.
         11   -1    0    0    0    0 -0.00000000000E+00 -0.00000000000E+00 -0.45593999997E+02  0.45594000000E+02  0.51100000000E-03 0. -1.
    9900012    2    1    2    0    0 -0.33575023182E+02  0.22603232704E+01  0.22820489507E+02  0.50528856080E+02  0.29999988541E+02 0.  0.
         12    1    1    2    0    0  0.33575023182E+02 -0.22603232704E+01 -0.22820489507E+02  0.40659143920E+02  0.00000000000E+00 0. -1.
         11    1    3    3    0    0 -0.79568763578E+01  0.10538835723E+02  0.27039321782E+01  0.13479250323E+02  0.51100000000E-03 0. -1.
        -11    1    3    3    0    0 -0.94857588720E+01 -0.42947523465E+01  0.17305312542E+02  0.20196493793E+02  0.51100000000E-03 0.  1.
        -12    1    3    3    0    0 -0.16132387952E+02 -0.39837601065E+01  0.28112447869E+01  0.16853111964E+02  0.00000000000E+00 0.  1.
</event>
<event>
 7    1  0.1381607E-011  0.5052886E+02  0.7816164E-02  0.1300439E+00
        -11   -1    0    0    0    0  0.00000000000E+00  0.00000000000E+00  0.45593999997E+02  0.45594000000E+02  0.51100000000E-03 0.  1.
         11   -1    0    0    0    0 -0.00000000000E+00 -0.00000000000E+00 -0.45593999997E+02  0.45594000000E+02  0.51100000000E-03 0. -1.
    9900012    2    1    2    0    0 -0.39926094456E+02 -0.69951937879E+01  0.31843753073E+01  0.50528855878E+02  0.29999987927E+02 0.  0.
         12    1    1    2    0    0  0.39926094456E+02  0.69951937879E+01 -0.31843753073E+01  0.40659144122E+02  0.00000000000E+00 0. -1.
         11    1    3    3    0    0 -0.84812601843E+01  0.35180829977E+01 -0.25146524523E+01  0.95200924107E+01  0.51100000000E-03 0. -1.
        -11    1    3    3    0    0 -0.18264753656E+02  0.36198263904E+01  0.10108585680E+02  0.21186974157E+02  0.51100000000E-03 0.  1.
         12    1    3    3    0    0 -0.13180080616E+02 -0.14133103176E+02 -0.44095579203E+01  0.19821789311E+02  0.00000000000E+00 0. -1.
</event>
<event>
 7    1  0.1381607E-011  0.5052885E+02  0.7816164E-02  0.1300439E+00
        -11   -1    0    0    0    0  0.00000000000E+00  0.00000000000E+00  0.45593999997E+02  0.45594000000E+02  0.51100000000E-03 0. -1.
         11   -1    0    0    0    0 -0.00000000000E+00 -0.00000000000E+00 -0.45593999997E+02  0.45594000000E+02  0.51100000000E-03 0.  1.
    9900012    2    1    2    0    0 -0.14040622658E+02  0.19011009234E+02 -0.33084875704E+02  0.50528849036E+02  0.29999967131E+02 0.  0.
         12    1    1    2    0    0  0.14040622658E+02 -0.19011009234E+02  0.33084875704E+02  0.40659150964E+02  0.00000000000E+00 0. -1.
         11    1    3    3    0    0 -0.73529961997E-01  0.11271418812E+02 -0.95467830929E-01  0.11272062946E+02  0.51100000000E-03 0. -1.
        -11    1    3    3    0    0 -0.34907930966E+01  0.91118522397E+01 -0.10084687046E+02  0.14032547907E+02  0.51100000000E-03 0.  1.
         12    1    3    3    0    0 -0.10476299600E+02 -0.13722618172E+01 -0.22904720827E+02  0.25224238184E+02  0.00000000000E+00 0. -1.
</event>
<event>
 7    1  0.1381607E-011  0.5052882E+02  0.7816164E-02  0.1300439E+00
        -11   -1    0    0    0    0  0.00000000000E+00  0.00000000000E+00  0.45593999997E+02  0.45594000000E+02  0.51100000000E-03 0. -1.
         11   -1    0    0    0    0 -0.00000000000E+00 -0.00000000000E+00 -0.45593999997E+02  0.45594000000E+02  0.51100000000E-03 0.  1.
    9900012    2    1    2    0    0  0.25933423686E+02 -0.31154285096E+02 -0.31681164316E+01  0.50528820155E+02  0.29999879343E+02 0.  0.
         12    1    1    2    0    0 -0.25933423686E+02  0.31154285096E+02  0.31681164316E+01  0.40659179845E+02  0.00000000000E+00 0. -1.
         11    1    3    3    0    0  0.36285765860E+01 -0.10181384386E+02  0.69753658882E+01  0.12864015143E+02  0.51100000000E-03 0. -1.
        -11    1    3    3    0    0  0.23119580145E+02 -0.23849356492E+02 -0.99252467567E+01  0.34667236905E+02  0.51100000000E-03 0.  1.
         12    1    3    3    0    0 -0.81473304499E+00  0.28764557816E+01 -0.21823556302E+00  0.29975681075E+01  0.00000000000E+00 0. -1.
</event>
<event>
 7    1  0.1381607E-011  0.5052886E+02  0.7816164E-02  0.1300439E+00
        -11   -1    0    0    0    0  0.00000000000E+00  0.00000000000E+00  0.45593999997E+02  0.45594000000E+02  0.51100000000E-03 0.  1.
         11   -1    0    0    0    0 -0.00000000000E+00 -0.00000000000E+00 -0.45593999997E+02  0.45594000000E+02  0.51100000000E-03 0. -1.
    9900012    2    1    2    0    0 -0.11326825061E+02 -0.30570845050E+01  0.38929717057E+02  0.50528860784E+02  0.30000002840E+02 0.  0.
         12    1    1    2    0    0  0.11326825061E+02  0.30570845050E+01 -0.38929717057E+02  0.40659139216E+02  0.00000000000E+00 0. -1.
         11    1    3    3    0    0  0.12800670376E+01 -0.10203080601E+02  0.24508812069E+02  0.26578624770E+02  0.51100000000E-03 0. -1.
        -11    1    3    3    0    0 -0.64514164664E+01 -0.30872561611E+01  0.60345506342E+01  0.93577629081E+01  0.51100000000E-03 0.  1.
         12    1    3    3    0    0 -0.61554756319E+01  0.10233252257E+02  0.83863543538E+01  0.14592473106E+02  0.00000000000E+00 0. -1.
</event>
<event>
 7    1  0.1381607E-011  0.5052884E+02  0.7816164E-02  0.1300439E+00
        -11   -1    0    0    0    0  0.00000000000E+00  0.00000000000E+00  0.45593999997E+02  0.45594000000E+02  0.51100000000E-03 0. -1.
         11   -1    0    0    0    0 -0.00000000000E+00 -0.00000000000E+00 -0.45593999997E+02  0.45594000000E+02  0.51100000000E-03 0.  1.
    9900012    2    1    2    0    0  0.10615834633E+01  0.37896296544E+02 -0.14693917946E+02  0.50528837738E+02  0.29999932789E+02 0.  0.
         12    1    1    2    0    0 -0.10615834633E+01 -0.37896296544E+02  0.14693917946E+02  0.40659162262E+02  0.00000000000E+00 0. -1.
         11    1    3    3    0    0  0.50115588273E+01  0.24235985198E+01 -0.31295691071E+01  0.63862159939E+01  0.51100000000E-03 0. -1.
        -11    1    3    3    0    0  0.56969438239E+00  0.27293536016E+02 -0.18086097026E+02  0.32747039039E+02  0.51100000000E-03 0.  1.
         12    1    3    3    0    0 -0.45196697464E+01  0.81791620084E+01  0.65217481867E+01  0.11395582705E+02  0.00000000000E+00 0. -1.
</event>
<event>
 7    1  0.1381607E-011  0.5052885E+02  0.7816164E-02  0.1300439E+00
        -11   -1    0    0    0    0  0.00000000000E+00  0.00000000000E+00  0.45593999997E+02  0.45594000000E+02  0.51100000000E-03 0.  1.
         11   -1    0    0    0    0 -0.00000000000E+00 -0.00000000000E+00 -0.45593999997E+02  0.45594000000E+02  0.51100000000E-03 0. -1.
    9900012    2    1    2    0    0 -0.19926740584E+02  0.35430599287E+02 -0.87404411453E+00  0.50528852084E+02  0.29999976395E+02 0.  0.
         12    1    1    2    0    0  0.19926740584E+02 -0.35430599287E+02  0.87404411453E+00  0.40659147916E+02  0.00000000000E+00 0. -1.
         11    1    3    3    0    0 -0.82056955996E+00 -0.13651834569E+01 -0.74361173432E+01  0.76047946505E+01  0.51100000000E-03 0. -1.
        -11    1    3    3    0    0 -0.99985665738E+01  0.12044570500E+02  0.52759430871E+01  0.16519037133E+02  0.51100000000E-03 0.  1.
        -12    1    3    3    0    0 -0.91076044498E+01  0.24751212244E+02  0.12861301415E+01  0.26405020301E+02  0.00000000000E+00 0.  1.
</event>
<event>
 7    1  0.1381607E-011  0.5052886E+02  0.7816164E-02  0.1300439E+00
        -11   -1    0    0    0    0  0.00000000000E+00  0.00000000000E+00  0.45593999997E+02  0.45594000000E+02  0.51100000000E-03 0.  1.
         11   -1    0    0    0    0 -0.00000000000E+00 -0.00000000000E+00 -0.45593999997E+02  0.45594000000E+02  0.51100000000E-03 0. -1.
    9900012    2    1    2    0    0  0.13212460875E+02  0.36511919063E+02 -0.12061356679E+02  0.50528859811E+02  0.29999999880E+02 0.  0.
         12    1    1    2    0    0 -0.13212460875E+02 -0.36511919063E+02  0.12061356679E+02  0.40659140189E+02  0.00000000000E+00 0. -1.
         11    1    3    3    0    0  0.12611206742E+02  0.24388516332E+02 -0.16884190628E+02  0.32232253378E+02  0.51100000000E-03 0. -1.
        -11    1    3    3    0    0  0.37241971925E+01  0.11554768261E+02 -0.44280664842E+00  0.12148184732E+02  0.51100000000E-03 0.  1.
         12    1    3    3    0    0 -0.31229430595E+01  0.56863446894E+00  0.52656405971E+01  0.61484217007E+01  0.00000000000E+00 0. -1.
</event>
<event>
 7    1  0.1381607E-011  0.5052886E+02  0.7816164E-02  0.1300439E+00
        -11   -1    0    0    0    0  0.00000000000E+00  0.00000000000E+00  0.45593999997E+02  0.45594000000E+02  0.51100000000E-03 0.  1.
         11   -1    0    0    0    0 -0.00000000000E+00 -0.00000000000E+00 -0.45593999997E+02  0.45594000000E+02  0.51100000000E-03 0. -1.
    9900012    2    1    2    0    0  0.41471596816E+01  0.40233502433E+02  0.41511841106E+01  0.50528856121E+02  0.29999988665E+02 0.  0.
         12    1    1    2    0    0 -0.41471596816E+01 -0.40233502433E+02 -0.41511841106E+01  0.40659143879E+02  0.00000000000E+00 0. -1.
         11    1    3    3    0    0  0.51884351133E+01  0.26270563864E+01  0.75330051854E+01  0.95166933105E+01  0.51100000000E-03 0. -1.
        -11    1    3    3    0    0  0.67496443459E+01  0.25586595560E+02 -0.91753314283E+00  0.26477791420E+02  0.51100000000E-03 0.  1.
        -12    1    3    3    0    0 -0.77909197775E+01  0.12019850487E+02 -0.24642879319E+01  0.14534371390E+02  0.00000000000E+00 0.  1.
</event>
<event>
 7    1  0.1381607E-011  0.5052886E+02  0.7816164E-02  0.1300439E+00
        -11   -1    0    0    0    0  0.00000000000E+00  0.00000000000E+00  0.45593999997E+02  0.45594000000E+02  0.51100000000E-03 0. -1.
         11   -1    0    0    0    0 -0.00000000000E+00 -0.00000000000E+00 -0.45593999997E+02  0.45594000000E+02  0.51100000000E-03 0.  1.
    9900012    2    1    2    0    0  0.97147012513E+01  0.37062519432E+02  0.13607351530E+02  0.50528858559E+02  0.29999996075E+02 0.  0.
         12    1    1    2    0    0 -0.97147012513E+01 -0.37062519432E+02 -0.13607351530E+02  0.40659141441E+02  0.00000000000E+00 0. -1.
         11    1    3    3    0    0  0.16866542214E+02  0.17911932699E+02  0.78264039116E+01  0.25818020406E+02  0.51100000000E-03 0. -1.
        -11    1    3    3    0    0 -0.45976021038E+01  0.92302005566E+01  0.92931458199E+01  0.13881538348E+02  0.51100000000E-03 0.  1.
        -12    1    3    3    0    0 -0.25542388586E+01  0.99203861772E+01 -0.35121982010E+01  0.10829299804E+02  0.00000000000E+00 0.  1.
</event>
<event>
 7    1  0.1381607E-011  0.5052874E+02  0.7816164E-02  0.1300439E+00
        -11   -1    0    0    0    0  0.00000000000E+00  0.00000000000E+00  0.45593999997E+02  0.45594000000E+02  0.51100000000E-03 0. -1.
         11   -1    0    0    0    0 -0.00000000000E+00 -0.00000000000E+00 -0.45593999997E+02  0.45594000000E+02  0.51100000000E-03 0.  1.
    9900012    2    1    2    0    0  0.15418926771E+01  0.31289113748E+02 -0.25918903872E+02  0.50528737217E+02  0.29999627241E+02 0.  0.
         12    1    1    2    0    0 -0.15418926771E+01 -0.31289113748E+02  0.25918903872E+02  0.40659262783E+02  0.00000000000E+00 0. -1.
         11    1    3    3    0    0  0.10849079920E+02  0.18374482902E+02 -0.60622584246E+01  0.22182766610E+02  0.51100000000E-03 0. -1.
        -11    1    3    3    0    0  0.25372668417E+01  0.37024865620E+01 -0.17198018850E+01  0.48066462895E+01  0.51100000000E-03 0.  1.
        -12    1    3    3    0    0 -0.11844454085E+02  0.92121442846E+01 -0.18136843562E+02  0.23539324317E+02  0.00000000000E+00 0.  1.
</event>
<event>
 7    1  0.1381607E-011  0.5052885E+02  0.7816164E-02  0.1300439E+00
        -11   -1    0    0    0    0  0.00000000000E+00  0.00000000000E+00  0.45593999997E+02  0.45594000000E+02  0.51100000000E-03 0.  1.
         11   -1    0    0    0    0 -0.00000000000E+00 -0.00000000000E+00 -0.45593999997E+02  0.45594000000E+02  0.51100000000E-03 0. -1.
    9900012    2    1    2    0    0 -0.24647667026E+02 -0.25070818036E+02  0.20423347570E+02  0.50528849335E+02  0.29999968040E+02 0.  0.
         12    1    1    2    0    0  0.24647667026E+02  0.25070818036E+02 -0.20423347570E+02  0.40659150665E+02  0.00000000000E+00 0. -1.
         11    1    3    3    0    0  0.30902030714E+00 -0.51763196987E+01  0.51467713590E+01  0.73060957327E+01  0.51100000000E-03 0. -1.
        -11    1    3    3    0    0 -0.29199684285E+02 -0.15229520833E+02  0.16443680738E+02  0.36809706649E+02  0.51100000000E-03 0.  1.
         12    1    3    3    0    0  0.42429969518E+01 -0.46649775045E+01 -0.11671045273E+01  0.64130469535E+01  0.00000000000E+00 0. -1.
</event>
<event>
 7    1  0.1381607E-011  0.5052886E+02  0.7816164E-02  0.1300439E+00
        -11   -1    0    0    0    0  0.00000000000E+00  0.00000000000E+00  0.45593999997E+02  0.45594000000E+02  0.51100000000E-03 0.  1.
         11   -1    0    0    0    0 -0.00000000000E+00 -0.00000000000E+00 -0.45593999997E+02  0.45594000000E+02  0.51100000000E-03 0. -1.
    9900012    2    1    2    0    0  0.31707552099E+02 -0.20261169153E+02  0.15403958417E+02  0.50528858710E+02  0.29999996534E+02 0.  0.
         12    1    1    2    0    0 -0.31707552099E+02  0.20261169153E+02 -0.15403958417E+02  0.40659141290E+02  0.00000000000E+00 0. -1.
         11    1    3    3    0    0  0.12083106655E+02 -0.74521150607E+01 -0.70943992958E+01  0.15870286291E+02  0.51100000000E-03 0. -1.
        -11    1    3    3    0    0  0.11081478055E+02 -0.30992160695E+01  0.41960320012E+01  0.12247897001E+02  0.51100000000E-03 0.  1.
         12    1    3    3    0    0  0.85429673890E+01 -0.97098380230E+01  0.18302325712E+02  0.22410675418E+02  0.00000000000E+00 0. -1.
</event>
<event>
 7    1  0.1381607E-011  0.5052889E+02  0.7816164E-02  0.1300439E+00
        -11   -1    0    0    0    0  0.00000000000E+00  0.00000000000E+00  0.45593999997E+02  0.45594000000E+02  0.51100000000E-03 0. -1.
         11   -1    0    0    0    0 -0.00000000000E+00 -0.00000000000E+00 -0.45593999997E+02  0.45594000000E+02  0.51100000000E-03 0.  1.
    9900012    2    1    2    0    0  0.20565173894E+02 -0.11455226966E+02 -0.33151391565E+02  0.50528888292E+02  0.30000086453E+02 0.  0.
         12    1    1    2    0    0 -0.20565173894E+02  0.11455226966E+02  0.33151391565E+02  0.40659111708E+02  0.00000000000E+00 0. -1.
         11    1    3    3    0    0 -0.20030402720E+01  0.20510123603E+00 -0.54234351863E+00  0.20852754259E+01  0.51100000000E-03 0. -1.
        -11    1    3    3    0    0 -0.10314185244E+01 -0.37845819366E+01  0.30461337139E+01  0.49664691151E+01  0.51100000000E-03 0.  1.
        -12    1    3    3    0    0  0.23599632691E+02 -0.78757462657E+01 -0.35655181761E+02  0.43477143751E+02  0.00000000000E+00 0.  1.
</event>
<event>
 7    1  0.1381607E-011  0.5052886E+02  0.7816164E-02  0.1300439E+00
        -11   -1    0    0    0    0  0.00000000000E+00  0.00000000000E+00  0.45593999997E+02  0.45594000000E+02  0.51100000000E-03 0.  1.
         11   -1    0    0    0    0 -0.00000000000E+00 -0.00000000000E+00 -0.45593999997E+02  0.45594000000E+02  0.51100000000E-03 0. -1.
    9900012    2    1    2    0    0  0.28905342917E+02 -0.22657716016E+02  0.17443465167E+02  0.50528863004E+02  0.30000009587E+02 0.  0.
         12    1    1    2    0    0 -0.28905342917E+02  0.22657716016E+02 -0.17443465167E+02  0.40659136996E+02  0.00000000000E+00 0. -1.
         11    1    3    3    0    0  0.62351092194E+01 -0.20019087348E+02  0.40732567389E+01  0.21359584873E+02  0.51100000000E-03 0.  1.
        -11    1    3    3    0    0  0.65640473468E+00  0.14997564171E+00  0.56272624652E+01  0.56674017841E+01  0.51100000000E-03 0. -1.
        -12    1    3    3    0    0  0.22013828963E+02 -0.27886043096E+01  0.77429459628E+01  0.23501876346E+02  0.00000000000E+00 0.  1.
</event>
<event>
 7    1  0.1381607E-011  0.5052884E+02  0.7816164E-02  0.1300439E+00
        -11   -1    0    0    0    0  0.00000000000E+00  0.00000000000E+00  0.45593999997E+02  0.45594000000E+02  0.51100000000E-03 0.  1.
         11   -1    0    0    0    0 -0.00000000000E+00 -0.00000000000E+00 -0.45593999997E+02  0.45594000000E+02  0.51100000000E-03 0. -1.
    9900012    2    1    2    0    0 -0.21843059537E+00  0.40574825397E+02 -0.26082414442E+01  0.50528842466E+02  0.29999947159E+02 0.  0.
         12    1    1    2    0    0  0.21843059537E+00 -0.40574825397E+02  0.26082414442E+01  0.40659157534E+02  0.00000000000E+00 0. -1.
         11    1    3    3    0    0  0.45281068667E+01  0.15255215433E+02  0.35582085612E+01  0.16306017237E+02  0.51100000000E-03 0. -1.
        -11    1    3    3    0    0 -0.31184417227E+01  0.26464657346E+02 -0.11127219458E+02  0.28877634605E+02  0.51100000000E-03 0.  1.
         12    1    3    3    0    0 -0.16280957393E+01 -0.11450473819E+01  0.49607694529E+01  0.53451906241E+01  0.00000000000E+00 0. -1.
</event>
<event>
 7    1  0.1381607E-011  0.5052886E+02  0.7816164E-02  0.1300439E+00
        -11   -1    0    0    0    0  0.00000000000E+00  0.00000000000E+00  0.45593999997E+02  0.45594000000E+02  0.51100000000E-03 0. -1.
         11   -1    0    0    0    0 -0.00000000000E+00 -0.00000000000E+00 -0.45593999997E+02  0.45594000000E+02  0.51100000000E-03 0.  1.
    9900012    2    1    2    0    0  0.16014288104E+02 -0.37356674975E+02  0.10895225430E+01  0.50528860215E+02  0.30000001109E+02 0.  0.
         12    1    1    2    0    0 -0.16014288104E+02  0.37356674975E+02 -0.10895225430E+01  0.40659139785E+02  0.00000000000E+00 0. -1.
         11    1    3    3    0    0  0.25839069377E+01 -0.16970904558E+02  0.69731317400E+00  0.17180640922E+02  0.51100000000E-03 0. -1.
        -11    1    3    3    0    0  0.53771672818E+01 -0.10641317459E+02  0.11466635141E+02  0.16541925129E+02  0.51100000000E-03 0.  1.
        -12    1    3    3    0    0  0.80532138848E+01 -0.97444529583E+01 -0.11074425772E+02  0.16806294164E+02  0.00000000000E+00 0.  1.
</event>
<event>
 7    1  0.1381607E-011  0.5052887E+02  0.7816164E-02  0.1300439E+00
        -11   -1    0    0    0    0  0.00000000000E+00  0.00000000000E+00  0.45593999997E+02  0.45594000000E+02  0.51100000000E-03 0.  1.
         11   -1    0    0    0    0 -0.00000000000E+00 -0.00000000000E+00 -0.45593999997E+02  0.45594000000E+02  0.51100000000E-03 0. -1.
    9900012    2    1    2    0    0  0.23381299847E+01 -0.39852197683E+02  0.77136505564E+01  0.50528869206E+02  0.30000028439E+02 0.  0.
         12    1    1    2    0    0 -0.23381299847E+01  0.39852197683E+02 -0.77136505564E+01  0.40659130794E+02  0.00000000000E+00 0. -1.
         11    1    3    3    0    0  0.16323238714E+01  0.82826282338E+00 -0.13419395044E+01  0.22696480829E+01  0.51100000000E-03 0. -1.
        -11    1    3    3    0    0 -0.71032122732E+01 -0.98569375959E+01  0.11017768698E+02  0.16401404535E+02  0.51100000000E-03 0.  1.
        -12    1    3    3    0    0  0.78090183865E+01 -0.30823522911E+02 -0.19621786369E+01  0.31857816589E+02  0.00000000000E+00 0.  1.
</event>
<event>
 7    1  0.1381607E-011  0.5052879E+02  0.7816164E-02  0.1300439E+00
        -11   -1    0    0    0    0  0.00000000000E+00  0.00000000000E+00  0.45593999997E+02  0.45594000000E+02  0.51100000000E-03 0.  1.
         11   -1    0    0    0    0 -0.00000000000E+00 -0.00000000000E+00 -0.45593999997E+02  0.45594000000E+02  0.51100000000E-03 0. -1.
    9900012    2    1    2    0    0  0.17817641589E+02  0.55079077835E+01  0.36129843083E+02  0.50528794878E+02  0.29999802511E+02 0.  0.
         12    1    1    2    0    0 -0.17817641589E+02 -0.55079077835E+01 -0.36129843083E+02  0.40659205122E+02  0.00000000000E+00 0. -1.
         11    1    3    3    0    0 -0.22573068446E+00 -0.17453639773E+01  0.50132693239E+01  0.53132023611E+01  0.51100000000E-03 0. -1.
        -11    1    3    3    0    0  0.11096240004E+02  0.40196397452E+01 -0.13298778780E+01  0.11876557639E+02  0.51100000000E-03 0.  1.
        -12    1    3    3    0    0  0.69471322694E+01  0.32336320156E+01  0.32446451637E+02  0.33339034878E+02  0.00000000000E+00 0.  1.
</event>
<event>
 7    1  0.1381607E-011  0.5052887E+02  0.7816164E-02  0.1300439E+00
        -11   -1    0    0    0    0  0.00000000000E+00  0.00000000000E+00  0.45593999997E+02  0.45594000000E+02  0.51100000000E-03 0. -1.
         11   -1    0    0    0    0 -0.00000000000E+00 -0.00000000000E+00 -0.45593999997E+02  0.45594000000E+02  0.51100000000E-03 0.  1.
    9900012    2    1    2    0    0  0.36164675834E+02 -0.58155637439E+01 -0.17648237674E+02  0.50528869994E+02  0.30000030833E+02 0.  0.
         12    1    1    2    0    0 -0.36164675834E+02  0.58155637439E+01  0.17648237674E+02  0.40659130006E+02  0.00000000000E+00 0. -1.
         11    1    3    3    0    0  0.15032925661E+02 -0.17038194438E+00 -0.11572823265E+02  0.18972298820E+02  0.51100000000E-03 0. -1.
        -11    1    3    3    0    0 -0.36167465645E+00  0.36355373201E+01 -0.72469082794E+01  0.81157636754E+01  0.51100000000E-03 0.  1.
         12    1    3    3    0    0  0.21493424830E+02 -0.92807191196E+01  0.11714938703E+01  0.23440807498E+02  0.00000000000E+00 0. -1.
</event>
<event>
 7    1  0.1381607E-011  0.5052885E+02  0.7816164E-02  0.1300439E+00
        -11   -1    0    0    0    0  0.00000000000E+00  0.00000000000E+00  0.45593999997E+02  0.45594000000E+02  0.51100000000E-03 0. -1.
         11   -1    0    0    0    0 -0.00000000000E+00 -0.00000000000E+00 -0.45593999997E+02  0.45594000000E+02  0.51100000000E-03 0.  1.
    9900012    2    1    2    0    0 -0.28783454443E+02 -0.21531524705E+02 -0.19001906627E+02  0.50528852674E+02  0.29999978188E+02 0.  0.
         12    1    1    2    0    0  0.28783454443E+02  0.21531524705E+02  0.19001906627E+02  0.40659147326E+02  0.00000000000E+00 0. -1.
         11    1    3    3    0    0 -0.27103894990E+01 -0.26655691302E+01 -0.10939186037E+02  0.11580900718E+02  0.51100000000E-03 0. -1.
        -11    1    3    3    0    0 -0.28651890801E+02 -0.12548420253E+02 -0.67457386096E+01  0.31998416945E+02  0.51100000000E-03 0.  1.
         12    1    3    3    0    0  0.25788258570E+01 -0.63175353215E+01 -0.13169819805E+01  0.69495350115E+01  0.00000000000E+00 0. -1.
</event>
<event>
 7    1  0.1381607E-011  0.5052885E+02  0.7816164E-02  0.1300439E+00
        -11   -1    0    0    0    0  0.00000000000E+00  0.00000000000E+00  0.45593999997E+02  0.45594000000E+02  0.51100000000E-03 0.  1.
         11   -1    0    0    0    0 -0.00000000000E+00 -0.00000000000E+00 -0.45593999997E+02  0.45594000000E+02  0.51100000000E-03 0. -1.
    9900012    2    1    2    0    0 -0.45121281074E+01 -0.82652026145E+01  0.39553676552E+02  0.50528853389E+02  0.29999980362E+02 0.  0.
         12    1    1    2    0    0  0.45121281074E+01  0.82652026145E+01 -0.39553676552E+02  0.40659146611E+02  0.00000000000E+00 0. -1.
         11    1    3    3    0    0 -0.60673711244E+00  0.42282843836E+01  0.18061505704E+00  0.42754111864E+01  0.51100000000E-03 0. -1.
        -11    1    3    3    0    0 -0.42472966704E+01 -0.11562181764E+02  0.76182534450E+01  0.14483140611E+02  0.51100000000E-03 0.  1.
        -12    1    3    3    0    0  0.34190567545E+00 -0.93130523408E+00  0.31754808050E+02  0.31770301592E+02  0.00000000000E+00 0.  1.
</event>
<event>
 7    1  0.1381607E-011  0.5052886E+02  0.7816164E-02  0.1300439E+00
        -11   -1    0    0    0    0  0.00000000000E+00  0.00000000000E+00  0.45593999997E+02  0.45594000000E+02  0.51100000000E-03 0.  1.
         11   -1    0    0    0    0 -0.00000000000E+00 -0.00000000000E+00 -0.45593999997E+02  0.45594000000E+02  0.51100000000E-03 0. -1.
    9900012    2    1    2    0    0  0.23740363145E+02 -0.21960527257E+02  0.24643372415E+02  0.50528863221E+02  0.30000010245E+02 0.  0.
         12    1    1    2    0    0 -0.23740363145E+02  0.21960527257E+02 -0.24643372415E+02  0.40659136779E+02  0.00000000000E+00 0. -1.
         11    1    3    3    0    0 -0.23941836385E+01 -0.17085184960E+01 -0.39530372760E-01  0.29415495335E+01  0.51100000000E-03 0. -1.
        -11    1    3    3    0    0  0.33970558305E+01 -0.13303775928E+02  0.18468044140E+02  0.23013020160E+02  0.51100000000E-03 0.  1.
         12    1    3    3    0    0  0.22737490953E+02 -0.69482328327E+01  0.62148586476E+01  0.24574293527E+02  0.00000000000E+00 0. -1.
</event>
<event>
 7    1  0.1381607E-011  0.5052886E+02  0.7816164E-02  0.1300439E+00
        -11   -1    0    0    0    0  0.00000000000E+00  0.00000000000E+00  0.45593999997E+02  0.45594000000E+02  0.51100000000E-03 0.  1.
         11   -1    0    0    0    0 -0.00000000000E+00 -0.00000000000E+00 -0.45593999997E+02  0.45594000000E+02  0.51100000000E-03 0. -1.
    9900012    2    1    2    0    0  0.16823324641E+01  0.11675719115E+02  0.38910320539E+02  0.50528859529E+02  0.29999999026E+02 0.  0.
         12    1    1    2    0    0 -0.16823324641E+01 -0.11675719115E+02 -0.38910320539E+02  0.40659140471E+02  0.00000000000E+00 0. -1.
         11    1    3    3    0    0 -0.97183367898E-01  0.71018326949E+01  0.12891314310E+02  0.14718405387E+02  0.51100000000E-03 0. -1.
        -11    1    3    3    0    0  0.80507424126E+01 -0.21216962820E+00  0.26703894051E+02  0.27891888196E+02  0.51100000000E-03 0.  1.
         12    1    3    3    0    0 -0.62712265807E+01  0.47860560480E+01 -0.68488782302E+00  0.79185659466E+01  0.00000000000E+00 0. -1.
</event>
<event>
 7    1  0.1381607E-011  0.5052885E+02  0.7816164E-02  0.1300439E+00
        -11   -1    0    0    0    0  0.00000000000E+00  0.00000000000E+00  0.45593999997E+02  0.45594000000E+02  0.51100000000E-03 0.  1.
         11   -1    0    0    0    0 -0.00000000000E+00 -0.00000000000E+00 -0.45593999997E+02  0.45594000000E+02  0.51100000000E-03 0. -1.
    9900012    2    1    2    0    0 -0.35000711862E+02  0.14297981350E+02  0.14956076689E+02  0.50528851811E+02  0.29999975564E+02 0.  0.
         12    1    1    2    0    0  0.35000711862E+02 -0.14297981350E+02 -0.14956076689E+02  0.40659148189E+02  0.00000000000E+00 0. -1.
         11    1    3    3    0    0 -0.16961803630E+01 -0.51535777226E+01  0.22311662685E+01  0.58663868220E+01  0.51100000000E-03 0. -1.
        -11    1    3    3    0    0 -0.12030349061E+02  0.35982663234E+01  0.13075660449E+02  0.18128698671E+02  0.51100000000E-03 0.  1.
         12    1    3    3    0    0 -0.21274182438E+02  0.15853292750E+02 -0.35075002866E+00  0.26533766318E+02  0.00000000000E+00 0. -1.
</event>
<event>
 7    1  0.1381607E-011  0.5052886E+02  0.7816164E-02  0.1300439E+00
        -11   -1    0    0    0    0  0.00000000000E+00  0.00000000000E+00  0.45593999997E+02  0.45594000000E+02  0.51100000000E-03 0. -1.
         11   -1    0    0    0    0 -0.00000000000E+00 -0.00000000000E+00 -0.45593999997E+02  0.45594000000E+02  0.51100000000E-03 0.  1.
    9900012    2    1    2    0    0  0.38633358563E+02 -0.80091876962E+01  0.98225345605E+01  0.50528859987E+02  0.30000000415E+02 0.  0.
         12    1    1    2    0    0 -0.38633358563E+02  0.80091876962E+01 -0.98225345605E+01  0.40659140013E+02  0.00000000000E+00 0. -1.
         11    1    3    3    0    0  0.29366069383E+02 -0.95795667686E-01  0.11876063161E+02  0.31676743587E+02  0.51100000000E-03 0. -1.
        -11    1    3    3    0    0  0.11979293459E+02 -0.72346278913E+01  0.17803458558E+01  0.14107194765E+02  0.51100000000E-03 0.  1.
         12    1    3    3    0    0 -0.27120042795E+01 -0.67876413729E+00 -0.38338744565E+01  0.47449216341E+01  0.00000000000E+00 0. -1.
</event>
<event>
 7    1  0.1381607E-011  0.5052887E+02  0.7816164E-02  0.1300439E+00
        -11   -1    0    0    0    0  0.00000000000E+00  0.00000000000E+00  0.45593999997E+02  0.45594000000E+02  0.51100000000E-03 0.  1.
         11   -1    0    0    0    0 -0.00000000000E+00 -0.00000000000E+00 -0.45593999997E+02  0.45594000000E+02  0.51100000000E-03 0. -1.
    9900012    2    1    2    0    0 -0.28109421886E+02  0.11951215797E+02  0.26836431571E+02  0.50528865512E+02  0.30000017212E+02 0.  0.
         12    1    1    2    0    0  0.28109421886E+02 -0.11951215797E+02 -0.26836431571E+02  0.40659134488E+02  0.00000000000E+00 0. -1.
         11    1    3    3    0    0 -0.17810379589E+01 -0.30225717367E+01  0.12119000054E+02  0.12616584272E+02  0.51100000000E-03 0. -1.
        -11    1    3    3    0    0  0.20013394111E+01 -0.11763953298E+01  0.78194911788E+00  0.24496346859E+01  0.51100000000E-03 0.  1.
        -12    1    3    3    0    0 -0.28329723338E+02  0.16150182863E+02  0.13935482399E+02  0.35462646554E+02  0.00000000000E+00 0.  1.
</event>
<event>
 7    1  0.1381607E-011  0.5052886E+02  0.7816164E-02  0.1300439E+00
        -11   -1    0    0    0    0  0.00000000000E+00  0.00000000000E+00  0.45593999997E+02  0.45594000000E+02  0.51100000000E-03 0.  1.
         11   -1    0    0    0    0 -0.00000000000E+00 -0.00000000000E+00 -0.45593999997E+02  0.45594000000E+02  0.51100000000E-03 0. -1.
    9900012    2    1    2    0    0  0.27503451207E+02  0.53185700464E+01  0.29469276375E+02  0.50528864917E+02  0.30000015403E+02 0.  0.
         12    1    1    2    0    0 -0.27503451207E+02 -0.53185700464E+01 -0.29469276375E+02  0.40659135083E+02  0.00000000000E+00 0. -1.
         11    1    3    3    0    0  0.61111356455E+01  0.46030282637E+01  0.25963216823E+01  0.80792780997E+01  0.51100000000E-03 0. -1.
        -11    1    3    3    0    0  0.98095433168E+00 -0.53043484245E+01 -0.26868875330E+01  0.60264208686E+01  0.51100000000E-03 0.  1.
        -12    1    3    3    0    0  0.20411361230E+02  0.60198902073E+01  0.29559842225E+02  0.36423165949E+02  0.00000000000E+00 0.  1.
</event>
<event>
 7    1  0.1381607E-011  0.5052887E+02  0.7816164E-02  0.1300439E+00
        -11   -1    0    0    0    0  0.00000000000E+00  0.00000000000E+00  0.45593999997E+02  0.45594000000E+02  0.51100000000E-03 0. -1.
         11   -1    0    0    0    0 -0.00000000000E+00 -0.00000000000E+00 -0.45593999997E+02  0.45594000000E+02  0.51100000000E-03 0.  1.
    9900012    2    1    2    0    0 -0.38194260552E+02 -0.98905369858E+01 -0.98255074901E+01  0.50528869925E+02  0.30000030625E+02 0.  0.
         12    1    1    2    0    0  0.38194260552E+02  0.98905369858E+01  0.98255074901E+01  0.40659130075E+02  0.00000000000E+00 0. -1.
         11    1    3    3    0    0 -0.14703692654E+02 -0.10990680116E+02 -0.21343432263E-01  0.18357398587E+02  0.51100000000E-03 0.  1.
        -11    1    3    3    0    0 -0.14257653557E+02  0.64816316306E+01  0.25155067103E+01  0.15862534722E+02  0.51100000000E-03 0. -1.
        -12    1    3    3    0    0 -0.92329143411E+01 -0.53814885001E+01 -0.12319670768E+02  0.16308936616E+02  0.00000000000E+00 0.  1.
</event>
<event>
 7    1  0.1381607E-011  0.5052885E+02  0.7816164E-02  0.1300439E+00
        -11   -1    0    0    0    0  0.00000000000E+00  0.00000000000E+00  0.45593999997E+02  0.45594000000E+02  0.51100000000E-03 0. -1.
         11   -1    0    0    0    0 -0.00000000000E+00 -0.00000000000E+00 -0.45593999997E+02  0.45594000000E+02  0.51100000000E-03 0.  1.
    9900012    2    1    2    0    0  0.25907776439E+02  0.10660244279E+02 -0.29467147932E+02  0.50528849795E+02  0.29999969437E+02 0.  0.
         12    1    1    2    0    0 -0.25907776439E+02 -0.10660244279E+02  0.29467147932E+02  0.40659150205E+02  0.00000000000E+00 0. -1.
         11    1    3    3    0    0  0.14718187793E+02  0.13445485077E+02 -0.25308987744E+01  0.20095063317E+02  0.51100000000E-03 0.  1.
        -11    1    3    3    0    0  0.80634875201E+00  0.24196264981E+01 -0.48772986144E+01  0.55038925076E+01  0.51100000000E-03 0. -1.
        -12    1    3    3    0    0  0.10383239894E+02 -0.52048672959E+01 -0.22058950544E+02  0.24929893970E+02  0.00000000000E+00 0.  1.
</event>
<event>
 7    1  0.1381607E-011  0.5052883E+02  0.7816164E-02  0.1300439E+00
        -11   -1    0    0    0    0  0.00000000000E+00  0.00000000000E+00  0.45593999997E+02  0.45594000000E+02  0.51100000000E-03 0. -1.
         11   -1    0    0    0    0 -0.00000000000E+00 -0.00000000000E+00 -0.45593999997E+02  0.45594000000E+02  0.51100000000E-03 0.  1.
    9900012    2    1    2    0    0  0.15545650717E+02  0.24042013965E+02  0.28870090699E+02  0.50528833399E+02  0.29999919600E+02 0.  0.
         12    1    1    2    0    0 -0.15545650717E+02 -0.24042013965E+02 -0.28870090699E+02  0.40659166601E+02  0.00000000000E+00 0. -1.
         11    1    3    3    0    0  0.80091402286E+00  0.30633732417E+01  0.15094741966E+02  0.15423260167E+02  0.51100000000E-03 0. -1.
        -11    1    3    3    0    0 -0.33353081852E+01  0.13709026749E+01 -0.19946855969E+01  0.41209738808E+01  0.51100000000E-03 0.  1.
        -12    1    3    3    0    0  0.18080044879E+02  0.19607738049E+02  0.15770034330E+02  0.30984599352E+02  0.00000000000E+00 0.  1.
</event>
<event>
 7    1  0.1381607E-011  0.5052886E+02  0.7816164E-02  0.1300439E+00
        -11   -1    0    0    0    0  0.00000000000E+00  0.00000000000E+00  0.45593999997E+02  0.45594000000E+02  0.51100000000E-03 0. -1.
         11   -1    0    0    0    0 -0.00000000000E+00 -0.00000000000E+00 -0.45593999997E+02  0.45594000000E+02  0.51100000000E-03 0.  1.
    9900012    2    1    2    0    0 -0.13952405090E+02  0.27468458163E+02 -0.26532623829E+02  0.50528856761E+02  0.29999990611E+02 0.  0.
         12    1    1    2    0    0  0.13952405090E+02 -0.27468458163E+02  0.26532623829E+02  0.40659143239E+02  0.00000000000E+00 0. -1.
         11    1    3    3    0    0  0.17176116558E+01  0.17631844264E+01 -0.12606381077E+02  0.12844448344E+02  0.51100000000E-03 0. -1.
        -11    1    3    3    0    0 -0.88362134819E+01  0.98612730820E+01 -0.15467318550E+02  0.20360778936E+02  0.51100000000E-03 0.  1.
         12    1    3    3    0    0 -0.68338032637E+01  0.15844000654E+02  0.15410757984E+01  0.17323629481E+02  0.00000000000E+00 0. -1.
</event>
<event>
 7    1  0.1381607E-011  0.5052886E+02  0.7816164E-02  0.1300439E+00
        -11   -1    0    0    0    0  0.00000000000E+00  0.00000000000E+00  0.45593999997E+02  0.45594000000E+02  0.51100000000E-03 0.  1.
         11   -1    0    0    0    0 -0.00000000000E+00 -0.00000000000E+00 -0.45593999997E+02  0.45594000000E+02  0.51100000000E-03 0. -1.
    9900012    2    1    2    0    0 -0.37118175649E+02 -0.25648938000E+01  0.16395985887E+02  0.50528855925E+02  0.29999988070E+02 0.  0.
         12    1    1    2    0    0  0.37118175649E+02  0.25648938000E+01 -0.16395985887E+02  0.40659144075E+02  0.00000000000E+00 0. -1.
         11    1    3    3    0    0 -0.10010047335E+02  0.35696781291E+01  0.22287958076E+01  0.10858691478E+02  0.51100000000E-03 0. -1.
        -11    1    3    3    0    0 -0.17514888758E+02 -0.75658613277E+01 -0.36113099283E+01  0.19417907856E+02  0.51100000000E-03 0.  1.
        -12    1    3    3    0    0 -0.95932395559E+01  0.14312893986E+01  0.17778500008E+02  0.20252256592E+02  0.00000000000E+00 0.  1.
</event>
<event>
 7    1  0.1381607E-011  0.5052885E+02  0.7816164E-02  0.1300439E+00
        -11   -1    0    0    0    0  0.00000000000E+00  0.00000000000E+00  0.45593999997E+02  0.45594000000E+02  0.51100000000E-03 0.  1.
         11   -1    0    0    0    0 -0.00000000000E+00 -0.00000000000E+00 -0.45593999997E+02  0.45594000000E+02  0.51100000000E-03 0. -1.
    9900012    2    1    2    0    0  0.36439424681E+02  0.15184280449E+02  0.97350932016E+01  0.50528854861E+02  0.29999984836E+02 0.  0.
         12    1    1    2    0    0 -0.36439424681E+02 -0.15184280449E+02 -0.97350932016E+01  0.40659145139E+02  0.00000000000E+00 0. -1.
         11    1    3    3    0    0  0.18789832757E+02 -0.17298853997E+01 -0.12770611443E+01  0.18912461605E+02  0.51100000000E-03 0. -1.
        -11    1    3    3    0    0 -0.13978138285E+01  0.28198154899E+01 -0.27803477949E+01  0.41994734215E+01  0.51100000000E-03 0.  1.
        -12    1    3    3    0    0  0.19047405752E+02  0.14094350358E+02  0.13792502141E+02  0.27416919835E+02  0.00000000000E+00 0.  1.
</event>
<event>
 7    1  0.1381607E-011  0.5052887E+02  0.7816164E-02  0.1300439E+00
        -11   -1    0    0    0    0  0.00000000000E+00  0.00000000000E+00  0.45593999997E+02  0.45594000000E+02  0.51100000000E-03 0.  1.
         11   -1    0    0    0    0 -0.00000000000E+00 -0.00000000000E+00 -0.45593999997E+02  0.45594000000E+02  0.51100000000E-03 0. -1.
    9900012    2    1    2    0    0  0.15673636726E+02  0.15611428720E+02  0.34114292314E+02  0.50528873903E+02  0.30000042714E+02 0.  0.
         12    1    1    2    0    0 -0.15673636726E+02 -0.15611428720E+02 -0.34114292314E+02  0.40659126097E+02  0.00000000000E+00 0. -1.
         11    1    3    3    0    0 -0.38938899723E+01  0.75113136286E+00 -0.40635404622E+00  0.39864396788E+01  0.51100000000E-03 0. -1.
        -11    1    3    3    0    0  0.90722652013E+01 -0.32373172537E+01  0.15603377531E+02  0.18337164708E+02  0.51100000000E-03 0.  1.
        -12    1    3    3    0    0  0.10495261497E+02  0.18097614611E+02  0.18917268830E+02  0.28205269516E+02  0.00000000000E+00 0.  1.
</event>
<event>
 7    1  0.1381607E-011  0.5052886E+02  0.7816164E-02  0.1300439E+00
        -11   -1    0    0    0    0  0.00000000000E+00  0.00000000000E+00  0.45593999997E+02  0.45594000000E+02  0.51100000000E-03 0.  1.
         11   -1    0    0    0    0 -0.00000000000E+00 -0.00000000000E+00 -0.45593999997E+02  0.45594000000E+02  0.51100000000E-03 0. -1.
    9900012    2    1    2    0    0 -0.22909518851E+02 -0.18221056188E+02  0.28219017379E+02  0.50528857308E+02  0.29999992272E+02 0.  0.
         12    1    1    2    0    0  0.22909518851E+02  0.18221056188E+02 -0.28219017379E+02  0.40659142692E+02  0.00000000000E+00 0. -1.
         11    1    3    3    0    0 -0.92722031996E+01 -0.26831721933E+01  0.12616106816E+01  0.97347227473E+01  0.51100000000E-03 0. -1.
        -11    1    3    3    0    0  0.16261519926E+01 -0.97299339325E+01  0.72232113213E+00  0.98912958056E+01  0.51100000000E-03 0.  1.
         12    1    3    3    0    0 -0.15263467644E+02 -0.58079500625E+01  0.26235085566E+02  0.30902838755E+02  0.00000000000E+00 0. -1.
</event>
<event>
 7    1  0.1381607E-011  0.5052886E+02  0.7816164E-02  0.1300439E+00
        -11   -1    0    0    0    0  0.00000000000E+00  0.00000000000E+00  0.45593999997E+02  0.45594000000E+02  0.51100000000E-03 0.  1.
         11   -1    0    0    0    0 -0.00000000000E+00 -0.00000000000E+00 -0.45593999997E+02  0.45594000000E+02  0.51100000000E-03 0. -1.
    9900012    2    1    2    0    0  0.62960019122E+00 -0.19443963817E+02  0.35702966136E+02  0.50528856918E+02  0.29999991087E+02 0.  0.
         12    1    1    2    0    0 -0.62960019122E+00  0.19443963817E+02 -0.35702966136E+02  0.40659143082E+02  0.00000000000E+00 0. -1.
         11    1    3    3    0    0 -0.46044374599E+01 -0.93385330617E+01  0.21858843876E+02  0.24211941267E+02  0.51100000000E-03 0. -1.
        -11    1    3    3    0    0  0.86269597675E+01 -0.54314906030E+01  0.16934715635E+02  0.19766388615E+02  0.51100000000E-03 0.  1.
         12    1    3    3    0    0 -0.33929221164E+01 -0.46739401519E+01 -0.30905933751E+01  0.65505270354E+01  0.00000000000E+00 0. -1.
</event>
<event>
 7    1  0.1381607E-011  0.5052885E+02  0.7816164E-02  0.1300439E+00
        -11   -1    0    0    0    0  0.00000000000E+00  0.00000000000E+00  0.45593999997E+02  0.45594000000E+02  0.51100000000E-03 0. -1.
         11   -1    0    0    0    0 -0.00000000000E+00 -0.00000000000E+00 -0.45593999997E+02  0.45594000000E+02  0.51100000000E-03 0.  1.
    9900012    2    1    2    0    0 -0.12726411405E+02  0.34322450079E+02 -0.17696733047E+02  0.50528849896E+02  0.29999969742E+02 0.  0.
         12    1    1    2    0    0  0.12726411405E+02 -0.34322450079E+02  0.17696733047E+02  0.40659150104E+02  0.00000000000E+00 0. -1.
         11    1    3    3    0    0 -0.72848855882E+01  0.56265131720E+01 -0.71152793558E+01  0.11634191381E+02  0.51100000000E-03 0.  1.
        -11    1    3    3    0    0 -0.11846923849E+02  0.28350203005E+02 -0.68735100888E+01  0.31485373688E+02  0.51100000000E-03 0. -1.
         12    1    3    3    0    0  0.64053980323E+01  0.34573390243E+00 -0.37079436023E+01  0.74092848266E+01  0.00000000000E+00 0. -1.
</event>
<event>
 7    1  0.1381607E-011  0.5052888E+02  0.7816164E-02  0.1300439E+00
        -11   -1    0    0    0    0  0.00000000000E+00  0.00000000000E+00  0.45593999997E+02  0.45594000000E+02  0.51100000000E-03 0. -1.
         11   -1    0    0    0    0 -0.00000000000E+00 -0.00000000000E+00 -0.45593999997E+02  0.45594000000E+02  0.51100000000E-03 0.  1.
    9900012    2    1    2    0    0  0.17976082846E+02 -0.22131363670E+02 -0.28986669931E+02  0.50528882375E+02  0.30000068466E+02 0.  0.
         12    1    1    2    0    0 -0.17976082846E+02  0.22131363670E+02  0.28986669931E+02  0.40659117625E+02  0.00000000000E+00 0. -1.
         11    1    3    3    0    0  0.14868731680E+02 -0.18406958895E+02 -0.85964261707E+01  0.25175262873E+02  0.51100000000E-03 0. -1.
        -11    1    3    3    0    0  0.14085689424E+01 -0.90435437980E+01 -0.99871409280E+01  0.13546687236E+02  0.51100000000E-03 0.  1.
         12    1    3    3    0    0  0.16987822232E+01  0.53191390235E+01 -0.10403102833E+02  0.11806932266E+02  0.00000000000E+00 0. -1.
</event>
<event>
 7    1  0.1381607E-011  0.5052886E+02  0.7816164E-02  0.1300439E+00
        -11   -1    0    0    0    0  0.00000000000E+00  0.00000000000E+00  0.45593999997E+02  0.45594000000E+02  0.51100000000E-03 0. -1.
         11   -1    0    0    0    0 -0.00000000000E+00 -0.00000000000E+00 -0.45593999997E+02  0.45594000000E+02  0.51100000000E-03 0.  1.
    9900012    2    1    2    0    0 -0.19632189936E+02 -0.23465615101E+02 -0.26778861066E+02  0.50528863588E+02  0.30000011363E+02 0.  0.
         12    1    1    2    0    0  0.19632189936E+02  0.23465615101E+02  0.26778861066E+02  0.40659136412E+02  0.00000000000E+00 0. -1.
         11    1    3    3    0    0 -0.15734048834E+02 -0.81884819835E+01 -0.12971799776E+02  0.21974510679E+02  0.51100000000E-03 0.  1.
        -11    1    3    3    0    0  0.28832781185E+01 -0.13179102896E+02 -0.53287503435E+00  0.13501333338E+02  0.51100000000E-03 0. -1.
         12    1    3    3    0    0 -0.67814192208E+01 -0.20980302216E+01 -0.13274186256E+02  0.15053019571E+02  0.00000000000E+00 0. -1.
</event>
<event>
 7    1  0.1381607E-011  0.5052884E+02  0.7816164E-02  0.1300439E+00
        -11   -1    0    0    0    0  0.00000000000E+00  0.00000000000E+00  0.45593999997E+02  0.45594000000E+02  0.51100000000E-03 0.  1.
         11   -1    0    0    0    0 -0.00000000000E+00 -0.00000000000E+00 -0.45593999997E+02  0.45594000000E+02  0.51100000000E-03 0. -1.
    9900012    2    1    2    0    0  0.11276466906E+02 -0.25494670959E+02  0.29597809384E+02  0.50528840226E+02  0.29999940351E+02 0.  0.
         12    1    1    2    0    0 -0.11276466906E+02  0.25494670959E+02 -0.29597809384E+02  0.40659159774E+02  0.00000000000E+00 0. -1.
         11    1    3    3    0    0  0.30649562940E+01 -0.77169958749E+00  0.18354856852E+01  0.36549261688E+01  0.51100000000E-03 0.  1.
        -11    1    3    3    0    0  0.12307734352E+02 -0.18730302749E-01  0.59766808621E+01  0.13682155901E+02  0.51100000000E-03 0. -1.
        -12    1    3    3    0    0 -0.40962237398E+01 -0.24704241069E+02  0.21785642836E+02  0.33191758156E+02  0.00000000000E+00 0.  1.
</event>
<event>
 7    1  0.1381607E-011  0.5052886E+02  0.7816164E-02  0.1300439E+00
        -11   -1    0    0    0    0  0.00000000000E+00  0.00000000000E+00  0.45593999997E+02  0.45594000000E+02  0.51100000000E-03 0. -1.
         11   -1    0    0    0    0 -0.00000000000E+00 -0.00000000000E+00 -0.45593999997E+02  0.45594000000E+02  0.51100000000E-03 0.  1.
    9900012    2    1    2    0    0 -0.24831008266E+02  0.32122431026E+02 -0.21762251809E+01  0.50528862004E+02  0.30000006548E+02 0.  0.
         12    1    1    2    0    0  0.24831008266E+02 -0.32122431026E+02  0.21762251809E+01  0.40659137996E+02  0.00000000000E+00 0. -1.
         11    1    3    3    0    0 -0.13935284195E+02  0.11418314155E+02 -0.43906286277E+01  0.18543129826E+02  0.51100000000E-03 0. -1.
        -11    1    3    3    0    0 -0.60884806319E+01  0.24833621402E+02  0.19347470461E+01  0.25642183892E+02  0.51100000000E-03 0.  1.
         12    1    3    3    0    0 -0.48072434394E+01 -0.41295045313E+01  0.27965640078E+00  0.63435482865E+01  0.00000000000E+00 0. -1.
</event>
<event>
 7    1  0.1381607E-011  0.5052887E+02  0.7816164E-02  0.1300439E+00
        -11   -1    0    0    0    0  0.00000000000E+00  0.00000000000E+00  0.45593999997E+02  0.45594000000E+02  0.51100000000E-03 0.  1.
         11   -1    0    0    0    0 -0.00000000000E+00 -0.00000000000E+00 -0.45593999997E+02  0.45594000000E+02  0.51100000000E-03 0. -1.
    9900012    2    1    2    0    0  0.34801872927E+02  0.25597729597E+01  0.20867241375E+02  0.50528873602E+02  0.30000041800E+02 0.  0.
         12    1    1    2    0    0 -0.34801872927E+02 -0.25597729597E+01 -0.20867241375E+02  0.40659126398E+02  0.00000000000E+00 0. -1.
         11    1    3    3    0    0  0.20091992704E+02  0.30715944911E+01  0.18315633183E+02  0.27360286597E+02  0.51100000000E-03 0. -1.
        -11    1    3    3    0    0  0.11378129069E+02  0.78802195929E+01  0.28649854389E+01  0.14133924571E+02  0.51100000000E-03 0.  1.
         12    1    3    3    0    0  0.33317511538E+01 -0.83920411243E+01 -0.31337724666E+00  0.90346624332E+01  0.00000000000E+00 0. -1.
</event>
<event>
 7    1  0.1381607E-011  0.5052887E+02  0.7816164E-02  0.1300439E+00
        -11   -1    0    0    0    0  0.00000000000E+00  0.00000000000E+00  0.45593999997E+02  0.45594000000E+02  0.51100000000E-03 0.  1.
         11   -1    0    0    0    0 -0.00000000000E+00 -0.00000000000E+00 -0.45593999997E+02  0.45594000000E+02  0.51100000000E-03 0. -1.
    9900012    2    1    2    0    0 -0.34563137304E+02 -0.81672906382E+01  0.19795200026E+02  0.50528867684E+02  0.30000023812E+02 0.  0.
         12    1    1    2    0    0  0.34563137304E+02  0.81672906382E+01 -0.19795200026E+02  0.40659132316E+02  0.00000000000E+00 0. -1.
         11    1    3    3    0    0 -0.18697158037E+02  0.21791240171E+01 -0.21207675042E+01  0.18942807480E+02  0.51100000000E-03 0. -1.
        -11    1    3    3    0    0 -0.70424756384E+01  0.14590569653E+01  0.11405642509E+02  0.13483841873E+02  0.51100000000E-03 0.  1.
        -12    1    3    3    0    0 -0.88235036279E+01 -0.11805471621E+02  0.10510325021E+02  0.18102218331E+02  0.00000000000E+00 0.  1.
</event>
<event>
 7    1  0.1381607E-011  0.5052886E+02  0.7816164E-02  0.1300439E+00
        -11   -1    0    0    0    0  0.00000000000E+00  0.00000000000E+00  0.45593999997E+02  0.45594000000E+02  0.51100000000E-03 0.  1.
         11   -1    0    0    0    0 -0.00000000000E+00 -0.00000000000E+00 -0.45593999997E+02  0.45594000000E+02  0.51100000000E-03 0. -1.
    9900012    2    1    2    0    0 -0.27173996314E+02  0.19960021449E+02  0.22723048443E+02  0.50528862497E+02  0.30000008047E+02 0.  0.
         12    1    1    2    0    0  0.27173996314E+02 -0.19960021449E+02 -0.22723048443E+02  0.40659137503E+02  0.00000000000E+00 0. -1.
         11    1    3    3    0    0 -0.30927150721E+01 -0.28084654426E+01 -0.29623940934E+01  0.51213419808E+01  0.51100000000E-03 0. -1.
        -11    1    3    3    0    0 -0.24687533596E+02  0.13792153268E+02  0.21272838895E+02  0.35386882905E+02  0.51100000000E-03 0.  1.
         12    1    3    3    0    0  0.60625235431E+00  0.89763336240E+01  0.44126036410E+01  0.10020637611E+02  0.00000000000E+00 0. -1.
</event>
<event>
 7    1  0.1381607E-011  0.5052885E+02  0.7816164E-02  0.1300439E+00
        -11   -1    0    0    0    0  0.00000000000E+00  0.00000000000E+00  0.45593999997E+02  0.45594000000E+02  0.51100000000E-03 0. -1.
         11   -1    0    0    0    0 -0.00000000000E+00 -0.00000000000E+00 -0.45593999997E+02  0.45594000000E+02  0.51100000000E-03 0.  1.
    9900012    2    1    2    0    0 -0.27485606830E+02  0.22743060910E+02 -0.19505417247E+02  0.50528847225E+02  0.29999961625E+02 0.  0.
         12    1    1    2    0    0  0.27485606830E+02 -0.22743060910E+02  0.19505417247E+02  0.40659152775E+02  0.00000000000E+00 0. -1.
         11    1    3    3    0    0 -0.27419201373E+00 -0.36539211079E+01 -0.50080285176E+01  0.62053743334E+01  0.51100000000E-03 0. -1.
        -11    1    3    3    0    0 -0.83357875280E+01  0.83502754350E+01 -0.13858785451E+02  0.18201054585E+02  0.51100000000E-03 0.  1.
        -12    1    3    3    0    0 -0.18875627289E+02  0.18046706583E+02 -0.63860327798E+00  0.26122418307E+02  0.00000000000E+00 0.  1.
</event>
<event>
 7    1  0.1381607E-011  0.5052885E+02  0.7816164E-02  0.1300439E+00
        -11   -1    0    0    0    0  0.00000000000E+00  0.00000000000E+00  0.45593999997E+02  0.45594000000E+02  0.51100000000E-03 0. -1.
         11   -1    0    0    0    0 -0.00000000000E+00 -0.00000000000E+00 -0.45593999997E+02  0.45594000000E+02  0.51100000000E-03 0.  1.
    9900012    2    1    2    0    0  0.20474859869E+02  0.39454757319E+01 -0.34905299129E+02  0.50528848844E+02  0.29999966548E+02 0.  0.
         12    1    1    2    0    0 -0.20474859869E+02 -0.39454757319E+01  0.34905299129E+02  0.40659151156E+02  0.00000000000E+00 0. -1.
         11    1    3    3    0    0  0.46335891247E+01 -0.92223751823E+01 -0.32736077090E+01  0.10827689498E+02  0.51100000000E-03 0. -1.
        -11    1    3    3    0    0 -0.18354094765E+01  0.20586829312E+01 -0.18145944584E+01  0.33014628072E+01  0.51100000000E-03 0.  1.
        -12    1    3    3    0    0  0.17676680220E+02  0.11109167983E+02 -0.29817096962E+02  0.36399696539E+02  0.00000000000E+00 0.  1.
</event>
<event>
 7    1  0.1381607E-011  0.5052885E+02  0.7816164E-02  0.1300439E+00
        -11   -1    0    0    0    0  0.00000000000E+00  0.00000000000E+00  0.45593999997E+02  0.45594000000E+02  0.51100000000E-03 0.  1.
         11   -1    0    0    0    0 -0.00000000000E+00 -0.00000000000E+00 -0.45593999997E+02  0.45594000000E+02  0.51100000000E-03 0. -1.
    9900012    2    1    2    0    0  0.25962784156E+02  0.17700337743E+02 -0.25803062066E+02  0.50528854296E+02  0.29999983119E+02 0.  0.
         12    1    1    2    0    0 -0.25962784156E+02 -0.17700337743E+02  0.25803062066E+02  0.40659145704E+02  0.00000000000E+00 0. -1.
         11    1    3    3    0    0  0.39479193086E+01  0.82302769402E+01  0.43204674533E+01  0.10099008103E+02  0.51100000000E-03 0. -1.
        -11    1    3    3    0    0  0.77616035833E+00  0.48541184316E+01 -0.81868333150E+01  0.95493000078E+01  0.51100000000E-03 0.  1.
        -12    1    3    3    0    0  0.21238704489E+02  0.46159423708E+01 -0.21936696205E+02  0.30880546186E+02  0.00000000000E+00 0.  1.
</event>
<event>
 7    1  0.1381607E-011  0.5052887E+02  0.7816164E-02  0.1300439E+00
        -11   -1    0    0    0    0  0.00000000000E+00  0.00000000000E+00  0.45593999997E+02  0.45594000000E+02  0.51100000000E-03 0. -1.
         11   -1    0    0    0    0 -0.00000000000E+00 -0.00000000000E+00 -0.45593999997E+02  0.45594000000E+02  0.51100000000E-03 0.  1.
    9900012    2    1    2    0    0 -0.23646309339E+02  0.31006216764E+02 -0.11516588292E+02  0.50528865365E+02  0.30000016764E+02 0.  0.
         12    1    1    2    0    0  0.23646309339E+02 -0.31006216764E+02  0.11516588292E+02  0.40659134635E+02  0.00000000000E+00 0. -1.
         11    1    3    3    0    0  0.27679433288E+01 -0.35275369189E+01  0.91890510486E-01  0.44848044676E+01  0.51100000000E-03 0. -1.
        -11    1    3    3    0    0 -0.34947937401E+01  0.48005290144E+01 -0.53338744746E+01  0.79817842164E+01  0.51100000000E-03 0.  1.
        -12    1    3    3    0    0 -0.22919458927E+02  0.29733224668E+02 -0.62746043283E+01  0.38062276681E+02  0.00000000000E+00 0.  1.
</event>
<event>
 7    1  0.1381607E-011  0.5052886E+02  0.7816164E-02  0.1300439E+00
        -11   -1    0    0    0    0  0.00000000000E+00  0.00000000000E+00  0.45593999997E+02  0.45594000000E+02  0.51100000000E-03 0.  1.
         11   -1    0    0    0    0 -0.00000000000E+00 -0.00000000000E+00 -0.45593999997E+02  0.45594000000E+02  0.51100000000E-03 0. -1.
    9900012    2    1    2    0    0  0.64035915123E+01  0.33387152254E+02  0.22303757188E+02  0.50528861979E+02  0.30000006472E+02 0.  0.
         12    1    1    2    0    0 -0.64035915123E+01 -0.33387152254E+02 -0.22303757188E+02  0.40659138021E+02  0.00000000000E+00 0. -1.
         11    1    3    3    0    0 -0.14463433102E+01  0.13987044831E+02 -0.19163718349E+01  0.14191610668E+02  0.51100000000E-03 0. -1.
        -11    1    3    3    0    0  0.81290644632E+00  0.19783158099E+02  0.19894246815E+02  0.28068046206E+02  0.51100000000E-03 0.  1.
         12    1    3    3    0    0  0.70370283762E+01 -0.38305067572E+00  0.43258822077E+01  0.82692051046E+01  0.00000000000E+00 0. -1.
</event>
<event>
 7    1  0.1381607E-011  0.5052875E+02  0.7816164E-02  0.1300439E+00
        -11   -1    0    0    0    0  0.00000000000E+00  0.00000000000E+00  0.45593999997E+02  0.45594000000E+02  0.51100000000E-03 0.  1.
         11   -1    0    0    0    0 -0.00000000000E+00 -0.00000000000E+00 -0.45593999997E+02  0.45594000000E+02  0.51100000000E-03 0. -1.
    9900012    2    1    2    0    0 -0.36466251814E+02  0.17308442470E+02 -0.48790474139E+01  0.50528747600E+02  0.29999658803E+02 0.  0.
         12    1    1    2    0    0  0.36466251814E+02 -0.17308442470E+02  0.48790474139E+01  0.40659252400E+02  0.00000000000E+00 0. -1.
         11    1    3    3    0    0 -0.43733096965E+01  0.10747016690E+01  0.26456187644E+01  0.52230374579E+01  0.51100000000E-03 0.  1.
        -11    1    3    3    0    0 -0.13200633524E+02 -0.36330516302E+01  0.57446806285E+01  0.14847799344E+02  0.51100000000E-03 0. -1.
         12    1    3    3    0    0 -0.18892308593E+02  0.19866792431E+02 -0.13269346807E+02  0.30457910798E+02  0.00000000000E+00 0. -1.
</event>
<event>
 7    1  0.1381607E-011  0.5052886E+02  0.7816164E-02  0.1300439E+00
        -11   -1    0    0    0    0  0.00000000000E+00  0.00000000000E+00  0.45593999997E+02  0.45594000000E+02  0.51100000000E-03 0.  1.
         11   -1    0    0    0    0 -0.00000000000E+00 -0.00000000000E+00 -0.45593999997E+02  0.45594000000E+02  0.51100000000E-03 0. -1.
    9900012    2    1    2    0    0  0.34778133186E+01 -0.22583829338E+02  0.33630956789E+02  0.50528858499E+02  0.29999995895E+02 0.  0.
         12    1    1    2    0    0 -0.34778133186E+01  0.22583829338E+02 -0.33630956789E+02  0.40659141501E+02  0.00000000000E+00 0. -1.
         11    1    3    3    0    0  0.35492407050E+01 -0.11797792822E+01  0.15178487563E+02  0.15632513352E+02  0.51100000000E-03 0. -1.
        -11    1    3    3    0    0  0.91676076441E+01 -0.42752123649E+01  0.54431844893E+01  0.11486980819E+02  0.51100000000E-03 0.  1.
        -12    1    3    3    0    0 -0.92390350305E+01 -0.17128837691E+02  0.13009284737E+02  0.23409364329E+02  0.00000000000E+00 0.  1.
</event>
<event>
 7    1  0.1607090E-011  0.5052886E+02  0.7816164E-02  0.1300439E+00
        -11   -1    0    0    0    0  0.00000000000E+00  0.00000000000E+00  0.45593999997E+02  0.45594000000E+02  0.51100000000E-03 0. -1.
         11   -1    0    0    0    0 -0.00000000000E+00 -0.00000000000E+00 -0.45593999997E+02  0.45594000000E+02  0.51100000000E-03 0.  1.
    9900012    2    1    2    0    0  0.12104746315E+02 -0.15619696776E+02 -0.35534007427E+02  0.50528862103E+02  0.30000006847E+02 0.  0.
         12    1    1    2    0    0 -0.12104746315E+02  0.15619696776E+02  0.35534007427E+02  0.40659137897E+02  0.00000000000E+00 0. -1.
         11    1    3    3    0    0  0.92596432337E+01 -0.14902748197E+02 -0.15225556084E+02  0.23230377848E+02  0.51100000000E-03 0. -1.
        -11    1    3    3    0    0  0.38683607119E+01 -0.66153665037E+01 -0.19869250368E+02  0.21295877513E+02  0.51100000000E-03 0.  1.
         12    1    3    3    0    0 -0.10232576307E+01  0.58984179251E+01 -0.43920097451E+00  0.60026067416E+01  0.00000000000E+00 0. -1.
</event>
<event>
 7    1  0.1381607E-011  0.5052886E+02  0.7816164E-02  0.1300439E+00
        -11   -1    0    0    0    0  0.00000000000E+00  0.00000000000E+00  0.45593999997E+02  0.45594000000E+02  0.51100000000E-03 0. -1.
         11   -1    0    0    0    0 -0.00000000000E+00 -0.00000000000E+00 -0.45593999997E+02  0.45594000000E+02  0.51100000000E-03 0.  1.
    9900012    2    1    2    0    0 -0.15348567959E+01 -0.30137453727E+02 -0.27249655766E+02  0.50528860291E+02  0.30000001341E+02 0.  0.
         12    1    1    2    0    0  0.15348567959E+01  0.30137453727E+02  0.27249655766E+02  0.40659139709E+02  0.00000000000E+00 0. -1.
         11    1    3    3    0    0  0.47827084020E+01 -0.52797770795E+01 -0.22975584316E+02  0.24054683963E+02  0.51100000000E-03 0. -1.
        -11    1    3    3    0    0 -0.19673002735E+01 -0.49426949826E+01 -0.28617982207E+01  0.60407278844E+01  0.51100000000E-03 0.  1.
         12    1    3    3    0    0 -0.43502649244E+01 -0.19914981665E+02 -0.14122732291E+01  0.20433448443E+02  0.00000000000E+00 0. -1.
</event>
<event>
 7    1  0.1381607E-011  0.5052883E+02  0.7816164E-02  0.1300439E+00
        -11   -1    0    0    0    0  0.00000000000E+00  0.00000000000E+00  0.45593999997E+02  0.45594000000E+02  0.51100000000E-03 0.  1.
         11   -1    0    0    0    0 -0.00000000000E+00 -0.00000000000E+00 -0.45593999997E+02  0.45594000000E+02  0.51100000000E-03 0. -1.
    9900012    2    1    2    0    0  0.19783611812E+02  0.31911621287E+02  0.15602080661E+02  0.50528833870E+02  0.29999921030E+02 0.  0.
         12    1    1    2    0    0 -0.19783611812E+02 -0.31911621287E+02 -0.15602080661E+02  0.40659166130E+02  0.00000000000E+00 0. -1.
         11    1    3    3    0    0 -0.50081775191E+01  0.67238373449E+01  0.40319776628E+00  0.83937118966E+01  0.51100000000E-03 0. -1.
        -11    1    3    3    0    0  0.90693959879E+01  0.11268322729E+02  0.15410213901E+02  0.21135366887E+02  0.51100000000E-03 0.  1.
         12    1    3    3    0    0  0.15722393343E+02  0.13919461212E+02 -0.21133100654E+00  0.20999755086E+02  0.00000000000E+00 0. -1.
</event>
<event>
 7    1  0.1381607E-011  0.5052884E+02  0.7816164E-02  0.1300439E+00
        -11   -1    0    0    0    0  0.00000000000E+00  0.00000000000E+00  0.45593999997E+02  0.45594000000E+02  0.51100000000E-03 0. -1.
         11   -1    0    0    0    0 -0.00000000000E+00 -0.00000000000E+00 -0.45593999997E+02  0.45594000000E+02  0.51100000000E-03 0.  1.
    9900012    2    1    2    0    0 -0.26551422878E+02 -0.15800462360E+02 -0.26429809280E+02  0.50528837611E+02  0.29999932402E+02 0.  0.
         12    1    1    2    0    0  0.26551422878E+02  0.15800462360E+02  0.26429809280E+02  0.40659162389E+02  0.00000000000E+00 0. -1.
         11    1    3    3    0    0 -0.18860429434E+02 -0.54987098691E+01 -0.73836120631E+01  0.20987361340E+02  0.51100000000E-03 0. -1.
        -11    1    3    3    0    0 -0.27495588435E+01  0.52905437843E+01 -0.71859631263E+01  0.93374511341E+01  0.51100000000E-03 0.  1.
        -12    1    3    3    0    0 -0.49414346005E+01 -0.15592296275E+02 -0.11860234091E+02  0.20204025137E+02  0.00000000000E+00 0.  1.
</event>
<event>
 7    1  0.1381607E-011  0.5052885E+02  0.7816164E-02  0.1300439E+00
        -11   -1    0    0    0    0  0.00000000000E+00  0.00000000000E+00  0.45593999997E+02  0.45594000000E+02  0.51100000000E-03 0.  1.
         11   -1    0    0    0    0 -0.00000000000E+00 -0.00000000000E+00 -0.45593999997E+02  0.45594000000E+02  0.51100000000E-03 0. -1.
    9900012    2    1    2    0    0 -0.15402282890E+02 -0.24732625496E+01  0.37547554201E+02  0.50528853768E+02  0.29999981513E+02 0.  0.
         12    1    1    2    0    0  0.15402282890E+02  0.24732625496E+01 -0.37547554201E+02  0.40659146232E+02  0.00000000000E+00 0. -1.
         11    1    3    3    0    0  0.44489450481E+00  0.64026768541E+01  0.98233521527E+01  0.11734157396E+02  0.51100000000E-03 0. -1.
        -11    1    3    3    0    0 -0.13655442080E+02  0.38151816925E+01  0.16003720548E+02  0.21380967737E+02  0.51100000000E-03 0.  1.
        -12    1    3    3    0    0 -0.21917353149E+01 -0.12691121096E+02  0.11720481500E+02  0.17413728635E+02  0.00000000000E+00 0.  1.
</event>
<event>
 7    1  0.1381607E-011  0.5052885E+02  0.7816164E-02  0.1300439E+00
        -11   -1    0    0    0    0  0.00000000000E+00  0.00000000000E+00  0.45593999997E+02  0.45594000000E+02  0.51100000000E-03 0.  1.
         11   -1    0    0    0    0 -0.00000000000E+00 -0.00000000000E+00 -0.45593999997E+02  0.45594000000E+02  0.51100000000E-03 0. -1.
    9900012    2    1    2    0    0 -0.35164480678E+02  0.14236684596E+02 -0.14626790198E+02  0.50528845051E+02  0.29999955018E+02 0.  0.
         12    1    1    2    0    0  0.35164480678E+02 -0.14236684596E+02  0.14626790198E+02  0.40659154949E+02  0.00000000000E+00 0. -1.
         11    1    3    3    0    0 -0.10211246095E+02  0.14625430029E+02 -0.11404313927E+02  0.21171469641E+02  0.51100000000E-03 0. -1.
        -11    1    3    3    0    0 -0.79643618832E+00 -0.24203361358E+01  0.33794840331E+01  0.42324047779E+01  0.51100000000E-03 0.  1.
        -12    1    3    3    0    0 -0.24156798394E+02  0.20315907035E+01 -0.66019603045E+01  0.25124970633E+02  0.00000000000E+00 0.  1.
</event>
<event>
 7    1  0.1381607E-011  0.5052889E+02  0.7816164E-02  0.1300439E+00
        -11   -1    0    0    0    0  0.00000000000E+00  0.00000000000E+00  0.45593999997E+02  0.45594000000E+02  0.51100000000E-03 0.  1.
         11   -1    0    0    0    0 -0.00000000000E+00 -0.00000000000E+00 -0.45593999997E+02  0.45594000000E+02  0.51100000000E-03 0. -1.
    9900012    2    1    2    0    0 -0.29221487012E+02 -0.14807144726E+02 -0.24083529779E+02  0.50528889769E+02  0.30000090942E+02 0.  0.
         12    1    1    2    0    0  0.29221487012E+02  0.14807144726E+02  0.24083529779E+02  0.40659110231E+02  0.00000000000E+00 0. -1.
         11    1    3    3    0    0 -0.12238015671E+02 -0.10399928013E+02 -0.25955497682E+01  0.16268509738E+02  0.51100000000E-03 0. -1.
        -11    1    3    3    0    0 -0.14176769323E+02 -0.75503831419E+01 -0.43905383152E+01  0.16651303282E+02  0.51100000000E-03 0.  1.
        -12    1    3    3    0    0 -0.28067020185E+01  0.31431664291E+01 -0.17097441696E+02  0.17609076750E+02  0.00000000000E+00 0.  1.
</event>
<event>
 7    1  0.1381607E-011  0.5052886E+02  0.7816164E-02  0.1300439E+00
        -11   -1    0    0    0    0  0.00000000000E+00  0.00000000000E+00  0.45593999997E+02  0.45594000000E+02  0.51100000000E-03 0.  1.
         11   -1    0    0    0    0 -0.00000000000E+00 -0.00000000000E+00 -0.45593999997E+02  0.45594000000E+02  0.51100000000E-03 0. -1.
    9900012    2    1    2    0    0  0.27453097125E+02 -0.94847232804E+01  0.28452297542E+02  0.50528858926E+02  0.29999997190E+02 0.  0.
         12    1    1    2    0    0 -0.27453097125E+02  0.94847232804E+01 -0.28452297542E+02  0.40659141074E+02  0.00000000000E+00 0. -1.
         11    1    3    3    0    0  0.66501506725E+01 -0.70833412053E+01 -0.34705257088E+00  0.97220714020E+01  0.51100000000E-03 0. -1.
        -11    1    3    3    0    0 -0.20854604175E+01  0.28645502498E+01 -0.12794002353E+00  0.35455834777E+01  0.51100000000E-03 0.  1.
        -12    1    3    3    0    0  0.22888406870E+02 -0.52659323249E+01  0.28927290137E+02  0.37261204046E+02  0.00000000000E+00 0.  1.
</event>
<event>
 7    1  0.1381607E-011  0.5052886E+02  0.7816164E-02  0.1300439E+00
        -11   -1    0    0    0    0  0.00000000000E+00  0.00000000000E+00  0.45593999997E+02  0.45594000000E+02  0.51100000000E-03 0. -1.
         11   -1    0    0    0    0 -0.00000000000E+00 -0.00000000000E+00 -0.45593999997E+02  0.45594000000E+02  0.51100000000E-03 0.  1.
    9900012    2    1    2    0    0  0.40322716359E+02  0.48322463054E+01  0.19732646817E+01  0.50528857948E+02  0.29999994217E+02 0.  0.
         12    1    1    2    0    0 -0.40322716359E+02 -0.48322463054E+01 -0.19732646817E+01  0.40659142052E+02  0.00000000000E+00 0. -1.
         11    1    3    3    0    0  0.18162270572E+02  0.10174294472E+02  0.44209739127E+01  0.21282136898E+02  0.51100000000E-03 0. -1.
        -11    1    3    3    0    0 -0.59989852879E+00 -0.34034747913E+01  0.42163817689E+01  0.54517331539E+01  0.51100000000E-03 0.  1.
        -12    1    3    3    0    0  0.22760344316E+02 -0.19385733755E+01 -0.66640909999E+01  0.23794987896E+02  0.00000000000E+00 0.  1.
</event>
<event>
 7    1  0.1381607E-011  0.5052886E+02  0.7816164E-02  0.1300439E+00
        -11   -1    0    0    0    0  0.00000000000E+00  0.00000000000E+00  0.45593999997E+02  0.45594000000E+02  0.51100000000E-03 0.  1.
         11   -1    0    0    0    0 -0.00000000000E+00 -0.00000000000E+00 -0.45593999997E+02  0.45594000000E+02  0.51100000000E-03 0. -1.
    9900012    2    1    2    0    0 -0.38398480805E+02 -0.60119092043E+01 -0.11940644996E+02  0.50528863471E+02  0.30000011006E+02 0.  0.
         12    1    1    2    0    0  0.38398480805E+02  0.60119092043E+01  0.11940644996E+02  0.40659136529E+02  0.00000000000E+00 0. -1.
         11    1    3    3    0    0  0.96495815395E+00 -0.80382043309E+00 -0.64663294282E+00  0.14125883871E+01  0.51100000000E-03 0. -1.
        -11    1    3    3    0    0 -0.29892240374E+02 -0.28177620016E+01 -0.19963386549E+02  0.36055826437E+02  0.51100000000E-03 0.  1.
         12    1    3    3    0    0 -0.94711985847E+01 -0.23903267696E+01  0.86693744966E+01  0.13060448647E+02  0.00000000000E+00 0. -1.
</event>
<event>
 7    1  0.1381607E-011  0.5052886E+02  0.7816164E-02  0.1300439E+00
        -11   -1    0    0    0    0  0.00000000000E+00  0.00000000000E+00  0.45593999997E+02  0.45594000000E+02  0.51100000000E-03 0.  1.
         11   -1    0    0    0    0 -0.00000000000E+00 -0.00000000000E+00 -0.45593999997E+02  0.45594000000E+02  0.51100000000E-03 0. -1.
    9900012    2    1    2    0    0 -0.28464460702E+02  0.26821224313E+02  0.11115835479E+02  0.50528863326E+02  0.30000010566E+02 0.  0.
         12    1    1    2    0    0  0.28464460702E+02 -0.26821224313E+02 -0.11115835479E+02  0.40659136674E+02  0.00000000000E+00 0. -1.
         11    1    3    3    0    0 -0.24712207375E+01  0.64072521508E+01  0.66950902846E+01  0.95908313632E+01  0.51100000000E-03 0. -1.
        -11    1    3    3    0    0 -0.15009514544E+02  0.21410959963E+02  0.10693548172E+02  0.28250074445E+02  0.51100000000E-03 0.  1.
         12    1    3    3    0    0 -0.10983725420E+02 -0.99698780100E+00 -0.62728029781E+01  0.12687957518E+02  0.00000000000E+00 0. -1.
</event>
<event>
 7    1  0.1381607E-011  0.5052885E+02  0.7816164E-02  0.1300439E+00
        -11   -1    0    0    0    0  0.00000000000E+00  0.00000000000E+00  0.45593999997E+02  0.45594000000E+02  0.51100000000E-03 0. -1.
         11   -1    0    0    0    0 -0.00000000000E+00 -0.00000000000E+00 -0.45593999997E+02  0.45594000000E+02  0.51100000000E-03 0.  1.
    9900012    2    1    2    0    0 -0.16212104401E+02  0.13850605943E+02 -0.34619282393E+02  0.50528851860E+02  0.29999975712E+02 0.  0.
         12    1    1    2    0    0  0.16212104401E+02 -0.13850605943E+02  0.34619282393E+02  0.40659148140E+02  0.00000000000E+00 0. -1.
         11    1    3    3    0    0 -0.44988184606E+00  0.63546657511E+00 -0.11811894234E+01  0.14147155751E+01  0.51100000000E-03 0. -1.
        -11    1    3    3    0    0 -0.33693967150E+00  0.19157303182E+02 -0.20997743061E+02  0.28425710325E+02  0.51100000000E-03 0.  1.
         12    1    3    3    0    0 -0.15425282883E+02 -0.59421638148E+01 -0.12440349909E+02  0.20688425960E+02  0.00000000000E+00 0. -1.
</event>
<event>
 7    1  0.1381607E-011  0.5052885E+02  0.7816164E-02  0.1300439E+00
        -11   -1    0    0    0    0  0.00000000000E+00  0.00000000000E+00  0.45593999997E+02  0.45594000000E+02  0.51100000000E-03 0. -1.
         11   -1    0    0    0    0 -0.00000000000E+00 -0.00000000000E+00 -0.45593999997E+02  0.45594000000E+02  0.51100000000E-03 0.  1.
    9900012    2    1    2    0    0  0.16640831527E+02  0.35214250998E+02  0.11670729048E+02  0.50528847724E+02  0.29999963142E+02 0.  0.
         12    1    1    2    0    0 -0.16640831527E+02 -0.35214250998E+02 -0.11670729048E+02  0.40659152276E+02  0.00000000000E+00 0. -1.
         11    1    3    3    0    0  0.36318733426E-01  0.19094980104E+01 -0.57251996071E-01  0.19107013776E+01  0.51100000000E-03 0. -1.
        -11    1    3    3    0    0  0.13112802197E+02  0.12216466388E+02 -0.79114896341E+01  0.19590285882E+02  0.51100000000E-03 0.  1.
         12    1    3    3    0    0  0.34917105969E+01  0.21088286600E+02  0.19639470678E+02  0.29027860464E+02  0.00000000000E+00 0. -1.
</event>
<event>
 7    1  0.1381607E-011  0.5052885E+02  0.7816164E-02  0.1300439E+00
        -11   -1    0    0    0    0  0.00000000000E+00  0.00000000000E+00  0.45593999997E+02  0.45594000000E+02  0.51100000000E-03 0.  1.
         11   -1    0    0    0    0 -0.00000000000E+00 -0.00000000000E+00 -0.45593999997E+02  0.45594000000E+02  0.51100000000E-03 0. -1.
    9900012    2    1    2    0    0 -0.13376119500E+00 -0.11192453001E+02  0.39088073375E+02  0.50528851258E+02  0.29999973884E+02 0.  0.
         12    1    1    2    0    0  0.13376119500E+00  0.11192453001E+02 -0.39088073375E+02  0.40659148742E+02  0.00000000000E+00 0. -1.
         11    1    3    3    0    0  0.88677772091E+00 -0.71673404002E+01  0.84023062316E+00  0.72707036042E+01  0.51100000000E-03 0. -1.
        -11    1    3    3    0    0  0.80449845162E+01 -0.24374536225E+00  0.75816219298E+01  0.11057222934E+02  0.51100000000E-03 0.  1.
        -12    1    3    3    0    0 -0.90655234322E+01 -0.37813672381E+01  0.30666220822E+02  0.32200924720E+02  0.00000000000E+00 0.  1.
</event>
<event>
 7    1  0.1381607E-011  0.5052884E+02  0.7816164E-02  0.1300439E+00
        -11   -1    0    0    0    0  0.00000000000E+00  0.00000000000E+00  0.45593999997E+02  0.45594000000E+02  0.51100000000E-03 0. -1.
         11   -1    0    0    0    0 -0.00000000000E+00 -0.00000000000E+00 -0.45593999997E+02  0.45594000000E+02  0.51100000000E-03 0.  1.
    9900012    2    1    2    0    0  0.17686237805E+02  0.13634538472E+02 -0.33977393718E+02  0.50528844439E+02  0.29999953156E+02 0.  0.
         12    1    1    2    0    0 -0.17686237805E+02 -0.13634538472E+02  0.33977393718E+02  0.40659155561E+02  0.00000000000E+00 0. -1.
         11    1    3    3    0    0  0.47890555440E+01  0.13828801419E+02 -0.18646134044E+02  0.23703356656E+02  0.51100000000E-03 0.  1.
        -11    1    3    3    0    0 -0.11644511841E+00  0.44339829077E+01  0.18283897219E+01  0.47975799240E+01  0.51100000000E-03 0. -1.
         12    1    3    3    0    0  0.13013627380E+02 -0.46282458544E+01 -0.17159649396E+02  0.22027907859E+02  0.00000000000E+00 0. -1.
</event>
<event>
 7    1  0.1381607E-011  0.5052886E+02  0.7816164E-02  0.1300439E+00
        -11   -1    0    0    0    0  0.00000000000E+00  0.00000000000E+00  0.45593999997E+02  0.45594000000E+02  0.51100000000E-03 0.  1.
         11   -1    0    0    0    0 -0.00000000000E+00 -0.00000000000E+00 -0.45593999997E+02  0.45594000000E+02  0.51100000000E-03 0. -1.
    9900012    2    1    2    0    0  0.45618153602E+01  0.39811929262E+02  0.68822590611E+01  0.50528863748E+02  0.30000011850E+02 0.  0.
         12    1    1    2    0    0 -0.45618153602E+01 -0.39811929262E+02 -0.68822590611E+01  0.40659136252E+02  0.00000000000E+00 0. -1.
         11    1    3    3    0    0  0.24299560723E+01  0.16969822972E+02 -0.88736876961E+01  0.19303417101E+02  0.51100000000E-03 0. -1.
        -11    1    3    3    0    0 -0.53283127240E+01  0.11882066887E+02  0.43297093796E+01  0.13723003081E+02  0.51100000000E-03 0.  1.
         12    1    3    3    0    0  0.74601720120E+01  0.10960039403E+02  0.11426237378E+02  0.17502443566E+02  0.00000000000E+00 0. -1.
</event>
<event>
 7    1  0.1381607E-011  0.5052887E+02  0.7816164E-02  0.1300439E+00
        -11   -1    0    0    0    0  0.00000000000E+00  0.00000000000E+00  0.45593999997E+02  0.45594000000E+02  0.51100000000E-03 0.  1.
         11   -1    0    0    0    0 -0.00000000000E+00 -0.00000000000E+00 -0.45593999997E+02  0.45594000000E+02  0.51100000000E-03 0. -1.
    9900012    2    1    2    0    0  0.21164894807E+02 -0.34682812749E+02  0.15213939592E+01  0.50528869267E+02  0.30000028624E+02 0.  0.
         12    1    1    2    0    0 -0.21164894807E+02  0.34682812749E+02 -0.15213939592E+01  0.40659130733E+02  0.00000000000E+00 0. -1.
         11    1    3    3    0    0 -0.56396890527E+01 -0.61582585681E+01  0.34875147644E+01  0.90494751614E+01  0.51100000000E-03 0. -1.
        -11    1    3    3    0    0  0.10865423822E+02 -0.15674222671E+02  0.52324642114E+01  0.19776687618E+02  0.51100000000E-03 0.  1.
        -12    1    3    3    0    0  0.15939160037E+02 -0.12850331511E+02 -0.71985850166E+01  0.21702706487E+02  0.00000000000E+00 0.  1.
</event>
<event>
 7    1  0.1381607E-011  0.5052886E+02  0.7816164E-02  0.1300439E+00
        -11   -1    0    0    0    0  0.00000000000E+00  0.00000000000E+00  0.45593999997E+02  0.45594000000E+02  0.51100000000E-03 0. -1.
         11   -1    0    0    0    0 -0.00000000000E+00 -0.00000000000E+00 -0.45593999997E+02  0.45594000000E+02  0.51100000000E-03 0.  1.
    9900012    2    1    2    0    0 -0.16970933680E+02 -0.35712641728E+02  0.94741908946E+01  0.50528860040E+02  0.30000000578E+02 0.  0.
         12    1    1    2    0    0  0.16970933680E+02  0.35712641728E+02 -0.94741908946E+01  0.40659139960E+02  0.00000000000E+00 0. -1.
         11    1    3    3    0    0 -0.62809464118E+00 -0.93538160889E+01  0.12339393003E+01  0.94557381923E+01  0.51100000000E-03 0. -1.
        -11    1    3    3    0    0  0.34126151112E+01 -0.36009955219E+01  0.97068053743E+01  0.10901155053E+02  0.51100000000E-03 0.  1.
        -12    1    3    3    0    0 -0.19755454150E+02 -0.22757830117E+02 -0.14665537800E+01  0.30171966795E+02  0.00000000000E+00 0.  1.
</event>
<event>
 7    1  0.1381607E-011  0.5052886E+02  0.7816164E-02  0.1300439E+00
        -11   -1    0    0    0    0  0.00000000000E+00  0.00000000000E+00  0.45593999997E+02  0.45594000000E+02  0.51100000000E-03 0.  1.
         11   -1    0    0    0    0 -0.00000000000E+00 -0.00000000000E+00 -0.45593999997E+02  0.45594000000E+02  0.51100000000E-03 0. -1.
    9900012    2    1    2    0    0 -0.54868387074E+01 -0.17205985258E+02  0.36428204063E+02  0.50528863524E+02  0.30000011168E+02 0.  0.
         12    1    1    2    0    0  0.54868387074E+01  0.17205985258E+02 -0.36428204063E+02  0.40659136476E+02  0.00000000000E+00 0. -1.
         11    1    3    3    0    0 -0.42068485160E+01 -0.24377629742E+01  0.18091919885E+02  0.18733868477E+02  0.51100000000E-03 0. -1.
        -11    1    3    3    0    0  0.25696820737E+01 -0.18827157696E+02  0.18026905187E+02  0.26192259233E+02  0.51100000000E-03 0.  1.
         12    1    3    3    0    0 -0.38496722651E+01  0.40589354127E+01  0.30937899195E+00  0.56027358134E+01  0.00000000000E+00 0. -1.
</event>
<event>
 7    1  0.1381607E-011  0.5052882E+02  0.7816164E-02  0.1300439E+00
        -11   -1    0    0    0    0  0.00000000000E+00  0.00000000000E+00  0.45593999997E+02  0.45594000000E+02  0.51100000000E-03 0.  1.
         11   -1    0    0    0    0 -0.00000000000E+00 -0.00000000000E+00 -0.45593999997E+02  0.45594000000E+02  0.51100000000E-03 0. -1.
    9900012    2    1    2    0    0  0.36171399005E+02  0.18511768963E+02  0.14535849890E+01  0.50528823847E+02  0.29999890564E+02 0.  0.
         12    1    1    2    0    0 -0.36171399005E+02 -0.18511768963E+02 -0.14535849890E+01  0.40659176153E+02  0.00000000000E+00 0. -1.
         11    1    3    3    0    0  0.12070941525E+02  0.13720226258E+02 -0.32907031633E+01  0.18568278473E+02  0.51100000000E-03 0. -1.
        -11    1    3    3    0    0  0.20862864858E+02  0.37897540170E+01 -0.48786402216E+01  0.21758274203E+02  0.51100000000E-03 0.  1.
         12    1    3    3    0    0  0.32375926213E+01  0.10017886882E+01  0.96229283739E+01  0.10202271171E+02  0.00000000000E+00 0. -1.
</event>
<event>
 7    1  0.1381607E-011  0.5052886E+02  0.7816164E-02  0.1300439E+00
        -11   -1    0    0    0    0  0.00000000000E+00  0.00000000000E+00  0.45593999997E+02  0.45594000000E+02  0.51100000000E-03 0.  1.
         11   -1    0    0    0    0 -0.00000000000E+00 -0.00000000000E+00 -0.45593999997E+02  0.45594000000E+02  0.51100000000E-03 0. -1.
    9900012    2    1    2    0    0  0.37541776075E+02 -0.62252291920E+01  0.14318764942E+02  0.50528862542E+02  0.30000008182E+02 0.  0.
         12    1    1    2    0    0 -0.37541776075E+02  0.62252291920E+01 -0.14318764942E+02  0.40659137458E+02  0.00000000000E+00 0. -1.
         11    1    3    3    0    0 -0.14593503901E+01 -0.30130801755E+01  0.55255811449E+01  0.64606813074E+01  0.51100000000E-03 0. -1.
        -11    1    3    3    0    0 -0.85662113489E+00 -0.37479302728E+00  0.36643489956E+01  0.37817619445E+01  0.51100000000E-03 0.  1.
        -12    1    3    3    0    0  0.39857747600E+02 -0.28373559892E+01  0.51288348014E+01  0.40286419290E+02  0.00000000000E+00 0.  1.
</event>
<event>
 7    1  0.1381607E-011  0.5052885E+02  0.7816164E-02  0.1300439E+00
        -11   -1    0    0    0    0  0.00000000000E+00  0.00000000000E+00  0.45593999997E+02  0.45594000000E+02  0.51100000000E-03 0. -1.
         11   -1    0    0    0    0 -0.00000000000E+00 -0.00000000000E+00 -0.45593999997E+02  0.45594000000E+02  0.51100000000E-03 0.  1.
    9900012    2    1    2    0    0  0.29874610007E+02 -0.13147532632E+02 -0.24244927887E+02  0.50528850161E+02  0.29999970550E+02 0.  0.
         12    1    1    2    0    0 -0.29874610007E+02  0.13147532632E+02  0.24244927887E+02  0.40659149839E+02  0.00000000000E+00 0. -1.
         11    1    3    3    0    0  0.91011933048E+01 -0.25443825770E+01 -0.40752687993E+01  0.10291424504E+02  0.51100000000E-03 0. -1.
        -11    1    3    3    0    0  0.22492345938E+02 -0.10131425954E+02 -0.24979839616E+02  0.35107603238E+02  0.51100000000E-03 0.  1.
         12    1    3    3    0    0 -0.17189292360E+01 -0.47172410019E+00  0.48101805275E+01  0.51298224192E+01  0.00000000000E+00 0. -1.
</event>
<event>
 7    1  0.1381607E-011  0.5052886E+02  0.7816164E-02  0.1300439E+00
        -11   -1    0    0    0    0  0.00000000000E+00  0.00000000000E+00  0.45593999997E+02  0.45594000000E+02  0.51100000000E-03 0.  1.
         11   -1    0    0    0    0 -0.00000000000E+00 -0.00000000000E+00 -0.45593999997E+02  0.45594000000E+02  0.51100000000E-03 0. -1.
    9900012    2    1    2    0    0 -0.38905350338E+02  0.11080117127E+02 -0.40951845026E+01  0.50528858143E+02  0.29999994811E+02 0.  0.
         12    1    1    2    0    0  0.38905350338E+02 -0.11080117127E+02  0.40951845026E+01  0.40659141857E+02  0.00000000000E+00 0. -1.
         11    1    3    3    0    0 -0.13228611044E+02 -0.79592536517E+01  0.16015699805E+01  0.15521304568E+02  0.51100000000E-03 0. -1.
        -11    1    3    3    0    0 -0.21987804691E+02  0.11013722375E+02 -0.17848075856E+00  0.24592630834E+02  0.51100000000E-03 0.  1.
        -12    1    3    3    0    0 -0.36889346031E+01  0.80256484031E+01 -0.55182737245E+01  0.10414922741E+02  0.00000000000E+00 0.  1.
</event>
<event>
 7    1  0.1381607E-011  0.5052883E+02  0.7816164E-02  0.1300439E+00
        -11   -1    0    0    0    0  0.00000000000E+00  0.00000000000E+00  0.45593999997E+02  0.45594000000E+02  0.51100000000E-03 0.  1.
         11   -1    0    0    0    0 -0.00000000000E+00 -0.00000000000E+00 -0.45593999997E+02  0.45594000000E+02  0.51100000000E-03 0. -1.
    9900012    2    1    2    0    0  0.23001621944E+02 -0.30579854585E+02  0.13746479059E+02  0.50528833690E+02  0.29999920483E+02 0.  0.
         12    1    1    2    0    0 -0.23001621944E+02  0.30579854585E+02 -0.13746479059E+02  0.40659166310E+02  0.00000000000E+00 0. -1.
         11    1    3    3    0    0  0.93384578349E+01 -0.14720520066E+02  0.17608029270E+01  0.17521442091E+02  0.51100000000E-03 0.  1.
        -11    1    3    3    0    0  0.54249360948E+01 -0.18196885689E+02  0.14711585763E+02  0.24020560700E+02  0.51100000000E-03 0. -1.
         12    1    3    3    0    0  0.82382280141E+01  0.23375511695E+01 -0.27259096310E+01  0.89868308985E+01  0.00000000000E+00 0. -1.
</event>
<event>
 7    1  0.1381607E-011  0.5052886E+02  0.7816164E-02  0.1300439E+00
        -11   -1    0    0    0    0  0.00000000000E+00  0.00000000000E+00  0.45593999997E+02  0.45594000000E+02  0.51100000000E-03 0.  1.
         11   -1    0    0    0    0 -0.00000000000E+00 -0.00000000000E+00 -0.45593999997E+02  0.45594000000E+02  0.51100000000E-03 0. -1.
    9900012    2    1    2    0    0  0.14535274694E+02  0.36204373019E+02  0.11451427557E+02  0.50528855527E+02  0.29999986861E+02 0.  0.
         12    1    1    2    0    0 -0.14535274694E+02 -0.36204373019E+02 -0.11451427557E+02  0.40659144473E+02  0.00000000000E+00 0. -1.
         11    1    3    3    0    0  0.19623588171E+02  0.15160060734E+02  0.42210316097E+01  0.25154120185E+02  0.51100000000E-03 0. -1.
        -11    1    3    3    0    0  0.60595046458E+00  0.14545899466E+02  0.75643527936E+00  0.14578153581E+02  0.51100000000E-03 0.  1.
        -12    1    3    3    0    0 -0.56942639412E+01  0.64984128196E+01  0.64739606681E+01  0.10796581762E+02  0.00000000000E+00 0.  1.
</event>
<event>
 7    1  0.1381607E-011  0.5052896E+02  0.7816164E-02  0.1300438E+00
        -11   -1    0    0    0    0  0.00000000000E+00  0.00000000000E+00  0.45593999997E+02  0.45594000000E+02  0.51100000000E-03 0.  1.
         11   -1    0    0    0    0 -0.00000000000E+00 -0.00000000000E+00 -0.45593999997E+02  0.45594000000E+02  0.51100000000E-03 0. -1.
    9900012    2    1    2    0    0  0.60911029265E+01 -0.11637182610E+02  0.38478978198E+02  0.50528962663E+02  0.30000312510E+02 0.  0.
         12    1    1    2    0    0 -0.60911029265E+01  0.11637182610E+02 -0.38478978198E+02  0.40659037337E+02  0.00000000000E+00 0. -1.
         11    1    3    3    0    0  0.46421013515E+01 -0.22669613928E+01  0.11167836321E+01  0.52853973224E+01  0.51100000000E-03 0. -1.
        -11    1    3    3    0    0  0.12008286214E+02 -0.10414550345E+01  0.16923281384E+02  0.20776934794E+02  0.51100000000E-03 0.  1.
        -12    1    3    3    0    0 -0.10559284639E+02 -0.83287661832E+01  0.20438913183E+02  0.24466630547E+02  0.00000000000E+00 0.  1.
</event>
<event>
 7    1  0.1381607E-011  0.5052886E+02  0.7816164E-02  0.1300439E+00
        -11   -1    0    0    0    0  0.00000000000E+00  0.00000000000E+00  0.45593999997E+02  0.45594000000E+02  0.51100000000E-03 0. -1.
         11   -1    0    0    0    0 -0.00000000000E+00 -0.00000000000E+00 -0.45593999997E+02  0.45594000000E+02  0.51100000000E-03 0.  1.
    9900012    2    1    2    0    0  0.11901538242E+02 -0.14885438782E+02 -0.35915775822E+02  0.50528857692E+02  0.29999993442E+02 0.  0.
         12    1    1    2    0    0 -0.11901538242E+02  0.14885438782E+02  0.35915775822E+02  0.40659142308E+02  0.00000000000E+00 0. -1.
         11    1    3    3    0    0  0.28840204225E+01 -0.37192276081E+00 -0.17997984746E+02  0.18231383806E+02  0.51100000000E-03 0. -1.
        -11    1    3    3    0    0 -0.15211615868E+01 -0.15544483155E+02 -0.14098566582E+02  0.21040781094E+02  0.51100000000E-03 0.  1.
         12    1    3    3    0    0  0.10538679407E+02  0.10309671336E+01 -0.38192244945E+01  0.11256692792E+02  0.00000000000E+00 0. -1.
</event>
<event>
 7    1  0.1381607E-011  0.5052887E+02  0.7816164E-02  0.1300439E+00
        -11   -1    0    0    0    0  0.00000000000E+00  0.00000000000E+00  0.45593999997E+02  0.45594000000E+02  0.51100000000E-03 0.  1.
         11   -1    0    0    0    0 -0.00000000000E+00 -0.00000000000E+00 -0.45593999997E+02  0.45594000000E+02  0.51100000000E-03 0. -1.
    9900012    2    1    2    0    0 -0.13817576150E+02  0.36871368684E+02 -0.10136165214E+02  0.50528867145E+02  0.30000022173E+02 0.  0.
         12    1    1    2    0    0  0.13817576150E+02 -0.36871368684E+02  0.10136165214E+02  0.40659132855E+02  0.00000000000E+00 0. -1.
         11    1    3    3    0    0 -0.35481075889E-01  0.14520963797E+02 -0.12498247756E+02  0.19158962544E+02  0.51100000000E-03 0. -1.
        -11    1    3    3    0    0 -0.12237041526E+02  0.18731363569E+02 -0.50870269478E+01  0.22945304746E+02  0.51100000000E-03 0.  1.
        -12    1    3    3    0    0 -0.15450535480E+01  0.36190413180E+01  0.74491094901E+01  0.84245998554E+01  0.00000000000E+00 0.  1.
</event>
<event>
 7    1  0.1381607E-011  0.5052893E+02  0.7816164E-02  0.1300439E+00
        -11   -1    0    0    0    0  0.00000000000E+00  0.00000000000E+00  0.45593999997E+02  0.45594000000E+02  0.51100000000E-03 0.  1.
         11   -1    0    0    0    0 -0.00000000000E+00 -0.00000000000E+00 -0.45593999997E+02  0.45594000000E+02  0.51100000000E-03 0. -1.
    9900012    2    1    2    0    0 -0.35702767554E+02  0.63167389276E+01  0.18400309694E+02  0.50528927230E+02  0.30000204809E+02 0.  0.
         12    1    1    2    0    0  0.35702767554E+02 -0.63167389276E+01 -0.18400309694E+02  0.40659072770E+02  0.00000000000E+00 0. -1.
         11    1    3    3    0    0 -0.81023501503E+01  0.31518387107E+01 -0.39101881464E+01  0.95326668261E+01  0.51100000000E-03 0. -1.
        -11    1    3    3    0    0 -0.21844664496E+02 -0.65651879351E+01  0.17311625904E+02  0.28635353172E+02  0.51100000000E-03 0.  1.
         12    1    3    3    0    0 -0.57557529073E+01  0.97300881521E+01  0.49988719361E+01  0.12360907233E+02  0.00000000000E+00 0. -1.
</event>
<event>
 7    1  0.1381607E-011  0.5052886E+02  0.7816164E-02  0.1300439E+00
        -11   -1    0    0    0    0  0.00000000000E+00  0.00000000000E+00  0.45593999997E+02  0.45594000000E+02  0.51100000000E-03 0.  1.
         11   -1    0    0    0    0 -0.00000000000E+00 -0.00000000000E+00 -0.45593999997E+02  0.45594000000E+02  0.51100000000E-03 0. -1.
    9900012    2    1    2    0    0  0.25493861334E+02  0.78051954353E+00  0.31664172656E+02  0.50528855808E+02  0.29999987713E+02 0.  0.
         12    1    1    2    0    0 -0.25493861334E+02 -0.78051954353E+00 -0.31664172656E+02  0.40659144192E+02  0.00000000000E+00 0. -1.
         11    1    3    3    0    0  0.81306971540E+01 -0.50767188943E+01  0.52417326775E+01  0.10925066254E+02  0.51100000000E-03 0. -1.
        -11    1    3    3    0    0  0.12701883084E+02  0.47295036219E+01  0.30456976298E+02  0.33336668158E+02  0.51100000000E-03 0.  1.
         12    1    3    3    0    0  0.46612810956E+01  0.11277348159E+01 -0.40345363199E+01  0.62671213953E+01  0.00000000000E+00 0. -1.
</event>
<event>
 7    1  0.1381607E-011  0.5052886E+02  0.7816164E-02  0.1300439E+00
        -11   -1    0    0    0    0  0.00000000000E+00  0.00000000000E+00  0.45593999997E+02  0.45594000000E+02  0.51100000000E-03 0.  1.
         11   -1    0    0    0    0 -0.00000000000E+00 -0.00000000000E+00 -0.45593999997E+02  0.45594000000E+02  0.51100000000E-03 0. -1.
    9900012    2    1    2    0    0  0.15440510957E+02 -0.34598310712E+02  0.14755105327E+02  0.50528860610E+02  0.30000002309E+02 0.  0.
         12    1    1    2    0    0 -0.15440510957E+02  0.34598310712E+02 -0.14755105327E+02  0.40659139390E+02  0.00000000000E+00 0. -1.
         11    1    3    3    0    0  0.64147812621E+01 -0.15010261750E+02 -0.81833763956E+00  0.16344021941E+02  0.51100000000E-03 0. -1.
        -11    1    3    3    0    0  0.87476189251E+01 -0.10310469227E+01 -0.15377216009E+01  0.89413915360E+01  0.51100000000E-03 0.  1.
         12    1    3    3    0    0  0.27811076972E+00 -0.18557002039E+02  0.17111164568E+02  0.25243447133E+02  0.00000000000E+00 0. -1.
</event>
<event>
 7    1  0.1381607E-011  0.5052886E+02  0.7816164E-02  0.1300439E+00
        -11   -1    0    0    0    0  0.00000000000E+00  0.00000000000E+00  0.45593999997E+02  0.45594000000E+02  0.51100000000E-03 0.  1.
         11   -1    0    0    0    0 -0.00000000000E+00 -0.00000000000E+00 -0.45593999997E+02  0.45594000000E+02  0.51100000000E-03 0. -1.
    9900012    2    1    2    0    0  0.55804220532E+01 -0.13545383521E+02  0.37928183353E+02  0.50528860591E+02  0.30000002252E+02 0.  0.
         12    1    1    2    0    0 -0.55804220532E+01  0.13545383521E+02 -0.37928183353E+02  0.40659139409E+02  0.00000000000E+00 0. -1.
         11    1    3    3    0    0  0.65080801179E+01 -0.51607886033E+01 -0.54489889379E+00  0.83238068751E+01  0.51100000000E-03 0. -1.
        -11    1    3    3    0    0  0.60221926675E+01 -0.39974439146E+01  0.86615000976E+01  0.11281309613E+02  0.51100000000E-03 0.  1.
         12    1    3    3    0    0 -0.69498507321E+01 -0.43871510026E+01  0.29811582149E+02  0.30923744103E+02  0.00000000000E+00 0. -1.
</event>
<event>
 7    1  0.1381607E-011  0.5052886E+02  0.7816164E-02  0.1300439E+00
        -11   -1    0    0    0    0  0.00000000000E+00  0.00000000000E+00  0.45593999997E+02  0.45594000000E+02  0.51100000000E-03 0.  1.
         11   -1    0    0    0    0 -0.00000000000E+00 -0.00000000000E+00 -0.45593999997E+02  0.45594000000E+02  0.51100000000E-03 0. -1.
    9900012    2    1    2    0    0 -0.11244363056E+02  0.24318637472E+02  0.30583234480E+02  0.50528855146E+02  0.29999985700E+02 0.  0.
         12    1    1    2    0    0  0.11244363056E+02 -0.24318637472E+02 -0.30583234480E+02  0.40659144854E+02  0.00000000000E+00 0. -1.
         11    1    3    3    0    0  0.22541044512E+01  0.12696439271E+02  0.14032888367E+02  0.19057872736E+02  0.51100000000E-03 0. -1.
        -11    1    3    3    0    0 -0.92284521427E+01  0.17118970697E+02  0.14356606263E+02  0.24173035191E+02  0.51100000000E-03 0.  1.
        -12    1    3    3    0    0 -0.42700153647E+01 -0.54967724955E+01  0.21937398494E+01  0.72979472188E+01  0.00000000000E+00 0.  1.
</event>
<event>
 7    1  0.1381607E-011  0.5052889E+02  0.7816164E-02  0.1300439E+00
        -11   -1    0    0    0    0  0.00000000000E+00  0.00000000000E+00  0.45593999997E+02  0.45594000000E+02  0.51100000000E-03 0.  1.
         11   -1    0    0    0    0 -0.00000000000E+00 -0.00000000000E+00 -0.45593999997E+02  0.45594000000E+02  0.51100000000E-03 0. -1.
    9900012    2    1    2    0    0 -0.36002560869E+01 -0.39791706383E+02  0.75380070287E+01  0.50528889204E+02  0.30000089223E+02 0.  0.
         12    1    1    2    0    0  0.36002560869E+01  0.39791706383E+02 -0.75380070287E+01  0.40659110796E+02  0.00000000000E+00 0. -1.
         11    1    3    3    0    0 -0.68267238774E+01 -0.21172561317E+01 -0.92381925638E+00  0.72069670948E+01  0.51100000000E-03 0. -1.
        -11    1    3    3    0    0  0.10823472240E+02 -0.17816132510E+02  0.70782474834E+01  0.22015079302E+02  0.51100000000E-03 0.  1.
         12    1    3    3    0    0 -0.75970044493E+01 -0.19858317741E+02  0.13835788017E+01  0.21306842807E+02  0.00000000000E+00 0. -1.
</event>
<event>
 7    1  0.1381607E-011  0.5052886E+02  0.7816164E-02  0.1300439E+00
        -11   -1    0    0    0    0  0.00000000000E+00  0.00000000000E+00  0.45593999997E+02  0.45594000000E+02  0.51100000000E-03 0. -1.
         11   -1    0    0    0    0 -0.00000000000E+00 -0.00000000000E+00 -0.45593999997E+02  0.45594000000E+02  0.51100000000E-03 0.  1.
    9900012    2    1    2    0    0  0.16112266139E+02 -0.21623368353E+02  0.30430086448E+02  0.50528863999E+02  0.30000012612E+02 0.  0.
         12    1    1    2    0    0 -0.16112266139E+02  0.21623368353E+02 -0.30430086448E+02  0.40659136001E+02  0.00000000000E+00 0. -1.
         11    1    3    3    0    0  0.52995958067E+01 -0.11981068139E+02  0.59757441531E+01  0.14399348177E+02  0.51100000000E-03 0. -1.
        -11    1    3    3    0    0  0.14025331309E+02 -0.45434587266E+01  0.46963201078E+01  0.15472826450E+02  0.51100000000E-03 0.  1.
         12    1    3    3    0    0 -0.32126609773E+01 -0.50988414876E+01  0.19758022188E+02  0.20656689373E+02  0.00000000000E+00 0. -1.
</event>
<event>
 7    1  0.1381607E-011  0.5052885E+02  0.7816164E-02  0.1300439E+00
        -11   -1    0    0    0    0  0.00000000000E+00  0.00000000000E+00  0.45593999997E+02  0.45594000000E+02  0.51100000000E-03 0.  1.
         11   -1    0    0    0    0 -0.00000000000E+00 -0.00000000000E+00 -0.45593999997E+02  0.45594000000E+02  0.51100000000E-03 0. -1.
    9900012    2    1    2    0    0 -0.53415741488E+01  0.40123723278E+02  0.38368128793E+01  0.50528847068E+02  0.29999961147E+02 0.  0.
         12    1    1    2    0    0  0.53415741488E+01 -0.40123723278E+02 -0.38368128793E+01  0.40659152932E+02  0.00000000000E+00 0. -1.
         11    1    3    3    0    0  0.17604002745E+01  0.42475874751E+01 -0.37500051169E+01  0.59332577159E+01  0.51100000000E-03 0. -1.
        -11    1    3    3    0    0  0.10091817583E+01  0.71477978969E+01 -0.81194356127E+01  0.10864377457E+02  0.51100000000E-03 0.  1.
        -12    1    3    3    0    0 -0.81111561816E+01  0.28728337906E+02  0.15706253609E+02  0.33731211895E+02  0.00000000000E+00 0.  1.
</event>
<event>
 7    1  0.1381607E-011  0.5052882E+02  0.7816164E-02  0.1300439E+00
        -11   -1    0    0    0    0  0.00000000000E+00  0.00000000000E+00  0.45593999997E+02  0.45594000000E+02  0.51100000000E-03 0. -1.
         11   -1    0    0    0    0 -0.00000000000E+00 -0.00000000000E+00 -0.45593999997E+02  0.45594000000E+02  0.51100000000E-03 0.  1.
    9900012    2    1    2    0    0  0.15375032257E+01 -0.10188800342E+02 -0.39331831695E+02  0.50528824491E+02  0.29999892523E+02 0.  0.
         12    1    1    2    0    0 -0.15375032257E+01  0.10188800342E+02  0.39331831695E+02  0.40659175509E+02  0.00000000000E+00 0. -1.
         11    1    3    3    0    0 -0.22993437892E+01 -0.12821964038E+02 -0.27556392420E+02  0.30480231415E+02  0.51100000000E-03 0. -1.
        -11    1    3    3    0    0  0.51781091258E+01  0.27140131194E+00 -0.14977560834E+02  0.15849725599E+02  0.51100000000E-03 0.  1.
         12    1    3    3    0    0 -0.13412621108E+01  0.23617623841E+01  0.32021215587E+01  0.41988674765E+01  0.00000000000E+00 0. -1.
</event>
<event>
 7    1  0.1381607E-011  0.5052883E+02  0.7816164E-02  0.1300439E+00
        -11   -1    0    0    0    0  0.00000000000E+00  0.00000000000E+00  0.45593999997E+02  0.45594000000E+02  0.51100000000E-03 0.  1.
         11   -1    0    0    0    0 -0.00000000000E+00 -0.00000000000E+00 -0.45593999997E+02  0.45594000000E+02  0.51100000000E-03 0. -1.
    9900012    2    1    2    0    0 -0.56228132955E+01  0.24250328353E+02  0.32147683136E+02  0.50528831470E+02  0.29999913735E+02 0.  0.
         12    1    1    2    0    0  0.56228132955E+01 -0.24250328353E+02 -0.32147683136E+02  0.40659168530E+02  0.00000000000E+00 0. -1.
         11    1    3    3    0    0 -0.19426363114E+01  0.76699766753E+01  0.96267143560E+01  0.12460979399E+02  0.51100000000E-03 0. -1.
        -11    1    3    3    0    0 -0.86106266894E+01  0.11149195740E+02 -0.30681342892E+00  0.14090478784E+02  0.51100000000E-03 0.  1.
         12    1    3    3    0    0  0.49304497053E+01  0.54311559376E+01  0.22827782209E+02  0.23977373286E+02  0.00000000000E+00 0. -1.
</event>
<event>
 7    1  0.1381607E-011  0.5052887E+02  0.7816164E-02  0.1300439E+00
        -11   -1    0    0    0    0  0.00000000000E+00  0.00000000000E+00  0.45593999997E+02  0.45594000000E+02  0.51100000000E-03 0. -1.
         11   -1    0    0    0    0 -0.00000000000E+00 -0.00000000000E+00 -0.45593999997E+02  0.45594000000E+02  0.51100000000E-03 0.  1.
    9900012    2    1    2    0    0  0.28045450191E+02 -0.48102600819E+01  0.29042713194E+02  0.50528867346E+02  0.30000022786E+02 0.  0.
         12    1    1    2    0    0 -0.28045450191E+02  0.48102600819E+01 -0.29042713194E+02  0.40659132654E+02  0.00000000000E+00 0. -1.
         11    1    3    3    0    0  0.17543572211E+02  0.21608299262E+01  0.22253395141E+02  0.28419354451E+02  0.51100000000E-03 0. -1.
        -11    1    3    3    0    0  0.82846927873E+01  0.42047503747E+01  0.10435724633E+01  0.93490696886E+01  0.51100000000E-03 0.  1.
        -12    1    3    3    0    0  0.22171851931E+01 -0.11175840383E+02  0.57457455896E+01  0.12760443206E+02  0.00000000000E+00 0.  1.
</event>
<event>
 7    1  0.1381607E-011  0.5052886E+02  0.7816164E-02  0.1300439E+00
        -11   -1    0    0    0    0  0.00000000000E+00  0.00000000000E+00  0.45593999997E+02  0.45594000000E+02  0.51100000000E-03 0.  1.
         11   -1    0    0    0    0 -0.00000000000E+00 -0.00000000000E+00 -0.45593999997E+02  0.45594000000E+02  0.51100000000E-03 0. -1.
    9900012    2    1    2    0    0  0.83257745769E+01  0.32492296824E+02  0.22980387081E+02  0.50528855080E+02  0.29999985502E+02 0.  0.
         12    1    1    2    0    0 -0.83257745769E+01 -0.32492296824E+02 -0.22980387081E+02  0.40659144920E+02  0.00000000000E+00 0. -1.
         11    1    3    3    0    0  0.37030801343E+01  0.63657778517E+01  0.39193414561E+00  0.73749266284E+01  0.51100000000E-03 0. -1.
        -11    1    3    3    0    0  0.10386003727E+02  0.19402999431E+01  0.12381856642E+02  0.16277106974E+02  0.51100000000E-03 0.  1.
        -12    1    3    3    0    0 -0.57633092842E+01  0.24186219030E+02  0.10206596293E+02  0.26876821478E+02  0.00000000000E+00 0.  1.
</event>
<event>
 7    1  0.1381607E-011  0.5052884E+02  0.7816164E-02  0.1300439E+00
        -11   -1    0    0    0    0  0.00000000000E+00  0.00000000000E+00  0.45593999997E+02  0.45594000000E+02  0.51100000000E-03 0.  1.
         11   -1    0    0    0    0 -0.00000000000E+00 -0.00000000000E+00 -0.45593999997E+02  0.45594000000E+02  0.51100000000E-03 0. -1.
    9900012    2    1    2    0    0  0.21367941865E+02 -0.10739551754E+02  0.32882214080E+02  0.50528844645E+02  0.29999953781E+02 0.  0.
         12    1    1    2    0    0 -0.21367941865E+02  0.10739551754E+02 -0.32882214080E+02  0.40659155355E+02  0.00000000000E+00 0. -1.
         11    1    3    3    0    0 -0.18812268675E+01  0.36730761942E+01  0.29355335538E+01  0.50643717046E+01  0.51100000000E-03 0. -1.
        -11    1    3    3    0    0  0.14122719292E+02 -0.11868831790E+01  0.24848580938E+02  0.28606150856E+02  0.51100000000E-03 0.  1.
        -12    1    3    3    0    0  0.91264494401E+01 -0.13225744769E+02  0.50980995882E+01  0.16858322084E+02  0.00000000000E+00 0.  1.
</event>
<event>
 7    1  0.1381607E-011  0.5052886E+02  0.7816164E-02  0.1300439E+00
        -11   -1    0    0    0    0  0.00000000000E+00  0.00000000000E+00  0.45593999997E+02  0.45594000000E+02  0.51100000000E-03 0. -1.
         11   -1    0    0    0    0 -0.00000000000E+00 -0.00000000000E+00 -0.45593999997E+02  0.45594000000E+02  0.51100000000E-03 0.  1.
    9900012    2    1    2    0    0 -0.27258499325E+02 -0.28619465226E+02 -0.95428691171E+01  0.50528856793E+02  0.29999990709E+02 0.  0.
         12    1    1    2    0    0  0.27258499325E+02  0.28619465226E+02  0.95428691171E+01  0.40659143207E+02  0.00000000000E+00 0. -1.
         11    1    3    3    0    0 -0.17539872013E+01 -0.13642868515E+02  0.47006637870E-01  0.13755236904E+02  0.51100000000E-03 0.  1.
        -11    1    3    3    0    0 -0.68825761064E+01 -0.93423966739E+01 -0.12551848899E+02  0.17093833406E+02  0.51100000000E-03 0. -1.
        -12    1    3    3    0    0 -0.18621936017E+02 -0.56342000378E+01  0.29619731441E+01  0.19679786483E+02  0.00000000000E+00 0.  1.
</event>
<event>
 7    1  0.1381607E-011  0.5052887E+02  0.7816164E-02  0.1300439E+00
        -11   -1    0    0    0    0  0.00000000000E+00  0.00000000000E+00  0.45593999997E+02  0.45594000000E+02  0.51100000000E-03 0. -1.
         11   -1    0    0    0    0 -0.00000000000E+00 -0.00000000000E+00 -0.45593999997E+02  0.45594000000E+02  0.51100000000E-03 0.  1.
    9900012    2    1    2    0    0  0.35388742760E+02 -0.74486686737E+01 -0.18582756749E+02  0.50528872764E+02  0.30000039254E+02 0.  0.
         12    1    1    2    0    0 -0.35388742760E+02  0.74486686737E+01  0.18582756749E+02  0.40659127236E+02  0.00000000000E+00 0. -1.
         11    1    3    3    0    0  0.20024200846E+02 -0.79676495490E+01 -0.50214209328E+01  0.22128414478E+02  0.51100000000E-03 0.  1.
        -11    1    3    3    0    0 -0.38838269091E+01  0.10999082469E+01 -0.69552632399E+01  0.80417408941E+01  0.51100000000E-03 0. -1.
         12    1    3    3    0    0  0.19248368823E+02 -0.58092737160E+00 -0.66060725766E+01  0.20358717392E+02  0.00000000000E+00 0. -1.
</event>
<event>
 7    1  0.1381607E-011  0.5052886E+02  0.7816164E-02  0.1300439E+00
        -11   -1    0    0    0    0  0.00000000000E+00  0.00000000000E+00  0.45593999997E+02  0.45594000000E+02  0.51100000000E-03 0. -1.
         11   -1    0    0    0    0 -0.00000000000E+00 -0.00000000000E+00 -0.45593999997E+02  0.45594000000E+02  0.51100000000E-03 0.  1.
    9900012    2    1    2    0    0  0.29279017479E+02  0.27518734268E+02  0.62147982942E+01  0.50528864273E+02  0.30000013445E+02 0.  0.
         12    1    1    2    0    0 -0.29279017479E+02 -0.27518734268E+02 -0.62147982942E+01  0.40659135727E+02  0.00000000000E+00 0. -1.
         11    1    3    3    0    0  0.72363385009E+01  0.18925822427E+02  0.34161666909E+01  0.20548030187E+02  0.51100000000E-03 0. -1.
        -11    1    3    3    0    0  0.21225173664E+02  0.12583301586E+02 -0.59063775867E+00  0.24681902866E+02  0.51100000000E-03 0.  1.
         12    1    3    3    0    0  0.81750531373E+00 -0.39903897458E+01  0.33892693620E+01  0.52989312196E+01  0.00000000000E+00 0. -1.
</event>
<event>
 7    1  0.1381607E-011  0.5052887E+02  0.7816164E-02  0.1300439E+00
        -11   -1    0    0    0    0  0.00000000000E+00  0.00000000000E+00  0.45593999997E+02  0.45594000000E+02  0.51100000000E-03 0.  1.
         11   -1    0    0    0    0 -0.00000000000E+00 -0.00000000000E+00 -0.45593999997E+02  0.45594000000E+02  0.51100000000E-03 0. -1.
    9900012    2    1    2    0    0  0.80220952552E+01 -0.65128621387E+01  0.39324207786E+02  0.50528871830E+02  0.30000036415E+02 0.  0.
         12    1    1    2    0    0 -0.80220952552E+01  0.65128621387E+01 -0.39324207786E+02  0.40659128170E+02  0.00000000000E+00 0. -1.
         11    1    3    3    0    0  0.45582041494E+01 -0.53191094342E+01  0.39673406184E-01  0.70051213038E+01  0.51100000000E-03 0. -1.
        -11    1    3    3    0    0  0.45318166024E+01  0.49979505587E+01  0.43471162735E+01  0.80258514602E+01  0.51100000000E-03 0.  1.
        -12    1    3    3    0    0 -0.10679254966E+01 -0.61917032632E+01  0.34937418106E+02  0.35497899066E+02  0.00000000000E+00 0.  1.
</event>
<event>
 7    1  0.1381607E-011  0.5052886E+02  0.7816164E-02  0.1300439E+00
        -11   -1    0    0    0    0  0.00000000000E+00  0.00000000000E+00  0.45593999997E+02  0.45594000000E+02  0.51100000000E-03 0. -1.
         11   -1    0    0    0    0 -0.00000000000E+00 -0.00000000000E+00 -0.45593999997E+02  0.45594000000E+02  0.51100000000E-03 0.  1.
    9900012    2    1    2    0    0  0.98342838203E+01  0.32920646776E+02 -0.21741277610E+02  0.50528864809E+02  0.30000015073E+02 0.  0.
         12    1    1    2    0    0 -0.98342838203E+01 -0.32920646776E+02  0.21741277610E+02  0.40659135191E+02  0.00000000000E+00 0. -1.
         11    1    3    3    0    0  0.50019827443E+01  0.55108408149E+01  0.15981316193E+01  0.76120445871E+01  0.51100000000E-03 0. -1.
        -11    1    3    3    0    0 -0.73521776139E+01  0.19848265998E+01 -0.31573154370E+01  0.82439488917E+01  0.51100000000E-03 0.  1.
        -12    1    3    3    0    0  0.12184478690E+02  0.25424979361E+02 -0.20182093792E+02  0.34672871330E+02  0.00000000000E+00 0.  1.
</event>
<event>
 7    1  0.1381607E-011  0.5052881E+02  0.7816164E-02  0.1300439E+00
        -11   -1    0    0    0    0  0.00000000000E+00  0.00000000000E+00  0.45593999997E+02  0.45594000000E+02  0.51100000000E-03 0.  1.
         11   -1    0    0    0    0 -0.00000000000E+00 -0.00000000000E+00 -0.45593999997E+02  0.45594000000E+02  0.51100000000E-03 0. -1.
    9900012    2    1    2    0    0  0.18371442786E+01 -0.33222743098E+02  0.23367583661E+02  0.50528810089E+02  0.29999848747E+02 0.  0.
         12    1    1    2    0    0 -0.18371442786E+01  0.33222743098E+02 -0.23367583661E+02  0.40659189911E+02  0.00000000000E+00 0. -1.
         11    1    3    3    0    0 -0.87003605658E+01 -0.49399512779E+01  0.42015976513E+00  0.10013786851E+02  0.51100000000E-03 0. -1.
        -11    1    3    3    0    0  0.46496158348E+01 -0.71611369930E+00  0.59993156703E+01  0.76238792628E+01  0.51100000000E-03 0.  1.
        -12    1    3    3    0    0  0.58878890096E+01 -0.27566678121E+02  0.16948108225E+02  0.32891143976E+02  0.00000000000E+00 0.  1.
</event>
<event>
 7    1  0.1381607E-011  0.5052885E+02  0.7816164E-02  0.1300439E+00
        -11   -1    0    0    0    0  0.00000000000E+00  0.00000000000E+00  0.45593999997E+02  0.45594000000E+02  0.51100000000E-03 0. -1.
         11   -1    0    0    0    0 -0.00000000000E+00 -0.00000000000E+00 -0.45593999997E+02  0.45594000000E+02  0.51100000000E-03 0.  1.
    9900012    2    1    2    0    0 -0.36640624021E+01 -0.30200157045E+02 -0.26975753727E+02  0.50528854313E+02  0.29999983169E+02 0.  0.
         12    1    1    2    0    0  0.36640624021E+01  0.30200157045E+02  0.26975753727E+02  0.40659145687E+02  0.00000000000E+00 0. -1.
         11    1    3    3    0    0 -0.15527530060E+01 -0.19578780008E+02 -0.12160415156E+01  0.19677866392E+02  0.51100000000E-03 0.  1.
        -11    1    3    3    0    0 -0.12975721996E+01  0.29968786601E+01 -0.39413305226E+01  0.51185019162E+01  0.51100000000E-03 0. -1.
        -12    1    3    3    0    0 -0.81373719646E+00 -0.13618255697E+02 -0.21818381689E+02  0.25732486005E+02  0.00000000000E+00 0.  1.
</event>
<event>
 7    1  0.1381607E-011  0.5052886E+02  0.7816164E-02  0.1300439E+00
        -11   -1    0    0    0    0  0.00000000000E+00  0.00000000000E+00  0.45593999997E+02  0.45594000000E+02  0.51100000000E-03 0.  1.
         11   -1    0    0    0    0 -0.00000000000E+00 -0.00000000000E+00 -0.45593999997E+02  0.45594000000E+02  0.51100000000E-03 0. -1.
    9900012    2    1    2    0    0  0.49898508706E+01 -0.38027358311E+02  0.13497667359E+02  0.50528860609E+02  0.30000002308E+02 0.  0.
         12    1    1    2    0    0 -0.49898508706E+01  0.38027358311E+02 -0.13497667359E+02  0.40659139391E+02  0.00000000000E+00 0. -1.
         11    1    3    3    0    0  0.86807511184E+01 -0.29420875137E+01  0.14230812483E+01  0.92755851254E+01  0.51100000000E-03 0. -1.
        -11    1    3    3    0    0  0.56527492868E+01 -0.48196999255E+01  0.21755092372E+00  0.74317165269E+01  0.51100000000E-03 0.  1.
        -12    1    3    3    0    0 -0.93436495346E+01 -0.30265570872E+02  0.11857035187E+02  0.33821558957E+02  0.00000000000E+00 0.  1.
</event>
<event>
 7    1  0.1381607E-011  0.5052886E+02  0.7816164E-02  0.1300439E+00
        -11   -1    0    0    0    0  0.00000000000E+00  0.00000000000E+00  0.45593999997E+02  0.45594000000E+02  0.51100000000E-03 0.  1.
         11   -1    0    0    0    0 -0.00000000000E+00 -0.00000000000E+00 -0.45593999997E+02  0.45594000000E+02  0.51100000000E-03 0. -1.
    9900012    2    1    2    0    0  0.35071693376E+01  0.40471186787E+02  0.17171580603E+01  0.50528857995E+02  0.29999994363E+02 0.  0.
         12    1    1    2    0    0 -0.35071693376E+01 -0.40471186787E+02 -0.17171580603E+01  0.40659142005E+02  0.00000000000E+00 0. -1.
         11    1    3    3    0    0  0.10149848736E+02  0.21202747788E+02  0.65471684076E+01  0.24401667106E+02  0.51100000000E-03 0. -1.
        -11    1    3    3    0    0  0.20851226289E+01  0.12728845125E+02  0.22935653743E+01  0.13100827339E+02  0.51100000000E-03 0.  1.
        -12    1    3    3    0    0 -0.87278020278E+01  0.65395938749E+01 -0.71235757217E+01  0.13026363550E+02  0.00000000000E+00 0.  1.
</event>
<event>
 7    1  0.1381607E-011  0.5052886E+02  0.7816164E-02  0.1300439E+00
        -11   -1    0    0    0    0  0.00000000000E+00  0.00000000000E+00  0.45593999997E+02  0.45594000000E+02  0.51100000000E-03 0. -1.
         11   -1    0    0    0    0 -0.00000000000E+00 -0.00000000000E+00 -0.45593999997E+02  0.45594000000E+02  0.51100000000E-03 0.  1.
    9900012    2    1    2    0    0  0.25382012014E+02  0.17389545078E+02  0.26580495145E+02  0.50528861617E+02  0.30000005371E+02 0.  0.
         12    1    1    2    0    0 -0.25382012014E+02 -0.17389545078E+02 -0.26580495145E+02  0.40659138383E+02  0.00000000000E+00 0. -1.
         11    1    3    3    0    0  0.20211166855E+02  0.15069425471E+02  0.30602991991E+02  0.39649993301E+02  0.51100000000E-03 0. -1.
        -11    1    3    3    0    0  0.43196818056E+01  0.39058730214E+01  0.66136469849E+00  0.58611345734E+01  0.51100000000E-03 0.  1.
         12    1    3    3    0    0  0.85116335324E+00 -0.15857534141E+01 -0.46838615449E+01  0.50177337430E+01  0.00000000000E+00 0. -1.
</event>
<event>
 7    1  0.1381607E-011  0.5052884E+02  0.7816164E-02  0.1300439E+00
        -11   -1    0    0    0    0  0.00000000000E+00  0.00000000000E+00  0.45593999997E+02  0.45594000000E+02  0.51100000000E-03 0.  1.
         11   -1    0    0    0    0 -0.00000000000E+00 -0.00000000000E+00 -0.45593999997E+02  0.45594000000E+02  0.51100000000E-03 0. -1.
    9900012    2    1    2    0    0  0.70122958998E+01  0.11863535836E+02  0.38252467531E+02  0.50528842992E+02  0.29999948760E+02 0.  0.
         12    1    1    2    0    0 -0.70122958998E+01 -0.11863535836E+02 -0.38252467531E+02  0.40659157008E+02  0.00000000000E+00 0. -1.
         11    1    3    3    0    0  0.38414224931E+01  0.30796124730E+01 -0.39863035397E+01  0.63349156211E+01  0.51100000000E-03 0. -1.
        -11    1    3    3    0    0 -0.12951643416E+01  0.73106049240E+01  0.17462391722E+02  0.18975181684E+02  0.51100000000E-03 0.  1.
        -12    1    3    3    0    0  0.44660377483E+01  0.14733184394E+01  0.24776379350E+02  0.25218745688E+02  0.00000000000E+00 0.  1.
</event>
<event>
 7    1  0.1381607E-011  0.5052877E+02  0.7816164E-02  0.1300439E+00
        -11   -1    0    0    0    0  0.00000000000E+00  0.00000000000E+00  0.45593999997E+02  0.45594000000E+02  0.51100000000E-03 0. -1.
         11   -1    0    0    0    0 -0.00000000000E+00 -0.00000000000E+00 -0.45593999997E+02  0.45594000000E+02  0.51100000000E-03 0.  1.
    9900012    2    1    2    0    0  0.38443400567E+02  0.66783043907E+01 -0.11431454400E+02  0.50528770465E+02  0.29999728305E+02 0.  0.
         12    1    1    2    0    0 -0.38443400567E+02 -0.66783043907E+01  0.11431454400E+02  0.40659229535E+02  0.00000000000E+00 0. -1.
         11    1    3    3    0    0  0.23772060253E+02  0.11877972708E+02 -0.22321545855E+01  0.26667950777E+02  0.51100000000E-03 0. -1.
        -11    1    3    3    0    0  0.10474940450E+02  0.36589504756E+01 -0.86035915782E+01  0.14040444591E+02  0.51100000000E-03 0.  1.
         12    1    3    3    0    0  0.41963998639E+01 -0.88586187929E+01 -0.59570823615E+00  0.98203750966E+01  0.00000000000E+00 0. -1.
</event>
<event>
 7    1  0.1381607E-011  0.5052886E+02  0.7816164E-02  0.1300439E+00
        -11   -1    0    0    0    0  0.00000000000E+00  0.00000000000E+00  0.45593999997E+02  0.45594000000E+02  0.51100000000E-03 0.  1.
         11   -1    0    0    0    0 -0.00000000000E+00 -0.00000000000E+00 -0.45593999997E+02  0.45594000000E+02  0.51100000000E-03 0. -1.
    9900012    2    1    2    0    0  0.74132830454E+01 -0.96744291897E+00  0.39965901510E+02  0.50528855951E+02  0.29999988149E+02 0.  0.
         12    1    1    2    0    0 -0.74132830454E+01  0.96744291897E+00 -0.39965901510E+02  0.40659144049E+02  0.00000000000E+00 0. -1.
         11    1    3    3    0    0 -0.17870759173E+01  0.63880065629E+01  0.58206431690E+01  0.88249733905E+01  0.51100000000E-03 0. -1.
        -11    1    3    3    0    0  0.31623455673E+01 -0.37153489484E+01  0.34306455719E+02  0.34651654384E+02  0.51100000000E-03 0.  1.
         12    1    3    3    0    0  0.60380133954E+01 -0.36401005334E+01 -0.16119737863E+00  0.70522281763E+01  0.00000000000E+00 0. -1.
</event>
<event>
 7    1  0.1381607E-011  0.5052885E+02  0.7816164E-02  0.1300439E+00
        -11   -1    0    0    0    0  0.00000000000E+00  0.00000000000E+00  0.45593999997E+02  0.45594000000E+02  0.51100000000E-03 0.  1.
         11   -1    0    0    0    0 -0.00000000000E+00 -0.00000000000E+00 -0.45593999997E+02  0.45594000000E+02  0.51100000000E-03 0. -1.
    9900012    2    1    2    0    0  0.28011032539E+01 -0.25060350312E+01  0.40485057432E+02  0.50528852612E+02  0.29999977999E+02 0.  0.
         12    1    1    2    0    0 -0.28011032539E+01  0.25060350312E+01 -0.40485057432E+02  0.40659147388E+02  0.00000000000E+00 0. -1.
         11    1    3    3    0    0 -0.32329183399E+01  0.73175425773E+01  0.11310516058E+02  0.13853734664E+02  0.51100000000E-03 0. -1.
        -11    1    3    3    0    0 -0.66424488421E+01 -0.35683430283E+01  0.14229823142E+02  0.16104131938E+02  0.51100000000E-03 0.  1.
        -12    1    3    3    0    0  0.12676470436E+02 -0.62552345803E+01  0.14944718233E+02  0.20570986010E+02  0.00000000000E+00 0.  1.
</event>
<event>
 7    1  0.1381607E-011  0.5052885E+02  0.7816164E-02  0.1300439E+00
        -11   -1    0    0    0    0  0.00000000000E+00  0.00000000000E+00  0.45593999997E+02  0.45594000000E+02  0.51100000000E-03 0.  1.
         11   -1    0    0    0    0 -0.00000000000E+00 -0.00000000000E+00 -0.45593999997E+02  0.45594000000E+02  0.51100000000E-03 0. -1.
    9900012    2    1    2    0    0  0.26176520836E+02  0.97053239151E+01  0.29559474959E+02  0.50528854470E+02  0.29999983646E+02 0.  0.
         12    1    1    2    0    0 -0.26176520836E+02 -0.97053239151E+01 -0.29559474959E+02  0.40659145530E+02  0.00000000000E+00 0. -1.
         11    1    3    3    0    0  0.18973811919E+02  0.61775185311E+01  0.54786828746E+01  0.20692589017E+02  0.51100000000E-03 0. -1.
        -11    1    3    3    0    0  0.10727672758E+02 -0.12700696261E+01  0.10767335379E+02  0.15252263802E+02  0.51100000000E-03 0.  1.
         12    1    3    3    0    0 -0.35249638405E+01  0.47978750101E+01  0.13313456706E+02  0.14584001651E+02  0.00000000000E+00 0. -1.
</event>
<event>
 7    1  0.1381607E-011  0.5052886E+02  0.7816164E-02  0.1300439E+00
        -11   -1    0    0    0    0  0.00000000000E+00  0.00000000000E+00  0.45593999997E+02  0.45594000000E+02  0.51100000000E-03 0.  1.
         11   -1    0    0    0    0 -0.00000000000E+00 -0.00000000000E+00 -0.45593999997E+02  0.45594000000E+02  0.51100000000E-03 0. -1.
    9900012    2    1    2    0    0 -0.52264632552E+01 -0.33125922491E+02  0.22989626056E+02  0.50528861234E+02  0.30000004206E+02 0.  0.
         12    1    1    2    0    0  0.52264632552E+01  0.33125922491E+02 -0.22989626056E+02  0.40659138766E+02  0.00000000000E+00 0. -1.
         11    1    3    3    0    0 -0.36663382586E+01 -0.47159971467E+01  0.84623273418E+01  0.10358264798E+02  0.51100000000E-03 0. -1.
        -11    1    3    3    0    0 -0.11984241213E+02 -0.17154690716E+02  0.13268442241E+02  0.24778155920E+02  0.51100000000E-03 0.  1.
        -12    1    3    3    0    0  0.10424116217E+02 -0.11255234628E+02  0.12588564732E+01  0.15392440517E+02  0.00000000000E+00 0.  1.
</event>
<event>
 7    1  0.1381607E-011  0.5052886E+02  0.7816164E-02  0.1300439E+00
        -11   -1    0    0    0    0  0.00000000000E+00  0.00000000000E+00  0.45593999997E+02  0.45594000000E+02  0.51100000000E-03 0. -1.
         11   -1    0    0    0    0 -0.00000000000E+00 -0.00000000000E+00 -0.45593999997E+02  0.45594000000E+02  0.51100000000E-03 0.  1.
    9900012    2    1    2    0    0  0.21714044365E+02  0.10675246514E+02 -0.32675755451E+02  0.50528860744E+02  0.30000002716E+02 0.  0.
         12    1    1    2    0    0 -0.21714044365E+02 -0.10675246514E+02  0.32675755451E+02  0.40659139256E+02  0.00000000000E+00 0. -1.
         11    1    3    3    0    0  0.27257933800E+02  0.75042753193E+01 -0.28577818814E+02  0.40199512827E+02  0.51100000000E-03 0. -1.
        -11    1    3    3    0    0 -0.61558526953E+00  0.23245130219E+01 -0.47131938887E+01  0.52911721676E+01  0.51100000000E-03 0.  1.
         12    1    3    3    0    0 -0.49283041658E+01  0.84645817282E+00  0.61525725202E+00  0.50381757488E+01  0.00000000000E+00 0. -1.
</event>
<event>
 7    1  0.1381607E-011  0.5052887E+02  0.7816164E-02  0.1300439E+00
        -11   -1    0    0    0    0  0.00000000000E+00  0.00000000000E+00  0.45593999997E+02  0.45594000000E+02  0.51100000000E-03 0.  1.
         11   -1    0    0    0    0 -0.00000000000E+00 -0.00000000000E+00 -0.45593999997E+02  0.45594000000E+02  0.51100000000E-03 0. -1.
    9900012    2    1    2    0    0  0.27660977972E+02  0.12369086368E+02  0.27111640159E+02  0.50528867790E+02  0.30000024134E+02 0.  0.
         12    1    1    2    0    0 -0.27660977972E+02 -0.12369086368E+02 -0.27111640159E+02  0.40659132210E+02  0.00000000000E+00 0. -1.
         11    1    3    3    0    0  0.89070220851E+00 -0.65243421049E+01  0.84929546134E+01  0.10746658488E+02  0.51100000000E-03 0. -1.
        -11    1    3    3    0    0  0.98241028637E+01  0.21099376178E+01  0.10634149817E+02  0.14630446898E+02  0.51100000000E-03 0.  1.
        -12    1    3    3    0    0  0.16946172900E+02  0.16783490856E+02  0.79845357280E+01  0.25151762404E+02  0.00000000000E+00 0.  1.
</event>
<event>
 7    1  0.1381607E-011  0.5052886E+02  0.7816164E-02  0.1300439E+00
        -11   -1    0    0    0    0  0.00000000000E+00  0.00000000000E+00  0.45593999997E+02  0.45594000000E+02  0.51100000000E-03 0.  1.
         11   -1    0    0    0    0 -0.00000000000E+00 -0.00000000000E+00 -0.45593999997E+02  0.45594000000E+02  0.51100000000E-03 0. -1.
    9900012    2    1    2    0    0 -0.86858214631E+01 -0.39670632176E+02  0.19906855356E+01  0.50528863504E+02  0.30000011106E+02 0.  0.
         12    1    1    2    0    0  0.86858214631E+01  0.39670632176E+02 -0.19906855356E+01  0.40659136496E+02  0.00000000000E+00 0. -1.
         11    1    3    3    0    0 -0.31823809625E+01 -0.11414032323E+02  0.76707214462E+01  0.14115510980E+02  0.51100000000E-03 0. -1.
        -11    1    3    3    0    0  0.46264729466E+01 -0.21248324707E+02  0.20950506257E+01  0.21846848563E+02  0.51100000000E-03 0.  1.
        -12    1    3    3    0    0 -0.10129913447E+02 -0.70082751459E+01 -0.77750865362E+01  0.14566503960E+02  0.00000000000E+00 0.  1.
</event>
<event>
 7    1  0.1381607E-011  0.5052887E+02  0.7816164E-02  0.1300439E+00
        -11   -1    0    0    0    0  0.00000000000E+00  0.00000000000E+00  0.45593999997E+02  0.45594000000E+02  0.51100000000E-03 0.  1.
         11   -1    0    0    0    0 -0.00000000000E+00 -0.00000000000E+00 -0.45593999997E+02  0.45594000000E+02  0.51100000000E-03 0. -1.
    9900012    2    1    2    0    0  0.32403492567E+01  0.34722343771E+02  0.20905120562E+02  0.50528867128E+02  0.30000022121E+02 0.  0.
         12    1    1    2    0    0 -0.32403492567E+01 -0.34722343771E+02 -0.20905120562E+02  0.40659132872E+02  0.00000000000E+00 0. -1.
         11    1    3    3    0    0 -0.59208068236E+01  0.13943269873E+02  0.81861547525E+00  0.15170394185E+02  0.51100000000E-03 0. -1.
        -11    1    3    3    0    0  0.66206106568E+00 -0.28088101662E+01 -0.48575312279E+00  0.29263792922E+01  0.51100000000E-03 0.  1.
        -12    1    3    3    0    0  0.84990950146E+01  0.23587884064E+02  0.20572258209E+02  0.32432093650E+02  0.00000000000E+00 0.  1.
</event>
<event>
 7    1  0.1381607E-011  0.5052886E+02  0.7816164E-02  0.1300439E+00
        -11   -1    0    0    0    0  0.00000000000E+00  0.00000000000E+00  0.45593999997E+02  0.45594000000E+02  0.51100000000E-03 0.  1.
         11   -1    0    0    0    0 -0.00000000000E+00 -0.00000000000E+00 -0.45593999997E+02  0.45594000000E+02  0.51100000000E-03 0. -1.
    9900012    2    1    2    0    0 -0.98505753901E+01  0.23844142610E+02  0.31425928966E+02  0.50528856087E+02  0.29999988563E+02 0.  0.
         12    1    1    2    0    0  0.98505753901E+01 -0.23844142610E+02 -0.31425928966E+02  0.40659143913E+02  0.00000000000E+00 0. -1.
         11    1    3    3    0    0 -0.12068223286E+02  0.16074112214E+02  0.25206278771E+02  0.32239348419E+02  0.51100000000E-03 0. -1.
        -11    1    3    3    0    0  0.47515796206E+01  0.69742144847E+01  0.10365169875E+02  0.13366148412E+02  0.51100000000E-03 0.  1.
        -12    1    3    3    0    0 -0.25339317243E+01  0.79581591114E+00 -0.41455196799E+01  0.49233592561E+01  0.00000000000E+00 0.  1.
</event>
<event>
 7    1  0.1381607E-011  0.5052873E+02  0.7816164E-02  0.1300439E+00
        -11   -1    0    0    0    0  0.00000000000E+00  0.00000000000E+00  0.45593999997E+02  0.45594000000E+02  0.51100000000E-03 0.  1.
         11   -1    0    0    0    0 -0.00000000000E+00 -0.00000000000E+00 -0.45593999997E+02  0.45594000000E+02  0.51100000000E-03 0. -1.
    9900012    2    1    2    0    0  0.36956607778E+01 -0.40066100298E+02 -0.58502814322E+01  0.50528731752E+02  0.29999610630E+02 0.  0.
         12    1    1    2    0    0 -0.36956607778E+01  0.40066100298E+02  0.58502814322E+01  0.40659268248E+02  0.00000000000E+00 0. -1.
         11    1    3    3    0    0  0.91026619924E+01 -0.27735999195E+02 -0.11589318047E+02  0.31407903460E+02  0.51100000000E-03 0. -1.
        -11    1    3    3    0    0 -0.13253584083E+01 -0.12463085482E+02  0.58772579583E+00  0.12547131007E+02  0.51100000000E-03 0.  1.
         12    1    3    3    0    0 -0.40816428063E+01  0.13298437853E+00  0.51513108192E+01  0.65736972854E+01  0.00000000000E+00 0. -1.
</event>
<event>
 7    1  0.1381607E-011  0.5052886E+02  0.7816164E-02  0.1300439E+00
        -11   -1    0    0    0    0  0.00000000000E+00  0.00000000000E+00  0.45593999997E+02  0.45594000000E+02  0.51100000000E-03 0. -1.
         11   -1    0    0    0    0 -0.00000000000E+00 -0.00000000000E+00 -0.45593999997E+02  0.45594000000E+02  0.51100000000E-03 0.  1.
    9900012    2    1    2    0    0 -0.18733144484E+02 -0.98286805322E+01 -0.34722211032E+02  0.50528860779E+02  0.30000002824E+02 0.  0.
         12    1    1    2    0    0  0.18733144484E+02  0.98286805322E+01  0.34722211032E+02  0.40659139221E+02  0.00000000000E+00 0. -1.
         11    1    3    3    0    0 -0.69213709313E+01  0.43759739557E+01 -0.15437761643E+02  0.17475096807E+02  0.51100000000E-03 0. -1.
        -11    1    3    3    0    0 -0.34813483449E+01 -0.96325052548E+01 -0.21030497971E+02  0.23392024046E+02  0.51100000000E-03 0.  1.
        -12    1    3    3    0    0 -0.83304252076E+01 -0.45721492331E+01  0.17460485818E+01  0.96617399261E+01  0.00000000000E+00 0.  1.
</event>
<event>
 7    1  0.1381607E-011  0.5052886E+02  0.7816164E-02  0.1300439E+00
        -11   -1    0    0    0    0  0.00000000000E+00  0.00000000000E+00  0.45593999997E+02  0.45594000000E+02  0.51100000000E-03 0.  1.
         11   -1    0    0    0    0 -0.00000000000E+00 -0.00000000000E+00 -0.45593999997E+02  0.45594000000E+02  0.51100000000E-03 0. -1.
    9900012    2    1    2    0    0  0.29523743314E+02 -0.20091182281E+01  0.27883289209E+02  0.50528858439E+02  0.29999995711E+02 0.  0.
         12    1    1    2    0    0 -0.29523743314E+02  0.20091182281E+01 -0.27883289209E+02  0.40659141561E+02  0.00000000000E+00 0. -1.
         11    1    3    3    0    0 -0.42694073314E+00 -0.50990309530E+01 -0.64673105916E+00  0.51575824156E+01  0.51100000000E-03 0. -1.
        -11    1    3    3    0    0  0.11641241362E+02 -0.46615724398E+01  0.20282378161E+02  0.23845830290E+02  0.51100000000E-03 0.  1.
        -12    1    3    3    0    0  0.18309442685E+02  0.77514851647E+01  0.82476421072E+01  0.21525445734E+02  0.00000000000E+00 0.  1.
</event>
<event>
 7    1  0.1381607E-011  0.5052886E+02  0.7816164E-02  0.1300439E+00
        -11   -1    0    0    0    0  0.00000000000E+00  0.00000000000E+00  0.45593999997E+02  0.45594000000E+02  0.51100000000E-03 0.  1.
         11   -1    0    0    0    0 -0.00000000000E+00 -0.00000000000E+00 -0.45593999997E+02  0.45594000000E+02  0.51100000000E-03 0. -1.
    9900012    2    1    2    0    0  0.37574724692E+01 -0.89846771128E+01  0.39475594581E+02  0.50528860932E+02  0.30000003290E+02 0.  0.
         12    1    1    2    0    0 -0.37574724692E+01  0.89846771128E+01 -0.39475594581E+02  0.40659139068E+02  0.00000000000E+00 0. -1.
         11    1    3    3    0    0  0.15732605769E+01  0.34774080732E+01 -0.13504273676E+01  0.40486010036E+01  0.51100000000E-03 0. -1.
        -11    1    3    3    0    0  0.85104683183E+01 -0.14741767928E+01  0.10404807268E+02  0.13522621150E+02  0.51100000000E-03 0.  1.
        -12    1    3    3    0    0 -0.63262564259E+01 -0.10987908393E+02  0.30421214681E+02  0.32957638779E+02  0.00000000000E+00 0.  1.
</event>
<event>
 7    1  0.1381607E-011  0.5052886E+02  0.7816164E-02  0.1300439E+00
        -11   -1    0    0    0    0  0.00000000000E+00  0.00000000000E+00  0.45593999997E+02  0.45594000000E+02  0.51100000000E-03 0.  1.
         11   -1    0    0    0    0 -0.00000000000E+00 -0.00000000000E+00 -0.45593999997E+02  0.45594000000E+02  0.51100000000E-03 0. -1.
    9900012    2    1    2    0    0  0.93312141413E+01 -0.14771018027E+02  0.36713908117E+02  0.50528861050E+02  0.30000003648E+02 0.  0.
         12    1    1    2    0    0 -0.93312141413E+01  0.14771018027E+02 -0.36713908117E+02  0.40659138950E+02  0.00000000000E+00 0. -1.
         11    1    3    3    0    0  0.69038091459E+00 -0.32268870326E+01 -0.28675127814E+01  0.43717336997E+01  0.51100000000E-03 0. -1.
        -11    1    3    3    0    0  0.13705646439E+02 -0.64240910032E+01  0.18638897699E+02  0.24010876644E+02  0.51100000000E-03 0.  1.
        -12    1    3    3    0    0 -0.50648132120E+01 -0.51200399915E+01  0.20942523199E+02  0.22146250706E+02  0.00000000000E+00 0.  1.
</event>
<event>
 7    1  0.1381607E-011  0.5052886E+02  0.7816164E-02  0.1300439E+00
        -11   -1    0    0    0    0  0.00000000000E+00  0.00000000000E+00  0.45593999997E+02  0.45594000000E+02  0.51100000000E-03 0. -1.
         11   -1    0    0    0    0 -0.00000000000E+00 -0.00000000000E+00 -0.45593999997E+02  0.45594000000E+02  0.51100000000E-03 0.  1.
    9900012    2    1    2    0    0  0.94712453833E+01 -0.39515709545E+02 -0.14034536697E+01  0.50528862378E+02  0.30000007684E+02 0.  0.
         12    1    1    2    0    0 -0.94712453833E+01  0.39515709545E+02  0.14034536697E+01  0.40659137622E+02  0.00000000000E+00 0. -1.
         11    1    3    3    0    0  0.10424860905E+02 -0.12728431005E+02 -0.14850534122E+01  0.16519566115E+02  0.51100000000E-03 0. -1.
        -11    1    3    3    0    0  0.53785968134E+01 -0.75234980025E+01 -0.79530718713E+01  0.12197691516E+02  0.51100000000E-03 0.  1.
         12    1    3    3    0    0 -0.63322123353E+01 -0.19263780538E+02  0.80346716138E+01  0.21811604747E+02  0.00000000000E+00 0. -1.
</event>
<event>
 7    1  0.1381607E-011  0.5052888E+02  0.7816164E-02  0.1300439E+00
        -11   -1    0    0    0    0  0.00000000000E+00  0.00000000000E+00  0.45593999997E+02  0.45594000000E+02  0.51100000000E-03 0. -1.
         11   -1    0    0    0    0 -0.00000000000E+00 -0.00000000000E+00 -0.45593999997E+02  0.45594000000E+02  0.51100000000E-03 0.  1.
    9900012    2    1    2    0    0  0.28688714276E+02  0.28566538412E+02 -0.37516635348E+01  0.50528875281E+02  0.30000046903E+02 0.  0.
         12    1    1    2    0    0 -0.28688714276E+02 -0.28566538412E+02  0.37516635348E+01  0.40659124719E+02  0.00000000000E+00 0. -1.
         11    1    3    3    0    0  0.30015823679E+01  0.70376208684E+01  0.31789160438E+01  0.82851138600E+01  0.51100000000E-03 0. -1.
        -11    1    3    3    0    0  0.27766274258E+02  0.22220147177E+02 -0.62474551410E+00  0.35568121035E+02  0.51100000000E-03 0.  1.
         12    1    3    3    0    0 -0.20791423493E+01 -0.69122963333E+00 -0.63058340644E+01  0.66756403860E+01  0.00000000000E+00 0. -1.
</event>
<event>
 7    1  0.1381607E-011  0.5052881E+02  0.7816164E-02  0.1300439E+00
        -11   -1    0    0    0    0  0.00000000000E+00  0.00000000000E+00  0.45593999997E+02  0.45594000000E+02  0.51100000000E-03 0.  1.
         11   -1    0    0    0    0 -0.00000000000E+00 -0.00000000000E+00 -0.45593999997E+02  0.45594000000E+02  0.51100000000E-03 0. -1.
    9900012    2    1    2    0    0 -0.10206297628E+02 -0.17494213352E+02  0.35255547278E+02  0.50528811297E+02  0.29999852419E+02 0.  0.
         12    1    1    2    0    0  0.10206297628E+02  0.17494213352E+02 -0.35255547278E+02  0.40659188703E+02  0.00000000000E+00 0. -1.
         11    1    3    3    0    0 -0.14923408450E+02 -0.75685870400E+01  0.11295024621E+02  0.20188343444E+02  0.51100000000E-03 0. -1.
        -11    1    3    3    0    0  0.30208168122E+01  0.21371139709E+01  0.14364187661E+02  0.14833154680E+02  0.51100000000E-03 0.  1.
        -12    1    3    3    0    0  0.16962940099E+01 -0.12062740283E+02  0.95963349963E+01  0.15507313174E+02  0.00000000000E+00 0.  1.
</event>
<event>
 7    1  0.1381607E-011  0.5052886E+02  0.7816164E-02  0.1300439E+00
        -11   -1    0    0    0    0  0.00000000000E+00  0.00000000000E+00  0.45593999997E+02  0.45594000000E+02  0.51100000000E-03 0.  1.
         11   -1    0    0    0    0 -0.00000000000E+00 -0.00000000000E+00 -0.45593999997E+02  0.45594000000E+02  0.51100000000E-03 0. -1.
    9900012    2    1    2    0    0 -0.66551425306E+01  0.40039907888E+02 -0.23833233073E+01  0.50528863563E+02  0.30000011286E+02 0.  0.
         12    1    1    2    0    0  0.66551425306E+01 -0.40039907888E+02  0.23833233073E+01  0.40659136437E+02  0.00000000000E+00 0. -1.
         11    1    3    3    0    0  0.37696750379E+01  0.16593217808E+02 -0.75297667769E+01  0.18607598316E+02  0.51100000000E-03 0. -1.
        -11    1    3    3    0    0 -0.32041509917E+01 -0.17287920621E+01  0.44123036963E+01  0.57204658675E+01  0.51100000000E-03 0.  1.
        -12    1    3    3    0    0 -0.72206665769E+01  0.25175482143E+02  0.73413977325E+00  0.26200799380E+02  0.00000000000E+00 0.  1.
</event>
<event>
 7    1  0.1381607E-011  0.5052885E+02  0.7816164E-02  0.1300439E+00
        -11   -1    0    0    0    0  0.00000000000E+00  0.00000000000E+00  0.45593999997E+02  0.45594000000E+02  0.51100000000E-03 0.  1.
         11   -1    0    0    0    0 -0.00000000000E+00 -0.00000000000E+00 -0.45593999997E+02  0.45594000000E+02  0.51100000000E-03 0. -1.
    9900012    2    1    2    0    0 -0.40080016554E+02 -0.56571847396E+01  0.38411828677E+01  0.50528854018E+02  0.29999982275E+02 0.  0.
         12    1    1    2    0    0  0.40080016554E+02  0.56571847396E+01 -0.38411828677E+01  0.40659145982E+02  0.00000000000E+00 0. -1.
         11    1    3    3    0    0 -0.15602544392E+00 -0.94819246447E+01 -0.77170174453E+00  0.95145553102E+01  0.51100000000E-03 0. -1.
        -11    1    3    3    0    0 -0.89430717816E+01 -0.13481808231E+01  0.31266915934E+01  0.95693429766E+01  0.51100000000E-03 0.  1.
         12    1    3    3    0    0 -0.30980919328E+02  0.51729207282E+01  0.14861930188E+01  0.31444955732E+02  0.00000000000E+00 0. -1.
</event>
<event>
 7    1  0.1381607E-011  0.5052885E+02  0.7816164E-02  0.1300439E+00
        -11   -1    0    0    0    0  0.00000000000E+00  0.00000000000E+00  0.45593999997E+02  0.45594000000E+02  0.51100000000E-03 0.  1.
         11   -1    0    0    0    0 -0.00000000000E+00 -0.00000000000E+00 -0.45593999997E+02  0.45594000000E+02  0.51100000000E-03 0. -1.
    9900012    2    1    2    0    0 -0.16856238549E+01  0.39374386502E+02  0.99991439654E+01  0.50528849490E+02  0.29999968509E+02 0.  0.
         12    1    1    2    0    0  0.16856238549E+01 -0.39374386502E+02 -0.99991439654E+01  0.40659150510E+02  0.00000000000E+00 0. -1.
         11    1    3    3    0    0  0.40553785527E+01  0.79571790638E-01  0.38426173009E+01  0.55873191118E+01  0.51100000000E-03 0. -1.
        -11    1    3    3    0    0  0.62428703934E+01  0.14559196009E+02 -0.26884394205E+01  0.16067710663E+02  0.51100000000E-03 0.  1.
        -12    1    3    3    0    0 -0.11983872801E+02  0.24735618702E+02  0.88449660850E+01  0.28873819715E+02  0.00000000000E+00 0.  1.
</event>
<event>
 7    1  0.1381607E-011  0.5052886E+02  0.7816164E-02  0.1300439E+00
        -11   -1    0    0    0    0  0.00000000000E+00  0.00000000000E+00  0.45593999997E+02  0.45594000000E+02  0.51100000000E-03 0.  1.
         11   -1    0    0    0    0 -0.00000000000E+00 -0.00000000000E+00 -0.45593999997E+02  0.45594000000E+02  0.51100000000E-03 0. -1.
    9900012    2    1    2    0    0  0.23708026114E+02 -0.29798134987E+02  0.14253628581E+02  0.50528864758E+02  0.30000014919E+02 0.  0.
         12    1    1    2    0    0 -0.23708026114E+02  0.29798134987E+02 -0.14253628581E+02  0.40659135242E+02  0.00000000000E+00 0. -1.
         11    1    3    3    0    0  0.10615049025E+02 -0.71901844513E+01  0.61903842831E+01  0.14237235549E+02  0.51100000000E-03 0.  1.
        -11    1    3    3    0    0  0.17270506715E+02 -0.63201316949E+01  0.60309415346E+01  0.19354243021E+02  0.51100000000E-03 0. -1.
         12    1    3    3    0    0 -0.41775296269E+01 -0.16287818841E+02  0.20323027631E+01  0.16937386188E+02  0.00000000000E+00 0. -1.
</event>
<event>
 7    1  0.1381607E-011  0.5052886E+02  0.7816164E-02  0.1300439E+00
        -11   -1    0    0    0    0  0.00000000000E+00  0.00000000000E+00  0.45593999997E+02  0.45594000000E+02  0.51100000000E-03 0.  1.
         11   -1    0    0    0    0 -0.00000000000E+00 -0.00000000000E+00 -0.45593999997E+02  0.45594000000E+02  0.51100000000E-03 0. -1.
    9900012    2    1    2    0    0  0.42840766107E+01  0.11737193418E+02  0.38691740563E+02  0.50528858229E+02  0.29999995073E+02 0.  0.
         12    1    1    2    0    0 -0.42840766107E+01 -0.11737193418E+02 -0.38691740563E+02  0.40659141771E+02  0.00000000000E+00 0. -1.
         11    1    3    3    0    0  0.19705526476E+01  0.10305829323E+02  0.74773552911E+01  0.12884255438E+02  0.51100000000E-03 0.  1.
        -11    1    3    3    0    0 -0.42565163795E+01 -0.82587250822E+01  0.15024505568E+02  0.17665226845E+02  0.51100000000E-03 0. -1.
         12    1    3    3    0    0  0.65700403426E+01  0.96900891766E+01  0.16189879704E+02  0.19979375946E+02  0.00000000000E+00 0. -1.
</event>
<event>
 7    1  0.1381607E-011  0.5052887E+02  0.7816164E-02  0.1300439E+00
        -11   -1    0    0    0    0  0.00000000000E+00  0.00000000000E+00  0.45593999997E+02  0.45594000000E+02  0.51100000000E-03 0. -1.
         11   -1    0    0    0    0 -0.00000000000E+00 -0.00000000000E+00 -0.45593999997E+02  0.45594000000E+02  0.51100000000E-03 0.  1.
    9900012    2    1    2    0    0 -0.26796206083E+01  0.62419799582E+01 -0.40087686046E+02  0.50528865074E+02  0.30000015878E+02 0.  0.
         12    1    1    2    0    0  0.26796206083E+01 -0.62419799582E+01  0.40087686046E+02  0.40659134926E+02  0.00000000000E+00 0. -1.
         11    1    3    3    0    0 -0.28775274620E+01  0.15063029382E+01 -0.11304713782E+02  0.11762043479E+02  0.51100000000E-03 0. -1.
        -11    1    3    3    0    0  0.89669313638E+00 -0.99318961094E+01 -0.59282604728E+01  0.11601331450E+02  0.51100000000E-03 0.  1.
         12    1    3    3    0    0 -0.69878628269E+00  0.14667573129E+02 -0.22854711791E+02  0.27165490145E+02  0.00000000000E+00 0. -1.
</event>
<event>
 7    1  0.1381607E-011  0.5052885E+02  0.7816164E-02  0.1300439E+00
        -11   -1    0    0    0    0  0.00000000000E+00  0.00000000000E+00  0.45593999997E+02  0.45594000000E+02  0.51100000000E-03 0.  1.
         11   -1    0    0    0    0 -0.00000000000E+00 -0.00000000000E+00 -0.45593999997E+02  0.45594000000E+02  0.51100000000E-03 0. -1.
    9900012    2    1    2    0    0  0.18385334465E+02  0.87292464318E+01  0.35198673142E+02  0.50528845341E+02  0.29999955897E+02 0.  0.
         12    1    1    2    0    0 -0.18385334465E+02 -0.87292464318E+01 -0.35198673142E+02  0.40659154659E+02  0.00000000000E+00 0. -1.
         11    1    3    3    0    0 -0.26196486310E+00  0.73073427751E+01  0.25958677296E+01  0.77591503113E+01  0.51100000000E-03 0. -1.
        -11    1    3    3    0    0  0.59149517971E+01  0.75579459643E+01  0.24872778800E+02  0.26660163680E+02  0.51100000000E-03 0.  1.
         12    1    3    3    0    0  0.12732347531E+02 -0.61360423077E+01  0.77300266123E+01  0.16109531349E+02  0.00000000000E+00 0. -1.
</event>
<event>
 7    1  0.1381607E-011  0.5052887E+02  0.7816164E-02  0.1300439E+00
        -11   -1    0    0    0    0  0.00000000000E+00  0.00000000000E+00  0.45593999997E+02  0.45594000000E+02  0.51100000000E-03 0. -1.
         11   -1    0    0    0    0 -0.00000000000E+00 -0.00000000000E+00 -0.45593999997E+02  0.45594000000E+02  0.51100000000E-03 0.  1.
    9900012    2    1    2    0    0 -0.30001974110E+02 -0.69556689685E+01 -0.26545532383E+02  0.50528867314E+02  0.30000022687E+02 0.  0.
         12    1    1    2    0    0  0.30001974110E+02  0.69556689685E+01  0.26545532383E+02  0.40659132686E+02  0.00000000000E+00 0. -1.
         11    1    3    3    0    0 -0.89827338686E+01  0.76772359025E+01 -0.15455924831E+02  0.19455463796E+02  0.51100000000E-03 0. -1.
        -11    1    3    3    0    0 -0.55298679609E+00 -0.39303923362E+01 -0.63623387134E+01  0.74988754142E+01  0.51100000000E-03 0.  1.
         12    1    3    3    0    0 -0.20466253445E+02 -0.10702512535E+02 -0.47272688385E+01  0.23574528104E+02  0.00000000000E+00 0. -1.
</event>
<event>
 7    1  0.1381607E-011  0.5052886E+02  0.7816164E-02  0.1300439E+00
        -11   -1    0    0    0    0  0.00000000000E+00  0.00000000000E+00  0.45593999997E+02  0.45594000000E+02  0.51100000000E-03 0.  1.
         11   -1    0    0    0    0 -0.00000000000E+00 -0.00000000000E+00 -0.45593999997E+02  0.45594000000E+02  0.51100000000E-03 0. -1.
    9900012    2    1    2    0    0  0.67579580717E+01 -0.96099102435E+01  0.38924871356E+02  0.50528856105E+02  0.29999988617E+02 0.  0.
         12    1    1    2    0    0 -0.67579580717E+01  0.96099102435E+01 -0.38924871356E+02  0.40659143895E+02  0.00000000000E+00 0. -1.
         11    1    3    3    0    0 -0.28745230442E+01 -0.64010278485E+00  0.13309762415E+02  0.13631668647E+02  0.51100000000E-03 0. -1.
        -11    1    3    3    0    0 -0.49053503694E+01 -0.39152862521E+01  0.19239769664E+02  0.20237605236E+02  0.51100000000E-03 0.  1.
         12    1    3    3    0    0  0.14537831485E+02 -0.50545212066E+01  0.63753392769E+01  0.16659582222E+02  0.00000000000E+00 0. -1.
</event>
<event>
 7    1  0.1381607E-011  0.5052886E+02  0.7816164E-02  0.1300439E+00
        -11   -1    0    0    0    0  0.00000000000E+00  0.00000000000E+00  0.45593999997E+02  0.45594000000E+02  0.51100000000E-03 0.  1.
         11   -1    0    0    0    0 -0.00000000000E+00 -0.00000000000E+00 -0.45593999997E+02  0.45594000000E+02  0.51100000000E-03 0. -1.
    9900012    2    1    2    0    0 -0.17996499196E+02 -0.26269806673E+02  0.25282189447E+02  0.50528857987E+02  0.29999994337E+02 0.  0.
         12    1    1    2    0    0  0.17996499196E+02  0.26269806673E+02 -0.25282189447E+02  0.40659142013E+02  0.00000000000E+00 0. -1.
         11    1    3    3    0    0 -0.45209843561E+01 -0.23929372379E+02  0.37676752333E+01  0.24642433705E+02  0.51100000000E-03 0. -1.
        -11    1    3    3    0    0 -0.43255016832E+01 -0.13971835124E+01  0.37945203205E+01  0.59211883353E+01  0.51100000000E-03 0.  1.
         12    1    3    3    0    0 -0.91500131571E+01 -0.94325078239E+00  0.17719993894E+02  0.19965235947E+02  0.00000000000E+00 0. -1.
</event>
<event>
 7    1  0.1381607E-011  0.5052886E+02  0.7816164E-02  0.1300439E+00
        -11   -1    0    0    0    0  0.00000000000E+00  0.00000000000E+00  0.45593999997E+02  0.45594000000E+02  0.51100000000E-03 0.  1.
         11   -1    0    0    0    0 -0.00000000000E+00 -0.00000000000E+00 -0.45593999997E+02  0.45594000000E+02  0.51100000000E-03 0. -1.
    9900012    2    1    2    0    0  0.87163183242E+01 -0.23481172414E+02  0.32028521553E+02  0.50528857659E+02  0.29999993339E+02 0.  0.
         12    1    1    2    0    0 -0.87163183242E+01  0.23481172414E+02 -0.32028521553E+02  0.40659142341E+02  0.00000000000E+00 0. -1.
         11    1    3    3    0    0 -0.32898900530E+01 -0.12765120242E+02  0.44238749762E+01  0.13904759668E+02  0.51100000000E-03 0. -1.
        -11    1    3    3    0    0 -0.17630440507E+01 -0.10111613430E+02  0.12563444656E+02  0.16223230023E+02  0.51100000000E-03 0.  1.
        -12    1    3    3    0    0  0.13769252428E+02 -0.60443874120E+00  0.15041201921E+02  0.20400867968E+02  0.00000000000E+00 0.  1.
</event>
<event>
 7    1  0.1381607E-011  0.5052885E+02  0.7816164E-02  0.1300439E+00
        -11   -1    0    0    0    0  0.00000000000E+00  0.00000000000E+00  0.45593999997E+02  0.45594000000E+02  0.51100000000E-03 0. -1.
         11   -1    0    0    0    0 -0.00000000000E+00 -0.00000000000E+00 -0.45593999997E+02  0.45594000000E+02  0.51100000000E-03 0.  1.
    9900012    2    1    2    0    0 -0.24831354738E+02 -0.30271079129E+02 -0.10965046741E+02  0.50528847773E+02  0.29999963292E+02 0.  0.
         12    1    1    2    0    0  0.24831354738E+02  0.30271079129E+02  0.10965046741E+02  0.40659152227E+02  0.00000000000E+00 0. -1.
         11    1    3    3    0    0 -0.18149163970E+02 -0.19359223479E+02  0.23490365113E+01  0.26640001113E+02  0.51100000000E-03 0. -1.
        -11    1    3    3    0    0 -0.73210020824E+01  0.10483416665E+01 -0.26622806184E+01  0.78602690852E+01  0.51100000000E-03 0.  1.
        -12    1    3    3    0    0  0.63881131375E+00 -0.11960197316E+02 -0.10651802634E+02  0.16028577575E+02  0.00000000000E+00 0.  1.
</event>
<event>
 7    1  0.1381607E-011  0.5052886E+02  0.7816164E-02  0.1300439E+00
        -11   -1    0    0    0    0  0.00000000000E+00  0.00000000000E+00  0.45593999997E+02  0.45594000000E+02  0.51100000000E-03 0. -1.
         11   -1    0    0    0    0 -0.00000000000E+00 -0.00000000000E+00 -0.45593999997E+02  0.45594000000E+02  0.51100000000E-03 0.  1.
    9900012    2    1    2    0    0 -0.24092577400E+02  0.32739727110E+02 -0.90776268860E+00  0.50528855271E+02  0.29999986081E+02 0.  0.
         12    1    1    2    0    0  0.24092577400E+02 -0.32739727110E+02  0.90776268860E+00  0.40659144729E+02  0.00000000000E+00 0. -1.
         11    1    3    3    0    0 -0.44801300386E+01  0.67072640597E+01  0.94211194095E+01  0.12402275901E+02  0.51100000000E-03 0. -1.
        -11    1    3    3    0    0 -0.52430026705E+01  0.20731811277E+02 -0.61040299637E+01  0.22238620863E+02  0.51100000000E-03 0.  1.
        -12    1    3    3    0    0 -0.14369444691E+02  0.53006517732E+01 -0.42248521344E+01  0.15887958507E+02  0.00000000000E+00 0.  1.
</event>
<event>
 7    1  0.1381607E-011  0.5052887E+02  0.7816164E-02  0.1300439E+00
        -11   -1    0    0    0    0  0.00000000000E+00  0.00000000000E+00  0.45593999997E+02  0.45594000000E+02  0.51100000000E-03 0. -1.
         11   -1    0    0    0    0 -0.00000000000E+00 -0.00000000000E+00 -0.45593999997E+02  0.45594000000E+02  0.51100000000E-03 0.  1.
    9900012    2    1    2    0    0  0.28695054371E+02 -0.13213616145E+02 -0.25596077586E+02  0.50528868371E+02  0.30000025902E+02 0.  0.
         12    1    1    2    0    0 -0.28695054371E+02  0.13213616145E+02  0.25596077586E+02  0.40659131629E+02  0.00000000000E+00 0. -1.
         11    1    3    3    0    0 -0.51179577896E+00 -0.48223934397E+01  0.16271576369E+01  0.51151789453E+01  0.51100000000E-03 0. -1.
        -11    1    3    3    0    0  0.17086052489E+02 -0.76737928275E+01 -0.39186751629E+01  0.19135733624E+02  0.51100000000E-03 0.  1.
        -12    1    3    3    0    0  0.12120797661E+02 -0.71742987835E+00 -0.23304560060E+02  0.26277955802E+02  0.00000000000E+00 0.  1.
</event>
<event>
 7    1  0.1381607E-011  0.5052886E+02  0.7816164E-02  0.1300439E+00
        -11   -1    0    0    0    0  0.00000000000E+00  0.00000000000E+00  0.45593999997E+02  0.45594000000E+02  0.51100000000E-03 0. -1.
         11   -1    0    0    0    0 -0.00000000000E+00 -0.00000000000E+00 -0.45593999997E+02  0.45594000000E+02  0.51100000000E-03 0.  1.
    9900012    2    1    2    0    0  0.10323423481E+02 -0.38879882275E+02  0.59116296441E+01  0.50528859784E+02  0.29999999799E+02 0.  0.
         12    1    1    2    0    0 -0.10323423481E+02  0.38879882275E+02 -0.59116296441E+01  0.40659140216E+02  0.00000000000E+00 0. -1.
         11    1    3    3    0    0  0.74479606058E+01 -0.36679938616E+02  0.30253073884E+01  0.37550532608E+02  0.51100000000E-03 0. -1.
        -11    1    3    3    0    0 -0.57888641699E+00 -0.35914644273E+01 -0.38402048551E+01  0.52896975156E+01  0.51100000000E-03 0.  1.
         12    1    3    3    0    0  0.34543492918E+01  0.13915207687E+01  0.67265271108E+01  0.76886296602E+01  0.00000000000E+00 0. -1.
</event>
<event>
 7    1  0.1381607E-011  0.5052879E+02  0.7816164E-02  0.1300439E+00
        -11   -1    0    0    0    0  0.00000000000E+00  0.00000000000E+00  0.45593999997E+02  0.45594000000E+02  0.51100000000E-03 0.  1.
         11   -1    0    0    0    0 -0.00000000000E+00 -0.00000000000E+00 -0.45593999997E+02  0.45594000000E+02  0.51100000000E-03 0. -1.
    9900012    2    1    2    0    0  0.11120089010E+02 -0.25996546323E+01  0.39022516546E+02  0.50528789711E+02  0.29999786804E+02 0.  0.
         12    1    1    2    0    0 -0.11120089010E+02  0.25996546323E+01 -0.39022516546E+02  0.40659210289E+02  0.00000000000E+00 0. -1.
         11    1    3    3    0    0 -0.30491420130E+01  0.22282691667E+01 -0.27707079966E+01  0.46839378260E+01  0.51100000000E-03 0. -1.
        -11    1    3    3    0    0  0.67535485491E+01  0.71438884532E+00  0.66584601044E+01  0.95108285995E+01  0.51100000000E-03 0.  1.
        -12    1    3    3    0    0  0.74156824738E+01 -0.55423126443E+01  0.35134764438E+02  0.36334023285E+02  0.00000000000E+00 0.  1.
</event>
<event>
 7    1  0.1381607E-011  0.5052886E+02  0.7816164E-02  0.1300439E+00
        -11   -1    0    0    0    0  0.00000000000E+00  0.00000000000E+00  0.45593999997E+02  0.45594000000E+02  0.51100000000E-03 0. -1.
         11   -1    0    0    0    0 -0.00000000000E+00 -0.00000000000E+00 -0.45593999997E+02  0.45594000000E+02  0.51100000000E-03 0.  1.
    9900012    2    1    2    0    0 -0.12421892030E+02 -0.34745399712E+02  0.17076872809E+02  0.50528858498E+02  0.29999995890E+02 0.  0.
         12    1    1    2    0    0  0.12421892030E+02  0.34745399712E+02 -0.17076872809E+02  0.40659141502E+02  0.00000000000E+00 0. -1.
         11    1    3    3    0    0 -0.38688791591E+01 -0.19387362607E+02  0.11149200012E+01  0.19801037894E+02  0.51100000000E-03 0. -1.
        -11    1    3    3    0    0 -0.13659007277E+02 -0.91636014808E+01  0.50985437930E+01  0.17220198052E+02  0.51100000000E-03 0.  1.
         12    1    3    3    0    0  0.51059944063E+01 -0.61944356241E+01  0.10863409015E+02  0.13507622552E+02  0.00000000000E+00 0. -1.
</event>
<event>
 7    1  0.1381607E-011  0.5052886E+02  0.7816164E-02  0.1300439E+00
        -11   -1    0    0    0    0  0.00000000000E+00  0.00000000000E+00  0.45593999997E+02  0.45594000000E+02  0.51100000000E-03 0.  1.
         11   -1    0    0    0    0 -0.00000000000E+00 -0.00000000000E+00 -0.45593999997E+02  0.45594000000E+02  0.51100000000E-03 0. -1.
    9900012    2    1    2    0    0 -0.27670930147E+02  0.11224556926E+02  0.27595194452E+02  0.50528858221E+02  0.29999995048E+02 0.  0.
         12    1    1    2    0    0  0.27670930147E+02 -0.11224556926E+02 -0.27595194452E+02  0.40659141779E+02  0.00000000000E+00 0. -1.
         11    1    3    3    0    0 -0.20522118725E+02  0.89058253736E-02  0.81795707123E+01  0.22092143707E+02  0.51100000000E-03 0. -1.
        -11    1    3    3    0    0 -0.45820673781E+01  0.83955561511E+01  0.98431406599E+00  0.96150704098E+01  0.51100000000E-03 0.  1.
        -12    1    3    3    0    0 -0.25667440444E+01  0.28200949496E+01  0.18431309673E+02  0.18821644104E+02  0.00000000000E+00 0.  1.
</event>
<event>
 7    1  0.1381607E-011  0.5052887E+02  0.7816164E-02  0.1300439E+00
        -11   -1    0    0    0    0  0.00000000000E+00  0.00000000000E+00  0.45593999997E+02  0.45594000000E+02  0.51100000000E-03 0.  1.
         11   -1    0    0    0    0 -0.00000000000E+00 -0.00000000000E+00 -0.45593999997E+02  0.45594000000E+02  0.51100000000E-03 0. -1.
    9900012    2    1    2    0    0 -0.66401748870E+01 -0.15052448607E+02  0.37181946151E+02  0.50528865096E+02  0.30000015946E+02 0.  0.
         12    1    1    2    0    0  0.66401748870E+01  0.15052448607E+02 -0.37181946151E+02  0.40659134904E+02  0.00000000000E+00 0. -1.
         11    1    3    3    0    0 -0.37718720117E+00  0.21254525462E+01  0.95743782210E+01  0.98147102499E+01  0.51100000000E-03 0. -1.
        -11    1    3    3    0    0  0.52615205625E+01 -0.15218924024E+02  0.23157767379E+02  0.28206053204E+02  0.51100000000E-03 0.  1.
         12    1    3    3    0    0 -0.11524508248E+02 -0.19589771293E+01  0.44498005505E+01  0.12508101642E+02  0.00000000000E+00 0. -1.
</event>
<event>
 7    1  0.1381607E-011  0.5052886E+02  0.7816164E-02  0.1300439E+00
        -11   -1    0    0    0    0  0.00000000000E+00  0.00000000000E+00  0.45593999997E+02  0.45594000000E+02  0.51100000000E-03 0.  1.
         11   -1    0    0    0    0 -0.00000000000E+00 -0.00000000000E+00 -0.45593999997E+02  0.45594000000E+02  0.51100000000E-03 0. -1.
    9900012    2    1    2    0    0  0.21533245984E+02 -0.17550852345E+02  0.29689271325E+02  0.50528856718E+02  0.29999990480E+02 0.  0.
         12    1    1    2    0    0 -0.21533245984E+02  0.17550852345E+02 -0.29689271325E+02  0.40659143282E+02  0.00000000000E+00 0. -1.
         11    1    3    3    0    0 -0.40323806434E+01 -0.68912176201E+00 -0.30970542492E+01  0.51309577800E+01  0.51100000000E-03 0. -1.
        -11    1    3    3    0    0  0.61507404567E+01 -0.71429099465E+01  0.12732673571E+02  0.15842150965E+02  0.51100000000E-03 0.  1.
        -12    1    3    3    0    0  0.19414886171E+02 -0.97188206366E+01  0.20053652003E+02  0.29555747973E+02  0.00000000000E+00 0.  1.
</event>
<event>
 7    1  0.1381607E-011  0.5052885E+02  0.7816164E-02  0.1300439E+00
        -11   -1    0    0    0    0  0.00000000000E+00  0.00000000000E+00  0.45593999997E+02  0.45594000000E+02  0.51100000000E-03 0. -1.
         11   -1    0    0    0    0 -0.00000000000E+00 -0.00000000000E+00 -0.45593999997E+02  0.45594000000E+02  0.51100000000E-03 0.  1.
    9900012    2    1    2    0    0  0.26134554148E+02 -0.31032759604E+02  0.26682185318E+01  0.50528849993E+02  0.29999970039E+02 0.  0.
         12    1    1    2    0    0 -0.26134554148E+02  0.31032759604E+02 -0.26682185318E+01  0.40659150007E+02  0.00000000000E+00 0. -1.
         11    1    3    3    0    0  0.78029611865E+01  0.42032157646E+01  0.31718229779E+00  0.88686995052E+01  0.51100000000E-03 0. -1.
        -11    1    3    3    0    0  0.64755261311E+01 -0.66953493249E+01  0.51238000968E+01  0.10630779320E+02  0.51100000000E-03 0.  1.
        -12    1    3    3    0    0  0.11856066830E+02 -0.28540626044E+02 -0.27727638628E+01  0.31029371168E+02  0.00000000000E+00 0.  1.
</event>
<event>
 7    1  0.1381607E-011  0.5052894E+02  0.7816164E-02  0.1300439E+00
        -11   -1    0    0    0    0  0.00000000000E+00  0.00000000000E+00  0.45593999997E+02  0.45594000000E+02  0.51100000000E-03 0.  1.
         11   -1    0    0    0    0 -0.00000000000E+00 -0.00000000000E+00 -0.45593999997E+02  0.45594000000E+02  0.51100000000E-03 0. -1.
    9900012    2    1    2    0    0  0.93447595233E+00  0.11950208969E+02  0.38852004423E+02  0.50528942124E+02  0.30000250078E+02 0.  0.
         12    1    1    2    0    0 -0.93447595233E+00 -0.11950208969E+02 -0.38852004423E+02  0.40659057876E+02  0.00000000000E+00 0. -1.
         11    1    3    3    0    0  0.10501259940E+01  0.30273084921E+01 -0.24294097788E+01  0.40211184320E+01  0.51100000000E-03 0. -1.
        -11    1    3    3    0    0 -0.60487420969E+01  0.84128303086E+01  0.38618817084E+02  0.39984697423E+02  0.51100000000E-03 0.  1.
         12    1    3    3    0    0  0.59330920552E+01  0.51007016830E+00  0.26625971179E+01  0.65231262692E+01  0.00000000000E+00 0. -1.
</event>
<event>
 7    1  0.1381607E-011  0.5052885E+02  0.7816164E-02  0.1300439E+00
        -11   -1    0    0    0    0  0.00000000000E+00  0.00000000000E+00  0.45593999997E+02  0.45594000000E+02  0.51100000000E-03 0.  1.
         11   -1    0    0    0    0 -0.00000000000E+00 -0.00000000000E+00 -0.45593999997E+02  0.45594000000E+02  0.51100000000E-03 0. -1.
    9900012    2    1    2    0    0 -0.11022642471E+01 -0.87307136113E+01  0.39695412171E+02  0.50528854730E+02  0.29999984437E+02 0.  0.
         12    1    1    2    0    0  0.11022642471E+01  0.87307136113E+01 -0.39695412171E+02  0.40659145270E+02  0.00000000000E+00 0. -1.
         11    1    3    3    0    0  0.50260924567E+01 -0.42411127266E+01  0.95036363448E+01  0.11557151318E+02  0.51100000000E-03 0. -1.
        -11    1    3    3    0    0  0.75335124227E+01 -0.72098508845E+01  0.15898832570E+02  0.19013380461E+02  0.51100000000E-03 0.  1.
         12    1    3    3    0    0 -0.13661869127E+02  0.27202499998E+01  0.14292943257E+02  0.19958322951E+02  0.00000000000E+00 0. -1.
</event>
<event>
 7    1  0.1381607E-011  0.5052887E+02  0.7816164E-02  0.1300439E+00
        -11   -1    0    0    0    0  0.00000000000E+00  0.00000000000E+00  0.45593999997E+02  0.45594000000E+02  0.51100000000E-03 0.  1.
         11   -1    0    0    0    0 -0.00000000000E+00 -0.00000000000E+00 -0.45593999997E+02  0.45594000000E+02  0.51100000000E-03 0. -1.
    9900012    2    1    2    0    0  0.33481716727E+02  0.22669396639E+02  0.42705584124E+01  0.50528873496E+02  0.30000041478E+02 0.  0.
         12    1    1    2    0    0 -0.33481716727E+02 -0.22669396639E+02 -0.42705584124E+01  0.40659126504E+02  0.00000000000E+00 0. -1.
         11    1    3    3    0    0  0.69125427678E+01  0.93311541494E+01  0.89477990707E+01  0.14660040714E+02  0.51100000000E-03 0. -1.
        -11    1    3    3    0    0  0.82502659013E+01 -0.47960993696E+01 -0.31400762312E+01  0.10046369275E+02  0.51100000000E-03 0.  1.
         12    1    3    3    0    0  0.18318908058E+02  0.18134341859E+02 -0.15371644270E+01  0.25822463507E+02  0.00000000000E+00 0. -1.
</event>
<event>
 7    1  0.1381607E-011  0.5052886E+02  0.7816164E-02  0.1300439E+00
        -11   -1    0    0    0    0  0.00000000000E+00  0.00000000000E+00  0.45593999997E+02  0.45594000000E+02  0.51100000000E-03 0. -1.
         11   -1    0    0    0    0 -0.00000000000E+00 -0.00000000000E+00 -0.45593999997E+02  0.45594000000E+02  0.51100000000E-03 0.  1.
    9900012    2    1    2    0    0 -0.37219066967E+02 -0.15934568499E+02  0.37411553564E+01  0.50528860037E+02  0.30000000568E+02 0.  0.
         12    1    1    2    0    0  0.37219066967E+02  0.15934568499E+02 -0.37411553564E+01  0.40659139963E+02  0.00000000000E+00 0. -1.
         11    1    3    3    0    0 -0.60343796688E+01  0.45240413681E+01 -0.16402913609E+01  0.77182410105E+01  0.51100000000E-03 0. -1.
        -11    1    3    3    0    0 -0.22000618690E+02 -0.38388840998E+01 -0.20341790593E+01  0.22425479673E+02  0.51100000000E-03 0.  1.
        -12    1    3    3    0    0 -0.91840686087E+01 -0.16619725767E+02  0.74156257766E+01  0.20385139353E+02  0.00000000000E+00 0.  1.
</event>
<event>
 7    1  0.1381607E-011  0.5052886E+02  0.7816164E-02  0.1300439E+00
        -11   -1    0    0    0    0  0.00000000000E+00  0.00000000000E+00  0.45593999997E+02  0.45594000000E+02  0.51100000000E-03 0.  1.
         11   -1    0    0    0    0 -0.00000000000E+00 -0.00000000000E+00 -0.45593999997E+02  0.45594000000E+02  0.51100000000E-03 0. -1.
    9900012    2    1    2    0    0 -0.31326133158E+02 -0.90074707316E+01  0.24304406341E+02  0.50528864308E+02  0.30000013551E+02 0.  0.
         12    1    1    2    0    0  0.31326133158E+02  0.90074707316E+01 -0.24304406341E+02  0.40659135692E+02  0.00000000000E+00 0. -1.
         11    1    3    3    0    0 -0.85244928917E+01 -0.71720512420E+01 -0.46623350786E+01  0.12076533721E+02  0.51100000000E-03 0. -1.
        -11    1    3    3    0    0 -0.78275662399E+01 -0.45843316035E+01  0.59232561675E+01  0.10833829119E+02  0.51100000000E-03 0.  1.
        -12    1    3    3    0    0 -0.14974074026E+02  0.27489121140E+01  0.23043485252E+02  0.27618501468E+02  0.00000000000E+00 0.  1.
</event>
<event>
 7    1  0.1381607E-011  0.5052885E+02  0.7816164E-02  0.1300439E+00
        -11   -1    0    0    0    0  0.00000000000E+00  0.00000000000E+00  0.45593999997E+02  0.45594000000E+02  0.51100000000E-03 0. -1.
         11   -1    0    0    0    0 -0.00000000000E+00 -0.00000000000E+00 -0.45593999997E+02  0.45594000000E+02  0.51100000000E-03 0.  1.
    9900012    2    1    2    0    0  0.23063148670E+02 -0.16835959912E+02 -0.28944915540E+02  0.50528849636E+02  0.29999968954E+02 0.  0.
         12    1    1    2    0    0 -0.23063148670E+02  0.16835959912E+02  0.28944915540E+02  0.40659150364E+02  0.00000000000E+00 0. -1.
         11    1    3    3    0    0 -0.48611405771E+00  0.42334225600E+01  0.16908379123E+01  0.45844417932E+01  0.51100000000E-03 0. -1.
        -11    1    3    3    0    0  0.17192603423E+01 -0.25183759775E+01 -0.10485350692E+02  0.10919736860E+02  0.51100000000E-03 0.  1.
         12    1    3    3    0    0  0.21830002385E+02 -0.18551006494E+02 -0.20150402760E+02  0.35024670983E+02  0.00000000000E+00 0. -1.
</event>
<event>
 7    1  0.1381607E-011  0.5052886E+02  0.7816164E-02  0.1300439E+00
        -11   -1    0    0    0    0  0.00000000000E+00  0.00000000000E+00  0.45593999997E+02  0.45594000000E+02  0.51100000000E-03 0. -1.
         11   -1    0    0    0    0 -0.00000000000E+00 -0.00000000000E+00 -0.45593999997E+02  0.45594000000E+02  0.51100000000E-03 0.  1.
    9900012    2    1    2    0    0  0.18454367831E+02  0.25892288874E+02 -0.25341502247E+02  0.50528855256E+02  0.29999986036E+02 0.  0.
         12    1    1    2    0    0 -0.18454367831E+02 -0.25892288874E+02  0.25341502247E+02  0.40659144744E+02  0.00000000000E+00 0. -1.
         11    1    3    3    0    0  0.19557532094E+01  0.89076085516E+01 -0.19099382963E+02  0.21164992099E+02  0.51100000000E-03 0. -1.
        -11    1    3    3    0    0  0.14450097167E+02  0.45721408098E+01 -0.71352356536E+01  0.16751757156E+02  0.51100000000E-03 0.  1.
         12    1    3    3    0    0  0.20485174541E+01  0.12412539513E+02  0.89311636952E+00  0.12612106000E+02  0.00000000000E+00 0. -1.
</event>
<event>
 7    1  0.1381607E-011  0.5052887E+02  0.7816164E-02  0.1300439E+00
        -11   -1    0    0    0    0  0.00000000000E+00  0.00000000000E+00  0.45593999997E+02  0.45594000000E+02  0.51100000000E-03 0. -1.
         11   -1    0    0    0    0 -0.00000000000E+00 -0.00000000000E+00 -0.45593999997E+02  0.45594000000E+02  0.51100000000E-03 0.  1.
    9900012    2    1    2    0    0 -0.25716088445E+02  0.23660271476E+02 -0.20785561140E+02  0.50528865687E+02  0.30000017742E+02 0.  0.
         12    1    1    2    0    0  0.25716088445E+02 -0.23660271476E+02  0.20785561140E+02  0.40659134313E+02  0.00000000000E+00 0. -1.
         11    1    3    3    0    0 -0.15103804111E+02  0.89813989195E+01 -0.11729487679E+02  0.21127501193E+02  0.51100000000E-03 0. -1.
        -11    1    3    3    0    0 -0.36170251340E+00  0.11443607678E+02 -0.13559794368E+02  0.17746971825E+02  0.51100000000E-03 0.  1.
         12    1    3    3    0    0 -0.10250581820E+02  0.32352648781E+01  0.45037209070E+01  0.11654392669E+02  0.00000000000E+00 0. -1.
</event>
<event>
 7    1  0.1381607E-011  0.5052886E+02  0.7816164E-02  0.1300439E+00
        -11   -1    0    0    0    0  0.00000000000E+00  0.00000000000E+00  0.45593999997E+02  0.45594000000E+02  0.51100000000E-03 0. -1.
         11   -1    0    0    0    0 -0.00000000000E+00 -0.00000000000E+00 -0.45593999997E+02  0.45594000000E+02  0.51100000000E-03 0.  1.
    9900012    2    1    2    0    0 -0.30507164872E+02 -0.33445743769E+01 -0.26670060810E+02  0.50528862898E+02  0.30000009265E+02 0.  0.
         12    1    1    2    0    0  0.30507164872E+02  0.33445743769E+01  0.26670060810E+02  0.40659137102E+02  0.00000000000E+00 0. -1.
         11    1    3    3    0    0 -0.18881561647E+01 -0.56595857810E+01 -0.96401952890E+01  0.11337081211E+02  0.51100000000E-03 0. -1.
        -11    1    3    3    0    0 -0.93302119061E-02  0.63829325006E+01 -0.26038813661E+01  0.68936284198E+01  0.51100000000E-03 0.  1.
        -12    1    3    3    0    0 -0.28609678495E+02 -0.40679210964E+01 -0.14425984155E+02  0.32298153267E+02  0.00000000000E+00 0.  1.
</event>
<event>
 7    1  0.1381607E-011  0.5052890E+02  0.7816164E-02  0.1300439E+00
        -11   -1    0    0    0    0  0.00000000000E+00  0.00000000000E+00  0.45593999997E+02  0.45594000000E+02  0.51100000000E-03 0. -1.
         11   -1    0    0    0    0 -0.00000000000E+00 -0.00000000000E+00 -0.45593999997E+02  0.45594000000E+02  0.51100000000E-03 0.  1.
    9900012    2    1    2    0    0  0.33653647481E+02 -0.22810312354E+02 -0.53262929220E+00  0.50528904678E+02  0.30000136258E+02 0.  0.
         12    1    1    2    0    0 -0.33653647481E+02  0.22810312354E+02  0.53262929220E+00  0.40659095322E+02  0.00000000000E+00 0. -1.
         11    1    3    3    0    0  0.14128219434E+01  0.28854445941E+01  0.78230617336E+00  0.33066387101E+01  0.51100000000E-03 0. -1.
        -11    1    3    3    0    0  0.50882256567E+01 -0.13434520575E+02  0.74289556728E+01  0.16172994963E+02  0.51100000000E-03 0.  1.
        -12    1    3    3    0    0  0.27152599881E+02 -0.12261236374E+02 -0.87438911384E+01  0.31049271005E+02  0.00000000000E+00 0.  1.
</event>
<event>
 7    1  0.1381607E-011  0.5052887E+02  0.7816164E-02  0.1300439E+00
        -11   -1    0    0    0    0  0.00000000000E+00  0.00000000000E+00  0.45593999997E+02  0.45594000000E+02  0.51100000000E-03 0.  1.
         11   -1    0    0    0    0 -0.00000000000E+00 -0.00000000000E+00 -0.45593999997E+02  0.45594000000E+02  0.51100000000E-03 0. -1.
    9900012    2    1    2    0    0 -0.10445597103E+02 -0.29384271128E+02  0.26088678632E+02  0.50528867677E+02  0.30000023791E+02 0.  0.
         12    1    1    2    0    0  0.10445597103E+02  0.29384271128E+02 -0.26088678632E+02  0.40659132323E+02  0.00000000000E+00 0. -1.
         11    1    3    3    0    0 -0.37512205687E+01 -0.69013850810E+01 -0.10302744699E+01  0.79222621476E+01  0.51100000000E-03 0. -1.
        -11    1    3    3    0    0 -0.40328566399E+01  0.38930861524E+01  0.16464388463E+01  0.58421583001E+01  0.51100000000E-03 0.  1.
        -12    1    3    3    0    0 -0.26615198941E+01 -0.26375972199E+02  0.25472514255E+02  0.36764447229E+02  0.00000000000E+00 0.  1.
</event>
<event>
 7    1  0.1381607E-011  0.5052885E+02  0.7816164E-02  0.1300439E+00
        -11   -1    0    0    0    0  0.00000000000E+00  0.00000000000E+00  0.45593999997E+02  0.45594000000E+02  0.51100000000E-03 0. -1.
         11   -1    0    0    0    0 -0.00000000000E+00 -0.00000000000E+00 -0.45593999997E+02  0.45594000000E+02  0.51100000000E-03 0.  1.
    9900012    2    1    2    0    0  0.22068932127E+00  0.72669598733E+01 -0.40003858617E+02  0.50528854487E+02  0.29999983698E+02 0.  0.
         12    1    1    2    0    0 -0.22068932127E+00 -0.72669598733E+01  0.40003858617E+02  0.40659145513E+02  0.00000000000E+00 0. -1.
         11    1    3    3    0    0 -0.27653676165E+01 -0.45222000964E+01 -0.13379761153E+02  0.14391510016E+02  0.51100000000E-03 0. -1.
        -11    1    3    3    0    0 -0.71002629545E+01  0.11691291878E+02 -0.19370676767E+02  0.23713354011E+02  0.51100000000E-03 0.  1.
         12    1    3    3    0    0  0.10086319892E+02  0.97868091776E-01 -0.72534206980E+01  0.12423990460E+02  0.00000000000E+00 0. -1.
</event>
<event>
 7    1  0.1381607E-011  0.5052889E+02  0.7816164E-02  0.1300439E+00
        -11   -1    0    0    0    0  0.00000000000E+00  0.00000000000E+00  0.45593999997E+02  0.45594000000E+02  0.51100000000E-03 0. -1.
         11   -1    0    0    0    0 -0.00000000000E+00 -0.00000000000E+00 -0.45593999997E+02  0.45594000000E+02  0.51100000000E-03 0.  1.
    9900012    2    1    2    0    0 -0.38459269568E+02 -0.11516163298E+02  0.64362930386E+01  0.50528889079E+02  0.30000088845E+02 0.  0.
         12    1    1    2    0    0  0.38459269568E+02  0.11516163298E+02 -0.64362930386E+01  0.40659110921E+02  0.00000000000E+00 0. -1.
         11    1    3    3    0    0 -0.12150213339E+02  0.23072867602E+01  0.25363494770E+01  0.12624750505E+02  0.51100000000E-03 0.  1.
        -11    1    3    3    0    0 -0.97630515425E+01 -0.16826727766E+02 -0.30808940330E+01  0.19696391828E+02  0.51100000000E-03 0. -1.
         12    1    3    3    0    0 -0.16546004686E+02  0.30032777075E+01  0.69808375947E+01  0.18207746747E+02  0.00000000000E+00 0. -1.
</event>
<event>
 7    1  0.1381607E-011  0.5052886E+02  0.7816164E-02  0.1300439E+00
        -11   -1    0    0    0    0  0.00000000000E+00  0.00000000000E+00  0.45593999997E+02  0.45594000000E+02  0.51100000000E-03 0.  1.
         11   -1    0    0    0    0 -0.00000000000E+00 -0.00000000000E+00 -0.45593999997E+02  0.45594000000E+02  0.51100000000E-03 0. -1.
    9900012    2    1    2    0    0 -0.19379727359E+02 -0.21897655757E+02  0.28250391006E+02  0.50528858934E+02  0.29999997217E+02 0.  0.
         12    1    1    2    0    0  0.19379727359E+02  0.21897655757E+02 -0.28250391006E+02  0.40659141066E+02  0.00000000000E+00 0. -1.
         11    1    3    3    0    0 -0.11119463624E+02 -0.93207189288E+01  0.18593371408E+01  0.14627898260E+02  0.51100000000E-03 0. -1.
        -11    1    3    3    0    0 -0.75775396078E+01 -0.16862667989E+02  0.15320347896E+02  0.24010034114E+02  0.51100000000E-03 0.  1.
         12    1    3    3    0    0 -0.68272412732E+00  0.42857311606E+01  0.11070705969E+02  0.11890926560E+02  0.00000000000E+00 0. -1.
</event>
<event>
 7    1  0.1381607E-011  0.5052886E+02  0.7816164E-02  0.1300439E+00
        -11   -1    0    0    0    0  0.00000000000E+00  0.00000000000E+00  0.45593999997E+02  0.45594000000E+02  0.51100000000E-03 0. -1.
         11   -1    0    0    0    0 -0.00000000000E+00 -0.00000000000E+00 -0.45593999997E+02  0.45594000000E+02  0.51100000000E-03 0.  1.
    9900012    2    1    2    0    0  0.24990836805E+02  0.26207929887E+02  0.18486975645E+02  0.50528858572E+02  0.29999996115E+02 0.  0.
         12    1    1    2    0    0 -0.24990836805E+02 -0.26207929887E+02 -0.18486975645E+02  0.40659141428E+02  0.00000000000E+00 0. -1.
         11    1    3    3    0    0  0.19688340677E+02  0.53865441192E+00  0.11202408488E+02  0.22658659788E+02  0.51100000000E-03 0. -1.
        -11    1    3    3    0    0 -0.11838650739E+01  0.29540534225E+01  0.12094600859E+00  0.31847443122E+01  0.51100000000E-03 0.  1.
        -12    1    3    3    0    0  0.64863612024E+01  0.22715222052E+02  0.71636211479E+01  0.24685454472E+02  0.00000000000E+00 0.  1.
</event>
<event>
 7    1  0.1381607E-011  0.5052886E+02  0.7816164E-02  0.1300439E+00
        -11   -1    0    0    0    0  0.00000000000E+00  0.00000000000E+00  0.45593999997E+02  0.45594000000E+02  0.51100000000E-03 0.  1.
         11   -1    0    0    0    0 -0.00000000000E+00 -0.00000000000E+00 -0.45593999997E+02  0.45594000000E+02  0.51100000000E-03 0. -1.
    9900012    2    1    2    0    0  0.79906970424E+01 -0.39698847763E+02  0.36491519326E+01  0.50528855115E+02  0.29999985607E+02 0.  0.
         12    1    1    2    0    0 -0.79906970424E+01  0.39698847763E+02 -0.36491519326E+01  0.40659144885E+02  0.00000000000E+00 0. -1.
         11    1    3    3    0    0 -0.60764662412E+01 -0.12123759209E+02  0.58034678176E+01  0.14750905677E+02  0.51100000000E-03 0. -1.
        -11    1    3    3    0    0  0.11775862914E+02 -0.18914971812E+02  0.66147358744E+01  0.23242242512E+02  0.51100000000E-03 0.  1.
         12    1    3    3    0    0  0.22913003700E+01 -0.86601167419E+01 -0.87690517594E+01  0.12535706926E+02  0.00000000000E+00 0. -1.
</event>
<event>
 7    1  0.1381607E-011  0.5052887E+02  0.7816164E-02  0.1300439E+00
        -11   -1    0    0    0    0  0.00000000000E+00  0.00000000000E+00  0.45593999997E+02  0.45594000000E+02  0.51100000000E-03 0. -1.
         11   -1    0    0    0    0 -0.00000000000E+00 -0.00000000000E+00 -0.45593999997E+02  0.45594000000E+02  0.51100000000E-03 0.  1.
    9900012    2    1    2    0    0 -0.36720798111E+02 -0.46375342185E+01 -0.16829769768E+02  0.50528869562E+02  0.30000029520E+02 0.  0.
         12    1    1    2    0    0  0.36720798111E+02  0.46375342185E+01  0.16829769768E+02  0.40659130438E+02  0.00000000000E+00 0. -1.
         11    1    3    3    0    0 -0.36454933581E+01  0.16275110990E+01  0.32042931309E+01  0.51191707269E+01  0.51100000000E-03 0. -1.
        -11    1    3    3    0    0 -0.44171741326E+01  0.49478856830E+01  0.26877514320E+01  0.71566059044E+01  0.51100000000E-03 0.  1.
         12    1    3    3    0    0 -0.28658130621E+02 -0.11212931001E+02 -0.22721814330E+02  0.38253092931E+02  0.00000000000E+00 0. -1.
</event>
<event>
 7    1  0.1381607E-011  0.5052886E+02  0.7816164E-02  0.1300439E+00
        -11   -1    0    0    0    0  0.00000000000E+00  0.00000000000E+00  0.45593999997E+02  0.45594000000E+02  0.51100000000E-03 0.  1.
         11   -1    0    0    0    0 -0.00000000000E+00 -0.00000000000E+00 -0.45593999997E+02  0.45594000000E+02  0.51100000000E-03 0. -1.
    9900012    2    1    2    0    0 -0.65524021539E+01  0.21070767991E+02  0.34150472382E+02  0.50528855867E+02  0.29999987893E+02 0.  0.
         12    1    1    2    0    0  0.65524021539E+01 -0.21070767991E+02 -0.34150472382E+02  0.40659144133E+02  0.00000000000E+00 0. -1.
         11    1    3    3    0    0  0.48654306309E+00 -0.18880197206E+01  0.43100866719E+00  0.19967752378E+01  0.51100000000E-03 0. -1.
        -11    1    3    3    0    0  0.72065728670E+01 -0.59064502532E+00  0.52639523300E+01  0.89438665255E+01  0.51100000000E-03 0.  1.
        -12    1    3    3    0    0 -0.14245518084E+02  0.23549432737E+02  0.28455511385E+02  0.39588214103E+02  0.00000000000E+00 0.  1.
</event>
<event>
 7    1  0.1381607E-011  0.5052888E+02  0.7816164E-02  0.1300439E+00
        -11   -1    0    0    0    0  0.00000000000E+00  0.00000000000E+00  0.45593999997E+02  0.45594000000E+02  0.51100000000E-03 0.  1.
         11   -1    0    0    0    0 -0.00000000000E+00 -0.00000000000E+00 -0.45593999997E+02  0.45594000000E+02  0.51100000000E-03 0. -1.
    9900012    2    1    2    0    0  0.20364324026E+02  0.33294754120E+02  0.11398156371E+02  0.50528876625E+02  0.30000050988E+02 0.  0.
         12    1    1    2    0    0 -0.20364324026E+02 -0.33294754120E+02 -0.11398156371E+02  0.40659123375E+02  0.00000000000E+00 0. -1.
         11    1    3    3    0    0 -0.56974471883E+01  0.30473602381E+01  0.11959779273E+00  0.64623225529E+01  0.51100000000E-03 0.  1.
        -11    1    3    3    0    0  0.34985582381E+01  0.14400438863E+02  0.60305724433E+01  0.15999386034E+02  0.51100000000E-03 0. -1.
         12    1    3    3    0    0  0.22563212977E+02  0.15846955019E+02  0.52479861352E+01  0.28067168038E+02  0.00000000000E+00 0. -1.
</event>
<event>
 7    1  0.1381607E-011  0.5052886E+02  0.7816164E-02  0.1300439E+00
        -11   -1    0    0    0    0  0.00000000000E+00  0.00000000000E+00  0.45593999997E+02  0.45594000000E+02  0.51100000000E-03 0. -1.
         11   -1    0    0    0    0 -0.00000000000E+00 -0.00000000000E+00 -0.45593999997E+02  0.45594000000E+02  0.51100000000E-03 0.  1.
    9900012    2    1    2    0    0 -0.11578452212E+02 -0.28153318433E+02 -0.26953585268E+02  0.50528860151E+02  0.30000000916E+02 0.  0.
         12    1    1    2    0    0  0.11578452212E+02  0.28153318433E+02  0.26953585268E+02  0.40659139849E+02  0.00000000000E+00 0. -1.
         11    1    3    3    0    0 -0.13047923377E+00 -0.21442475625E+02 -0.20889988519E+02  0.29936406036E+02  0.51100000000E-03 0. -1.
        -11    1    3    3    0    0 -0.27370556344E+01 -0.99596720138E+01 -0.39481435684E+01  0.11057774553E+02  0.51100000000E-03 0.  1.
         12    1    3    3    0    0 -0.87109173443E+01  0.32488292065E+01 -0.21154531805E+01  0.95346795621E+01  0.00000000000E+00 0. -1.
</event>
<event>
 7    1  0.1381607E-011  0.5052885E+02  0.7816164E-02  0.1300439E+00
        -11   -1    0    0    0    0  0.00000000000E+00  0.00000000000E+00  0.45593999997E+02  0.45594000000E+02  0.51100000000E-03 0.  1.
         11   -1    0    0    0    0 -0.00000000000E+00 -0.00000000000E+00 -0.45593999997E+02  0.45594000000E+02  0.51100000000E-03 0. -1.
    9900012    2    1    2    0    0 -0.85632518676E+01 -0.34826276034E+02  0.19156401060E+02  0.50528849904E+02  0.29999969768E+02 0.  0.
         12    1    1    2    0    0  0.85632518676E+01  0.34826276034E+02 -0.19156401060E+02  0.40659150096E+02  0.00000000000E+00 0. -1.
         11    1    3    3    0    0 -0.15775364944E+02 -0.23362984620E+02  0.16765107878E+01  0.28240075746E+02  0.51100000000E-03 0. -1.
        -11    1    3    3    0    0  0.31636439159E+01 -0.33237839866E+01  0.43796474652E+01  0.63433031614E+01  0.51100000000E-03 0.  1.
        -12    1    3    3    0    0  0.40484691600E+01 -0.81395074280E+01  0.13100242807E+02  0.15945470997E+02  0.00000000000E+00 0.  1.
</event>
<event>
 7    1  0.1381607E-011  0.5052885E+02  0.7816164E-02  0.1300439E+00
        -11   -1    0    0    0    0  0.00000000000E+00  0.00000000000E+00  0.45593999997E+02  0.45594000000E+02  0.51100000000E-03 0.  1.
         11   -1    0    0    0    0 -0.00000000000E+00 -0.00000000000E+00 -0.45593999997E+02  0.45594000000E+02  0.51100000000E-03 0. -1.
    9900012    2    1    2    0    0  0.23435983656E+02  0.39200806618E+01  0.32993239668E+02  0.50528853107E+02  0.29999979504E+02 0.  0.
         12    1    1    2    0    0 -0.23435983656E+02 -0.39200806618E+01 -0.32993239668E+02  0.40659146893E+02  0.00000000000E+00 0. -1.
         11    1    3    3    0    0  0.22807863580E+02  0.13560413496E+01  0.31213994722E+02  0.38682695821E+02  0.51100000000E-03 0.  1.
        -11    1    3    3    0    0  0.38291018457E+01 -0.32684442874E+01  0.38930156122E+00  0.50493865936E+01  0.51100000000E-03 0. -1.
         12    1    3    3    0    0 -0.32009817700E+01  0.58324835996E+01  0.13899433849E+01  0.67967706924E+01  0.00000000000E+00 0. -1.
</event>
<event>
 7    1  0.1381607E-011  0.5052886E+02  0.7816164E-02  0.1300439E+00
        -11   -1    0    0    0    0  0.00000000000E+00  0.00000000000E+00  0.45593999997E+02  0.45594000000E+02  0.51100000000E-03 0.  1.
         11   -1    0    0    0    0 -0.00000000000E+00 -0.00000000000E+00 -0.45593999997E+02  0.45594000000E+02  0.51100000000E-03 0. -1.
    9900012    2    1    2    0    0 -0.23423304420E+02  0.23309621342E+01  0.33152385946E+02  0.50528864884E+02  0.30000015302E+02 0.  0.
         12    1    1    2    0    0  0.23423304420E+02 -0.23309621342E+01 -0.33152385946E+02  0.40659135116E+02  0.00000000000E+00 0. -1.
         11    1    3    3    0    0 -0.88149536645E+01  0.14654087784E+01  0.24285028250E+01  0.92600462864E+01  0.51100000000E-03 0. -1.
        -11    1    3    3    0    0 -0.14370006102E+01  0.10869266240E+02  0.13467949175E+02  0.17366392101E+02  0.51100000000E-03 0.  1.
         12    1    3    3    0    0 -0.13171350145E+02 -0.10003712884E+02  0.17255933946E+02  0.23902426497E+02  0.00000000000E+00 0. -1.
</event>
<event>
 7    1  0.1381607E-011  0.5052886E+02  0.7816164E-02  0.1300439E+00
        -11   -1    0    0    0    0  0.00000000000E+00  0.00000000000E+00  0.45593999997E+02  0.45594000000E+02  0.51100000000E-03 0.  1.
         11   -1    0    0    0    0 -0.00000000000E+00 -0.00000000000E+00 -0.45593999997E+02  0.45594000000E+02  0.51100000000E-03 0. -1.
    9900012    2    1    2    0    0  0.36625652037E+01  0.43898247401E+01  0.40255194050E+02  0.50528860890E+02  0.30000003162E+02 0.  0.
         12    1    1    2    0    0 -0.36625652037E+01 -0.43898247401E+01 -0.40255194050E+02  0.40659139110E+02  0.00000000000E+00 0. -1.
         11    1    3    3    0    0  0.15288601393E+01 -0.42697901046E+01  0.11324918264E+02  0.12199274356E+02  0.51100000000E-03 0.  1.
        -11    1    3    3    0    0 -0.21643166443E+00  0.13506440951E+02  0.60099197445E+01  0.14784786959E+02  0.51100000000E-03 0. -1.
         12    1    3    3    0    0  0.23501367288E+01 -0.48468261062E+01  0.22920356042E+02  0.23544799575E+02  0.00000000000E+00 0. -1.
</event>
<event>
 7    1  0.1381607E-011  0.5052885E+02  0.7816164E-02  0.1300439E+00
        -11   -1    0    0    0    0  0.00000000000E+00  0.00000000000E+00  0.45593999997E+02  0.45594000000E+02  0.51100000000E-03 0.  1.
         11   -1    0    0    0    0 -0.00000000000E+00 -0.00000000000E+00 -0.45593999997E+02  0.45594000000E+02  0.51100000000E-03 0. -1.
    9900012    2    1    2    0    0  0.27755275589E+02  0.27507000591E+02  0.11232810515E+02  0.50528850518E+02  0.29999971634E+02 0.  0.
         12    1    1    2    0    0 -0.27755275589E+02 -0.27507000591E+02 -0.11232810515E+02  0.40659149482E+02  0.00000000000E+00 0. -1.
         11    1    3    3    0    0  0.12368430967E+02  0.25095406290E+01  0.78223354962E+01  0.14848057504E+02  0.51100000000E-03 0. -1.
        -11    1    3    3    0    0  0.92767795451E+01  0.13442025897E+02  0.11799658160E+02  0.20148911433E+02  0.51100000000E-03 0.  1.
        -12    1    3    3    0    0  0.61100650771E+01  0.11555434065E+02 -0.83891831421E+01  0.15531881581E+02  0.00000000000E+00 0.  1.
</event>
<event>
 7    1  0.1381607E-011  0.5052888E+02  0.7816164E-02  0.1300439E+00
        -11   -1    0    0    0    0  0.00000000000E+00  0.00000000000E+00  0.45593999997E+02  0.45594000000E+02  0.51100000000E-03 0.  1.
         11   -1    0    0    0    0 -0.00000000000E+00 -0.00000000000E+00 -0.45593999997E+02  0.45594000000E+02  0.51100000000E-03 0. -1.
    9900012    2    1    2    0    0 -0.31634296681E+02  0.15058711010E+02  0.20631778391E+02  0.50528883146E+02  0.30000070809E+02 0.  0.
         12    1    1    2    0    0  0.31634296681E+02 -0.15058711010E+02 -0.20631778391E+02  0.40659116854E+02  0.00000000000E+00 0. -1.
         11    1    3    3    0    0 -0.86265107553E+01 -0.47427766515E+01  0.37832443461E+01  0.10546257925E+02  0.51100000000E-03 0. -1.
        -11    1    3    3    0    0 -0.23100050455E+02  0.12105675254E+02  0.18669824679E+02  0.32073697295E+02  0.51100000000E-03 0.  1.
         12    1    3    3    0    0  0.92264529234E-01  0.76958124075E+01 -0.18212906336E+01  0.79089279252E+01  0.00000000000E+00 0. -1.
</event>
<event>
 7    1  0.1381607E-011  0.5052886E+02  0.7816164E-02  0.1300439E+00
        -11   -1    0    0    0    0  0.00000000000E+00  0.00000000000E+00  0.45593999997E+02  0.45594000000E+02  0.51100000000E-03 0.  1.
         11   -1    0    0    0    0 -0.00000000000E+00 -0.00000000000E+00 -0.45593999997E+02  0.45594000000E+02  0.51100000000E-03 0. -1.
    9900012    2    1    2    0    0 -0.29306670572E+02 -0.25499858586E+02 -0.12001763748E+02  0.50528855137E+02  0.29999985676E+02 0.  0.
         12    1    1    2    0    0  0.29306670572E+02  0.25499858586E+02  0.12001763748E+02  0.40659144863E+02  0.00000000000E+00 0. -1.
         11    1    3    3    0    0 -0.19898515705E+02 -0.86378376607E+01 -0.14627338312E+02  0.26163375032E+02  0.51100000000E-03 0. -1.
        -11    1    3    3    0    0 -0.36322342183E+01 -0.14340698608E+01 -0.48903762699E+01  0.62582315477E+01  0.51100000000E-03 0.  1.
        -12    1    3    3    0    0 -0.57759206482E+01 -0.15427951064E+02  0.75159508342E+01  0.18107248557E+02  0.00000000000E+00 0.  1.
</event>
<event>
 7    1  0.1381607E-011  0.5052886E+02  0.7816164E-02  0.1300439E+00
        -11   -1    0    0    0    0  0.00000000000E+00  0.00000000000E+00  0.45593999997E+02  0.45594000000E+02  0.51100000000E-03 0. -1.
         11   -1    0    0    0    0 -0.00000000000E+00 -0.00000000000E+00 -0.45593999997E+02  0.45594000000E+02  0.51100000000E-03 0.  1.
    9900012    2    1    2    0    0  0.14063218415E+02  0.78280065048E+01 -0.37337838982E+02  0.50528855667E+02  0.29999987287E+02 0.  0.
         12    1    1    2    0    0 -0.14063218415E+02 -0.78280065048E+01  0.37337838982E+02  0.40659144333E+02  0.00000000000E+00 0. -1.
         11    1    3    3    0    0  0.66915736924E+00 -0.43622968053E+01 -0.13345620087E+02  0.14056421335E+02  0.51100000000E-03 0. -1.
        -11    1    3    3    0    0  0.18536086529E+02  0.65524961029E+01 -0.15343936697E+02  0.24939087847E+02  0.51100000000E-03 0.  1.
         12    1    3    3    0    0 -0.51420254835E+01  0.56378072072E+01 -0.86482821979E+01  0.11533346485E+02  0.00000000000E+00 0. -1.
</event>
<event>
 7    1  0.1381607E-011  0.5052886E+02  0.7816164E-02  0.1300439E+00
        -11   -1    0    0    0    0  0.00000000000E+00  0.00000000000E+00  0.45593999997E+02  0.45594000000E+02  0.51100000000E-03 0. -1.
         11   -1    0    0    0    0 -0.00000000000E+00 -0.00000000000E+00 -0.45593999997E+02  0.45594000000E+02  0.51100000000E-03 0.  1.
    9900012    2    1    2    0    0  0.78891623851E+01 -0.11898831272E+02 -0.38070262363E+02  0.50528856561E+02  0.29999990004E+02 0.  0.
         12    1    1    2    0    0 -0.78891623851E+01  0.11898831272E+02  0.38070262363E+02  0.40659143439E+02  0.00000000000E+00 0. -1.
         11    1    3    3    0    0 -0.56497150237E+01 -0.84464306389E+00 -0.11594033182E+01  0.58289722996E+01  0.51100000000E-03 0. -1.
        -11    1    3    3    0    0 -0.25776319471E+01  0.14436121733E+00 -0.15265384654E+02  0.15482150869E+02  0.51100000000E-03 0.  1.
        -12    1    3    3    0    0  0.16116509356E+02 -0.11198549425E+02 -0.21645474391E+02  0.29217733393E+02  0.00000000000E+00 0.  1.
</event>
<event>
 7    1  0.1381607E-011  0.5052889E+02  0.7816164E-02  0.1300439E+00
        -11   -1    0    0    0    0  0.00000000000E+00  0.00000000000E+00  0.45593999997E+02  0.45594000000E+02  0.51100000000E-03 0.  1.
         11   -1    0    0    0    0 -0.00000000000E+00 -0.00000000000E+00 -0.45593999997E+02  0.45594000000E+02  0.51100000000E-03 0. -1.
    9900012    2    1    2    0    0 -0.18326420912E+02  0.28809128001E+02  0.22075762021E+02  0.50528894889E+02  0.30000106505E+02 0.  0.
         12    1    1    2    0    0  0.18326420912E+02 -0.28809128001E+02 -0.22075762021E+02  0.40659105111E+02  0.00000000000E+00 0. -1.
         11    1    3    3    0    0 -0.71797734950E+01  0.16216834312E+02  0.99083748926E+01  0.20315283799E+02  0.51100000000E-03 0.  1.
        -11    1    3    3    0    0  0.40805725334E+01  0.11320391643E+02  0.77292864930E+01  0.14301895297E+02  0.51100000000E-03 0. -1.
         12    1    3    3    0    0 -0.15227219950E+02  0.12719020454E+01  0.44381006355E+01  0.15911715793E+02  0.00000000000E+00 0. -1.
</event>
<event>
 7    1  0.1381607E-011  0.5052885E+02  0.7816164E-02  0.1300439E+00
        -11   -1    0    0    0    0  0.00000000000E+00  0.00000000000E+00  0.45593999997E+02  0.45594000000E+02  0.51100000000E-03 0.  1.
         11   -1    0    0    0    0 -0.00000000000E+00 -0.00000000000E+00 -0.45593999997E+02  0.45594000000E+02  0.51100000000E-03 0. -1.
    9900012    2    1    2    0    0  0.29979554620E+02 -0.59935757886E+01  0.26804286093E+02  0.50528850982E+02  0.29999973044E+02 0.  0.
         12    1    1    2    0    0 -0.29979554620E+02  0.59935757886E+01 -0.26804286093E+02  0.40659149018E+02  0.00000000000E+00 0. -1.
         11    1    3    3    0    0  0.34609957616E+01 -0.84932999268E+01  0.25138627888E+01  0.95096867294E+01  0.51100000000E-03 0. -1.
        -11    1    3    3    0    0  0.20732242001E+02 -0.67753065672E+01  0.13456828718E+02  0.25628438830E+02  0.51100000000E-03 0.  1.
        -12    1    3    3    0    0  0.57863168573E+01  0.92750307055E+01  0.10833594586E+02  0.15390725422E+02  0.00000000000E+00 0.  1.
</event>
<event>
 7    1  0.1381607E-011  0.5052886E+02  0.7816164E-02  0.1300439E+00
        -11   -1    0    0    0    0  0.00000000000E+00  0.00000000000E+00  0.45593999997E+02  0.45594000000E+02  0.51100000000E-03 0.  1.
         11   -1    0    0    0    0 -0.00000000000E+00 -0.00000000000E+00 -0.45593999997E+02  0.45594000000E+02  0.51100000000E-03 0. -1.
    9900012    2    1    2    0    0  0.10664278513E+02  0.35404899379E+02  0.16909517215E+02  0.50528861928E+02  0.30000006318E+02 0.  0.
         12    1    1    2    0    0 -0.10664278513E+02 -0.35404899379E+02 -0.16909517215E+02  0.40659138072E+02  0.00000000000E+00 0. -1.
         11    1    3    3    0    0  0.11479824660E+02  0.84923755361E+01 -0.42514119222E+01  0.14899037555E+02  0.51100000000E-03 0. -1.
        -11    1    3    3    0    0 -0.47186375774E+01  0.85104390861E+01  0.88056510500E+01  0.13123742024E+02  0.51100000000E-03 0.  1.
        -12    1    3    3    0    0  0.39030914308E+01  0.18402084757E+02  0.12355278087E+02  0.22506082350E+02  0.00000000000E+00 0.  1.
</event>
<event>
 7    1  0.1381607E-011  0.5052885E+02  0.7816164E-02  0.1300439E+00
        -11   -1    0    0    0    0  0.00000000000E+00  0.00000000000E+00  0.45593999997E+02  0.45594000000E+02  0.51100000000E-03 0.  1.
         11   -1    0    0    0    0 -0.00000000000E+00 -0.00000000000E+00 -0.45593999997E+02  0.45594000000E+02  0.51100000000E-03 0. -1.
    9900012    2    1    2    0    0 -0.29813979203E+02 -0.27350566179E+02  0.40298635155E+01  0.50528848186E+02  0.29999964547E+02 0.  0.
         12    1    1    2    0    0  0.29813979203E+02  0.27350566179E+02 -0.40298635155E+01  0.40659151814E+02  0.00000000000E+00 0. -1.
         11    1    3    3    0    0  0.18254824620E+01  0.68771035862E+00  0.10911762401E+00  0.19537754920E+01  0.51100000000E-03 0. -1.
        -11    1    3    3    0    0 -0.18907408529E+02 -0.10898826710E+02 -0.90135825906E+01  0.23611844323E+02  0.51100000000E-03 0.  1.
         12    1    3    3    0    0 -0.12732053136E+02 -0.17139449828E+02  0.12934328482E+02  0.24963228372E+02  0.00000000000E+00 0. -1.
</event>
<event>
 7    1  0.1381607E-011  0.5052887E+02  0.7816164E-02  0.1300439E+00
        -11   -1    0    0    0    0  0.00000000000E+00  0.00000000000E+00  0.45593999997E+02  0.45594000000E+02  0.51100000000E-03 0.  1.
         11   -1    0    0    0    0 -0.00000000000E+00 -0.00000000000E+00 -0.45593999997E+02  0.45594000000E+02  0.51100000000E-03 0. -1.
    9900012    2    1    2    0    0  0.27397308460E+02 -0.17032965626E+02  0.24747338093E+02  0.50528866075E+02  0.30000018922E+02 0.  0.
         12    1    1    2    0    0 -0.27397308460E+02  0.17032965626E+02 -0.24747338093E+02  0.40659133925E+02  0.00000000000E+00 0. -1.
         11    1    3    3    0    0  0.21283066117E+00 -0.48702232851E+00 -0.15905225102E+01  0.16769763729E+01  0.51100000000E-03 0. -1.
        -11    1    3    3    0    0  0.38016452319E+01 -0.13034378423E+02  0.20344543113E+02  0.24459107957E+02  0.51100000000E-03 0.  1.
        -12    1    3    3    0    0  0.23382832567E+02 -0.35115648743E+01  0.59933174902E+01  0.24392781745E+02  0.00000000000E+00 0.  1.
</event>
<event>
 7    1  0.1381607E-011  0.5052886E+02  0.7816164E-02  0.1300439E+00
        -11   -1    0    0    0    0  0.00000000000E+00  0.00000000000E+00  0.45593999997E+02  0.45594000000E+02  0.51100000000E-03 0.  1.
         11   -1    0    0    0    0 -0.00000000000E+00 -0.00000000000E+00 -0.45593999997E+02  0.45594000000E+02  0.51100000000E-03 0. -1.
    9900012    2    1    2    0    0  0.15344718065E+02  0.27401077530E+02  0.25824142259E+02  0.50528859014E+02  0.29999997460E+02 0.  0.
         12    1    1    2    0    0 -0.15344718065E+02 -0.27401077530E+02 -0.25824142259E+02  0.40659140986E+02  0.00000000000E+00 0. -1.
         11    1    3    3    0    0 -0.33632895447E+01 -0.36721223759E+01  0.46936502334E+01  0.68429929183E+01  0.51100000000E-03 0. -1.
        -11    1    3    3    0    0  0.47144921339E+01  0.37196746359E+01  0.86331220470E+01  0.10516330730E+02  0.51100000000E-03 0.  1.
        -12    1    3    3    0    0  0.13993515475E+02  0.27353525270E+02  0.12497369979E+02  0.33169535366E+02  0.00000000000E+00 0.  1.
</event>
<event>
 7    1  0.1381607E-011  0.5052886E+02  0.7816164E-02  0.1300439E+00
        -11   -1    0    0    0    0  0.00000000000E+00  0.00000000000E+00  0.45593999997E+02  0.45594000000E+02  0.51100000000E-03 0.  1.
         11   -1    0    0    0    0 -0.00000000000E+00 -0.00000000000E+00 -0.45593999997E+02  0.45594000000E+02  0.51100000000E-03 0. -1.
    9900012    2    1    2    0    0 -0.14983574696E+02  0.13430546550E+02  0.35330980984E+02  0.50528864389E+02  0.30000013797E+02 0.  0.
         12    1    1    2    0    0  0.14983574696E+02 -0.13430546550E+02 -0.35330980984E+02  0.40659135611E+02  0.00000000000E+00 0. -1.
         11    1    3    3    0    0 -0.81363356953E+01 -0.37923589106E+01  0.45280136309E+01  0.10054096297E+02  0.51100000000E-03 0. -1.
        -11    1    3    3    0    0 -0.13187335548E+02  0.12077185441E+02  0.18690091303E+02  0.25866653054E+02  0.51100000000E-03 0.  1.
        -12    1    3    3    0    0  0.63400965471E+01  0.51457200194E+01  0.12112876050E+02  0.14608115038E+02  0.00000000000E+00 0.  1.
</event>
<event>
 7    1  0.1381607E-011  0.5052886E+02  0.7816164E-02  0.1300439E+00
        -11   -1    0    0    0    0  0.00000000000E+00  0.00000000000E+00  0.45593999997E+02  0.45594000000E+02  0.51100000000E-03 0.  1.
         11   -1    0    0    0    0 -0.00000000000E+00 -0.00000000000E+00 -0.45593999997E+02  0.45594000000E+02  0.51100000000E-03 0. -1.
    9900012    2    1    2    0    0 -0.20393038899E+02 -0.32426223461E+02  0.13631945130E+02  0.50528856729E+02  0.29999990514E+02 0.  0.
         12    1    1    2    0    0  0.20393038899E+02  0.32426223461E+02 -0.13631945130E+02  0.40659143271E+02  0.00000000000E+00 0. -1.
         11    1    3    3    0    0  0.15781570244E+01  0.32738527854E+01  0.14676282623E+01  0.39195184184E+01  0.51100000000E-03 0. -1.
        -11    1    3    3    0    0 -0.19763305083E+02 -0.17518289498E+02  0.96719956173E+01  0.28125187897E+02  0.51100000000E-03 0.  1.
         12    1    3    3    0    0 -0.22078908408E+01 -0.18181786748E+02  0.24923212508E+01  0.18484150414E+02  0.00000000000E+00 0. -1.
</event>
<event>
 7    1  0.1381607E-011  0.5052886E+02  0.7816164E-02  0.1300439E+00
        -11   -1    0    0    0    0  0.00000000000E+00  0.00000000000E+00  0.45593999997E+02  0.45594000000E+02  0.51100000000E-03 0.  1.
         11   -1    0    0    0    0 -0.00000000000E+00 -0.00000000000E+00 -0.45593999997E+02  0.45594000000E+02  0.51100000000E-03 0. -1.
    9900012    2    1    2    0    0 -0.32769381345E+02  0.22341668448E+01  0.23965436927E+02  0.50528855613E+02  0.29999987120E+02 0.  0.
         12    1    1    2    0    0  0.32769381345E+02 -0.22341668448E+01 -0.23965436927E+02  0.40659144387E+02  0.00000000000E+00 0. -1.
         11    1    3    3    0    0 -0.30670657818E+01 -0.52871824435E+01  0.22603727507E+01  0.65169376193E+01  0.51100000000E-03 0. -1.
        -11    1    3    3    0    0  0.26192856096E+01  0.43129727447E+01  0.62763675490E+01  0.80532714391E+01  0.51100000000E-03 0.  1.
        -12    1    3    3    0    0 -0.32321601172E+02  0.32083765436E+01  0.15428696627E+02  0.35958646554E+02  0.00000000000E+00 0.  1.
</event>
<event>
 7    1  0.1381607E-011  0.5052887E+02  0.7816164E-02  0.1300439E+00
        -11   -1    0    0    0    0  0.00000000000E+00  0.00000000000E+00  0.45593999997E+02  0.45594000000E+02  0.51100000000E-03 0. -1.
         11   -1    0    0    0    0 -0.00000000000E+00 -0.00000000000E+00 -0.45593999997E+02  0.45594000000E+02  0.51100000000E-03 0.  1.
    9900012    2    1    2    0    0 -0.33881822498E+02  0.10790411765E+02 -0.19716854518E+02  0.50528865307E+02  0.30000016588E+02 0.  0.
         12    1    1    2    0    0  0.33881822498E+02 -0.10790411765E+02  0.19716854518E+02  0.40659134693E+02  0.00000000000E+00 0. -1.
         11    1    3    3    0    0  0.17165298182E+01  0.16445153847E+01  0.48236951994E+00  0.24256104556E+01  0.51100000000E-03 0. -1.
        -11    1    3    3    0    0  0.25034564947E+01  0.24821125506E+00 -0.59542498876E+01  0.64638993829E+01  0.51100000000E-03 0.  1.
        -12    1    3    3    0    0 -0.38101808811E+02  0.88976851256E+01 -0.14244974151E+02  0.41639355469E+02  0.00000000000E+00 0.  1.
</event>
<event>
 7    1  0.1381607E-011  0.5052886E+02  0.7816164E-02  0.1300439E+00
        -11   -1    0    0    0    0  0.00000000000E+00  0.00000000000E+00  0.45593999997E+02  0.45594000000E+02  0.51100000000E-03 0.  1.
         11   -1    0    0    0    0 -0.00000000000E+00 -0.00000000000E+00 -0.45593999997E+02  0.45594000000E+02  0.51100000000E-03 0. -1.
    9900012    2    1    2    0    0  0.37098995985E+02 -0.16592300418E+02  0.12352153730E+01  0.50528859659E+02  0.29999999419E+02 0.  0.
         12    1    1    2    0    0 -0.37098995985E+02  0.16592300418E+02 -0.12352153730E+01  0.40659140341E+02  0.00000000000E+00 0. -1.
         11    1    3    3    0    0 -0.83203471127E+00  0.40940524703E+01 -0.26482742403E+01  0.49464031481E+01  0.51100000000E-03 0. -1.
        -11    1    3    3    0    0  0.55928663878E+01 -0.87104012484E+01  0.40011355029E+01  0.11097762383E+02  0.51100000000E-03 0.  1.
        -12    1    3    3    0    0  0.32338164308E+02 -0.11975951640E+02 -0.11764588950E+00  0.34484694128E+02  0.00000000000E+00 0.  1.
</event>
<event>
 7    1  0.1381607E-011  0.5052886E+02  0.7816164E-02  0.1300439E+00
        -11   -1    0    0    0    0  0.00000000000E+00  0.00000000000E+00  0.45593999997E+02  0.45594000000E+02  0.51100000000E-03 0. -1.
         11   -1    0    0    0    0 -0.00000000000E+00 -0.00000000000E+00 -0.45593999997E+02  0.45594000000E+02  0.51100000000E-03 0.  1.
    9900012    2    1    2    0    0  0.29943777858E+02 -0.19586384505E+02 -0.19310851653E+02  0.50528864717E+02  0.30000014794E+02 0.  0.
         12    1    1    2    0    0 -0.29943777858E+02  0.19586384505E+02  0.19310851653E+02  0.40659135283E+02  0.00000000000E+00 0. -1.
         11    1    3    3    0    0  0.37430986640E+01  0.47440041075E+01  0.37205170011E+01  0.70963800347E+01  0.51100000000E-03 0. -1.
        -11    1    3    3    0    0  0.98069371931E+01 -0.14210096207E+02 -0.81721055938E+01  0.19101993651E+02  0.51100000000E-03 0.  1.
        -12    1    3    3    0    0  0.16393742001E+02 -0.10120292405E+02 -0.14859263060E+02  0.24330491032E+02  0.00000000000E+00 0.  1.
</event>
<event>
 7    1  0.1381607E-011  0.5052887E+02  0.7816164E-02  0.1300439E+00
        -11   -1    0    0    0    0  0.00000000000E+00  0.00000000000E+00  0.45593999997E+02  0.45594000000E+02  0.51100000000E-03 0. -1.
         11   -1    0    0    0    0 -0.00000000000E+00 -0.00000000000E+00 -0.45593999997E+02  0.45594000000E+02  0.51100000000E-03 0.  1.
    9900012    2    1    2    0    0 -0.10144618192E+02  0.24563485899E+02 -0.30771529318E+02  0.50528866533E+02  0.30000020312E+02 0.  0.
         12    1    1    2    0    0  0.10144618192E+02 -0.24563485899E+02  0.30771529318E+02  0.40659133467E+02  0.00000000000E+00 0. -1.
         11    1    3    3    0    0 -0.84559302920E+01  0.17438499764E+02 -0.45028550142E+01  0.19896726732E+02  0.51100000000E-03 0. -1.
        -11    1    3    3    0    0 -0.68455711222E+01  0.11556105326E+01 -0.72277496731E+01  0.10021858375E+02  0.51100000000E-03 0.  1.
         12    1    3    3    0    0  0.51568832225E+01  0.59693756030E+01 -0.19040924630E+02  0.20610281426E+02  0.00000000000E+00 0. -1.
</event>
<event>
 7    1  0.1381607E-011  0.5052888E+02  0.7816164E-02  0.1300439E+00
        -11   -1    0    0    0    0  0.00000000000E+00  0.00000000000E+00  0.45593999997E+02  0.45594000000E+02  0.51100000000E-03 0.  1.
         11   -1    0    0    0    0 -0.00000000000E+00 -0.00000000000E+00 -0.45593999997E+02  0.45594000000E+02  0.51100000000E-03 0. -1.
    9900012    2    1    2    0    0  0.17868282958E+01 -0.65637019206E+01  0.40086023968E+02  0.50528877336E+02  0.30000053151E+02 0.  0.
         12    1    1    2    0    0 -0.17868282958E+01  0.65637019206E+01 -0.40086023968E+02  0.40659122664E+02  0.00000000000E+00 0. -1.
         11    1    3    3    0    0  0.53921271389E+01 -0.61824627101E+01  0.20880979413E+02  0.22434642448E+02  0.51100000000E-03 0. -1.
        -11    1    3    3    0    0 -0.56787167400E+01 -0.88676200416E+01  0.15182133548E+02  0.18476463091E+02  0.51100000000E-03 0.  1.
         12    1    3    3    0    0  0.20734178969E+01  0.84863808310E+01  0.40229110061E+01  0.96177717974E+01  0.00000000000E+00 0. -1.
</event>
<event>
 7    1  0.1381607E-011  0.5052885E+02  0.7816164E-02  0.1300439E+00
        -11   -1    0    0    0    0  0.00000000000E+00  0.00000000000E+00  0.45593999997E+02  0.45594000000E+02  0.51100000000E-03 0. -1.
         11   -1    0    0    0    0 -0.00000000000E+00 -0.00000000000E+00 -0.45593999997E+02  0.45594000000E+02  0.51100000000E-03 0.  1.
    9900012    2    1    2    0    0 -0.33509412121E+02  0.12388977927E+02 -0.19411314780E+02  0.50528848309E+02  0.29999964919E+02 0.  0.
         12    1    1    2    0    0  0.33509412121E+02 -0.12388977927E+02  0.19411314780E+02  0.40659151691E+02  0.00000000000E+00 0. -1.
         11    1    3    3    0    0 -0.65614888953E-02 -0.85974481492E+00 -0.71026195993E+00  0.11152024537E+01  0.51100000000E-03 0. -1.
        -11    1    3    3    0    0 -0.37061416515E+02  0.13441566716E+02 -0.11002411091E+02  0.40930152210E+02  0.51100000000E-03 0.  1.
        -12    1    3    3    0    0  0.35585658828E+01 -0.19284397339E+00 -0.76986417298E+01  0.84834936450E+01  0.00000000000E+00 0.  1.
</event>
<event>
 7    1  0.1381607E-011  0.5052888E+02  0.7816164E-02  0.1300439E+00
        -11   -1    0    0    0    0  0.00000000000E+00  0.00000000000E+00  0.45593999997E+02  0.45594000000E+02  0.51100000000E-03 0. -1.
         11   -1    0    0    0    0 -0.00000000000E+00 -0.00000000000E+00 -0.45593999997E+02  0.45594000000E+02  0.51100000000E-03 0.  1.
    9900012    2    1    2    0    0 -0.26894532513E+02  0.27099307173E+02  0.13981255148E+02  0.50528882648E+02  0.30000069295E+02 0.  0.
         12    1    1    2    0    0  0.26894532513E+02 -0.27099307173E+02 -0.13981255148E+02  0.40659117352E+02  0.00000000000E+00 0. -1.
         11    1    3    3    0    0  0.18166518478E+01 -0.65926503685E+00  0.45589734361E+01  0.49516758150E+01  0.51100000000E-03 0. -1.
        -11    1    3    3    0    0 -0.12183594841E+02  0.13169015402E+02  0.14366400773E+02  0.22983829563E+02  0.51100000000E-03 0.  1.
        -12    1    3    3    0    0 -0.16527589519E+02  0.14589556808E+02 -0.49441190611E+01  0.22593377270E+02  0.00000000000E+00 0.  1.
</event>
<event>
 7    1  0.1381607E-011  0.5052886E+02  0.7816164E-02  0.1300439E+00
        -11   -1    0    0    0    0  0.00000000000E+00  0.00000000000E+00  0.45593999997E+02  0.45594000000E+02  0.51100000000E-03 0.  1.
         11   -1    0    0    0    0 -0.00000000000E+00 -0.00000000000E+00 -0.45593999997E+02  0.45594000000E+02  0.51100000000E-03 0. -1.
    9900012    2    1    2    0    0  0.60161357636E+01 -0.39555965865E+02  0.72317062252E+01  0.50528857117E+02  0.29999991692E+02 0.  0.
         12    1    1    2    0    0 -0.60161357636E+01  0.39555965865E+02 -0.72317062252E+01  0.40659142883E+02  0.00000000000E+00 0. -1.
         11    1    3    3    0    0  0.70252255438E+01 -0.78312230471E+01  0.13590466410E+02  0.17186699097E+02  0.51100000000E-03 0. -1.
        -11    1    3    3    0    0 -0.11260856619E+01 -0.69484922625E+00 -0.13858185200E+01  0.19160839222E+01  0.51100000000E-03 0.  1.
         12    1    3    3    0    0  0.11699588177E+00 -0.31029893592E+02 -0.49729416649E+01  0.31426074097E+02  0.00000000000E+00 0. -1.
</event>
<event>
 7    1  0.1381607E-011  0.5052886E+02  0.7816164E-02  0.1300439E+00
        -11   -1    0    0    0    0  0.00000000000E+00  0.00000000000E+00  0.45593999997E+02  0.45594000000E+02  0.51100000000E-03 0.  1.
         11   -1    0    0    0    0 -0.00000000000E+00 -0.00000000000E+00 -0.45593999997E+02  0.45594000000E+02  0.51100000000E-03 0. -1.
    9900012    2    1    2    0    0 -0.21013077215E+02 -0.22871862255E+02  0.26239177047E+02  0.50528857004E+02  0.29999991350E+02 0.  0.
         12    1    1    2    0    0  0.21013077215E+02  0.22871862255E+02 -0.26239177047E+02  0.40659142996E+02  0.00000000000E+00 0. -1.
         11    1    3    3    0    0  0.21681217610E+01 -0.67781242739E+01  0.15874059067E+02  0.17396248796E+02  0.51100000000E-03 0. -1.
        -11    1    3    3    0    0 -0.10644127950E+02  0.19537280407E+00  0.56142635869E+01  0.12035596630E+02  0.51100000000E-03 0.  1.
        -12    1    3    3    0    0 -0.12537071026E+02 -0.16289110786E+02  0.47508543930E+01  0.21097011579E+02  0.00000000000E+00 0.  1.
</event>
<event>
 7    1  0.1381607E-011  0.5052886E+02  0.7816164E-02  0.1300439E+00
        -11   -1    0    0    0    0  0.00000000000E+00  0.00000000000E+00  0.45593999997E+02  0.45594000000E+02  0.51100000000E-03 0.  1.
         11   -1    0    0    0    0 -0.00000000000E+00 -0.00000000000E+00 -0.45593999997E+02  0.45594000000E+02  0.51100000000E-03 0. -1.
    9900012    2    1    2    0    0  0.18111932194E+02 -0.21583215643E+02  0.29313623287E+02  0.50528858402E+02  0.29999995598E+02 0.  0.
         12    1    1    2    0    0 -0.18111932194E+02  0.21583215643E+02 -0.29313623287E+02  0.40659141598E+02  0.00000000000E+00 0. -1.
         11    1    3    3    0    0  0.21523691178E+01  0.26144393658E+01  0.18088563015E+01  0.38392639135E+01  0.51100000000E-03 0. -1.
        -11    1    3    3    0    0  0.18486368995E+01  0.39729230463E+01  0.93507947553E+01  0.10326613130E+02  0.51100000000E-03 0.  1.
        -12    1    3    3    0    0  0.14110926177E+02 -0.28170578055E+02  0.18153972230E+02  0.36362981358E+02  0.00000000000E+00 0.  1.
</event>
<event>
 7    1  0.1381607E-011  0.5052886E+02  0.7816164E-02  0.1300439E+00
        -11   -1    0    0    0    0  0.00000000000E+00  0.00000000000E+00  0.45593999997E+02  0.45594000000E+02  0.51100000000E-03 0. -1.
         11   -1    0    0    0    0 -0.00000000000E+00 -0.00000000000E+00 -0.45593999997E+02  0.45594000000E+02  0.51100000000E-03 0.  1.
    9900012    2    1    2    0    0  0.26618221540E+02  0.26942773790E+02 -0.14789277942E+02  0.50528861796E+02  0.30000005914E+02 0.  0.
         12    1    1    2    0    0 -0.26618221540E+02 -0.26942773790E+02  0.14789277942E+02  0.40659138204E+02  0.00000000000E+00 0. -1.
         11    1    3    3    0    0  0.31234514534E+01 -0.55378050542E+01 -0.19843874127E+01  0.66604074548E+01  0.51100000000E-03 0. -1.
        -11    1    3    3    0    0  0.16295924907E+02  0.14984653726E+02 -0.11390508947E+02  0.24896600374E+02  0.51100000000E-03 0.  1.
        -12    1    3    3    0    0  0.71988451798E+01  0.17495925118E+02 -0.14143815822E+01  0.18971853966E+02  0.00000000000E+00 0.  1.
</event>
<event>
 7    1  0.1381607E-011  0.5052886E+02  0.7816164E-02  0.1300439E+00
        -11   -1    0    0    0    0  0.00000000000E+00  0.00000000000E+00  0.45593999997E+02  0.45594000000E+02  0.51100000000E-03 0. -1.
         11   -1    0    0    0    0 -0.00000000000E+00 -0.00000000000E+00 -0.45593999997E+02  0.45594000000E+02  0.51100000000E-03 0.  1.
    9900012    2    1    2    0    0  0.12019523721E+02  0.21772125321E+01 -0.38780875880E+02  0.50528861557E+02  0.30000005188E+02 0.  0.
         12    1    1    2    0    0 -0.12019523721E+02 -0.21772125321E+01  0.38780875880E+02  0.40659138443E+02  0.00000000000E+00 0. -1.
         11    1    3    3    0    0  0.84259983625E+01 -0.39266041377E+01 -0.65286207904E+01  0.11359513992E+02  0.51100000000E-03 0. -1.
        -11    1    3    3    0    0 -0.46313536969E+01 -0.31985353864E+01 -0.23015017025E+02  0.23693270661E+02  0.51100000000E-03 0.  1.
         12    1    3    3    0    0  0.82248790556E+01  0.93023520562E+01 -0.92372380651E+01  0.15476076904E+02  0.00000000000E+00 0. -1.
</event>
<event>
 7    1  0.1381607E-011  0.5052888E+02  0.7816164E-02  0.1300439E+00
        -11   -1    0    0    0    0  0.00000000000E+00  0.00000000000E+00  0.45593999997E+02  0.45594000000E+02  0.51100000000E-03 0. -1.
         11   -1    0    0    0    0 -0.00000000000E+00 -0.00000000000E+00 -0.45593999997E+02  0.45594000000E+02  0.51100000000E-03 0.  1.
    9900012    2    1    2    0    0 -0.32014787568E+02  0.23377545068E+02 -0.90392324711E+01  0.50528880972E+02  0.30000064203E+02 0.  0.
         12    1    1    2    0    0  0.32014787568E+02 -0.23377545068E+02  0.90392324711E+01  0.40659119028E+02  0.00000000000E+00 0. -1.
         11    1    3    3    0    0 -0.18013268663E+02  0.58553680990E+01 -0.31958265408E+00  0.18943740836E+02  0.51100000000E-03 0. -1.
        -11    1    3    3    0    0 -0.11765277576E+02  0.25720012858E+01 -0.10984167018E+02  0.16299965411E+02  0.51100000000E-03 0.  1.
         12    1    3    3    0    0 -0.22362413288E+01  0.14950175683E+02  0.22645172012E+01  0.15285174725E+02  0.00000000000E+00 0. -1.
</event>
<event>
 7    1  0.1381607E-011  0.5052889E+02  0.7816164E-02  0.1300439E+00
        -11   -1    0    0    0    0  0.00000000000E+00  0.00000000000E+00  0.45593999997E+02  0.45594000000E+02  0.51100000000E-03 0. -1.
         11   -1    0    0    0    0 -0.00000000000E+00 -0.00000000000E+00 -0.45593999997E+02  0.45594000000E+02  0.51100000000E-03 0.  1.
    9900012    2    1    2    0    0 -0.40635573032E+02 -0.11934702321E+01  0.69946647482E+00  0.50528887612E+02  0.30000084385E+02 0.  0.
         12    1    1    2    0    0  0.40635573032E+02  0.11934702321E+01 -0.69946647482E+00  0.40659112388E+02  0.00000000000E+00 0. -1.
         11    1    3    3    0    0 -0.14448644043E+01  0.42057003333E+01  0.16499095491E+01  0.47431793368E+01  0.51100000000E-03 0. -1.
        -11    1    3    3    0    0 -0.29148124221E+02  0.43803373603E+01 -0.73475710017E+01  0.30377414321E+02  0.51100000000E-03 0.  1.
        -12    1    3    3    0    0 -0.10042584407E+02 -0.97795079257E+01  0.63971279275E+01  0.15408293954E+02  0.00000000000E+00 0.  1.
</event>
<event>
 7    1  0.1381607E-011  0.5052886E+02  0.7816164E-02  0.1300439E+00
        -11   -1    0    0    0    0  0.00000000000E+00  0.00000000000E+00  0.45593999997E+02  0.45594000000E+02  0.51100000000E-03 0.  1.
         11   -1    0    0    0    0 -0.00000000000E+00 -0.00000000000E+00 -0.45593999997E+02  0.45594000000E+02  0.51100000000E-03 0. -1.
    9900012    2    1    2    0    0 -0.22121367489E+02 -0.34090812978E+02 -0.12755548066E+01  0.50528862415E+02  0.30000007798E+02 0.  0.
         12    1    1    2    0    0  0.22121367489E+02  0.34090812978E+02  0.12755548066E+01  0.40659137585E+02  0.00000000000E+00 0. -1.
         11    1    3    3    0    0 -0.24706628590E+02 -0.25865804707E+02 -0.31330097374E+01  0.35906449277E+02  0.51100000000E-03 0. -1.
        -11    1    3    3    0    0 -0.15085359427E+01  0.23021910000E+01 -0.10715583524E+01  0.29536421000E+01  0.51100000000E-03 0.  1.
         12    1    3    3    0    0  0.40937970438E+01 -0.10527199271E+02  0.29290132833E+01  0.11668771038E+02  0.00000000000E+00 0. -1.
</event>
<event>
 7    1  0.1381607E-011  0.5052886E+02  0.7816164E-02  0.1300439E+00
        -11   -1    0    0    0    0  0.00000000000E+00  0.00000000000E+00  0.45593999997E+02  0.45594000000E+02  0.51100000000E-03 0.  1.
         11   -1    0    0    0    0 -0.00000000000E+00 -0.00000000000E+00 -0.45593999997E+02  0.45594000000E+02  0.51100000000E-03 0. -1.
    9900012    2    1    2    0    0  0.26739052217E+02 -0.12430405662E+02  0.27994172056E+02  0.50528861206E+02  0.30000004121E+02 0.  0.
         12    1    1    2    0    0 -0.26739052217E+02  0.12430405662E+02 -0.27994172056E+02  0.40659138794E+02  0.00000000000E+00 0. -1.
         11    1    3    3    0    0  0.17579852351E+01  0.72122095390E+00 -0.22181040384E+01  0.29207289394E+01  0.51100000000E-03 0. -1.
        -11    1    3    3    0    0 -0.14857308790E+01 -0.60131410024E+01  0.15065790429E+02  0.16289361635E+02  0.51100000000E-03 0.  1.
        -12    1    3    3    0    0  0.26466797861E+02 -0.71384856132E+01  0.15146485666E+02  0.31318770632E+02  0.00000000000E+00 0.  1.
</event>
<event>
 7    1  0.1381607E-011  0.5052886E+02  0.7816164E-02  0.1300439E+00
        -11   -1    0    0    0    0  0.00000000000E+00  0.00000000000E+00  0.45593999997E+02  0.45594000000E+02  0.51100000000E-03 0.  1.
         11   -1    0    0    0    0 -0.00000000000E+00 -0.00000000000E+00 -0.45593999997E+02  0.45594000000E+02  0.51100000000E-03 0. -1.
    9900012    2    1    2    0    0 -0.53086334542E+01 -0.39655059299E+02  0.72429343394E+01  0.50528863081E+02  0.30000009820E+02 0.  0.
         12    1    1    2    0    0  0.53086334542E+01  0.39655059299E+02 -0.72429343394E+01  0.40659136919E+02  0.00000000000E+00 0. -1.
         11    1    3    3    0    0  0.24801294475E+01 -0.33727495057E+01  0.63057568626E+01  0.75689531096E+01  0.51100000000E-03 0. -1.
        -11    1    3    3    0    0  0.41493964630E+01 -0.11864437874E+01  0.38385913220E+01  0.57758050060E+01  0.51100000000E-03 0.  1.
         12    1    3    3    0    0 -0.11938159365E+02 -0.35095866006E+02 -0.29014138452E+01  0.37184104965E+02  0.00000000000E+00 0. -1.
</event>
<event>
 7    1  0.1381607E-011  0.5052885E+02  0.7816164E-02  0.1300439E+00
        -11   -1    0    0    0    0  0.00000000000E+00  0.00000000000E+00  0.45593999997E+02  0.45594000000E+02  0.51100000000E-03 0.  1.
         11   -1    0    0    0    0 -0.00000000000E+00 -0.00000000000E+00 -0.45593999997E+02  0.45594000000E+02  0.51100000000E-03 0. -1.
    9900012    2    1    2    0    0  0.26493927667E+02 -0.10883569107E+02  0.28858032681E+02  0.50528851830E+02  0.29999975621E+02 0.  0.
         12    1    1    2    0    0 -0.26493927667E+02  0.10883569107E+02 -0.28858032681E+02  0.40659148170E+02  0.00000000000E+00 0. -1.
         11    1    3    3    0    0 -0.33787103462E+00 -0.71531022780E+01  0.28116131917E+01  0.76932566600E+01  0.51100000000E-03 0. -1.
        -11    1    3    3    0    0  0.80808192429E+01 -0.11092710426E+02  0.12470254135E+02  0.18543330410E+02  0.51100000000E-03 0.  1.
        -12    1    3    3    0    0  0.18750979459E+02  0.73622435967E+01  0.13576165354E+02  0.24292264760E+02  0.00000000000E+00 0.  1.
</event>
<event>
 7    1  0.1381607E-011  0.5052886E+02  0.7816164E-02  0.1300439E+00
        -11   -1    0    0    0    0  0.00000000000E+00  0.00000000000E+00  0.45593999997E+02  0.45594000000E+02  0.51100000000E-03 0. -1.
         11   -1    0    0    0    0 -0.00000000000E+00 -0.00000000000E+00 -0.45593999997E+02  0.45594000000E+02  0.51100000000E-03 0.  1.
    9900012    2    1    2    0    0 -0.76535366687E+01  0.39134117964E+02  0.79441719901E+01  0.50528859811E+02  0.29999999880E+02 0.  0.
         12    1    1    2    0    0  0.76535366687E+01 -0.39134117964E+02 -0.79441719901E+01  0.40659140189E+02  0.00000000000E+00 0. -1.
         11    1    3    3    0    0  0.24546856709E+01  0.15140384266E+02 -0.53196943688E+01  0.16234403774E+02  0.51100000000E-03 0. -1.
        -11    1    3    3    0    0  0.21021961723E+01  0.10484045873E+02 -0.15698195574E+01  0.10807348441E+02  0.51100000000E-03 0.  1.
        -12    1    3    3    0    0 -0.12210418512E+02  0.13509687825E+02  0.14833685916E+02  0.23487107596E+02  0.00000000000E+00 0.  1.
</event>
<event>
 7    1  0.1381607E-011  0.5052886E+02  0.7816164E-02  0.1300439E+00
        -11   -1    0    0    0    0  0.00000000000E+00  0.00000000000E+00  0.45593999997E+02  0.45594000000E+02  0.51100000000E-03 0. -1.
         11   -1    0    0    0    0 -0.00000000000E+00 -0.00000000000E+00 -0.45593999997E+02  0.45594000000E+02  0.51100000000E-03 0.  1.
    9900012    2    1    2    0    0  0.30362969967E+02 -0.18536853257E+02 -0.19688597086E+02  0.50528859218E+02  0.29999998080E+02 0.  0.
         12    1    1    2    0    0 -0.30362969967E+02  0.18536853257E+02  0.19688597086E+02  0.40659140782E+02  0.00000000000E+00 0. -1.
         11    1    3    3    0    0  0.85646459381E+01 -0.50250054146E+01  0.56465638421E+01  0.11423113540E+02  0.51100000000E-03 0. -1.
        -11    1    3    3    0    0  0.72693096297E+01  0.25686239216E+01 -0.39648979229E+01  0.86695505733E+01  0.51100000000E-03 0.  1.
         12    1    3    3    0    0  0.14529014400E+02 -0.16080471764E+02 -0.21370263005E+02  0.30436195105E+02  0.00000000000E+00 0. -1.
</event>
<event>
 7    1  0.1381607E-011  0.5052886E+02  0.7816164E-02  0.1300439E+00
        -11   -1    0    0    0    0  0.00000000000E+00  0.00000000000E+00  0.45593999997E+02  0.45594000000E+02  0.51100000000E-03 0.  1.
         11   -1    0    0    0    0 -0.00000000000E+00 -0.00000000000E+00 -0.45593999997E+02  0.45594000000E+02  0.51100000000E-03 0. -1.
    9900012    2    1    2    0    0  0.97268959640E+01  0.28199478348E+02  0.27628661785E+02  0.50528855442E+02  0.29999986600E+02 0.  0.
         12    1    1    2    0    0 -0.97268959640E+01 -0.28199478348E+02 -0.27628661785E+02  0.40659144558E+02  0.00000000000E+00 0. -1.
         11    1    3    3    0    0  0.95513380545E+01  0.73222504389E+01 -0.23902850942E+01  0.12270161907E+02  0.51100000000E-03 0. -1.
        -11    1    3    3    0    0 -0.44449661160E+01  0.78491578361E+01  0.70398805626E+01  0.11442330231E+02  0.51100000000E-03 0.  1.
        -12    1    3    3    0    0  0.46205240255E+01  0.13028070073E+02  0.22979066316E+02  0.26816363304E+02  0.00000000000E+00 0.  1.
</event>
<event>
 7    1  0.1381607E-011  0.5052886E+02  0.7816164E-02  0.1300439E+00
        -11   -1    0    0    0    0  0.00000000000E+00  0.00000000000E+00  0.45593999997E+02  0.45594000000E+02  0.51100000000E-03 0.  1.
         11   -1    0    0    0    0 -0.00000000000E+00 -0.00000000000E+00 -0.45593999997E+02  0.45594000000E+02  0.51100000000E-03 0. -1.
    9900012    2    1    2    0    0 -0.13844253969E+02  0.34874774648E+01  0.38070197661E+02  0.50528858138E+02  0.29999994796E+02 0.  0.
         12    1    1    2    0    0  0.13844253969E+02 -0.34874774648E+01 -0.38070197661E+02  0.40659141862E+02  0.00000000000E+00 0. -1.
         11    1    3    3    0    0 -0.24421115830E+01 -0.38121056326E+01 -0.27383715243E+01  0.52910053112E+01  0.51100000000E-03 0.  1.
        -11    1    3    3    0    0 -0.11598000595E+01  0.72026011701E+00 -0.10004798978E+01  0.16925930111E+01  0.51100000000E-03 0. -1.
        -12    1    3    3    0    0 -0.10242342327E+02  0.65793229804E+01  0.41809049083E+02  0.43545259816E+02  0.00000000000E+00 0.  1.
</event>
<event>
 7    1  0.1381607E-011  0.5052886E+02  0.7816164E-02  0.1300439E+00
        -11   -1    0    0    0    0  0.00000000000E+00  0.00000000000E+00  0.45593999997E+02  0.45594000000E+02  0.51100000000E-03 0.  1.
         11   -1    0    0    0    0 -0.00000000000E+00 -0.00000000000E+00 -0.45593999997E+02  0.45594000000E+02  0.51100000000E-03 0. -1.
    9900012    2    1    2    0    0  0.13732654236E+02  0.32478452096E+02  0.20241785642E+02  0.50528861680E+02  0.30000005561E+02 0.  0.
         12    1    1    2    0    0 -0.13732654236E+02 -0.32478452096E+02 -0.20241785642E+02  0.40659138320E+02  0.00000000000E+00 0. -1.
         11    1    3    3    0    0  0.63217909193E+00  0.51770650620E+01  0.14135826169E+02  0.15067290227E+02  0.51100000000E-03 0. -1.
        -11    1    3    3    0    0  0.12827563519E+02  0.97024579019E+01  0.76162985318E+01  0.17795844424E+02  0.51100000000E-03 0.  1.
         12    1    3    3    0    0  0.27291162537E+00  0.17598929133E+02 -0.15103390582E+01  0.17665727028E+02  0.00000000000E+00 0. -1.
</event>
<event>
 7    1  0.1381607E-011  0.5052887E+02  0.7816164E-02  0.1300439E+00
        -11   -1    0    0    0    0  0.00000000000E+00  0.00000000000E+00  0.45593999997E+02  0.45594000000E+02  0.51100000000E-03 0.  1.
         11   -1    0    0    0    0 -0.00000000000E+00 -0.00000000000E+00 -0.45593999997E+02  0.45594000000E+02  0.51100000000E-03 0. -1.
    9900012    2    1    2    0    0  0.34831529428E+02 -0.81617373354E+01  0.19321374959E+02  0.50528869059E+02  0.30000027991E+02 0.  0.
         12    1    1    2    0    0 -0.34831529428E+02  0.81617373354E+01 -0.19321374959E+02  0.40659130941E+02  0.00000000000E+00 0. -1.
         11    1    3    3    0    0 -0.17688338209E+00 -0.20516619472E+01 -0.51670115520E+01  0.55622489261E+01  0.51100000000E-03 0. -1.
        -11    1    3    3    0    0  0.66064420628E+01 -0.62507879619E+01  0.39458904932E+01  0.99140041819E+01  0.51100000000E-03 0.  1.
        -12    1    3    3    0    0  0.28401970747E+02  0.14071257370E+00  0.20542496018E+02  0.35052615951E+02  0.00000000000E+00 0.  1.
</event>
<event>
 7    1  0.1381607E-011  0.5052887E+02  0.7816164E-02  0.1300439E+00
        -11   -1    0    0    0    0  0.00000000000E+00  0.00000000000E+00  0.45593999997E+02  0.45594000000E+02  0.51100000000E-03 0.  1.
         11   -1    0    0    0    0 -0.00000000000E+00 -0.00000000000E+00 -0.45593999997E+02  0.45594000000E+02  0.51100000000E-03 0. -1.
    9900012    2    1    2    0    0 -0.38394732854E+01 -0.36245020393E+02  0.18020037323E+02  0.50528870601E+02  0.30000032678E+02 0.  0.
         12    1    1    2    0    0  0.38394732854E+01  0.36245020393E+02 -0.18020037323E+02  0.40659129399E+02  0.00000000000E+00 0. -1.
         11    1    3    3    0    0  0.96184925523E+01 -0.16314899770E+02  0.96306713767E+00  0.18963619170E+02  0.51100000000E-03 0. -1.
        -11    1    3    3    0    0 -0.39072501391E+01 -0.42903461922E+01 -0.94220059545E+00  0.58788958421E+01  0.51100000000E-03 0.  1.
         12    1    3    3    0    0 -0.95507156986E+01 -0.15639774431E+02  0.17999170781E+02  0.25686355588E+02  0.00000000000E+00 0. -1.
</event>
<event>
 7    1  0.1381607E-011  0.5052885E+02  0.7816164E-02  0.1300439E+00
        -11   -1    0    0    0    0  0.00000000000E+00  0.00000000000E+00  0.45593999997E+02  0.45594000000E+02  0.51100000000E-03 0.  1.
         11   -1    0    0    0    0 -0.00000000000E+00 -0.00000000000E+00 -0.45593999997E+02  0.45594000000E+02  0.51100000000E-03 0. -1.
    9900012    2    1    2    0    0  0.14710545201E+02  0.99575456531E+01  0.36573401258E+02  0.50528849306E+02  0.29999967951E+02 0.  0.
         12    1    1    2    0    0 -0.14710545201E+02 -0.99575456531E+01 -0.36573401258E+02  0.40659150694E+02  0.00000000000E+00 0. -1.
         11    1    3    3    0    0  0.13246096204E+02 -0.38427358259E+01  0.10502418748E+02  0.17335699672E+02  0.51100000000E-03 0. -1.
        -11    1    3    3    0    0  0.79309513489E+01  0.79388654533E+01  0.10634465482E+02  0.15460188561E+02  0.51100000000E-03 0.  1.
         12    1    3    3    0    0 -0.64665023520E+01  0.58614160257E+01  0.15436517028E+02  0.17732961074E+02  0.00000000000E+00 0. -1.
</event>
<event>
 7    1  0.1381607E-011  0.5052886E+02  0.7816164E-02  0.1300439E+00
        -11   -1    0    0    0    0  0.00000000000E+00  0.00000000000E+00  0.45593999997E+02  0.45594000000E+02  0.51100000000E-03 0. -1.
         11   -1    0    0    0    0 -0.00000000000E+00 -0.00000000000E+00 -0.45593999997E+02  0.45594000000E+02  0.51100000000E-03 0.  1.
    9900012    2    1    2    0    0 -0.24006903830E+02  0.29192411701E+02 -0.14987898782E+02  0.50528862745E+02  0.30000008801E+02 0.  0.
         12    1    1    2    0    0  0.24006903830E+02 -0.29192411701E+02  0.14987898782E+02  0.40659137255E+02  0.00000000000E+00 0. -1.
         11    1    3    3    0    0 -0.45701716768E+01  0.23669426638E+02 -0.83560046646E+01  0.25513742194E+02  0.51100000000E-03 0. -1.
        -11    1    3    3    0    0 -0.23364784461E+00  0.16930606605E+01  0.28001882943E+01  0.32805640460E+01  0.51100000000E-03 0.  1.
        -12    1    3    3    0    0 -0.19203084308E+02  0.38299244024E+01 -0.94320824114E+01  0.21734556506E+02  0.00000000000E+00 0.  1.
</event>
<event>
 7    1  0.1381607E-011  0.5052886E+02  0.7816164E-02  0.1300439E+00
        -11   -1    0    0    0    0  0.00000000000E+00  0.00000000000E+00  0.45593999997E+02  0.45594000000E+02  0.51100000000E-03 0. -1.
         11   -1    0    0    0    0 -0.00000000000E+00 -0.00000000000E+00 -0.45593999997E+02  0.45594000000E+02  0.51100000000E-03 0.  1.
    9900012    2    1    2    0    0 -0.33872384893E+02 -0.17920150845E+02  0.13590269239E+02  0.50528859790E+02  0.29999999817E+02 0.  0.
         12    1    1    2    0    0  0.33872384893E+02  0.17920150845E+02 -0.13590269239E+02  0.40659140210E+02  0.00000000000E+00 0. -1.
         11    1    3    3    0    0 -0.26069297806E+01 -0.55520423121E+01  0.94051697290E+01  0.11228467153E+02  0.51100000000E-03 0. -1.
        -11    1    3    3    0    0 -0.20655056380E+02 -0.16856635602E+02  0.67412456731E+01  0.27499489293E+02  0.51100000000E-03 0.  1.
         12    1    3    3    0    0 -0.10610398733E+02  0.44885270697E+01 -0.25561461631E+01  0.11800903344E+02  0.00000000000E+00 0. -1.
</event>
<event>
 7    1  0.1381607E-011  0.5052886E+02  0.7816164E-02  0.1300439E+00
        -11   -1    0    0    0    0  0.00000000000E+00  0.00000000000E+00  0.45593999997E+02  0.45594000000E+02  0.51100000000E-03 0.  1.
         11   -1    0    0    0    0 -0.00000000000E+00 -0.00000000000E+00 -0.45593999997E+02  0.45594000000E+02  0.51100000000E-03 0. -1.
    9900012    2    1    2    0    0 -0.30297194615E+02  0.25619798252E+02  0.88809798239E+01  0.50528857527E+02  0.29999992939E+02 0.  0.
         12    1    1    2    0    0  0.30297194615E+02 -0.25619798252E+02 -0.88809798239E+01  0.40659142473E+02  0.00000000000E+00 0. -1.
         11    1    3    3    0    0 -0.42632031577E+01  0.10184907067E+02  0.28495351745E+01  0.11402941906E+02  0.51100000000E-03 0. -1.
        -11    1    3    3    0    0 -0.21675292270E+02  0.21927972712E+02  0.45536174599E+01  0.31167125541E+02  0.51100000000E-03 0.  1.
         12    1    3    3    0    0 -0.43586991876E+01 -0.64930815281E+01  0.14778271896E+01  0.79587900802E+01  0.00000000000E+00 0. -1.
</event>
<event>
 7    1  0.1381607E-011  0.5052886E+02  0.7816164E-02  0.1300439E+00
        -11   -1    0    0    0    0  0.00000000000E+00  0.00000000000E+00  0.45593999997E+02  0.45594000000E+02  0.51100000000E-03 0.  1.
         11   -1    0    0    0    0 -0.00000000000E+00 -0.00000000000E+00 -0.45593999997E+02  0.45594000000E+02  0.51100000000E-03 0. -1.
    9900012    2    1    2    0    0 -0.11665834148E+02 -0.38276759914E+02  0.72085849691E+01  0.50528859169E+02  0.29999997929E+02 0.  0.
         12    1    1    2    0    0  0.11665834148E+02  0.38276759914E+02 -0.72085849691E+01  0.40659140831E+02  0.00000000000E+00 0. -1.
         11    1    3    3    0    0 -0.59266631710E+01 -0.10276147586E+02 -0.52636560723E+01  0.12978082334E+02  0.51100000000E-03 0. -1.
        -11    1    3    3    0    0 -0.23811524429E+01 -0.16142879933E+02 -0.41702094101E+01  0.16842004224E+02  0.51100000000E-03 0.  1.
        -12    1    3    3    0    0 -0.33580185346E+01 -0.11857732395E+02  0.16642450452E+02  0.20708772611E+02  0.00000000000E+00 0.  1.
</event>
<event>
 7    1  0.1381607E-011  0.5052887E+02  0.7816164E-02  0.1300439E+00
        -11   -1    0    0    0    0  0.00000000000E+00  0.00000000000E+00  0.45593999997E+02  0.45594000000E+02  0.51100000000E-03 0.  1.
         11   -1    0    0    0    0 -0.00000000000E+00 -0.00000000000E+00 -0.45593999997E+02  0.45594000000E+02  0.51100000000E-03 0. -1.
    9900012    2    1    2    0    0 -0.31583063671E+02 -0.85972230305E+01  0.24119761868E+02  0.50528867358E+02  0.30000022820E+02 0.  0.
         12    1    1    2    0    0  0.31583063671E+02  0.85972230305E+01 -0.24119761868E+02  0.40659132642E+02  0.00000000000E+00 0. -1.
         11    1    3    3    0    0 -0.37521767374E+01  0.16896308199E+01  0.13988465005E+02  0.14581180886E+02  0.51100000000E-03 0. -1.
        -11    1    3    3    0    0 -0.15835360056E+01 -0.75743777031E+01  0.45501146309E+01  0.89767659703E+01  0.51100000000E-03 0.  1.
        -12    1    3    3    0    0 -0.26247350928E+02 -0.27124761473E+01  0.55811822324E+01  0.26970920501E+02  0.00000000000E+00 0.  1.
</event>
<event>
 7    1  0.1381607E-011  0.5052885E+02  0.7816164E-02  0.1300439E+00
        -11   -1    0    0    0    0  0.00000000000E+00  0.00000000000E+00  0.45593999997E+02  0.45594000000E+02  0.51100000000E-03 0.  1.
         11   -1    0    0    0    0 -0.00000000000E+00 -0.00000000000E+00 -0.45593999997E+02  0.45594000000E+02  0.51100000000E-03 0. -1.
    9900012    2    1    2    0    0 -0.22443722445E+02  0.19096621089E+02  0.28013651193E+02  0.50528852599E+02  0.29999977960E+02 0.  0.
         12    1    1    2    0    0  0.22443722445E+02 -0.19096621089E+02 -0.28013651193E+02  0.40659147401E+02  0.00000000000E+00 0. -1.
         11    1    3    3    0    0 -0.76006635814E+01  0.12233339055E+01  0.53297850377E+01  0.93633990373E+01  0.51100000000E-03 0. -1.
        -11    1    3    3    0    0 -0.11935768363E+02  0.14511563904E+02  0.76991762732E+00  0.18805340379E+02  0.51100000000E-03 0.  1.
        -12    1    3    3    0    0 -0.29072905010E+01  0.33617232794E+01  0.21913948528E+02  0.22360113183E+02  0.00000000000E+00 0.  1.
</event>
<event>
 7    1  0.1381607E-011  0.5052887E+02  0.7816164E-02  0.1300439E+00
        -11   -1    0    0    0    0  0.00000000000E+00  0.00000000000E+00  0.45593999997E+02  0.45594000000E+02  0.51100000000E-03 0.  1.
         11   -1    0    0    0    0 -0.00000000000E+00 -0.00000000000E+00 -0.45593999997E+02  0.45594000000E+02  0.51100000000E-03 0. -1.
    9900012    2    1    2    0    0 -0.32116197633E+02  0.13665603134E+02  0.20855846458E+02  0.50528865837E+02  0.30000018198E+02 0.  0.
         12    1    1    2    0    0  0.32116197633E+02 -0.13665603134E+02 -0.20855846458E+02  0.40659134163E+02  0.00000000000E+00 0. -1.
         11    1    3    3    0    0  0.35389955640E+01  0.55969428712E+01  0.10262256488E+02  0.12213278331E+02  0.51100000000E-03 0. -1.
        -11    1    3    3    0    0 -0.28218969188E+00 -0.14605580080E+00  0.55459556784E+00  0.63917120096E+00  0.51100000000E-03 0.  1.
         12    1    3    3    0    0 -0.35373003505E+02  0.82147160631E+01  0.10038994402E+02  0.37676416305E+02  0.00000000000E+00 0. -1.
</event>
<event>
 7    1  0.1381607E-011  0.5052886E+02  0.7816164E-02  0.1300439E+00
        -11   -1    0    0    0    0  0.00000000000E+00  0.00000000000E+00  0.45593999997E+02  0.45594000000E+02  0.51100000000E-03 0. -1.
         11   -1    0    0    0    0 -0.00000000000E+00 -0.00000000000E+00 -0.45593999997E+02  0.45594000000E+02  0.51100000000E-03 0.  1.
    9900012    2    1    2    0    0  0.28155018797E+02  0.28180259585E+02 -0.81445493875E+01  0.50528858365E+02  0.29999995487E+02 0.  0.
         12    1    1    2    0    0 -0.28155018797E+02 -0.28180259585E+02  0.81445493875E+01  0.40659141635E+02  0.00000000000E+00 0. -1.
         11    1    3    3    0    0  0.39782347312E+01  0.25277456846E+01 -0.74807241860E+01  0.88417806143E+01  0.51100000000E-03 0. -1.
        -11    1    3    3    0    0  0.25231257740E+02  0.28830043545E+02 -0.98003865087E+00  0.38324251512E+02  0.51100000000E-03 0.  1.
         12    1    3    3    0    0 -0.10544736739E+01 -0.31775296442E+01  0.31621344933E+00  0.33628262391E+01  0.00000000000E+00 0. -1.
</event>
<event>
 7    1  0.1381607E-011  0.5052885E+02  0.7816164E-02  0.1300439E+00
        -11   -1    0    0    0    0  0.00000000000E+00  0.00000000000E+00  0.45593999997E+02  0.45594000000E+02  0.51100000000E-03 0.  1.
         11   -1    0    0    0    0 -0.00000000000E+00 -0.00000000000E+00 -0.45593999997E+02  0.45594000000E+02  0.51100000000E-03 0. -1.
    9900012    2    1    2    0    0 -0.30422164145E+02 -0.10794078301E+02  0.24721367473E+02  0.50528853337E+02  0.29999980204E+02 0.  0.
         12    1    1    2    0    0  0.30422164145E+02  0.10794078301E+02 -0.24721367473E+02  0.40659146663E+02  0.00000000000E+00 0. -1.
         11    1    3    3    0    0 -0.20034787898E+02 -0.38948718324E+01  0.14188717539E+02  0.24857241568E+02  0.51100000000E-03 0. -1.
        -11    1    3    3    0    0 -0.10788568366E+02 -0.10801786764E+02  0.13789813008E+02  0.20572572706E+02  0.51100000000E-03 0.  1.
         12    1    3    3    0    0  0.40119211882E+00  0.39025802955E+01 -0.32571630743E+01  0.50990390636E+01  0.00000000000E+00 0. -1.
</event>
<event>
 7    1  0.1381607E-011  0.5052886E+02  0.7816164E-02  0.1300439E+00
        -11   -1    0    0    0    0  0.00000000000E+00  0.00000000000E+00  0.45593999997E+02  0.45594000000E+02  0.51100000000E-03 0.  1.
         11   -1    0    0    0    0 -0.00000000000E+00 -0.00000000000E+00 -0.45593999997E+02  0.45594000000E+02  0.51100000000E-03 0. -1.
    9900012    2    1    2    0    0 -0.17997044660E+00  0.27568692788E+02  0.29884785378E+02  0.50528860701E+02  0.30000002588E+02 0.  0.
         12    1    1    2    0    0  0.17997044660E+00 -0.27568692788E+02 -0.29884785378E+02  0.40659139299E+02  0.00000000000E+00 0. -1.
         11    1    3    3    0    0  0.26412382526E+01 -0.19622619756E+01 -0.13206236476E+00  0.32930308680E+01  0.51100000000E-03 0. -1.
        -11    1    3    3    0    0  0.43628075220E+01  0.16300440050E+02  0.27064478431E+02  0.31893955984E+02  0.51100000000E-03 0.  1.
        -12    1    3    3    0    0 -0.71840162212E+01  0.13230514713E+02  0.29523693118E+01  0.15341873849E+02  0.00000000000E+00 0.  1.
</event>
<event>
 7    1  0.1381607E-011  0.5052885E+02  0.7816164E-02  0.1300439E+00
        -11   -1    0    0    0    0  0.00000000000E+00  0.00000000000E+00  0.45593999997E+02  0.45594000000E+02  0.51100000000E-03 0.  1.
         11   -1    0    0    0    0 -0.00000000000E+00 -0.00000000000E+00 -0.45593999997E+02  0.45594000000E+02  0.51100000000E-03 0. -1.
    9900012    2    1    2    0    0 -0.40690483241E+01  0.14613351923E+02  0.37723454902E+02  0.50528852709E+02  0.29999978294E+02 0.  0.
         12    1    1    2    0    0  0.40690483241E+01 -0.14613351923E+02 -0.37723454902E+02  0.40659147291E+02  0.00000000000E+00 0. -1.
         11    1    3    3    0    0 -0.14136813091E+02  0.13208268360E+02  0.28445864912E+02  0.34401672464E+02  0.51100000000E-03 0.  1.
        -11    1    3    3    0    0  0.77800839579E+01  0.43748580024E+01  0.84437544277E+01  0.12286825385E+02  0.51100000000E-03 0. -1.
        -12    1    3    3    0    0  0.22876808093E+01 -0.29697744397E+01  0.83383556213E+00  0.38403548602E+01  0.00000000000E+00 0.  1.
</event>
<event>
 7    1  0.1381607E-011  0.5052886E+02  0.7816164E-02  0.1300439E+00
        -11   -1    0    0    0    0  0.00000000000E+00  0.00000000000E+00  0.45593999997E+02  0.45594000000E+02  0.51100000000E-03 0.  1.
         11   -1    0    0    0    0 -0.00000000000E+00 -0.00000000000E+00 -0.45593999997E+02  0.45594000000E+02  0.51100000000E-03 0. -1.
    9900012    2    1    2    0    0  0.82631824443E+00 -0.30523732491E+02  0.26847436236E+02  0.50528857370E+02  0.29999992460E+02 0.  0.
         12    1    1    2    0    0 -0.82631824443E+00  0.30523732491E+02 -0.26847436236E+02  0.40659142630E+02  0.00000000000E+00 0. -1.
         11    1    3    3    0    0 -0.63562243503E+01 -0.18275993651E+02  0.12900506719E+02  0.23255894001E+02  0.51100000000E-03 0. -1.
        -11    1    3    3    0    0 -0.43895431243E+01  0.17808745854E+01  0.53870087954E+01  0.71735254340E+01  0.51100000000E-03 0.  1.
         12    1    3    3    0    0  0.11572085719E+02 -0.14028613425E+02  0.85599207217E+01  0.20099437934E+02  0.00000000000E+00 0. -1.
</event>
<event>
 7    1  0.1381607E-011  0.5052887E+02  0.7816164E-02  0.1300439E+00
        -11   -1    0    0    0    0  0.00000000000E+00  0.00000000000E+00  0.45593999997E+02  0.45594000000E+02  0.51100000000E-03 0. -1.
         11   -1    0    0    0    0 -0.00000000000E+00 -0.00000000000E+00 -0.45593999997E+02  0.45594000000E+02  0.51100000000E-03 0.  1.
    9900012    2    1    2    0    0  0.11965684419E+02 -0.22873668495E+02 -0.31413090388E+02  0.50528873574E+02  0.30000041716E+02 0.  0.
         12    1    1    2    0    0 -0.11965684419E+02  0.22873668495E+02  0.31413090388E+02  0.40659126426E+02  0.00000000000E+00 0. -1.
         11    1    3    3    0    0  0.69177694088E+01 -0.21921043253E+02 -0.12145554336E+02  0.25998118418E+02  0.51100000000E-03 0. -1.
        -11    1    3    3    0    0 -0.26021749622E+01 -0.50078463917E-01  0.10465435381E+01  0.28051873422E+01  0.51100000000E-03 0.  1.
        -12    1    3    3    0    0  0.76500899720E+01 -0.90254677766E+00 -0.20314079590E+02  0.21725567814E+02  0.00000000000E+00 0.  1.
</event>
<event>
 7    1  0.1381607E-011  0.5052882E+02  0.7816164E-02  0.1300439E+00
        -11   -1    0    0    0    0  0.00000000000E+00  0.00000000000E+00  0.45593999997E+02  0.45594000000E+02  0.51100000000E-03 0.  1.
         11   -1    0    0    0    0 -0.00000000000E+00 -0.00000000000E+00 -0.45593999997E+02  0.45594000000E+02  0.51100000000E-03 0. -1.
    9900012    2    1    2    0    0 -0.33686201727E+02 -0.22553478150E+02  0.31223366599E+01  0.50528824533E+02  0.29999892649E+02 0.  0.
         12    1    1    2    0    0  0.33686201727E+02  0.22553478150E+02 -0.31223366599E+01  0.40659175467E+02  0.00000000000E+00 0. -1.
         11    1    3    3    0    0 -0.32278547152E+00 -0.65194704368E+01 -0.44662513864E+01  0.79091773874E+01  0.51100000000E-03 0. -1.
        -11    1    3    3    0    0 -0.64804960479E+01 -0.12932873293E+02  0.55071290837E+01  0.15478517747E+02  0.51100000000E-03 0.  1.
         12    1    3    3    0    0 -0.26882920208E+02 -0.31011344202E+01  0.20814589627E+01  0.27141129398E+02  0.00000000000E+00 0. -1.
</event>
<event>
 7    1  0.1381607E-011  0.5052886E+02  0.7816164E-02  0.1300439E+00
        -11   -1    0    0    0    0  0.00000000000E+00  0.00000000000E+00  0.45593999997E+02  0.45594000000E+02  0.51100000000E-03 0.  1.
         11   -1    0    0    0    0 -0.00000000000E+00 -0.00000000000E+00 -0.45593999997E+02  0.45594000000E+02  0.51100000000E-03 0. -1.
    9900012    2    1    2    0    0  0.25698901918E+01 -0.19120949208E+02  0.35790371078E+02  0.50528859624E+02  0.29999999314E+02 0.  0.
         12    1    1    2    0    0 -0.25698901918E+01  0.19120949208E+02 -0.35790371078E+02  0.40659140376E+02  0.00000000000E+00 0. -1.
         11    1    3    3    0    0 -0.11236926551E+02 -0.81671223905E+01  0.99287090561E+01  0.17074825628E+02  0.51100000000E-03 0. -1.
        -11    1    3    3    0    0  0.52212795096E+00  0.15834233854E+01  0.70049253922E+01  0.72006129757E+01  0.51100000000E-03 0.  1.
         12    1    3    3    0    0  0.13284688792E+02 -0.12537250203E+02  0.18856736630E+02  0.26253421020E+02  0.00000000000E+00 0. -1.
</event>
<event>
 7    1  0.1381607E-011  0.5052884E+02  0.7816164E-02  0.1300439E+00
        -11   -1    0    0    0    0  0.00000000000E+00  0.00000000000E+00  0.45593999997E+02  0.45594000000E+02  0.51100000000E-03 0.  1.
         11   -1    0    0    0    0 -0.00000000000E+00 -0.00000000000E+00 -0.45593999997E+02  0.45594000000E+02  0.51100000000E-03 0. -1.
    9900012    2    1    2    0    0 -0.33434235783E+02 -0.21846718651E+02  0.76183841157E+01  0.50528843408E+02  0.29999950023E+02 0.  0.
         12    1    1    2    0    0  0.33434235783E+02  0.21846718651E+02 -0.76183841157E+01  0.40659156592E+02  0.00000000000E+00 0. -1.
         11    1    3    3    0    0  0.21723117452E+01 -0.33134922376E+00  0.48388044790E+00  0.22500824819E+01  0.51100000000E-03 0. -1.
        -11    1    3    3    0    0 -0.30649089725E+02 -0.65419743069E+01  0.10011234899E+01  0.31355484006E+02  0.51100000000E-03 0.  1.
         12    1    3    3    0    0 -0.49574578040E+01 -0.14973395120E+02  0.61333801779E+01  0.16923276920E+02  0.00000000000E+00 0. -1.
</event>
<event>
 7    1  0.1381607E-011  0.5052886E+02  0.7816164E-02  0.1300439E+00
        -11   -1    0    0    0    0  0.00000000000E+00  0.00000000000E+00  0.45593999997E+02  0.45594000000E+02  0.51100000000E-03 0.  1.
         11   -1    0    0    0    0 -0.00000000000E+00 -0.00000000000E+00 -0.45593999997E+02  0.45594000000E+02  0.51100000000E-03 0. -1.
    9900012    2    1    2    0    0  0.63872531611E+01  0.31631452029E+01  0.40029531739E+02  0.50528857095E+02  0.29999991626E+02 0.  0.
         12    1    1    2    0    0 -0.63872531611E+01 -0.31631452029E+01 -0.40029531739E+02  0.40659142905E+02  0.00000000000E+00 0. -1.
         11    1    3    3    0    0  0.14002846284E+01  0.12921653783E+02  0.20361682320E+02  0.24156325067E+02  0.51100000000E-03 0. -1.
        -11    1    3    3    0    0  0.27947600533E+01  0.15870960417E+01  0.12194705629E+02  0.12611122204E+02  0.51100000000E-03 0.  1.
        -12    1    3    3    0    0  0.21922084794E+01 -0.11345604622E+02  0.74731437897E+01  0.13761409825E+02  0.00000000000E+00 0.  1.
</event>
<event>
 7    1  0.1381607E-011  0.5052887E+02  0.7816164E-02  0.1300439E+00
        -11   -1    0    0    0    0  0.00000000000E+00  0.00000000000E+00  0.45593999997E+02  0.45594000000E+02  0.51100000000E-03 0. -1.
         11   -1    0    0    0    0 -0.00000000000E+00 -0.00000000000E+00 -0.45593999997E+02  0.45594000000E+02  0.51100000000E-03 0.  1.
    9900012    2    1    2    0    0  0.34725897534E+02 -0.15823147935E+02 -0.14032269041E+02  0.50528873786E+02  0.30000042358E+02 0.  0.
         12    1    1    2    0    0 -0.34725897534E+02  0.15823147935E+02  0.14032269041E+02  0.40659126214E+02  0.00000000000E+00 0. -1.
         11    1    3    3    0    0 -0.25601169349E+01  0.13652722466E+01 -0.34773458372E+00  0.29221715606E+01  0.51100000000E-03 0. -1.
        -11    1    3    3    0    0  0.67287635010E+01 -0.95319879810E+01 -0.10925236878E+02  0.15984237680E+02  0.51100000000E-03 0.  1.
        -12    1    3    3    0    0  0.30557250968E+02 -0.76564322002E+01 -0.27592975793E+01  0.31622464545E+02  0.00000000000E+00 0.  1.
</event>
<event>
 7    1  0.1381607E-011  0.5052884E+02  0.7816164E-02  0.1300439E+00
        -11   -1    0    0    0    0  0.00000000000E+00  0.00000000000E+00  0.45593999997E+02  0.45594000000E+02  0.51100000000E-03 0.  1.
         11   -1    0    0    0    0 -0.00000000000E+00 -0.00000000000E+00 -0.45593999997E+02  0.45594000000E+02  0.51100000000E-03 0. -1.
    9900012    2    1    2    0    0  0.18814562769E+02  0.33717341633E+02  0.12740512474E+02  0.50528836739E+02  0.29999929750E+02 0.  0.
         12    1    1    2    0    0 -0.18814562769E+02 -0.33717341633E+02 -0.12740512474E+02  0.40659163261E+02  0.00000000000E+00 0. -1.
         11    1    3    3    0    0  0.14799936149E+02  0.13427845234E+02  0.51049138907E+01  0.20625355360E+02  0.51100000000E-03 0. -1.
        -11    1    3    3    0    0  0.45952121625E+01  0.41645466573E+01  0.11719583002E+02  0.13259262788E+02  0.51100000000E-03 0.  1.
         12    1    3    3    0    0 -0.58058554214E+00  0.16124949742E+02 -0.40839844189E+01  0.16644218590E+02  0.00000000000E+00 0. -1.
</event>
<event>
 7    1  0.1381607E-011  0.5052886E+02  0.7816164E-02  0.1300439E+00
        -11   -1    0    0    0    0  0.00000000000E+00  0.00000000000E+00  0.45593999997E+02  0.45594000000E+02  0.51100000000E-03 0. -1.
         11   -1    0    0    0    0 -0.00000000000E+00 -0.00000000000E+00 -0.45593999997E+02  0.45594000000E+02  0.51100000000E-03 0.  1.
    9900012    2    1    2    0    0  0.18171959911E+02 -0.33080357302E+02 -0.15120699803E+02  0.50528859223E+02  0.29999998094E+02 0.  0.
         12    1    1    2    0    0 -0.18171959911E+02  0.33080357302E+02  0.15120699803E+02  0.40659140777E+02  0.00000000000E+00 0. -1.
         11    1    3    3    0    0  0.13424436165E+01 -0.21743255359E+02 -0.14228136872E+02  0.26019438648E+02  0.51100000000E-03 0.  1.
        -11    1    3    3    0    0  0.98357144839E+01 -0.13380960819E+02 -0.31046926112E+01  0.16894688761E+02  0.51100000000E-03 0. -1.
         12    1    3    3    0    0  0.69938018108E+01  0.20438588766E+01  0.22121296801E+01  0.76147318139E+01  0.00000000000E+00 0. -1.
</event>
<event>
 7    1  0.1381607E-011  0.5052886E+02  0.7816164E-02  0.1300439E+00
        -11   -1    0    0    0    0  0.00000000000E+00  0.00000000000E+00  0.45593999997E+02  0.45594000000E+02  0.51100000000E-03 0.  1.
         11   -1    0    0    0    0 -0.00000000000E+00 -0.00000000000E+00 -0.45593999997E+02  0.45594000000E+02  0.51100000000E-03 0. -1.
    9900012    2    1    2    0    0 -0.17646942944E+02 -0.19530324437E+01  0.36577821914E+02  0.50528856047E+02  0.29999988442E+02 0.  0.
         12    1    1    2    0    0  0.17646942944E+02  0.19530324437E+01 -0.36577821914E+02  0.40659143953E+02  0.00000000000E+00 0. -1.
         11    1    3    3    0    0  0.15326552344E+01 -0.23869169379E+01  0.32961011963E+00  0.28557044014E+01  0.51100000000E-03 0. -1.
        -11    1    3    3    0    0 -0.35348791172E+01 -0.10823172802E+02  0.10326034004E+02  0.15370862643E+02  0.51100000000E-03 0.  1.
        -12    1    3    3    0    0 -0.15644719061E+02  0.11257057296E+02  0.25922177790E+02  0.32302289003E+02  0.00000000000E+00 0.  1.
</event>
<event>
 7    1  0.1381607E-011  0.5052885E+02  0.7816164E-02  0.1300439E+00
        -11   -1    0    0    0    0  0.00000000000E+00  0.00000000000E+00  0.45593999997E+02  0.45594000000E+02  0.51100000000E-03 0. -1.
         11   -1    0    0    0    0 -0.00000000000E+00 -0.00000000000E+00 -0.45593999997E+02  0.45594000000E+02  0.51100000000E-03 0.  1.
    9900012    2    1    2    0    0  0.32927331322E+02  0.54185961387E+01 -0.23229202156E+02  0.50528853859E+02  0.29999981791E+02 0.  0.
         12    1    1    2    0    0 -0.32927331322E+02 -0.54185961387E+01  0.23229202156E+02  0.40659146141E+02  0.00000000000E+00 0. -1.
         11    1    3    3    0    0  0.93357868680E+01 -0.35758178963E+01  0.22200310667E+01  0.10240699599E+02  0.51100000000E-03 0. -1.
        -11    1    3    3    0    0  0.12349652860E+02  0.11029372148E+02 -0.57723944032E+01  0.17535150788E+02  0.51100000000E-03 0.  1.
        -12    1    3    3    0    0  0.11241891593E+02 -0.20349581128E+01 -0.19676838819E+02  0.22753003473E+02  0.00000000000E+00 0.  1.
</event>
<event>
 7    1  0.1381607E-011  0.5052886E+02  0.7816164E-02  0.1300439E+00
        -11   -1    0    0    0    0  0.00000000000E+00  0.00000000000E+00  0.45593999997E+02  0.45594000000E+02  0.51100000000E-03 0. -1.
         11   -1    0    0    0    0 -0.00000000000E+00 -0.00000000000E+00 -0.45593999997E+02  0.45594000000E+02  0.51100000000E-03 0.  1.
    9900012    2    1    2    0    0 -0.14383290701E+00 -0.24823327414E+02 -0.32201673804E+02  0.50528855056E+02  0.29999985429E+02 0.  0.
         12    1    1    2    0    0  0.14383290701E+00  0.24823327414E+02  0.32201673804E+02  0.40659144944E+02  0.00000000000E+00 0. -1.
         11    1    3    3    0    0 -0.36988368977E+01  0.12529327805E+01 -0.19314686412E+01  0.43568114856E+01  0.51100000000E-03 0. -1.
        -11    1    3    3    0    0 -0.32966927870E+01 -0.66307673320E+01 -0.23236590825E+02  0.24387997297E+02  0.51100000000E-03 0.  1.
         12    1    3    3    0    0  0.68516967777E+01 -0.19445492862E+02 -0.70336143374E+01  0.21784046273E+02  0.00000000000E+00 0. -1.
</event>
<event>
 7    1  0.1381607E-011  0.5052887E+02  0.7816164E-02  0.1300439E+00
        -11   -1    0    0    0    0  0.00000000000E+00  0.00000000000E+00  0.45593999997E+02  0.45594000000E+02  0.51100000000E-03 0.  1.
         11   -1    0    0    0    0 -0.00000000000E+00 -0.00000000000E+00 -0.45593999997E+02  0.45594000000E+02  0.51100000000E-03 0. -1.
    9900012    2    1    2    0    0 -0.37344241060E+02 -0.88628513239E+01 -0.13417236794E+02  0.50528871663E+02  0.30000035908E+02 0.  0.
         12    1    1    2    0    0  0.37344241060E+02  0.88628513239E+01  0.13417236794E+02  0.40659128337E+02  0.00000000000E+00 0. -1.
         11    1    3    3    0    0 -0.68333061452E+01  0.64233431710E+01  0.49188769359E+01  0.10590031206E+02  0.51100000000E-03 0. -1.
        -11    1    3    3    0    0 -0.70657516282E+01  0.48279737110E+00 -0.51608601088E+01  0.87631282484E+01  0.51100000000E-03 0.  1.
        -12    1    3    3    0    0 -0.23445183286E+02 -0.15768991866E+02 -0.13175253621E+02  0.31175712209E+02  0.00000000000E+00 0.  1.
</event>
<event>
 7    1  0.1381607E-011  0.5052886E+02  0.7816164E-02  0.1300439E+00
        -11   -1    0    0    0    0  0.00000000000E+00  0.00000000000E+00  0.45593999997E+02  0.45594000000E+02  0.51100000000E-03 0. -1.
         11   -1    0    0    0    0 -0.00000000000E+00 -0.00000000000E+00 -0.45593999997E+02  0.45594000000E+02  0.51100000000E-03 0.  1.
    9900012    2    1    2    0    0 -0.23529728672E+02 -0.98156776583E+01 -0.31672864133E+02  0.50528856113E+02  0.29999988641E+02 0.  0.
         12    1    1    2    0    0  0.23529728672E+02  0.98156776583E+01  0.31672864133E+02  0.40659143887E+02  0.00000000000E+00 0. -1.
         11    1    3    3    0    0 -0.47146023286E+00 -0.82764864328E+01  0.11754656817E+01  0.83728264197E+01  0.51100000000E-03 0. -1.
        -11    1    3    3    0    0 -0.37599601573E+01  0.44409690144E+01 -0.45550886712E+01  0.73897455460E+01  0.51100000000E-03 0.  1.
        -12    1    3    3    0    0 -0.19298308281E+02 -0.59801602399E+01 -0.28293241143E+02  0.34766284147E+02  0.00000000000E+00 0.  1.
</event>
<event>
 7    1  0.1381607E-011  0.5052888E+02  0.7816164E-02  0.1300439E+00
        -11   -1    0    0    0    0  0.00000000000E+00  0.00000000000E+00  0.45593999997E+02  0.45594000000E+02  0.51100000000E-03 0. -1.
         11   -1    0    0    0    0 -0.00000000000E+00 -0.00000000000E+00 -0.45593999997E+02  0.45594000000E+02  0.51100000000E-03 0.  1.
    9900012    2    1    2    0    0 -0.18049957008E+02  0.74368720167E+01 -0.35665893703E+02  0.50528880642E+02  0.30000063199E+02 0.  0.
         12    1    1    2    0    0  0.18049957008E+02 -0.74368720167E+01  0.35665893703E+02  0.40659119358E+02  0.00000000000E+00 0. -1.
         11    1    3    3    0    0  0.16683710580E+01 -0.23538244833E+01 -0.46086729623E+01  0.54372620334E+01  0.51100000000E-03 0.  1.
        -11    1    3    3    0    0 -0.11180897206E+02  0.96054553443E+01 -0.33167358014E+02  0.36295328523E+02  0.51100000000E-03 0. -1.
         12    1    3    3    0    0 -0.85374308591E+01  0.18524115570E+00  0.21101372734E+01  0.87962900857E+01  0.00000000000E+00 0. -1.
</event>
<event>
 7    1  0.1381607E-011  0.5052886E+02  0.7816164E-02  0.1300439E+00
        -11   -1    0    0    0    0  0.00000000000E+00  0.00000000000E+00  0.45593999997E+02  0.45594000000E+02  0.51100000000E-03 0.  1.
         11   -1    0    0    0    0 -0.00000000000E+00 -0.00000000000E+00 -0.45593999997E+02  0.45594000000E+02  0.51100000000E-03 0. -1.
    9900012    2    1    2    0    0  0.21080928559E+02  0.12835758517E+02  0.32311046215E+02  0.50528856463E+02  0.29999989706E+02 0.  0.
         12    1    1    2    0    0 -0.21080928559E+02 -0.12835758517E+02 -0.32311046215E+02  0.40659143537E+02  0.00000000000E+00 0. -1.
         11    1    3    3    0    0 -0.10389212213E+01 -0.31199045387E+01  0.14273360535E+01  0.35847524468E+01  0.51100000000E-03 0. -1.
        -11    1    3    3    0    0  0.12896377930E+02  0.21446304667E+01  0.14571129761E+01  0.13154435831E+02  0.51100000000E-03 0.  1.
        -12    1    3    3    0    0  0.92234718506E+01  0.13811032589E+02  0.29426597185E+02  0.33789668185E+02  0.00000000000E+00 0.  1.
</event>
<event>
 7    1  0.1381607E-011  0.5052886E+02  0.7816164E-02  0.1300439E+00
        -11   -1    0    0    0    0  0.00000000000E+00  0.00000000000E+00  0.45593999997E+02  0.45594000000E+02  0.51100000000E-03 0.  1.
         11   -1    0    0    0    0 -0.00000000000E+00 -0.00000000000E+00 -0.45593999997E+02  0.45594000000E+02  0.51100000000E-03 0. -1.
    9900012    2    1    2    0    0 -0.34015629717E+02  0.21846085231E+02 -0.43417967925E+01  0.50528859523E+02  0.29999999006E+02 0.  0.
         12    1    1    2    0    0  0.34015629717E+02 -0.21846085231E+02  0.43417967925E+01  0.40659140477E+02  0.00000000000E+00 0. -1.
         11    1    3    3    0    0 -0.10241662857E+02  0.49303469289E+01 -0.54679343993E+01  0.12613416895E+02  0.51100000000E-03 0. -1.
        -11    1    3    3    0    0 -0.18590021254E+02 -0.16062221546E+01  0.88338613154E+00  0.18680182310E+02  0.51100000000E-03 0.  1.
        -12    1    3    3    0    0 -0.51839456063E+01  0.18521960456E+02  0.24275147526E+00  0.19235260317E+02  0.00000000000E+00 0.  1.
</event>
<event>
 7    1  0.1381607E-011  0.5052887E+02  0.7816164E-02  0.1300439E+00
        -11   -1    0    0    0    0  0.00000000000E+00  0.00000000000E+00  0.45593999997E+02  0.45594000000E+02  0.51100000000E-03 0.  1.
         11   -1    0    0    0    0 -0.00000000000E+00 -0.00000000000E+00 -0.45593999997E+02  0.45594000000E+02  0.51100000000E-03 0. -1.
    9900012    2    1    2    0    0 -0.26563739954E+02  0.29909494519E+02 -0.72769787123E+01  0.50528873572E+02  0.30000041709E+02 0.  0.
         12    1    1    2    0    0  0.26563739954E+02 -0.29909494519E+02  0.72769787123E+01  0.40659126428E+02  0.00000000000E+00 0. -1.
         11    1    3    3    0    0 -0.17348672794E+01 -0.34541703975E+01 -0.47252133253E+01  0.61048094845E+01  0.51100000000E-03 0. -1.
        -11    1    3    3    0    0 -0.11626668694E+02  0.44475128416E+01  0.71744781746E+00  0.12468942499E+02  0.51100000000E-03 0.  1.
         12    1    3    3    0    0 -0.13202203980E+02  0.28916152075E+02 -0.32692132045E+01  0.31955121588E+02  0.00000000000E+00 0. -1.
</event>
<event>
 7    1  0.1381607E-011  0.5052886E+02  0.7816164E-02  0.1300439E+00
        -11   -1    0    0    0    0  0.00000000000E+00  0.00000000000E+00  0.45593999997E+02  0.45594000000E+02  0.51100000000E-03 0.  1.
         11   -1    0    0    0    0 -0.00000000000E+00 -0.00000000000E+00 -0.45593999997E+02  0.45594000000E+02  0.51100000000E-03 0. -1.
    9900012    2    1    2    0    0 -0.21089737187E+02  0.20437625692E+02  0.28119247387E+02  0.50528860410E+02  0.30000001703E+02 0.  0.
         12    1    1    2    0    0  0.21089737187E+02 -0.20437625692E+02 -0.28119247387E+02  0.40659139590E+02  0.00000000000E+00 0. -1.
         11    1    3    3    0    0  0.15251505688E+01  0.10117341010E+02  0.45037499406E+01  0.11179017719E+02  0.51100000000E-03 0. -1.
        -11    1    3    3    0    0 -0.25921609288E+01  0.11094946587E+02  0.75669190821E+01  0.13677551049E+02  0.51100000000E-03 0.  1.
        -12    1    3    3    0    0 -0.20022726827E+02 -0.77466190465E+00  0.16048578364E+02  0.25672291643E+02  0.00000000000E+00 0.  1.
</event>
<event>
 7    1  0.1381607E-011  0.5052885E+02  0.7816164E-02  0.1300439E+00
        -11   -1    0    0    0    0  0.00000000000E+00  0.00000000000E+00  0.45593999997E+02  0.45594000000E+02  0.51100000000E-03 0. -1.
         11   -1    0    0    0    0 -0.00000000000E+00 -0.00000000000E+00 -0.45593999997E+02  0.45594000000E+02  0.51100000000E-03 0.  1.
    9900012    2    1    2    0    0  0.37517421048E+02  0.13772835115E+02 -0.74778691577E+01  0.50528851013E+02  0.29999973138E+02 0.  0.
         12    1    1    2    0    0 -0.37517421048E+02 -0.13772835115E+02  0.74778691577E+01  0.40659148987E+02  0.00000000000E+00 0. -1.
         11    1    3    3    0    0  0.23574244788E+01  0.27071932287E+01 -0.74692254661E+01  0.82870787782E+01  0.51100000000E-03 0. -1.
        -11    1    3    3    0    0  0.31223791551E+02  0.16541947159E+02 -0.13702334423E+01  0.35361542875E+02  0.51100000000E-03 0.  1.
         12    1    3    3    0    0  0.39362050190E+01 -0.54763052718E+01  0.13615897507E+01  0.68802293589E+01  0.00000000000E+00 0. -1.
</event>
<event>
 7    1  0.1381607E-011  0.5052886E+02  0.7816164E-02  0.1300439E+00
        -11   -1    0    0    0    0  0.00000000000E+00  0.00000000000E+00  0.45593999997E+02  0.45594000000E+02  0.51100000000E-03 0.  1.
         11   -1    0    0    0    0 -0.00000000000E+00 -0.00000000000E+00 -0.45593999997E+02  0.45594000000E+02  0.51100000000E-03 0. -1.
    9900012    2    1    2    0    0  0.25672416262E+02  0.31252049133E+02 -0.41716153921E+01  0.50528857034E+02  0.29999991441E+02 0.  0.
         12    1    1    2    0    0 -0.25672416262E+02 -0.31252049133E+02  0.41716153921E+01  0.40659142966E+02  0.00000000000E+00 0. -1.
         11    1    3    3    0    0 -0.86816479089E+00 -0.73811635217E+00  0.12849449028E+01  0.17174427262E+01  0.51100000000E-03 0. -1.
        -11    1    3    3    0    0  0.25103255034E+02  0.12921800070E+02  0.19584897035E+01  0.28301625617E+02  0.51100000000E-03 0.  1.
        -12    1    3    3    0    0  0.14373260190E+01  0.19068365415E+02 -0.74150499985E+01  0.20509788691E+02  0.00000000000E+00 0.  1.
</event>
<event>
 7    1  0.1381607E-011  0.5052886E+02  0.7816164E-02  0.1300439E+00
        -11   -1    0    0    0    0  0.00000000000E+00  0.00000000000E+00  0.45593999997E+02  0.45594000000E+02  0.51100000000E-03 0.  1.
         11   -1    0    0    0    0 -0.00000000000E+00 -0.00000000000E+00 -0.45593999997E+02  0.45594000000E+02  0.51100000000E-03 0. -1.
    9900012    2    1    2    0    0  0.33893532953E+02  0.55284952946E+01  0.21767638754E+02  0.50528856708E+02  0.29999990451E+02 0.  0.
         12    1    1    2    0    0 -0.33893532953E+02 -0.55284952946E+01 -0.21767638754E+02  0.40659143292E+02  0.00000000000E+00 0. -1.
         11    1    3    3    0    0  0.19406283595E+02 -0.88468419342E+01  0.58005031346E+01  0.22102404667E+02  0.51100000000E-03 0. -1.
        -11    1    3    3    0    0  0.90189780762E+01  0.51974957065E+01  0.16140102722E+01  0.10533800671E+02  0.51100000000E-03 0.  1.
        -12    1    3    3    0    0  0.54682712819E+01  0.91778415222E+01  0.14353125347E+02  0.17892651370E+02  0.00000000000E+00 0.  1.
</event>
<event>
 7    1  0.1381607E-011  0.5052886E+02  0.7816164E-02  0.1300439E+00
        -11   -1    0    0    0    0  0.00000000000E+00  0.00000000000E+00  0.45593999997E+02  0.45594000000E+02  0.51100000000E-03 0.  1.
         11   -1    0    0    0    0 -0.00000000000E+00 -0.00000000000E+00 -0.45593999997E+02  0.45594000000E+02  0.51100000000E-03 0. -1.
    9900012    2    1    2    0    0  0.22430787205E+02  0.16648317619E+02  0.29544191785E+02  0.50528856350E+02  0.29999989360E+02 0.  0.
         12    1    1    2    0    0 -0.22430787205E+02 -0.16648317619E+02 -0.29544191785E+02  0.40659143650E+02  0.00000000000E+00 0. -1.
         11    1    3    3    0    0  0.80938984701E+01  0.15430657111E+02  0.26246178363E+02  0.31503622812E+02  0.51100000000E-03 0. -1.
        -11    1    3    3    0    0  0.68214084803E+01  0.61562251337E+01  0.39651272996E+01  0.10007644894E+02  0.51100000000E-03 0.  1.
        -12    1    3    3    0    0  0.75154802549E+01 -0.49385646266E+01 -0.66711387813E+00  0.90175886444E+01  0.00000000000E+00 0.  1.
</event>
<event>
 7    1  0.1381607E-011  0.5052888E+02  0.7816164E-02  0.1300439E+00
        -11   -1    0    0    0    0  0.00000000000E+00  0.00000000000E+00  0.45593999997E+02  0.45594000000E+02  0.51100000000E-03 0.  1.
         11   -1    0    0    0    0 -0.00000000000E+00 -0.00000000000E+00 -0.45593999997E+02  0.45594000000E+02  0.51100000000E-03 0. -1.
    9900012    2    1    2    0    0 -0.34509342487E+02 -0.25166613665E+01  0.21352651903E+02  0.50528879908E+02  0.30000060970E+02 0.  0.
         12    1    1    2    0    0  0.34509342487E+02  0.25166613665E+01 -0.21352651903E+02  0.40659120092E+02  0.00000000000E+00 0. -1.
         11    1    3    3    0    0 -0.58578044491E-01 -0.78568633361E+01  0.82146981385E+01  0.11367277538E+02  0.51100000000E-03 0. -1.
        -11    1    3    3    0    0 -0.68094767350E+00 -0.17027772282E+01 -0.74092422824E+00  0.19779052040E+01  0.51100000000E-03 0.  1.
        -12    1    3    3    0    0 -0.33769816769E+02  0.70429791978E+01  0.13878877993E+02  0.37183697166E+02  0.00000000000E+00 0.  1.
</event>
<event>
 7    1  0.1381607E-011  0.5052886E+02  0.7816164E-02  0.1300439E+00
        -11   -1    0    0    0    0  0.00000000000E+00  0.00000000000E+00  0.45593999997E+02  0.45594000000E+02  0.51100000000E-03 0.  1.
         11   -1    0    0    0    0 -0.00000000000E+00 -0.00000000000E+00 -0.45593999997E+02  0.45594000000E+02  0.51100000000E-03 0. -1.
    9900012    2    1    2    0    0 -0.25273138959E+01 -0.17764792502E+02  0.36485481690E+02  0.50528861515E+02  0.30000005062E+02 0.  0.
         12    1    1    2    0    0  0.25273138959E+01  0.17764792502E+02 -0.36485481690E+02  0.40659138485E+02  0.00000000000E+00 0. -1.
         11    1    3    3    0    0  0.76612816176E-01 -0.67503621429E+01  0.59620498159E+01  0.90066251644E+01  0.51100000000E-03 0. -1.
        -11    1    3    3    0    0  0.67589282689E+01 -0.13190481658E+02  0.75813114158E+01  0.16647768642E+02  0.51100000000E-03 0.  1.
        -12    1    3    3    0    0 -0.93628549810E+01  0.21760512990E+01  0.22942120458E+02  0.24874467708E+02  0.00000000000E+00 0.  1.
</event>
<event>
 7    1  0.1381607E-011  0.5052885E+02  0.7816164E-02  0.1300439E+00
        -11   -1    0    0    0    0  0.00000000000E+00  0.00000000000E+00  0.45593999997E+02  0.45594000000E+02  0.51100000000E-03 0.  1.
         11   -1    0    0    0    0 -0.00000000000E+00 -0.00000000000E+00 -0.45593999997E+02  0.45594000000E+02  0.51100000000E-03 0. -1.
    9900012    2    1    2    0    0  0.32823710554E+02 -0.15681841079E+02  0.18161780239E+02  0.50528851269E+02  0.29999973916E+02 0.  0.
         12    1    1    2    0    0 -0.32823710554E+02  0.15681841079E+02 -0.18161780239E+02  0.40659148731E+02  0.00000000000E+00 0. -1.
         11    1    3    3    0    0  0.59294844246E+01 -0.10865622896E+02  0.24463679391E+01  0.12617656788E+02  0.51100000000E-03 0. -1.
        -11    1    3    3    0    0  0.27149095349E+02 -0.99121023671E+01  0.10880963836E+02  0.30882333556E+02  0.51100000000E-03 0.  1.
         12    1    3    3    0    0 -0.25486922005E+00  0.50958841849E+01  0.48344484634E+01  0.70288609241E+01  0.00000000000E+00 0. -1.
</event>
<event>
 7    1  0.1381607E-011  0.5052886E+02  0.7816164E-02  0.1300439E+00
        -11   -1    0    0    0    0  0.00000000000E+00  0.00000000000E+00  0.45593999997E+02  0.45594000000E+02  0.51100000000E-03 0.  1.
         11   -1    0    0    0    0 -0.00000000000E+00 -0.00000000000E+00 -0.45593999997E+02  0.45594000000E+02  0.51100000000E-03 0. -1.
    9900012    2    1    2    0    0  0.17301351831E+02  0.26656309679E+02  0.25362774811E+02  0.50528856293E+02  0.29999989189E+02 0.  0.
         12    1    1    2    0    0 -0.17301351831E+02 -0.26656309679E+02 -0.25362774811E+02  0.40659143707E+02  0.00000000000E+00 0. -1.
         11    1    3    3    0    0 -0.16620673351E+01 -0.43176207759E+01  0.45166497874E+01  0.64656355105E+01  0.51100000000E-03 0. -1.
        -11    1    3    3    0    0  0.14950096668E+02  0.11531785025E+02  0.86869912253E+01  0.20783437470E+02  0.51100000000E-03 0.  1.
        -12    1    3    3    0    0  0.40133224974E+01  0.19442145429E+02  0.12159133798E+02  0.23279783313E+02  0.00000000000E+00 0.  1.
</event>
<event>
 7    1  0.1381607E-011  0.5052886E+02  0.7816164E-02  0.1300439E+00
        -11   -1    0    0    0    0  0.00000000000E+00  0.00000000000E+00  0.45593999997E+02  0.45594000000E+02  0.51100000000E-03 0.  1.
         11   -1    0    0    0    0 -0.00000000000E+00 -0.00000000000E+00 -0.45593999997E+02  0.45594000000E+02  0.51100000000E-03 0. -1.
    9900012    2    1    2    0    0 -0.19887631528E+02 -0.21880943994E+01  0.35395758605E+02  0.50528863608E+02  0.30000011424E+02 0.  0.
         12    1    1    2    0    0  0.19887631528E+02  0.21880943994E+01 -0.35395758605E+02  0.40659136392E+02  0.00000000000E+00 0. -1.
         11    1    3    3    0    0 -0.30161604162E+00 -0.10285005253E+02  0.43734145875E+01  0.11180297881E+02  0.51100000000E-03 0. -1.
        -11    1    3    3    0    0 -0.32447817611E+00  0.25526239027E+01  0.99037781586E+01  0.10232594830E+02  0.51100000000E-03 0.  1.
        -12    1    3    3    0    0 -0.19261537310E+02  0.55442869511E+01  0.21118565859E+02  0.29115970897E+02  0.00000000000E+00 0.  1.
</event>
<event>
 7    1  0.1381607E-011  0.5052886E+02  0.7816164E-02  0.1300439E+00
        -11   -1    0    0    0    0  0.00000000000E+00  0.00000000000E+00  0.45593999997E+02  0.45594000000E+02  0.51100000000E-03 0. -1.
         11   -1    0    0    0    0 -0.00000000000E+00 -0.00000000000E+00 -0.45593999997E+02  0.45594000000E+02  0.51100000000E-03 0.  1.
    9900012    2    1    2    0    0 -0.36968391188E+02  0.12296027214E+02  0.11632349342E+02  0.50528858550E+02  0.29999996048E+02 0.  0.
         12    1    1    2    0    0  0.36968391188E+02 -0.12296027214E+02 -0.11632349342E+02  0.40659141450E+02  0.00000000000E+00 0. -1.
         11    1    3    3    0    0 -0.80516711663E+01  0.87099338728E+01 -0.72303055331E+01  0.13891352526E+02  0.51100000000E-03 0.  1.
        -11    1    3    3    0    0 -0.18681970347E+02 -0.22883835631E+01  0.75165659453E+01  0.20267004693E+02  0.51100000000E-03 0. -1.
        -12    1    3    3    0    0 -0.10234749674E+02  0.58744769043E+01  0.11346088930E+02  0.16370501330E+02  0.00000000000E+00 0.  1.
</event>
<event>
 7    1  0.1381607E-011  0.5052887E+02  0.7816164E-02  0.1300439E+00
        -11   -1    0    0    0    0  0.00000000000E+00  0.00000000000E+00  0.45593999997E+02  0.45594000000E+02  0.51100000000E-03 0. -1.
         11   -1    0    0    0    0 -0.00000000000E+00 -0.00000000000E+00 -0.45593999997E+02  0.45594000000E+02  0.51100000000E-03 0.  1.
    9900012    2    1    2    0    0 -0.36723948494E+02 -0.10410180500E+01 -0.17419330669E+02  0.50528865817E+02  0.30000018136E+02 0.  0.
         12    1    1    2    0    0  0.36723948494E+02  0.10410180500E+01  0.17419330669E+02  0.40659134183E+02  0.00000000000E+00 0. -1.
         11    1    3    3    0    0 -0.11798325968E+02 -0.29398994903E+01 -0.94019081000E+01  0.15370080704E+02  0.51100000000E-03 0. -1.
        -11    1    3    3    0    0 -0.29515229615E+02  0.22556499545E+01 -0.64505325252E+01  0.30295975080E+02  0.51100000000E-03 0.  1.
         12    1    3    3    0    0  0.45896070889E+01 -0.35676851418E+00 -0.15668900440E+01  0.48628100326E+01  0.00000000000E+00 0. -1.
</event>
<event>
 7    1  0.1381607E-011  0.5052886E+02  0.7816164E-02  0.1300439E+00
        -11   -1    0    0    0    0  0.00000000000E+00  0.00000000000E+00  0.45593999997E+02  0.45594000000E+02  0.51100000000E-03 0.  1.
         11   -1    0    0    0    0 -0.00000000000E+00 -0.00000000000E+00 -0.45593999997E+02  0.45594000000E+02  0.51100000000E-03 0. -1.
    9900012    2    1    2    0    0  0.14162780507E+02  0.17965208793E+02  0.33612987717E+02  0.50528855617E+02  0.29999987134E+02 0.  0.
         12    1    1    2    0    0 -0.14162780507E+02 -0.17965208793E+02 -0.33612987717E+02  0.40659144383E+02  0.00000000000E+00 0. -1.
         11    1    3    3    0    0  0.38294540624E+01 -0.19007664975E+01 -0.40771243925E+00  0.42946316942E+01  0.51100000000E-03 0. -1.
        -11    1    3    3    0    0  0.17082175911E+02  0.14772727484E+02  0.21922116399E+02  0.31474011483E+02  0.51100000000E-03 0.  1.
         12    1    3    3    0    0 -0.67488494658E+01  0.50932478056E+01  0.12098583758E+02  0.14760212440E+02  0.00000000000E+00 0. -1.
</event>
<event>
 7    1  0.1381607E-011  0.5052886E+02  0.7816164E-02  0.1300439E+00
        -11   -1    0    0    0    0  0.00000000000E+00  0.00000000000E+00  0.45593999997E+02  0.45594000000E+02  0.51100000000E-03 0.  1.
         11   -1    0    0    0    0 -0.00000000000E+00 -0.00000000000E+00 -0.45593999997E+02  0.45594000000E+02  0.51100000000E-03 0. -1.
    9900012    2    1    2    0    0  0.21063737346E+02  0.29652489230E+02  0.18171799741E+02  0.50528862597E+02  0.30000008349E+02 0.  0.
         12    1    1    2    0    0 -0.21063737346E+02 -0.29652489230E+02 -0.18171799741E+02  0.40659137403E+02  0.00000000000E+00 0. -1.
         11    1    3    3    0    0  0.36048922416E+01 -0.33310483941E+01  0.64415960087E+01  0.80984746020E+01  0.51100000000E-03 0. -1.
        -11    1    3    3    0    0  0.71486412718E+01  0.47184268214E+01  0.86713471275E+01  0.12188473447E+02  0.51100000000E-03 0.  1.
         12    1    3    3    0    0  0.10310203833E+02  0.28265110803E+02  0.30588566052E+01  0.30241914548E+02  0.00000000000E+00 0. -1.
</event>
<event>
 7    1  0.1381607E-011  0.5052886E+02  0.7816164E-02  0.1300439E+00
        -11   -1    0    0    0    0  0.00000000000E+00  0.00000000000E+00  0.45593999997E+02  0.45594000000E+02  0.51100000000E-03 0.  1.
         11   -1    0    0    0    0 -0.00000000000E+00 -0.00000000000E+00 -0.45593999997E+02  0.45594000000E+02  0.51100000000E-03 0. -1.
    9900012    2    1    2    0    0  0.34610359885E+02 -0.20736407916E+02 -0.50289118446E+01  0.50528861064E+02  0.30000003691E+02 0.  0.
         12    1    1    2    0    0 -0.34610359885E+02  0.20736407916E+02  0.50289118446E+01  0.40659138936E+02  0.00000000000E+00 0. -1.
         11    1    3    3    0    0  0.84713476042E+01 -0.43204242445E+01  0.32575836465E+00  0.95150362405E+01  0.51100000000E-03 0. -1.
        -11    1    3    3    0    0  0.25770890674E+02 -0.29394435895E+01  0.13177203465E+01  0.25971436655E+02  0.51100000000E-03 0.  1.
         12    1    3    3    0    0  0.36812160751E+00 -0.13476540082E+02 -0.66723905557E+01  0.15042388169E+02  0.00000000000E+00 0. -1.
</event>
<event>
 7    1  0.1381607E-011  0.5052886E+02  0.7816164E-02  0.1300439E+00
        -11   -1    0    0    0    0  0.00000000000E+00  0.00000000000E+00  0.45593999997E+02  0.45594000000E+02  0.51100000000E-03 0. -1.
         11   -1    0    0    0    0 -0.00000000000E+00 -0.00000000000E+00 -0.45593999997E+02  0.45594000000E+02  0.51100000000E-03 0.  1.
    9900012    2    1    2    0    0 -0.34376134067E+02 -0.15939489407E+02 -0.14743812836E+02  0.50528856713E+02  0.29999990464E+02 0.  0.
         12    1    1    2    0    0  0.34376134067E+02  0.15939489407E+02  0.14743812836E+02  0.40659143287E+02  0.00000000000E+00 0. -1.
         11    1    3    3    0    0 -0.23752678445E+01 -0.62186861609E+01 -0.12892297422E+02  0.14509489583E+02  0.51100000000E-03 0. -1.
        -11    1    3    3    0    0 -0.20812413632E+02 -0.48190353412E+01 -0.73929331769E+01  0.22606085995E+02  0.51100000000E-03 0.  1.
        -12    1    3    3    0    0 -0.11188452590E+02 -0.49017679049E+01  0.55414177629E+01  0.13413281134E+02  0.00000000000E+00 0.  1.
</event>
<event>
 7    1  0.1381607E-011  0.5052886E+02  0.7816164E-02  0.1300439E+00
        -11   -1    0    0    0    0  0.00000000000E+00  0.00000000000E+00  0.45593999997E+02  0.45594000000E+02  0.51100000000E-03 0.  1.
         11   -1    0    0    0    0 -0.00000000000E+00 -0.00000000000E+00 -0.45593999997E+02  0.45594000000E+02  0.51100000000E-03 0. -1.
    9900012    2    1    2    0    0  0.47097071003E+01 -0.39603584861E+02 -0.79082566893E+01  0.50528858363E+02  0.29999995479E+02 0.  0.
         12    1    1    2    0    0 -0.47097071003E+01  0.39603584861E+02  0.79082566893E+01  0.40659141637E+02  0.00000000000E+00 0. -1.
         11    1    3    3    0    0  0.87380901489E+00 -0.26027467682E+02 -0.13355948200E+02  0.29267284956E+02  0.51100000000E-03 0. -1.
        -11    1    3    3    0    0 -0.24969031320E+01 -0.95438518120E+01 -0.26543339059E+01  0.10215924892E+02  0.51100000000E-03 0.  1.
        -12    1    3    3    0    0  0.63328012174E+01 -0.40322653675E+01  0.81020254167E+01  0.11045648514E+02  0.00000000000E+00 0.  1.
</event>
<event>
 7    1  0.1381607E-011  0.5052883E+02  0.7816164E-02  0.1300439E+00
        -11   -1    0    0    0    0  0.00000000000E+00  0.00000000000E+00  0.45593999997E+02  0.45594000000E+02  0.51100000000E-03 0.  1.
         11   -1    0    0    0    0 -0.00000000000E+00 -0.00000000000E+00 -0.45593999997E+02  0.45594000000E+02  0.51100000000E-03 0. -1.
    9900012    2    1    2    0    0  0.13831077477E+01  0.35905789144E+02  0.19027061597E+02  0.50528834316E+02  0.29999922387E+02 0.  0.
         12    1    1    2    0    0 -0.13831077477E+01 -0.35905789144E+02 -0.19027061597E+02  0.40659165684E+02  0.00000000000E+00 0. -1.
         11    1    3    3    0    0 -0.36363413861E+01  0.61796273046E+01  0.48982939695E+00  0.71868425194E+01  0.51100000000E-03 0. -1.
        -11    1    3    3    0    0  0.84745056691E+01  0.19528573290E+00  0.34118603549E+00  0.84836189816E+01  0.51100000000E-03 0.  1.
         12    1    3    3    0    0 -0.34550565354E+01  0.29530876107E+02  0.18196046164E+02  0.34858372815E+02  0.00000000000E+00 0. -1.
</event>
<event>
 7    1  0.1381607E-011  0.5052887E+02  0.7816164E-02  0.1300439E+00
        -11   -1    0    0    0    0  0.00000000000E+00  0.00000000000E+00  0.45593999997E+02  0.45594000000E+02  0.51100000000E-03 0.  1.
         11   -1    0    0    0    0 -0.00000000000E+00 -0.00000000000E+00 -0.45593999997E+02  0.45594000000E+02  0.51100000000E-03 0. -1.
    9900012    2    1    2    0    0  0.31156736615E+02  0.26060275211E+02 -0.18123744975E+01  0.50528869637E+02  0.30000029748E+02 0.  0.
         12    1    1    2    0    0 -0.31156736615E+02 -0.26060275211E+02  0.18123744975E+01  0.40659130363E+02  0.00000000000E+00 0. -1.
         11    1    3    3    0    0  0.67293607575E+01  0.11912501145E+02  0.63905824381E+01  0.15100712695E+02  0.51100000000E-03 0. -1.
        -11    1    3    3    0    0  0.18541982284E+02  0.64454443986E+01  0.38052285706E+01  0.19995715172E+02  0.51100000000E-03 0.  1.
         12    1    3    3    0    0  0.58853935732E+01  0.77023296674E+01 -0.12008185506E+02  0.15432441770E+02  0.00000000000E+00 0. -1.
</event>
<event>
 7    1  0.1381607E-011  0.5052886E+02  0.7816164E-02  0.1300439E+00
        -11   -1    0    0    0    0  0.00000000000E+00  0.00000000000E+00  0.45593999997E+02  0.45594000000E+02  0.51100000000E-03 0.  1.
         11   -1    0    0    0    0 -0.00000000000E+00 -0.00000000000E+00 -0.45593999997E+02  0.45594000000E+02  0.51100000000E-03 0. -1.
    9900012    2    1    2    0    0 -0.28652769478E+02 -0.28376892416E+02  0.51900623287E+01  0.50528856269E+02  0.29999989115E+02 0.  0.
         12    1    1    2    0    0  0.28652769478E+02  0.28376892416E+02 -0.51900623287E+01  0.40659143731E+02  0.00000000000E+00 0. -1.
         11    1    3    3    0    0 -0.99770566516E+01 -0.54273519698E+00  0.13755480014E+00  0.99927545005E+01  0.51100000000E-03 0. -1.
        -11    1    3    3    0    0 -0.22814631148E+02 -0.24501671697E+02  0.80528193492E+01  0.34433809114E+02  0.51100000000E-03 0.  1.
         12    1    3    3    0    0  0.41389183210E+01 -0.33324855224E+01 -0.30003118206E+01  0.61022926549E+01  0.00000000000E+00 0. -1.
</event>
<event>
 7    1  0.1381607E-011  0.5052885E+02  0.7816164E-02  0.1300439E+00
        -11   -1    0    0    0    0  0.00000000000E+00  0.00000000000E+00  0.45593999997E+02  0.45594000000E+02  0.51100000000E-03 0. -1.
         11   -1    0    0    0    0 -0.00000000000E+00 -0.00000000000E+00 -0.45593999997E+02  0.45594000000E+02  0.51100000000E-03 0.  1.
    9900012    2    1    2    0    0 -0.27118962373E+02 -0.30278395891E+02  0.97298557123E+00  0.50528854918E+02  0.29999985008E+02 0.  0.
         12    1    1    2    0    0  0.27118962373E+02  0.30278395891E+02 -0.97298557123E+00  0.40659145082E+02  0.00000000000E+00 0. -1.
         11    1    3    3    0    0  0.20541080461E+01  0.18765276590E+01 -0.20520789632E+00  0.27897717580E+01  0.51100000000E-03 0. -1.
        -11    1    3    3    0    0 -0.14855115946E+02 -0.29681171229E+02  0.55713081309E+00  0.33195734519E+02  0.51100000000E-03 0.  1.
         12    1    3    3    0    0 -0.14317954473E+02 -0.24737523208E+01  0.62106265446E+00  0.14543348640E+02  0.00000000000E+00 0. -1.
</event>
<event>
 7    1  0.1381607E-011  0.5052886E+02  0.7816164E-02  0.1300439E+00
        -11   -1    0    0    0    0  0.00000000000E+00  0.00000000000E+00  0.45593999997E+02  0.45594000000E+02  0.51100000000E-03 0.  1.
         11   -1    0    0    0    0 -0.00000000000E+00 -0.00000000000E+00 -0.45593999997E+02  0.45594000000E+02  0.51100000000E-03 0. -1.
    9900012    2    1    2    0    0  0.95643811537E+01 -0.26722232993E+02  0.29113750912E+02  0.50528860620E+02  0.30000002340E+02 0.  0.
         12    1    1    2    0    0 -0.95643811537E+01  0.26722232993E+02 -0.29113750912E+02  0.40659139380E+02  0.00000000000E+00 0. -1.
         11    1    3    3    0    0 -0.60082925622E+01 -0.97345500283E+00  0.11008251711E+02  0.12578902979E+02  0.51100000000E-03 0. -1.
        -11    1    3    3    0    0  0.21596650788E+01 -0.16833967207E+02  0.11717805656E+02  0.20624101794E+02  0.51100000000E-03 0.  1.
        -12    1    3    3    0    0  0.13413008637E+02 -0.89148107837E+01  0.63876935450E+01  0.17325855847E+02  0.00000000000E+00 0.  1.
</event>
<event>
 7    1  0.1381607E-011  0.5052886E+02  0.7816164E-02  0.1300439E+00
        -11   -1    0    0    0    0  0.00000000000E+00  0.00000000000E+00  0.45593999997E+02  0.45594000000E+02  0.51100000000E-03 0. -1.
         11   -1    0    0    0    0 -0.00000000000E+00 -0.00000000000E+00 -0.45593999997E+02  0.45594000000E+02  0.51100000000E-03 0.  1.
    9900012    2    1    2    0    0  0.39491597696E+02  0.39304015025E+01 -0.88392017885E+01  0.50528857943E+02  0.29999994204E+02 0.  0.
         12    1    1    2    0    0 -0.39491597696E+02 -0.39304015025E+01  0.88392017885E+01  0.40659142057E+02  0.00000000000E+00 0. -1.
         11    1    3    3    0    0  0.10645405780E+02 -0.49089512590E+01 -0.14908679960E+01  0.11817155086E+02  0.51100000000E-03 0. -1.
        -11    1    3    3    0    0  0.62180261698E+01  0.55087215224E+01  0.77051262151E+01  0.11330438319E+02  0.51100000000E-03 0.  1.
        -12    1    3    3    0    0  0.22628165746E+02  0.33306312391E+01 -0.15053460008E+02  0.27381264537E+02  0.00000000000E+00 0.  1.
</event>
<event>
 7    1  0.1381607E-011  0.5052886E+02  0.7816164E-02  0.1300439E+00
        -11   -1    0    0    0    0  0.00000000000E+00  0.00000000000E+00  0.45593999997E+02  0.45594000000E+02  0.51100000000E-03 0.  1.
         11   -1    0    0    0    0 -0.00000000000E+00 -0.00000000000E+00 -0.45593999997E+02  0.45594000000E+02  0.51100000000E-03 0. -1.
    9900012    2    1    2    0    0 -0.60678180764E+01 -0.40102565335E+02  0.28515565129E+01  0.50528861578E+02  0.30000005252E+02 0.  0.
         12    1    1    2    0    0  0.60678180764E+01  0.40102565335E+02 -0.28515565129E+01  0.40659138422E+02  0.00000000000E+00 0. -1.
         11    1    3    3    0    0  0.29211888785E+01 -0.26651317543E+01 -0.38109786717E+01  0.54917966485E+01  0.51100000000E-03 0. -1.
        -11    1    3    3    0    0 -0.10069540633E+02 -0.24579805246E+02 -0.57005105722E+01  0.27167228338E+02  0.51100000000E-03 0.  1.
        -12    1    3    3    0    0  0.10805336786E+01 -0.12857628335E+02  0.12363045757E+02  0.17869836592E+02  0.00000000000E+00 0.  1.
</event>
<event>
 7    1  0.1381607E-011  0.5052886E+02  0.7816164E-02  0.1300439E+00
        -11   -1    0    0    0    0  0.00000000000E+00  0.00000000000E+00  0.45593999997E+02  0.45594000000E+02  0.51100000000E-03 0. -1.
         11   -1    0    0    0    0 -0.00000000000E+00 -0.00000000000E+00 -0.45593999997E+02  0.45594000000E+02  0.51100000000E-03 0.  1.
    9900012    2    1    2    0    0 -0.36599375885E+01  0.49916308560E+01 -0.40185244662E+02  0.50528863138E+02  0.30000009995E+02 0.  0.
         12    1    1    2    0    0  0.36599375885E+01 -0.49916308560E+01  0.40185244662E+02  0.40659136862E+02  0.00000000000E+00 0. -1.
         11    1    3    3    0    0  0.35664508794E+01 -0.49418758992E+01 -0.26399946422E+01  0.66416324236E+01  0.51100000000E-03 0. -1.
        -11    1    3    3    0    0  0.42051744662E+01  0.30237147656E-01 -0.21219627364E+02  0.21632313614E+02  0.51100000000E-03 0.  1.
        -12    1    3    3    0    0 -0.11431562934E+02  0.99032696076E+01 -0.16325622656E+02  0.22254917101E+02  0.00000000000E+00 0.  1.
</event>
<event>
 7    1  0.1381607E-011  0.5052886E+02  0.7816164E-02  0.1300439E+00
        -11   -1    0    0    0    0  0.00000000000E+00  0.00000000000E+00  0.45593999997E+02  0.45594000000E+02  0.51100000000E-03 0.  1.
         11   -1    0    0    0    0 -0.00000000000E+00 -0.00000000000E+00 -0.45593999997E+02  0.45594000000E+02  0.51100000000E-03 0. -1.
    9900012    2    1    2    0    0  0.18263541615E+02  0.77632159038E+01  0.35487197460E+02  0.50528860104E+02  0.30000000772E+02 0.  0.
         12    1    1    2    0    0 -0.18263541615E+02 -0.77632159038E+01 -0.35487197460E+02  0.40659139896E+02  0.00000000000E+00 0. -1.
         11    1    3    3    0    0  0.44081149231E+01  0.65619058459E+01  0.26647427076E+01  0.83421184039E+01  0.51100000000E-03 0. -1.
        -11    1    3    3    0    0  0.10247831938E+02 -0.46316799025E+01  0.30747808796E+01  0.11658678993E+02  0.51100000000E-03 0.  1.
        -12    1    3    3    0    0  0.36075947545E+01  0.58329899603E+01  0.29747673873E+02  0.30528062707E+02  0.00000000000E+00 0.  1.
</event>
<event>
 7    1  0.1381607E-011  0.5052887E+02  0.7816164E-02  0.1300439E+00
        -11   -1    0    0    0    0  0.00000000000E+00  0.00000000000E+00  0.45593999997E+02  0.45594000000E+02  0.51100000000E-03 0.  1.
         11   -1    0    0    0    0 -0.00000000000E+00 -0.00000000000E+00 -0.45593999997E+02  0.45594000000E+02  0.51100000000E-03 0. -1.
    9900012    2    1    2    0    0  0.22526028700E+02  0.20259189775E+02  0.27116571365E+02  0.50528865947E+02  0.30000018532E+02 0.  0.
         12    1    1    2    0    0 -0.22526028700E+02 -0.20259189775E+02 -0.27116571365E+02  0.40659134053E+02  0.00000000000E+00 0. -1.
         11    1    3    3    0    0  0.10253466147E+02  0.41220301087E+01  0.68749530051E+00  0.11072368775E+02  0.51100000000E-03 0. -1.
        -11    1    3    3    0    0  0.11877724410E+02  0.40148639961E+01  0.24013419825E+02  0.27089551528E+02  0.51100000000E-03 0.  1.
         12    1    3    3    0    0  0.39483814323E+00  0.12122295670E+02  0.24156562402E+01  0.12366945643E+02  0.00000000000E+00 0. -1.
</event>
<event>
 7    1  0.1381607E-011  0.5052887E+02  0.7816164E-02  0.1300439E+00
        -11   -1    0    0    0    0  0.00000000000E+00  0.00000000000E+00  0.45593999997E+02  0.45594000000E+02  0.51100000000E-03 0.  1.
         11   -1    0    0    0    0 -0.00000000000E+00 -0.00000000000E+00 -0.45593999997E+02  0.45594000000E+02  0.51100000000E-03 0. -1.
    9900012    2    1    2    0    0  0.16348457714E+02 -0.21031043331E+02  0.30717872879E+02  0.50528873504E+02  0.30000041502E+02 0.  0.
         12    1    1    2    0    0 -0.16348457714E+02  0.21031043331E+02 -0.30717872879E+02  0.40659126496E+02  0.00000000000E+00 0. -1.
         11    1    3    3    0    0  0.10818427053E+02 -0.21258902983E+01  0.13082534415E+02  0.17108783722E+02  0.51100000000E-03 0. -1.
        -11    1    3    3    0    0  0.56874167822E+01 -0.19526483481E+02  0.21445901539E+02  0.29555997021E+02  0.51100000000E-03 0.  1.
         12    1    3    3    0    0 -0.15738612100E+00  0.62133044884E+00 -0.38105630752E+01  0.38640927613E+01  0.00000000000E+00 0. -1.
</event>
<event>
 7    1  0.1381607E-011  0.5052886E+02  0.7816164E-02  0.1300439E+00
        -11   -1    0    0    0    0  0.00000000000E+00  0.00000000000E+00  0.45593999997E+02  0.45594000000E+02  0.51100000000E-03 0.  1.
         11   -1    0    0    0    0 -0.00000000000E+00 -0.00000000000E+00 -0.45593999997E+02  0.45594000000E+02  0.51100000000E-03 0. -1.
    9900012    2    1    2    0    0 -0.12130222976E+02 -0.76065264031E+01  0.38054751498E+02  0.50528860008E+02  0.30000000479E+02 0.  0.
         12    1    1    2    0    0  0.12130222976E+02  0.76065264031E+01 -0.38054751498E+02  0.40659139992E+02  0.00000000000E+00 0. -1.
         11    1    3    3    0    0 -0.19269557214E+01 -0.62869529845E+01  0.46570121201E+01  0.80577104894E+01  0.51100000000E-03 0. -1.
        -11    1    3    3    0    0 -0.34589485456E+01 -0.12615307839E+02  0.16752329934E+02  0.21254431900E+02  0.51100000000E-03 0.  1.
         12    1    3    3    0    0 -0.67443187088E+01  0.11295734421E+02  0.16645409444E+02  0.21216717619E+02  0.00000000000E+00 0. -1.
</event>
<event>
 7    1  0.1381607E-011  0.5052884E+02  0.7816164E-02  0.1300439E+00
        -11   -1    0    0    0    0  0.00000000000E+00  0.00000000000E+00  0.45593999997E+02  0.45594000000E+02  0.51100000000E-03 0. -1.
         11   -1    0    0    0    0 -0.00000000000E+00 -0.00000000000E+00 -0.45593999997E+02  0.45594000000E+02  0.51100000000E-03 0.  1.
    9900012    2    1    2    0    0  0.40114354087E+02  0.65492335973E+01 -0.10550734027E+01  0.50528843043E+02  0.29999948914E+02 0.  0.
         12    1    1    2    0    0 -0.40114354087E+02 -0.65492335973E+01  0.10550734027E+01  0.40659156957E+02  0.00000000000E+00 0. -1.
         11    1    3    3    0    0  0.20112110976E+02  0.91057667384E+01 -0.10492180595E+02  0.24443769139E+02  0.51100000000E-03 0. -1.
        -11    1    3    3    0    0  0.15352888686E+02  0.98422731139E+00  0.48226637682E+00  0.15391961393E+02  0.51100000000E-03 0.  1.
         12    1    3    3    0    0  0.46493544252E+01 -0.35407604524E+01  0.89548408156E+01  0.10693112512E+02  0.00000000000E+00 0. -1.
</event>
<event>
 7    1  0.1381607E-011  0.5052888E+02  0.7816164E-02  0.1300439E+00
        -11   -1    0    0    0    0  0.00000000000E+00  0.00000000000E+00  0.45593999997E+02  0.45594000000E+02  0.51100000000E-03 0.  1.
         11   -1    0    0    0    0 -0.00000000000E+00 -0.00000000000E+00 -0.45593999997E+02  0.45594000000E+02  0.51100000000E-03 0. -1.
    9900012    2    1    2    0    0  0.23783119619E+02 -0.12376749021E+02  0.30567025113E+02  0.50528883932E+02  0.30000073201E+02 0.  0.
         12    1    1    2    0    0 -0.23783119619E+02  0.12376749021E+02 -0.30567025113E+02  0.40659116068E+02  0.00000000000E+00 0. -1.
         11    1    3    3    0    0  0.63914708419E+01 -0.90845871517E+01  0.21889283184E+02  0.24546310146E+02  0.51100000000E-03 0. -1.
        -11    1    3    3    0    0 -0.85494054749E+00  0.42715776312E+01  0.34317056851E+01  0.55456201609E+01  0.51100000000E-03 0.  1.
         12    1    3    3    0    0  0.18246589324E+02 -0.75637395005E+01  0.52460362447E+01  0.20436953625E+02  0.00000000000E+00 0. -1.
</event>
<event>
 7    1  0.1381607E-011  0.5052887E+02  0.7816164E-02  0.1300439E+00
        -11   -1    0    0    0    0  0.00000000000E+00  0.00000000000E+00  0.45593999997E+02  0.45594000000E+02  0.51100000000E-03 0. -1.
         11   -1    0    0    0    0 -0.00000000000E+00 -0.00000000000E+00 -0.45593999997E+02  0.45594000000E+02  0.51100000000E-03 0.  1.
    9900012    2    1    2    0    0  0.34735794559E+02  0.21006290795E+02 -0.23076257670E+01  0.50528870480E+02  0.30000032312E+02 0.  0.
         12    1    1    2    0    0 -0.34735794559E+02 -0.21006290795E+02  0.23076257670E+01  0.40659129520E+02  0.00000000000E+00 0. -1.
         11    1    3    3    0    0  0.23100813909E+02  0.15105925357E+02  0.29911732683E+01  0.27762991588E+02  0.51100000000E-03 0. -1.
        -11    1    3    3    0    0  0.15550920243E+02  0.72946820064E+01 -0.66137003291E+01  0.18406100572E+02  0.51100000000E-03 0.  1.
        -12    1    3    3    0    0 -0.39159395928E+01 -0.13943165676E+01  0.13149012939E+01  0.43597783198E+01  0.00000000000E+00 0.  1.
</event>
<event>
 7    1  0.1381607E-011  0.5052886E+02  0.7816164E-02  0.1300439E+00
        -11   -1    0    0    0    0  0.00000000000E+00  0.00000000000E+00  0.45593999997E+02  0.45594000000E+02  0.51100000000E-03 0.  1.
         11   -1    0    0    0    0 -0.00000000000E+00 -0.00000000000E+00 -0.45593999997E+02  0.45594000000E+02  0.51100000000E-03 0. -1.
    9900012    2    1    2    0    0  0.14026420021E+02 -0.55009523721E+01  0.37764595010E+02  0.50528861152E+02  0.30000003956E+02 0.  0.
         12    1    1    2    0    0 -0.14026420021E+02  0.55009523721E+01 -0.37764595010E+02  0.40659138848E+02  0.00000000000E+00 0. -1.
         11    1    3    3    0    0  0.54810721330E+00  0.33430869048E+00 -0.20571357036E+01  0.21549922000E+01  0.51100000000E-03 0. -1.
        -11    1    3    3    0    0  0.18384841470E+02 -0.18111370494E+01  0.18566261631E+02  0.26191385693E+02  0.51100000000E-03 0.  1.
        -12    1    3    3    0    0 -0.49065286624E+01 -0.40241240132E+01  0.21255469083E+02  0.22182483259E+02  0.00000000000E+00 0.  1.
</event>
<event>
 7    1  0.1381607E-011  0.5052886E+02  0.7816164E-02  0.1300439E+00
        -11   -1    0    0    0    0  0.00000000000E+00  0.00000000000E+00  0.45593999997E+02  0.45594000000E+02  0.51100000000E-03 0.  1.
         11   -1    0    0    0    0 -0.00000000000E+00 -0.00000000000E+00 -0.45593999997E+02  0.45594000000E+02  0.51100000000E-03 0. -1.
    9900012    2    1    2    0    0 -0.40129817754E+02 -0.12731386017E+01  0.64142320235E+01  0.50528861700E+02  0.30000005622E+02 0.  0.
         12    1    1    2    0    0  0.40129817754E+02  0.12731386017E+01 -0.64142320235E+01  0.40659138300E+02  0.00000000000E+00 0. -1.
         11    1    3    3    0    0 -0.12326568498E+02 -0.10775477618E+01 -0.45050186430E+01  0.13168165907E+02  0.51100000000E-03 0. -1.
        -11    1    3    3    0    0 -0.20533098602E+02  0.83288002662E+01  0.65741891446E+00  0.22167752524E+02  0.51100000000E-03 0.  1.
        -12    1    3    3    0    0 -0.72701506543E+01 -0.85243911061E+01  0.10261831752E+02  0.15192943269E+02  0.00000000000E+00 0.  1.
</event>
<event>
 7    1  0.1381607E-011  0.5052885E+02  0.7816164E-02  0.1300439E+00
        -11   -1    0    0    0    0  0.00000000000E+00  0.00000000000E+00  0.45593999997E+02  0.45594000000E+02  0.51100000000E-03 0.  1.
         11   -1    0    0    0    0 -0.00000000000E+00 -0.00000000000E+00 -0.45593999997E+02  0.45594000000E+02  0.51100000000E-03 0. -1.
    9900012    2    1    2    0    0 -0.18119813845E+01 -0.68179473159E+01  0.40042463682E+02  0.50528848756E+02  0.29999966279E+02 0.  0.
         12    1    1    2    0    0  0.18119813845E+01  0.68179473159E+01 -0.40042463682E+02  0.40659151244E+02  0.00000000000E+00 0. -1.
         11    1    3    3    0    0 -0.20215213566E+01 -0.27792512128E+01 -0.30927164049E+00  0.34505702583E+01  0.51100000000E-03 0. -1.
        -11    1    3    3    0    0 -0.10762411548E+02 -0.58565174010E+01  0.27347794388E+02  0.29967151292E+02  0.51100000000E-03 0.  1.
         12    1    3    3    0    0  0.10971951520E+02  0.18178212979E+01  0.13003940934E+02  0.17111127206E+02  0.00000000000E+00 0. -1.
</event>
<event>
 7    1  0.1381607E-011  0.5052886E+02  0.7816164E-02  0.1300439E+00
        -11   -1    0    0    0    0  0.00000000000E+00  0.00000000000E+00  0.45593999997E+02  0.45594000000E+02  0.51100000000E-03 0. -1.
         11   -1    0    0    0    0 -0.00000000000E+00 -0.00000000000E+00 -0.45593999997E+02  0.45594000000E+02  0.51100000000E-03 0.  1.
    9900012    2    1    2    0    0 -0.26183612338E+02  0.82094718761E+01  0.30003146166E+02  0.50528858797E+02  0.29999996799E+02 0.  0.
         12    1    1    2    0    0  0.26183612338E+02 -0.82094718761E+01 -0.30003146166E+02  0.40659141203E+02  0.00000000000E+00 0. -1.
         11    1    3    3    0    0 -0.69548881792E+01  0.54859892797E+01  0.87070996420E+01  0.12420955374E+02  0.51100000000E-03 0. -1.
        -11    1    3    3    0    0  0.54973350015E+01  0.35728512613E+01  0.67401879784E+01  0.94029831702E+01  0.51100000000E-03 0.  1.
        -12    1    3    3    0    0 -0.24726059160E+02 -0.84936866494E+00  0.14555858545E+02  0.28704920253E+02  0.00000000000E+00 0.  1.
</event>
<event>
 7    1  0.1381607E-011  0.5052887E+02  0.7816164E-02  0.1300439E+00
        -11   -1    0    0    0    0  0.00000000000E+00  0.00000000000E+00  0.45593999997E+02  0.45594000000E+02  0.51100000000E-03 0.  1.
         11   -1    0    0    0    0 -0.00000000000E+00 -0.00000000000E+00 -0.45593999997E+02  0.45594000000E+02  0.51100000000E-03 0. -1.
    9900012    2    1    2    0    0  0.37856615561E+02  0.13218653263E+02 -0.67311651652E+01  0.50528871623E+02  0.30000035787E+02 0.  0.
         12    1    1    2    0    0 -0.37856615561E+02 -0.13218653263E+02  0.67311651652E+01  0.40659128377E+02  0.00000000000E+00 0. -1.
         11    1    3    3    0    0  0.99807034422E+01  0.79292018169E+01  0.97683225291E+01  0.16059477200E+02  0.51100000000E-03 0. -1.
        -11    1    3    3    0    0  0.13546672483E+02  0.19199089589E+01 -0.20360167623E+01  0.13832705819E+02  0.51100000000E-03 0.  1.
        -12    1    3    3    0    0  0.14329239637E+02  0.33695424876E+01 -0.14463470932E+02  0.20636688604E+02  0.00000000000E+00 0.  1.
</event>
<event>
 7    1  0.1381607E-011  0.5052886E+02  0.7816164E-02  0.1300439E+00
        -11   -1    0    0    0    0  0.00000000000E+00  0.00000000000E+00  0.45593999997E+02  0.45594000000E+02  0.51100000000E-03 0.  1.
         11   -1    0    0    0    0 -0.00000000000E+00 -0.00000000000E+00 -0.45593999997E+02  0.45594000000E+02  0.51100000000E-03 0. -1.
    9900012    2    1    2    0    0 -0.17286018966E+02  0.33823362014E+02 -0.14503085222E+02  0.50528858954E+02  0.29999997275E+02 0.  0.
         12    1    1    2    0    0  0.17286018966E+02 -0.33823362014E+02  0.14503085222E+02  0.40659141046E+02  0.00000000000E+00 0. -1.
         11    1    3    3    0    0 -0.75445877351E+01 -0.86563581631E+00 -0.28048973337E+01  0.80955283196E+01  0.51100000000E-03 0. -1.
        -11    1    3    3    0    0 -0.33322754873E+01  0.66035100632E+01 -0.11442111428E+02  0.13624695199E+02  0.51100000000E-03 0.  1.
        -12    1    3    3    0    0 -0.64091557439E+01  0.28085487767E+02 -0.25607646120E+00  0.28808635435E+02  0.00000000000E+00 0.  1.
</event>
<event>
 7    1  0.1381607E-011  0.5052886E+02  0.7816164E-02  0.1300439E+00
        -11   -1    0    0    0    0  0.00000000000E+00  0.00000000000E+00  0.45593999997E+02  0.45594000000E+02  0.51100000000E-03 0. -1.
         11   -1    0    0    0    0 -0.00000000000E+00 -0.00000000000E+00 -0.45593999997E+02  0.45594000000E+02  0.51100000000E-03 0.  1.
    9900012    2    1    2    0    0 -0.24520990326E+02  0.32175775426E+02  0.40750577885E+01  0.50528860968E+02  0.30000003398E+02 0.  0.
         12    1    1    2    0    0  0.24520990326E+02 -0.32175775426E+02 -0.40750577885E+01  0.40659139032E+02  0.00000000000E+00 0. -1.
         11    1    3    3    0    0 -0.68007317159E+01  0.16065058626E+02  0.66094736195E+00  0.17457746481E+02  0.51100000000E-03 0. -1.
        -11    1    3    3    0    0 -0.19115682054E+01  0.37811640840E+01 -0.86789935089E+01  0.96579616598E+01  0.51100000000E-03 0.  1.
        -12    1    3    3    0    0 -0.15808690405E+02  0.12329552716E+02  0.12093103935E+02  0.23413152827E+02  0.00000000000E+00 0.  1.
</event>
<event>
 7    1  0.1381607E-011  0.5052886E+02  0.7816164E-02  0.1300439E+00
        -11   -1    0    0    0    0  0.00000000000E+00  0.00000000000E+00  0.45593999997E+02  0.45594000000E+02  0.51100000000E-03 0. -1.
         11   -1    0    0    0    0 -0.00000000000E+00 -0.00000000000E+00 -0.45593999997E+02  0.45594000000E+02  0.51100000000E-03 0.  1.
    9900012    2    1    2    0    0  0.31594961912E+02  0.25546530356E+02 -0.15160794373E+01  0.50528864146E+02  0.30000013060E+02 0.  0.
         12    1    1    2    0    0 -0.31594961912E+02 -0.25546530356E+02  0.15160794373E+01  0.40659135854E+02  0.00000000000E+00 0. -1.
         11    1    3    3    0    0  0.51005442401E+01  0.12939588643E+01  0.26866418643E+01  0.59082929730E+01  0.51100000000E-03 0. -1.
        -11    1    3    3    0    0  0.22283608696E+02  0.28712669819E+02  0.13166680113E+01  0.36369083568E+02  0.51100000000E-03 0.  1.
         12    1    3    3    0    0  0.42108089760E+01 -0.44600983268E+01 -0.55193893128E+01  0.82514876055E+01  0.00000000000E+00 0. -1.
</event>
<event>
 7    1  0.1381607E-011  0.5052887E+02  0.7816164E-02  0.1300439E+00
        -11   -1    0    0    0    0  0.00000000000E+00  0.00000000000E+00  0.45593999997E+02  0.45594000000E+02  0.51100000000E-03 0.  1.
         11   -1    0    0    0    0 -0.00000000000E+00 -0.00000000000E+00 -0.45593999997E+02  0.45594000000E+02  0.51100000000E-03 0. -1.
    9900012    2    1    2    0    0 -0.10837438886E+01 -0.19976154131E+02  0.35396938319E+02  0.50528874616E+02  0.30000044881E+02 0.  0.
         12    1    1    2    0    0  0.10837438886E+01  0.19976154131E+02 -0.35396938319E+02  0.40659125384E+02  0.00000000000E+00 0. -1.
         11    1    3    3    0    0 -0.41366513833E+01 -0.38071147750E+01  0.21700400921E+02  0.22416810834E+02  0.51100000000E-03 0. -1.
        -11    1    3    3    0    0  0.24935278297E+01 -0.14175298288E+02  0.18171613296E+02  0.23181119313E+02  0.51100000000E-03 0.  1.
         12    1    3    3    0    0  0.55937966505E+00 -0.19937410676E+01 -0.44750758978E+01  0.49309444679E+01  0.00000000000E+00 0. -1.
</event>
<event>
 7    1  0.1381607E-011  0.5052886E+02  0.7816164E-02  0.1300439E+00
        -11   -1    0    0    0    0  0.00000000000E+00  0.00000000000E+00  0.45593999997E+02  0.45594000000E+02  0.51100000000E-03 0.  1.
         11   -1    0    0    0    0 -0.00000000000E+00 -0.00000000000E+00 -0.45593999997E+02  0.45594000000E+02  0.51100000000E-03 0. -1.
    9900012    2    1    2    0    0  0.16985238292E+00 -0.23431816108E+02  0.33227806764E+02  0.50528855908E+02  0.29999988018E+02 0.  0.
         12    1    1    2    0    0 -0.16985238292E+00  0.23431816108E+02 -0.33227806764E+02  0.40659144092E+02  0.00000000000E+00 0. -1.
         11    1    3    3    0    0 -0.29803430301E+01  0.31079080107E+00  0.11302120773E+02  0.11692603205E+02  0.51100000000E-03 0. -1.
        -11    1    3    3    0    0 -0.52426554196E+01 -0.57554120064E+01 -0.17108075642E+01  0.79710141134E+01  0.51100000000E-03 0.  1.
        -12    1    3    3    0    0  0.83928508326E+01 -0.17987194903E+02  0.23636493555E+02  0.30865238589E+02  0.00000000000E+00 0.  1.
</event>
<event>
 7    1  0.1381607E-011  0.5052887E+02  0.7816164E-02  0.1300439E+00
        -11   -1    0    0    0    0  0.00000000000E+00  0.00000000000E+00  0.45593999997E+02  0.45594000000E+02  0.51100000000E-03 0.  1.
         11   -1    0    0    0    0 -0.00000000000E+00 -0.00000000000E+00 -0.45593999997E+02  0.45594000000E+02  0.51100000000E-03 0. -1.
    9900012    2    1    2    0    0  0.15965261216E+01  0.34455339265E+02  0.21527788239E+02  0.50528868602E+02  0.30000026604E+02 0.  0.
         12    1    1    2    0    0 -0.15965261216E+01 -0.34455339265E+02 -0.21527788239E+02  0.40659131398E+02  0.00000000000E+00 0. -1.
         11    1    3    3    0    0 -0.11014758299E+01 -0.61192810332E+00 -0.41278877262E+01  0.43159196412E+01  0.51100000000E-03 0. -1.
        -11    1    3    3    0    0 -0.54723477371E+01  0.13669120969E+02  0.55486827155E+01  0.15734654046E+02  0.51100000000E-03 0.  1.
         12    1    3    3    0    0  0.81703496886E+01  0.21398146400E+02  0.20106993249E+02  0.30478294915E+02  0.00000000000E+00 0. -1.
</event>
<event>
 7    1  0.1381607E-011  0.5052886E+02  0.7816164E-02  0.1300439E+00
        -11   -1    0    0    0    0  0.00000000000E+00  0.00000000000E+00  0.45593999997E+02  0.45594000000E+02  0.51100000000E-03 0.  1.
         11   -1    0    0    0    0 -0.00000000000E+00 -0.00000000000E+00 -0.45593999997E+02  0.45594000000E+02  0.51100000000E-03 0. -1.
    9900012    2    1    2    0    0  0.11486819882E+02  0.38214137467E+02  0.78037141040E+01  0.50528864653E+02  0.30000014599E+02 0.  0.
         12    1    1    2    0    0 -0.11486819882E+02 -0.38214137467E+02 -0.78037141040E+01  0.40659135347E+02  0.00000000000E+00 0. -1.
         11    1    3    3    0    0  0.81601447552E+01  0.59907779937E+01  0.10567763294E+02  0.14634035830E+02  0.51100000000E-03 0. -1.
        -11    1    3    3    0    0  0.88909814343E+01  0.13252001779E+02 -0.20655838949E+00  0.15959566681E+02  0.51100000000E-03 0.  1.
         12    1    3    3    0    0 -0.55643063076E+01  0.18971357695E+02 -0.25574908000E+01  0.19935262142E+02  0.00000000000E+00 0. -1.
</event>
<event>
 7    1  0.1381607E-011  0.5052883E+02  0.7816164E-02  0.1300439E+00
        -11   -1    0    0    0    0  0.00000000000E+00  0.00000000000E+00  0.45593999997E+02  0.45594000000E+02  0.51100000000E-03 0. -1.
         11   -1    0    0    0    0 -0.00000000000E+00 -0.00000000000E+00 -0.45593999997E+02  0.45594000000E+02  0.51100000000E-03 0.  1.
    9900012    2    1    2    0    0 -0.25897735596E+02 -0.29643005128E+02 -0.10186646971E+02  0.50528828359E+02  0.29999904280E+02 0.  0.
         12    1    1    2    0    0  0.25897735596E+02  0.29643005128E+02  0.10186646971E+02  0.40659171641E+02  0.00000000000E+00 0. -1.
         11    1    3    3    0    0 -0.29063162210E+01  0.10425277723E+01 -0.88909101057E+01  0.94117915882E+01  0.51100000000E-03 0. -1.
        -11    1    3    3    0    0 -0.17113729152E+02 -0.21952351114E+02 -0.75908680205E+01  0.28851459625E+02  0.51100000000E-03 0.  1.
         12    1    3    3    0    0 -0.58776902229E+01 -0.87331817862E+01  0.62951311547E+01  0.12265577146E+02  0.00000000000E+00 0. -1.
</event>
<event>
 7    1  0.1381607E-011  0.5052876E+02  0.7816164E-02  0.1300439E+00
        -11   -1    0    0    0    0  0.00000000000E+00  0.00000000000E+00  0.45593999997E+02  0.45594000000E+02  0.51100000000E-03 0. -1.
         11   -1    0    0    0    0 -0.00000000000E+00 -0.00000000000E+00 -0.45593999997E+02  0.45594000000E+02  0.51100000000E-03 0.  1.
    9900012    2    1    2    0    0  0.15540732801E+02  0.34160293237E+02 -0.15643966219E+02  0.50528761332E+02  0.29999700542E+02 0.  0.
         12    1    1    2    0    0 -0.15540732801E+02 -0.34160293237E+02  0.15643966219E+02  0.40659238668E+02  0.00000000000E+00 0. -1.
         11    1    3    3    0    0  0.12815081943E+02  0.10264246624E+02  0.33708719295E+01  0.16761380068E+02  0.51100000000E-03 0. -1.
        -11    1    3    3    0    0  0.16556181542E+01  0.14607952104E+02 -0.26765903899E+01  0.14943141320E+02  0.51100000000E-03 0.  1.
         12    1    3    3    0    0  0.10700327031E+01  0.92880945095E+01 -0.16338247759E+02  0.18824239943E+02  0.00000000000E+00 0. -1.
</event>
<event>
 7    1  0.1381607E-011  0.5052887E+02  0.7816164E-02  0.1300439E+00
        -11   -1    0    0    0    0  0.00000000000E+00  0.00000000000E+00  0.45593999997E+02  0.45594000000E+02  0.51100000000E-03 0.  1.
         11   -1    0    0    0    0 -0.00000000000E+00 -0.00000000000E+00 -0.45593999997E+02  0.45594000000E+02  0.51100000000E-03 0. -1.
    9900012    2    1    2    0    0 -0.14482400629E+02 -0.85615871574E+01  0.37015188457E+02  0.50528869670E+02  0.30000029850E+02 0.  0.
         12    1    1    2    0    0  0.14482400629E+02  0.85615871574E+01 -0.37015188457E+02  0.40659130330E+02  0.00000000000E+00 0. -1.
         11    1    3    3    0    0 -0.55058744022E+01 -0.41546953108E+01 -0.13309697865E+01  0.70247866083E+01  0.51100000000E-03 0. -1.
        -11    1    3    3    0    0  0.32741653622E+00 -0.97853824338E+01  0.18938723462E+02  0.21319853601E+02  0.51100000000E-03 0.  1.
        -12    1    3    3    0    0 -0.93039427633E+01  0.53784905872E+01  0.19407434782E+02  0.22184229461E+02  0.00000000000E+00 0.  1.
</event>
<event>
 7    1  0.1381607E-011  0.5052881E+02  0.7816164E-02  0.1300439E+00
        -11   -1    0    0    0    0  0.00000000000E+00  0.00000000000E+00  0.45593999997E+02  0.45594000000E+02  0.51100000000E-03 0.  1.
         11   -1    0    0    0    0 -0.00000000000E+00 -0.00000000000E+00 -0.45593999997E+02  0.45594000000E+02  0.51100000000E-03 0. -1.
    9900012    2    1    2    0    0  0.38717001089E+02  0.68697882590E+01  0.10342604071E+02  0.50528811334E+02  0.29999852530E+02 0.  0.
         12    1    1    2    0    0 -0.38717001089E+02 -0.68697882590E+01 -0.10342604071E+02  0.40659188666E+02  0.00000000000E+00 0. -1.
         11    1    3    3    0    0  0.79790927290E+01 -0.33596335286E+01  0.21736978428E+01  0.89262545783E+01  0.51100000000E-03 0. -1.
        -11    1    3    3    0    0  0.80587133323E+01  0.29282243888E+01  0.14593615719E+02  0.16926044389E+02  0.51100000000E-03 0.  1.
         12    1    3    3    0    0  0.22679195027E+02  0.73011973988E+01 -0.64247094905E+01  0.24676512367E+02  0.00000000000E+00 0. -1.
</event>
<event>
 7    1  0.1381607E-011  0.5052886E+02  0.7816164E-02  0.1300439E+00
        -11   -1    0    0    0    0  0.00000000000E+00  0.00000000000E+00  0.45593999997E+02  0.45594000000E+02  0.51100000000E-03 0. -1.
         11   -1    0    0    0    0 -0.00000000000E+00 -0.00000000000E+00 -0.45593999997E+02  0.45594000000E+02  0.51100000000E-03 0.  1.
    9900012    2    1    2    0    0  0.18695549388E+02  0.27119599302E+02 -0.23836302768E+02  0.50528861263E+02  0.30000004295E+02 0.  0.
         12    1    1    2    0    0 -0.18695549388E+02 -0.27119599302E+02  0.23836302768E+02  0.40659138737E+02  0.00000000000E+00 0. -1.
         11    1    3    3    0    0  0.46758816191E-01  0.48000115508E+01  0.46355833757E+01  0.66731499885E+01  0.51100000000E-03 0. -1.
        -11    1    3    3    0    0  0.12008524324E+02  0.23936581789E+01 -0.88027841412E+01  0.15080559168E+02  0.51100000000E-03 0.  1.
        -12    1    3    3    0    0  0.66402662470E+01  0.19925929572E+02 -0.19669102003E+02  0.28775152106E+02  0.00000000000E+00 0.  1.
</event>
<event>
 7    1  0.1381607E-011  0.5052886E+02  0.7816164E-02  0.1300439E+00
        -11   -1    0    0    0    0  0.00000000000E+00  0.00000000000E+00  0.45593999997E+02  0.45594000000E+02  0.51100000000E-03 0.  1.
         11   -1    0    0    0    0 -0.00000000000E+00 -0.00000000000E+00 -0.45593999997E+02  0.45594000000E+02  0.51100000000E-03 0. -1.
    9900012    2    1    2    0    0  0.63045911172E+01 -0.24503114647E+02  0.31827898093E+02  0.50528860885E+02  0.30000003146E+02 0.  0.
         12    1    1    2    0    0 -0.63045911172E+01  0.24503114647E+02 -0.31827898093E+02  0.40659139115E+02  0.00000000000E+00 0. -1.
         11    1    3    3    0    0 -0.31176753356E+01 -0.93617549764E+01  0.42799492364E+01  0.10755478672E+02  0.51100000000E-03 0.  1.
        -11    1    3    3    0    0  0.10400150835E+02 -0.16419484664E+02  0.94637254364E+01  0.21617694452E+02  0.51100000000E-03 0. -1.
        -12    1    3    3    0    0 -0.97788438200E+00  0.12781249940E+01  0.18084223420E+02  0.18155687761E+02  0.00000000000E+00 0.  1.
</event>
<event>
 7    1  0.1381607E-011  0.5052887E+02  0.7816164E-02  0.1300439E+00
        -11   -1    0    0    0    0  0.00000000000E+00  0.00000000000E+00  0.45593999997E+02  0.45594000000E+02  0.51100000000E-03 0.  1.
         11   -1    0    0    0    0 -0.00000000000E+00 -0.00000000000E+00 -0.45593999997E+02  0.45594000000E+02  0.51100000000E-03 0. -1.
    9900012    2    1    2    0    0  0.88387022876E+01 -0.21464563086E+02  0.33381353881E+02  0.50528869247E+02  0.30000028565E+02 0.  0.
         12    1    1    2    0    0 -0.88387022876E+01  0.21464563086E+02 -0.33381353881E+02  0.40659130753E+02  0.00000000000E+00 0. -1.
         11    1    3    3    0    0 -0.24933255266E+01 -0.51130864605E+01 -0.10784492760E+01  0.57899376884E+01  0.51100000000E-03 0. -1.
        -11    1    3    3    0    0  0.40464131475E+01  0.47266351396E+01  0.79739067228E+01  0.10114233920E+02  0.51100000000E-03 0.  1.
        -12    1    3    3    0    0  0.72856146666E+01 -0.21078111765E+02  0.26485896434E+02  0.34624697639E+02  0.00000000000E+00 0.  1.
</event>
<event>
 7    1  0.1381607E-011  0.5052887E+02  0.7816164E-02  0.1300439E+00
        -11   -1    0    0    0    0  0.00000000000E+00  0.00000000000E+00  0.45593999997E+02  0.45594000000E+02  0.51100000000E-03 0.  1.
         11   -1    0    0    0    0 -0.00000000000E+00 -0.00000000000E+00 -0.45593999997E+02  0.45594000000E+02  0.51100000000E-03 0. -1.
    9900012    2    1    2    0    0  0.73220535735E+00 -0.31462935542E+02  0.25743206930E+02  0.50528866455E+02  0.30000020077E+02 0.  0.
         12    1    1    2    0    0 -0.73220535735E+00  0.31462935542E+02 -0.25743206930E+02  0.40659133545E+02  0.00000000000E+00 0. -1.
         11    1    3    3    0    0  0.60768375538E+01 -0.13654898519E+02  0.34845898783E+01  0.15346875093E+02  0.51100000000E-03 0. -1.
        -11    1    3    3    0    0 -0.57803996658E+00 -0.19391957252E+02  0.23016593040E+02  0.30102253931E+02  0.51100000000E-03 0.  1.
         12    1    3    3    0    0 -0.47665922298E+01  0.15839202295E+01 -0.75797598888E+00  0.50797374321E+01  0.00000000000E+00 0. -1.
</event>
<event>
 7    1  0.1381607E-011  0.5052887E+02  0.7816164E-02  0.1300439E+00
        -11   -1    0    0    0    0  0.00000000000E+00  0.00000000000E+00  0.45593999997E+02  0.45594000000E+02  0.51100000000E-03 0.  1.
         11   -1    0    0    0    0 -0.00000000000E+00 -0.00000000000E+00 -0.45593999997E+02  0.45594000000E+02  0.51100000000E-03 0. -1.
    9900012    2    1    2    0    0 -0.38233502025E+02  0.72642478086E+01  0.11772645347E+02  0.50528866318E+02  0.30000019660E+02 0.  0.
         12    1    1    2    0    0  0.38233502025E+02 -0.72642478086E+01 -0.11772645347E+02  0.40659133682E+02  0.00000000000E+00 0. -1.
         11    1    3    3    0    0  0.10266059482E+01 -0.33682532958E+01  0.24518733777E+01  0.42907730491E+01  0.51100000000E-03 0. -1.
        -11    1    3    3    0    0 -0.17412696664E+02  0.10981566485E+01  0.13470600197E+02  0.22042346134E+02  0.51100000000E-03 0.  1.
         12    1    3    3    0    0 -0.21847411309E+02  0.95343444559E+01 -0.41498282276E+01  0.24195747135E+02  0.00000000000E+00 0. -1.
</event>
<event>
 7    1  0.1381607E-011  0.5052884E+02  0.7816164E-02  0.1300439E+00
        -11   -1    0    0    0    0  0.00000000000E+00  0.00000000000E+00  0.45593999997E+02  0.45594000000E+02  0.51100000000E-03 0.  1.
         11   -1    0    0    0    0 -0.00000000000E+00 -0.00000000000E+00 -0.45593999997E+02  0.45594000000E+02  0.51100000000E-03 0. -1.
    9900012    2    1    2    0    0 -0.11180912617E+02  0.34070710994E+02  0.19166148670E+02  0.50528838554E+02  0.29999935270E+02 0.  0.
         12    1    1    2    0    0  0.11180912617E+02 -0.34070710994E+02 -0.19166148670E+02  0.40659161446E+02  0.00000000000E+00 0. -1.
         11    1    3    3    0    0 -0.26032570112E+01 -0.37187736799E+01  0.23001089397E+00  0.45452315696E+01  0.51100000000E-03 0. -1.
        -11    1    3    3    0    0 -0.11442701108E+02  0.26807010158E+02  0.18702034352E+02  0.34631160700E+02  0.51100000000E-03 0.  1.
        -12    1    3    3    0    0  0.28650455030E+01  0.10982474516E+02  0.23410342418E+00  0.11352446285E+02  0.00000000000E+00 0.  1.
</event>
<event>
 7    1  0.1381607E-011  0.5052885E+02  0.7816164E-02  0.1300439E+00
        -11   -1    0    0    0    0  0.00000000000E+00  0.00000000000E+00  0.45593999997E+02  0.45594000000E+02  0.51100000000E-03 0. -1.
         11   -1    0    0    0    0 -0.00000000000E+00 -0.00000000000E+00 -0.45593999997E+02  0.45594000000E+02  0.51100000000E-03 0.  1.
    9900012    2    1    2    0    0 -0.38097427159E+02 -0.72329771293E+01  0.12224419834E+02  0.50528851526E+02  0.29999974700E+02 0.  0.
         12    1    1    2    0    0  0.38097427159E+02  0.72329771293E+01 -0.12224419834E+02  0.40659148474E+02  0.00000000000E+00 0. -1.
         11    1    3    3    0    0 -0.84910680513E+00 -0.39901251968E+01  0.36112951923E+01  0.54482597846E+01  0.51100000000E-03 0. -1.
        -11    1    3    3    0    0 -0.22805261811E+02  0.22427583282E+01  0.16007387876E+02  0.27952574086E+02  0.51100000000E-03 0.  1.
         12    1    3    3    0    0 -0.14443058544E+02 -0.54856102606E+01 -0.73942632347E+01  0.17128017656E+02  0.00000000000E+00 0. -1.
</event>
<event>
 7    1  0.1381607E-011  0.5052886E+02  0.7816164E-02  0.1300439E+00
        -11   -1    0    0    0    0  0.00000000000E+00  0.00000000000E+00  0.45593999997E+02  0.45594000000E+02  0.51100000000E-03 0.  1.
         11   -1    0    0    0    0 -0.00000000000E+00 -0.00000000000E+00 -0.45593999997E+02  0.45594000000E+02  0.51100000000E-03 0. -1.
    9900012    2    1    2    0    0  0.16875864158E+01  0.30837762536E+02  0.26445230917E+02  0.50528858538E+02  0.29999996012E+02 0.  0.
         12    1    1    2    0    0 -0.16875864158E+01 -0.30837762536E+02 -0.26445230917E+02  0.40659141462E+02  0.00000000000E+00 0. -1.
         11    1    3    3    0    0 -0.59697005169E+01  0.75551686639E+01 -0.52156320115E-01  0.96291546017E+01  0.51100000000E-03 0. -1.
        -11    1    3    3    0    0 -0.42182155035E+01 -0.23138274409E+00  0.68067683875E+01  0.80111781998E+01  0.51100000000E-03 0.  1.
         12    1    3    3    0    0  0.11875502436E+02  0.23513976616E+02  0.19690618850E+02  0.32888525737E+02  0.00000000000E+00 0. -1.
</event>
<event>
 7    1  0.1381607E-011  0.5052887E+02  0.7816164E-02  0.1300439E+00
        -11   -1    0    0    0    0  0.00000000000E+00  0.00000000000E+00  0.45593999997E+02  0.45594000000E+02  0.51100000000E-03 0.  1.
         11   -1    0    0    0    0 -0.00000000000E+00 -0.00000000000E+00 -0.45593999997E+02  0.45594000000E+02  0.51100000000E-03 0. -1.
    9900012    2    1    2    0    0  0.13782904145E+01 -0.13101663058E+02  0.38465719684E+02  0.50528870027E+02  0.30000030933E+02 0.  0.
         12    1    1    2    0    0 -0.13782904145E+01  0.13101663058E+02 -0.38465719684E+02  0.40659129973E+02  0.00000000000E+00 0. -1.
         11    1    3    3    0    0  0.96623225832E+01 -0.71802183956E+01  0.11282171895E+02  0.16498588329E+02  0.51100000000E-03 0.  1.
        -11    1    3    3    0    0 -0.31119106207E+01 -0.85530222291E+01  0.36740176082E+01  0.98151201016E+01  0.51100000000E-03 0. -1.
        -12    1    3    3    0    0 -0.51721215480E+01  0.26315775666E+01  0.23509530181E+02  0.24215161596E+02  0.00000000000E+00 0.  1.
</event>
<event>
 7    1  0.1381607E-011  0.5052887E+02  0.7816164E-02  0.1300439E+00
        -11   -1    0    0    0    0  0.00000000000E+00  0.00000000000E+00  0.45593999997E+02  0.45594000000E+02  0.51100000000E-03 0.  1.
         11   -1    0    0    0    0 -0.00000000000E+00 -0.00000000000E+00 -0.45593999997E+02  0.45594000000E+02  0.51100000000E-03 0. -1.
    9900012    2    1    2    0    0 -0.24431566400E+02 -0.26620218143E+02  0.18644777237E+02  0.50528866107E+02  0.30000019018E+02 0.  0.
         12    1    1    2    0    0  0.24431566400E+02  0.26620218143E+02 -0.18644777237E+02  0.40659133893E+02  0.00000000000E+00 0. -1.
         11    1    3    3    0    0  0.39770212415E+01 -0.72888899397E+01  0.46587560792E+01  0.95209570409E+01  0.51100000000E-03 0.  1.
        -11    1    3    3    0    0 -0.94121703438E+01 -0.16178121810E+02  0.10427493256E+02  0.21425526638E+02  0.51100000000E-03 0. -1.
         12    1    3    3    0    0 -0.18996417298E+02 -0.31532063934E+01  0.35585279019E+01  0.19582382428E+02  0.00000000000E+00 0. -1.
</event>
<event>
 7    1  0.1453018E-011  0.5052886E+02  0.7816164E-02  0.1300439E+00
        -11   -1    0    0    0    0  0.00000000000E+00  0.00000000000E+00  0.45593999997E+02  0.45594000000E+02  0.51100000000E-03 0. -1.
         11   -1    0    0    0    0 -0.00000000000E+00 -0.00000000000E+00 -0.45593999997E+02  0.45594000000E+02  0.51100000000E-03 0.  1.
    9900012    2    1    2    0    0  0.56474637750E+01 -0.12503155057E+02 -0.38274576939E+02  0.50528856215E+02  0.29999988950E+02 0.  0.
         12    1    1    2    0    0 -0.56474637750E+01  0.12503155057E+02  0.38274576939E+02  0.40659143785E+02  0.00000000000E+00 0. -1.
         11    1    3    3    0    0  0.70303828200E+00 -0.47290069528E+01  0.83984239856E+00  0.48541842879E+01  0.51100000000E-03 0. -1.
        -11    1    3    3    0    0  0.79913022510E+01  0.43225404031E+01 -0.78265224905E+01  0.11991652170E+02  0.51100000000E-03 0.  1.
        -12    1    3    3    0    0 -0.30468767580E+01 -0.12096688507E+02 -0.31287896848E+02  0.33683019757E+02  0.00000000000E+00 0.  1.
</event>
<event>
 7    1  0.1381607E-011  0.5052887E+02  0.7816164E-02  0.1300439E+00
        -11   -1    0    0    0    0  0.00000000000E+00  0.00000000000E+00  0.45593999997E+02  0.45594000000E+02  0.51100000000E-03 0.  1.
         11   -1    0    0    0    0 -0.00000000000E+00 -0.00000000000E+00 -0.45593999997E+02  0.45594000000E+02  0.51100000000E-03 0. -1.
    9900012    2    1    2    0    0  0.15017086820E+02 -0.13270507245E+01  0.37760966298E+02  0.50528873891E+02  0.30000042679E+02 0.  0.
         12    1    1    2    0    0 -0.15017086820E+02  0.13270507245E+01 -0.37760966298E+02  0.40659126109E+02  0.00000000000E+00 0. -1.
         11    1    3    3    0    0  0.15871010017E+00 -0.61768840713E+01  0.43927986758E+01  0.75812773458E+01  0.51100000000E-03 0. -1.
        -11    1    3    3    0    0  0.13291281475E+01 -0.68083225162E+01  0.26711289235E+01  0.74333550369E+01  0.51100000000E-03 0.  1.
        -12    1    3    3    0    0  0.13529248572E+02  0.11658155863E+02  0.30697038699E+02  0.35514241509E+02  0.00000000000E+00 0.  1.
</event>
<event>
 7    1  0.1381607E-011  0.5052886E+02  0.7816164E-02  0.1300439E+00
        -11   -1    0    0    0    0  0.00000000000E+00  0.00000000000E+00  0.45593999997E+02  0.45594000000E+02  0.51100000000E-03 0.  1.
         11   -1    0    0    0    0 -0.00000000000E+00 -0.00000000000E+00 -0.45593999997E+02  0.45594000000E+02  0.51100000000E-03 0. -1.
    9900012    2    1    2    0    0  0.10452446550E+02 -0.15010382185E+02  0.36312534673E+02  0.50528863430E+02  0.30000010882E+02 0.  0.
         12    1    1    2    0    0 -0.10452446550E+02  0.15010382185E+02 -0.36312534673E+02  0.40659136570E+02  0.00000000000E+00 0. -1.
         11    1    3    3    0    0  0.95023764644E+01 -0.14299781949E+01  0.13520739125E+01  0.97040249502E+01  0.51100000000E-03 0. -1.
        -11    1    3    3    0    0  0.69390375039E+01 -0.25428167237E+01  0.19827957714E+02  0.21160436331E+02  0.51100000000E-03 0.  1.
        -12    1    3    3    0    0 -0.59889674179E+01 -0.11037587266E+02  0.15132503047E+02  0.19664402148E+02  0.00000000000E+00 0.  1.
</event>
<event>
 7    1  0.1381607E-011  0.5052886E+02  0.7816164E-02  0.1300439E+00
        -11   -1    0    0    0    0  0.00000000000E+00  0.00000000000E+00  0.45593999997E+02  0.45594000000E+02  0.51100000000E-03 0.  1.
         11   -1    0    0    0    0 -0.00000000000E+00 -0.00000000000E+00 -0.45593999997E+02  0.45594000000E+02  0.51100000000E-03 0. -1.
    9900012    2    1    2    0    0 -0.18381112847E+02 -0.10556345348E+02  0.34696742741E+02  0.50528859657E+02  0.29999999413E+02 0.  0.
         12    1    1    2    0    0  0.18381112847E+02  0.10556345348E+02 -0.34696742741E+02  0.40659140343E+02  0.00000000000E+00 0. -1.
         11    1    3    3    0    0 -0.39892365809E+01 -0.87690179975E+01  0.10014831805E+02  0.13896277972E+02  0.51100000000E-03 0. -1.
        -11    1    3    3    0    0 -0.19761052742E+02 -0.17088033967E+01  0.12834481949E+02  0.23625053263E+02  0.51100000000E-03 0.  1.
         12    1    3    3    0    0  0.53691764755E+01 -0.78523953623E-01  0.11847428987E+02  0.13007528422E+02  0.00000000000E+00 0. -1.
</event>
<event>
 7    1  0.1381607E-011  0.5052886E+02  0.7816164E-02  0.1300439E+00
        -11   -1    0    0    0    0  0.00000000000E+00  0.00000000000E+00  0.45593999997E+02  0.45594000000E+02  0.51100000000E-03 0.  1.
         11   -1    0    0    0    0 -0.00000000000E+00 -0.00000000000E+00 -0.45593999997E+02  0.45594000000E+02  0.51100000000E-03 0. -1.
    9900012    2    1    2    0    0  0.13348945148E+02 -0.28972974158E+02  0.25209882362E+02  0.50528859123E+02  0.29999997792E+02 0.  0.
         12    1    1    2    0    0 -0.13348945148E+02  0.28972974158E+02 -0.25209882362E+02  0.40659140877E+02  0.00000000000E+00 0. -1.
         11    1    3    3    0    0  0.34123209100E+01 -0.96567788908E+01 -0.34688293394E+01  0.10813421743E+02  0.51100000000E-03 0. -1.
        -11    1    3    3    0    0  0.28209984595E+01 -0.46194491457E+01 -0.13104185614E+01  0.55690699211E+01  0.51100000000E-03 0.  1.
        -12    1    3    3    0    0  0.71156257784E+01 -0.14696746121E+02  0.29989130263E+02  0.34146367460E+02  0.00000000000E+00 0.  1.
</event>
<event>
 7    1  0.1381607E-011  0.5052886E+02  0.7816164E-02  0.1300439E+00
        -11   -1    0    0    0    0  0.00000000000E+00  0.00000000000E+00  0.45593999997E+02  0.45594000000E+02  0.51100000000E-03 0.  1.
         11   -1    0    0    0    0 -0.00000000000E+00 -0.00000000000E+00 -0.45593999997E+02  0.45594000000E+02  0.51100000000E-03 0. -1.
    9900012    2    1    2    0    0  0.13846100886E+02  0.58999624784E+01  0.37770906582E+02  0.50528862638E+02  0.30000008475E+02 0.  0.
         12    1    1    2    0    0 -0.13846100886E+02 -0.58999624784E+01 -0.37770906582E+02  0.40659137362E+02  0.00000000000E+00 0. -1.
         11    1    3    3    0    0  0.11999493058E+01  0.32400306684E+00 -0.38965031863E+01  0.40899381005E+01  0.51100000000E-03 0. -1.
        -11    1    3    3    0    0 -0.33267091980E+01  0.21879511394E+01  0.58647139233E+01  0.70886524770E+01  0.51100000000E-03 0.  1.
        -12    1    3    3    0    0  0.15972860779E+02  0.33880082722E+01  0.35802695845E+02  0.39350272061E+02  0.00000000000E+00 0.  1.
</event>
<event>
 7    1  0.1381607E-011  0.5052885E+02  0.7816164E-02  0.1300439E+00
        -11   -1    0    0    0    0  0.00000000000E+00  0.00000000000E+00  0.45593999997E+02  0.45594000000E+02  0.51100000000E-03 0.  1.
         11   -1    0    0    0    0 -0.00000000000E+00 -0.00000000000E+00 -0.45593999997E+02  0.45594000000E+02  0.51100000000E-03 0. -1.
    9900012    2    1    2    0    0  0.35761544267E+00 -0.32745313445E+02  0.24099442769E+02  0.50528848715E+02  0.29999966155E+02 0.  0.
         12    1    1    2    0    0 -0.35761544267E+00  0.32745313445E+02 -0.24099442769E+02  0.40659151285E+02  0.00000000000E+00 0. -1.
         11    1    3    3    0    0 -0.47468746949E+01 -0.13516758685E+02  0.51231534573E+01  0.15214541936E+02  0.51100000000E-03 0. -1.
        -11    1    3    3    0    0 -0.37049812405E+01 -0.95978026562E+01  0.19718548899E+02  0.22241085243E+02  0.51100000000E-03 0.  1.
         12    1    3    3    0    0  0.88094713781E+01 -0.96307521035E+01 -0.74225958754E+00  0.13073221536E+02  0.00000000000E+00 0. -1.
</event>
<event>
 7    1  0.1381607E-011  0.5052886E+02  0.7816164E-02  0.1300439E+00
        -11   -1    0    0    0    0  0.00000000000E+00  0.00000000000E+00  0.45593999997E+02  0.45594000000E+02  0.51100000000E-03 0. -1.
         11   -1    0    0    0    0 -0.00000000000E+00 -0.00000000000E+00 -0.45593999997E+02  0.45594000000E+02  0.51100000000E-03 0.  1.
    9900012    2    1    2    0    0  0.24653067528E+02 -0.18379647320E+02 -0.26600380821E+02  0.50528862847E+02  0.30000009111E+02 0.  0.
         12    1    1    2    0    0 -0.24653067528E+02  0.18379647320E+02  0.26600380821E+02  0.40659137153E+02  0.00000000000E+00 0. -1.
         11    1    3    3    0    0 -0.32179194132E+01 -0.32613065682E+01  0.30760945443E-02  0.45816084080E+01  0.51100000000E-03 0. -1.
        -11    1    3    3    0    0  0.62391035848E+01 -0.14540388372E+02 -0.11206944875E+02  0.19389299143E+02  0.51100000000E-03 0.  1.
        -12    1    3    3    0    0  0.21631883357E+02 -0.57795237910E+00 -0.15396512041E+02  0.26557955297E+02  0.00000000000E+00 0.  1.
</event>
<event>
 7    1  0.1381607E-011  0.5052886E+02  0.7816164E-02  0.1300439E+00
        -11   -1    0    0    0    0  0.00000000000E+00  0.00000000000E+00  0.45593999997E+02  0.45594000000E+02  0.51100000000E-03 0. -1.
         11   -1    0    0    0    0 -0.00000000000E+00 -0.00000000000E+00 -0.45593999997E+02  0.45594000000E+02  0.51100000000E-03 0.  1.
    9900012    2    1    2    0    0  0.10486406038E+02 -0.37172528006E+02 -0.12704485537E+02  0.50528862003E+02  0.30000006543E+02 0.  0.
         12    1    1    2    0    0 -0.10486406038E+02  0.37172528006E+02  0.12704485537E+02  0.40659137997E+02  0.00000000000E+00 0. -1.
         11    1    3    3    0    0  0.23244310169E+01 -0.25282353077E+02  0.13065089887E+01  0.25422575060E+02  0.51100000000E-03 0. -1.
        -11    1    3    3    0    0 -0.30998632857E+01 -0.85140544930E+01 -0.65760946778E+01  0.11195682104E+02  0.51100000000E-03 0.  1.
         12    1    3    3    0    0  0.11261838307E+02 -0.33761204358E+01 -0.74348998476E+01  0.13910604839E+02  0.00000000000E+00 0. -1.
</event>
<event>
 7    1  0.1381607E-011  0.5052886E+02  0.7816164E-02  0.1300439E+00
        -11   -1    0    0    0    0  0.00000000000E+00  0.00000000000E+00  0.45593999997E+02  0.45594000000E+02  0.51100000000E-03 0. -1.
         11   -1    0    0    0    0 -0.00000000000E+00 -0.00000000000E+00 -0.45593999997E+02  0.45594000000E+02  0.51100000000E-03 0.  1.
    9900012    2    1    2    0    0  0.15540849727E+02  0.19984081238E+02  0.31816408553E+02  0.50528863679E+02  0.30000011640E+02 0.  0.
         12    1    1    2    0    0 -0.15540849727E+02 -0.19984081238E+02 -0.31816408553E+02  0.40659136321E+02  0.00000000000E+00 0. -1.
         11    1    3    3    0    0  0.73943608524E+00  0.11618485086E+02  0.10403907410E+02  0.15613367705E+02  0.51100000000E-03 0. -1.
        -11    1    3    3    0    0  0.94319695912E+01  0.77574449628E+01 -0.62193681411E+00  0.12228115488E+02  0.51100000000E-03 0.  1.
         12    1    3    3    0    0  0.53694440507E+01  0.60815118847E+00  0.22034437957E+02  0.22687380487E+02  0.00000000000E+00 0. -1.
</event>
<event>
 7    1  0.1381607E-011  0.5052885E+02  0.7816164E-02  0.1300439E+00
        -11   -1    0    0    0    0  0.00000000000E+00  0.00000000000E+00  0.45593999997E+02  0.45594000000E+02  0.51100000000E-03 0. -1.
         11   -1    0    0    0    0 -0.00000000000E+00 -0.00000000000E+00 -0.45593999997E+02  0.45594000000E+02  0.51100000000E-03 0.  1.
    9900012    2    1    2    0    0  0.27153959639E+01  0.13297881475E+02 -0.38327008395E+02  0.50528848515E+02  0.29999965548E+02 0.  0.
         12    1    1    2    0    0 -0.27153959639E+01 -0.13297881475E+02  0.38327008395E+02  0.40659151485E+02  0.00000000000E+00 0. -1.
         11    1    3    3    0    0 -0.42910437812E+01 -0.58063379295E+01 -0.85462016525E+01  0.11187679823E+02  0.51100000000E-03 0. -1.
        -11    1    3    3    0    0  0.34495809298E+01  0.51083964149E+01 -0.22183360851E+02  0.23023831597E+02  0.51100000000E-03 0.  1.
         12    1    3    3    0    0  0.35568588153E+01  0.13995822990E+02 -0.75974458913E+01  0.16317337095E+02  0.00000000000E+00 0. -1.
</event>
<event>
 7    1  0.1381607E-011  0.5052885E+02  0.7816164E-02  0.1300439E+00
        -11   -1    0    0    0    0  0.00000000000E+00  0.00000000000E+00  0.45593999997E+02  0.45594000000E+02  0.51100000000E-03 0. -1.
         11   -1    0    0    0    0 -0.00000000000E+00 -0.00000000000E+00 -0.45593999997E+02  0.45594000000E+02  0.51100000000E-03 0.  1.
    9900012    2    1    2    0    0 -0.90597204408E+00  0.38686445593E+02  0.12478153600E+02  0.50528853732E+02  0.29999981403E+02 0.  0.
         12    1    1    2    0    0  0.90597204408E+00 -0.38686445593E+02 -0.12478153600E+02  0.40659146268E+02  0.00000000000E+00 0. -1.
         11    1    3    3    0    0 -0.26369562715E+01  0.66383007290E+01 -0.34312417563E+01  0.79242662245E+01  0.51100000000E-03 0. -1.
        -11    1    3    3    0    0  0.17012023806E+01  0.26646166711E+02  0.96948188717E+00  0.26718012376E+02  0.51100000000E-03 0.  1.
         12    1    3    3    0    0  0.29781846789E-01  0.54019781537E+01  0.14939913469E+02  0.15886575131E+02  0.00000000000E+00 0. -1.
</event>
<event>
 7    1  0.1381607E-011  0.5052886E+02  0.7816164E-02  0.1300439E+00
        -11   -1    0    0    0    0  0.00000000000E+00  0.00000000000E+00  0.45593999997E+02  0.45594000000E+02  0.51100000000E-03 0.  1.
         11   -1    0    0    0    0 -0.00000000000E+00 -0.00000000000E+00 -0.45593999997E+02  0.45594000000E+02  0.51100000000E-03 0. -1.
    9900012    2    1    2    0    0 -0.15227553634E+02 -0.13732983353E+02  0.35109719794E+02  0.50528860247E+02  0.30000001206E+02 0.  0.
         12    1    1    2    0    0  0.15227553634E+02  0.13732983353E+02 -0.35109719794E+02  0.40659139753E+02  0.00000000000E+00 0. -1.
         11    1    3    3    0    0 -0.76545155788E+01 -0.11488059048E+02  0.14547787740E+01  0.13881047906E+02  0.51100000000E-03 0. -1.
        -11    1    3    3    0    0 -0.59565007129E+01 -0.53557215449E+01  0.10385288950E+02  0.13115558731E+02  0.51100000000E-03 0.  1.
         12    1    3    3    0    0 -0.16165373419E+01  0.31107972397E+01  0.23269652071E+02  0.23532253609E+02  0.00000000000E+00 0. -1.
</event>
<event>
 7    1  0.1381607E-011  0.5052886E+02  0.7816164E-02  0.1300439E+00
        -11   -1    0    0    0    0  0.00000000000E+00  0.00000000000E+00  0.45593999997E+02  0.45594000000E+02  0.51100000000E-03 0. -1.
         11   -1    0    0    0    0 -0.00000000000E+00 -0.00000000000E+00 -0.45593999997E+02  0.45594000000E+02  0.51100000000E-03 0.  1.
    9900012    2    1    2    0    0 -0.24544830389E+01 -0.94531259177E+01 -0.39468715503E+02  0.50528861051E+02  0.30000003650E+02 0.  0.
         12    1    1    2    0    0  0.24544830389E+01  0.94531259177E+01  0.39468715503E+02  0.40659138949E+02  0.00000000000E+00 0. -1.
         11    1    3    3    0    0  0.14497742716E+01 -0.19165273919E+01 -0.35756173181E+01  0.43081274527E+01  0.51100000000E-03 0.  1.
        -11    1    3    3    0    0 -0.57091268290E+01 -0.11435782160E+02 -0.31064584618E+01  0.13153757151E+02  0.51100000000E-03 0. -1.
         12    1    3    3    0    0  0.18048695185E+01  0.38991836341E+01 -0.32786639723E+02  0.33066976447E+02  0.00000000000E+00 0. -1.
</event>
<event>
 7    1  0.1381607E-011  0.5052887E+02  0.7816164E-02  0.1300439E+00
        -11   -1    0    0    0    0  0.00000000000E+00  0.00000000000E+00  0.45593999997E+02  0.45594000000E+02  0.51100000000E-03 0.  1.
         11   -1    0    0    0    0 -0.00000000000E+00 -0.00000000000E+00 -0.45593999997E+02  0.45594000000E+02  0.51100000000E-03 0. -1.
    9900012    2    1    2    0    0 -0.21217718290E+02  0.12712907852E+02  0.32270039826E+02  0.50528867374E+02  0.30000022871E+02 0.  0.
         12    1    1    2    0    0  0.21217718290E+02 -0.12712907852E+02 -0.32270039826E+02  0.40659132626E+02  0.00000000000E+00 0. -1.
         11    1    3    3    0    0 -0.74674567229E+01 -0.27739362957E+01  0.30880961138E+01  0.85436508795E+01  0.51100000000E-03 0. -1.
        -11    1    3    3    0    0 -0.11689181090E+02 -0.71676771808E+00  0.48423999053E+01  0.12672787681E+02  0.51100000000E-03 0.  1.
        -12    1    3    3    0    0 -0.20610804779E+01  0.16203611866E+02  0.24339543807E+02  0.29312428814E+02  0.00000000000E+00 0.  1.
</event>
<event>
 7    1  0.1381607E-011  0.5052886E+02  0.7816164E-02  0.1300439E+00
        -11   -1    0    0    0    0  0.00000000000E+00  0.00000000000E+00  0.45593999997E+02  0.45594000000E+02  0.51100000000E-03 0.  1.
         11   -1    0    0    0    0 -0.00000000000E+00 -0.00000000000E+00 -0.45593999997E+02  0.45594000000E+02  0.51100000000E-03 0. -1.
    9900012    2    1    2    0    0  0.27544836958E+02 -0.10388467337E+02  0.28045089216E+02  0.50528864178E+02  0.30000013155E+02 0.  0.
         12    1    1    2    0    0 -0.27544836958E+02  0.10388467337E+02 -0.28045089216E+02  0.40659135822E+02  0.00000000000E+00 0. -1.
         11    1    3    3    0    0 -0.17666348924E+01 -0.25328756507E+01 -0.21225143702E+00  0.30954012403E+01  0.51100000000E-03 0. -1.
        -11    1    3    3    0    0  0.79067722268E+01  0.57046734118E+01  0.37421392320E+00  0.97570683149E+01  0.51100000000E-03 0.  1.
        -12    1    3    3    0    0  0.21404699624E+02 -0.13560265098E+02  0.27883126730E+02  0.37676394623E+02  0.00000000000E+00 0.  1.
</event>
<event>
 7    1  0.1381607E-011  0.5052887E+02  0.7816164E-02  0.1300439E+00
        -11   -1    0    0    0    0  0.00000000000E+00  0.00000000000E+00  0.45593999997E+02  0.45594000000E+02  0.51100000000E-03 0.  1.
         11   -1    0    0    0    0 -0.00000000000E+00 -0.00000000000E+00 -0.45593999997E+02  0.45594000000E+02  0.51100000000E-03 0. -1.
    9900012    2    1    2    0    0 -0.10799539485E+02 -0.23504068809E+02  0.31370269240E+02  0.50528867005E+02  0.30000021749E+02 0.  0.
         12    1    1    2    0    0  0.10799539485E+02  0.23504068809E+02 -0.31370269240E+02  0.40659132995E+02  0.00000000000E+00 0. -1.
         11    1    3    3    0    0  0.77041334761E+01 -0.56471330415E+01  0.80440529669E+01  0.12488017160E+02  0.51100000000E-03 0. -1.
        -11    1    3    3    0    0 -0.94671896740E+01 -0.18600673645E+02  0.14722379421E+02  0.25541362462E+02  0.51100000000E-03 0.  1.
         12    1    3    3    0    0 -0.90364832875E+01  0.74373787693E+00  0.86038368526E+01  0.12499487382E+02  0.00000000000E+00 0. -1.
</event>
<event>
 7    1  0.1381607E-011  0.5052883E+02  0.7816164E-02  0.1300439E+00
        -11   -1    0    0    0    0  0.00000000000E+00  0.00000000000E+00  0.45593999997E+02  0.45594000000E+02  0.51100000000E-03 0.  1.
         11   -1    0    0    0    0 -0.00000000000E+00 -0.00000000000E+00 -0.45593999997E+02  0.45594000000E+02  0.51100000000E-03 0. -1.
    9900012    2    1    2    0    0  0.47423830913E+01 -0.26090239797E+02  0.30821704797E+02  0.50528827645E+02  0.29999902108E+02 0.  0.
         12    1    1    2    0    0 -0.47423830913E+01  0.26090239797E+02 -0.30821704797E+02  0.40659172355E+02  0.00000000000E+00 0. -1.
         11    1    3    3    0    0  0.81735785784E+01 -0.14001040821E+02  0.14732533019E+02  0.21906256190E+02  0.51100000000E-03 0. -1.
        -11    1    3    3    0    0  0.40547752333E+01 -0.98163646622E+01 -0.12289916644E+00  0.10621549879E+02  0.51100000000E-03 0.  1.
         12    1    3    3    0    0 -0.74859707205E+01 -0.22728343137E+01  0.16212070944E+02  0.18001021575E+02  0.00000000000E+00 0. -1.
</event>
<event>
 7    1  0.1381607E-011  0.5052883E+02  0.7816164E-02  0.1300439E+00
        -11   -1    0    0    0    0  0.00000000000E+00  0.00000000000E+00  0.45593999997E+02  0.45594000000E+02  0.51100000000E-03 0. -1.
         11   -1    0    0    0    0 -0.00000000000E+00 -0.00000000000E+00 -0.45593999997E+02  0.45594000000E+02  0.51100000000E-03 0.  1.
    9900012    2    1    2    0    0 -0.12399318793E+01 -0.37088565980E+02 -0.16615322682E+02  0.50528829997E+02  0.29999909259E+02 0.  0.
         12    1    1    2    0    0  0.12399318793E+01  0.37088565980E+02  0.16615322682E+02  0.40659170003E+02  0.00000000000E+00 0. -1.
         11    1    3    3    0    0 -0.45600471922E+01 -0.89998835032E+01 -0.58860825670E+01  0.11680663582E+02  0.51100000000E-03 0. -1.
        -11    1    3    3    0    0  0.11616867362E+02 -0.24824947748E+02 -0.11853537761E+02  0.29861948961E+02  0.51100000000E-03 0.  1.
         12    1    3    3    0    0 -0.82967520493E+01 -0.32637347278E+01  0.11242976460E+01  0.89862174544E+01  0.00000000000E+00 0. -1.
</event>
<event>
 7    1  0.1381607E-011  0.5052886E+02  0.7816164E-02  0.1300439E+00
        -11   -1    0    0    0    0  0.00000000000E+00  0.00000000000E+00  0.45593999997E+02  0.45594000000E+02  0.51100000000E-03 0. -1.
         11   -1    0    0    0    0 -0.00000000000E+00 -0.00000000000E+00 -0.45593999997E+02  0.45594000000E+02  0.51100000000E-03 0.  1.
    9900012    2    1    2    0    0 -0.12181786793E+02 -0.29017818833E+02 -0.25743659141E+02  0.50528859266E+02  0.29999998225E+02 0.  0.
         12    1    1    2    0    0  0.12181786793E+02  0.29017818833E+02  0.25743659141E+02  0.40659140734E+02  0.00000000000E+00 0. -1.
         11    1    3    3    0    0  0.55938728189E+01  0.10621248407E+01 -0.59314442699E+01  0.82220163999E+01  0.51100000000E-03 0. -1.
        -11    1    3    3    0    0 -0.10589271820E+02 -0.64512889119E+01 -0.42138585119E+01  0.13096121950E+02  0.51100000000E-03 0.  1.
        -12    1    3    3    0    0 -0.71863877916E+01 -0.23628654762E+02 -0.15598356359E+02  0.29210720916E+02  0.00000000000E+00 0.  1.
</event>
<event>
 7    1  0.1381607E-011  0.5052886E+02  0.7816164E-02  0.1300439E+00
        -11   -1    0    0    0    0  0.00000000000E+00  0.00000000000E+00  0.45593999997E+02  0.45594000000E+02  0.51100000000E-03 0.  1.
         11   -1    0    0    0    0 -0.00000000000E+00 -0.00000000000E+00 -0.45593999997E+02  0.45594000000E+02  0.51100000000E-03 0. -1.
    9900012    2    1    2    0    0  0.54446934161E+01  0.36054351240E+02  0.17989025911E+02  0.50528856097E+02  0.29999988592E+02 0.  0.
         12    1    1    2    0    0 -0.54446934161E+01 -0.36054351240E+02 -0.17989025911E+02  0.40659143903E+02  0.00000000000E+00 0. -1.
         11    1    3    3    0    0 -0.22091494925E+01  0.33912893816E+01  0.59184247283E+00  0.40904110947E+01  0.51100000000E-03 0. -1.
        -11    1    3    3    0    0  0.11379026912E+02  0.30038651837E+02  0.22784854833E+02  0.39382133864E+02  0.51100000000E-03 0.  1.
         12    1    3    3    0    0 -0.37251840032E+01  0.26244100210E+01 -0.53876713954E+01  0.70563111383E+01  0.00000000000E+00 0. -1.
</event>
<event>
 7    1  0.1381607E-011  0.5052883E+02  0.7816164E-02  0.1300439E+00
        -11   -1    0    0    0    0  0.00000000000E+00  0.00000000000E+00  0.45593999997E+02  0.45594000000E+02  0.51100000000E-03 0.  1.
         11   -1    0    0    0    0 -0.00000000000E+00 -0.00000000000E+00 -0.45593999997E+02  0.45594000000E+02  0.51100000000E-03 0. -1.
    9900012    2    1    2    0    0  0.30587569427E+02  0.94692615334E+01  0.25057972806E+02  0.50528827374E+02  0.29999901287E+02 0.  0.
         12    1    1    2    0    0 -0.30587569427E+02 -0.94692615334E+01 -0.25057972806E+02  0.40659172626E+02  0.00000000000E+00 0. -1.
         11    1    3    3    0    0 -0.16831510053E+01  0.19730198988E+01 -0.17292206803E+01  0.31170513711E+01  0.51100000000E-03 0. -1.
        -11    1    3    3    0    0  0.88246268821E+01 -0.65959839339E+01  0.37180554215E+01  0.11627767629E+02  0.51100000000E-03 0.  1.
         12    1    3    3    0    0  0.23446093550E+02  0.14092225568E+02  0.23069138065E+02  0.35784008374E+02  0.00000000000E+00 0. -1.
</event>
<event>
 7    1  0.1381607E-011  0.5052889E+02  0.7816164E-02  0.1300439E+00
        -11   -1    0    0    0    0  0.00000000000E+00  0.00000000000E+00  0.45593999997E+02  0.45594000000E+02  0.51100000000E-03 0.  1.
         11   -1    0    0    0    0 -0.00000000000E+00 -0.00000000000E+00 -0.45593999997E+02  0.45594000000E+02  0.51100000000E-03 0. -1.
    9900012    2    1    2    0    0  0.28744501558E+02  0.28735460799E+02  0.10907629517E+01  0.50528894734E+02  0.30000106034E+02 0.  0.
         12    1    1    2    0    0 -0.28744501558E+02 -0.28735460799E+02 -0.10907629517E+01  0.40659105266E+02  0.00000000000E+00 0. -1.
         11    1    3    3    0    0  0.61567949511E+01  0.15569552191E+02 -0.71158692278E+01  0.18192104733E+02  0.51100000000E-03 0. -1.
        -11    1    3    3    0    0  0.11116093031E+02  0.15929709046E+02  0.60180942496E+01  0.20335698002E+02  0.51100000000E-03 0.  1.
        -12    1    3    3    0    0  0.11471613577E+02 -0.27638004377E+01  0.21885379300E+01  0.12001091999E+02  0.00000000000E+00 0.  1.
</event>
<event>
 7    1  0.1381607E-011  0.5052878E+02  0.7816164E-02  0.1300439E+00
        -11   -1    0    0    0    0  0.00000000000E+00  0.00000000000E+00  0.45593999997E+02  0.45594000000E+02  0.51100000000E-03 0. -1.
         11   -1    0    0    0    0 -0.00000000000E+00 -0.00000000000E+00 -0.45593999997E+02  0.45594000000E+02  0.51100000000E-03 0.  1.
    9900012    2    1    2    0    0 -0.38632641954E+02 -0.28722570331E+00 -0.12673160951E+02  0.50528775567E+02  0.29999743813E+02 0.  0.
         12    1    1    2    0    0  0.38632641954E+02  0.28722570331E+00  0.12673160951E+02  0.40659224433E+02  0.00000000000E+00 0. -1.
         11    1    3    3    0    0 -0.23456759456E+02 -0.17654125124E+01  0.10471829683E+01  0.23546397558E+02  0.51100000000E-03 0. -1.
        -11    1    3    3    0    0 -0.73755080291E+01 -0.76169668033E+01 -0.33034262732E+01  0.11105355797E+02  0.51100000000E-03 0.  1.
        -12    1    3    3    0    0 -0.78003744687E+01  0.90951536123E+01 -0.10416917646E+02  0.15877022213E+02  0.00000000000E+00 0.  1.
</event>
<event>
 7    1  0.1381607E-011  0.5052885E+02  0.7816164E-02  0.1300439E+00
        -11   -1    0    0    0    0  0.00000000000E+00  0.00000000000E+00  0.45593999997E+02  0.45594000000E+02  0.51100000000E-03 0.  1.
         11   -1    0    0    0    0 -0.00000000000E+00 -0.00000000000E+00 -0.45593999997E+02  0.45594000000E+02  0.51100000000E-03 0. -1.
    9900012    2    1    2    0    0  0.35248013225E+01  0.30031204382E+02  0.27182143975E+02  0.50528850820E+02  0.29999972551E+02 0.  0.
         12    1    1    2    0    0 -0.35248013225E+01 -0.30031204382E+02 -0.27182143975E+02  0.40659149180E+02  0.00000000000E+00 0. -1.
         11    1    3    3    0    0 -0.57900333351E+01  0.13197645497E+02  0.33028128048E+01  0.14785496454E+02  0.51100000000E-03 0. -1.
        -11    1    3    3    0    0  0.50757588952E+01  0.16376819666E+01 -0.17796248306E+01  0.56224901409E+01  0.51100000000E-03 0.  1.
        -12    1    3    3    0    0  0.42390757623E+01  0.15195876918E+02  0.25658956000E+02  0.30120864225E+02  0.00000000000E+00 0.  1.
</event>
<event>
 7    1  0.1381607E-011  0.5052885E+02  0.7816164E-02  0.1300439E+00
        -11   -1    0    0    0    0  0.00000000000E+00  0.00000000000E+00  0.45593999997E+02  0.45594000000E+02  0.51100000000E-03 0. -1.
         11   -1    0    0    0    0 -0.00000000000E+00 -0.00000000000E+00 -0.45593999997E+02  0.45594000000E+02  0.51100000000E-03 0.  1.
    9900012    2    1    2    0    0  0.22708020717E+02 -0.14318723912E+02 -0.30536640786E+02  0.50528849863E+02  0.29999969645E+02 0.  0.
         12    1    1    2    0    0 -0.22708020717E+02  0.14318723912E+02  0.30536640786E+02  0.40659150137E+02  0.00000000000E+00 0. -1.
         11    1    3    3    0    0  0.13395344081E+02 -0.19499446974E+01 -0.86532085178E+01  0.16065974769E+02  0.51100000000E-03 0. -1.
        -11    1    3    3    0    0  0.77724033112E+01 -0.30669109702E+01 -0.23459884434E+02  0.24903461086E+02  0.51100000000E-03 0.  1.
         12    1    3    3    0    0  0.15402733243E+01 -0.93018682446E+01  0.15764521656E+01  0.95594140084E+01  0.00000000000E+00 0. -1.
</event>
<event>
 7    1  0.1381607E-011  0.5052885E+02  0.7816164E-02  0.1300439E+00
        -11   -1    0    0    0    0  0.00000000000E+00  0.00000000000E+00  0.45593999997E+02  0.45594000000E+02  0.51100000000E-03 0. -1.
         11   -1    0    0    0    0 -0.00000000000E+00 -0.00000000000E+00 -0.45593999997E+02  0.45594000000E+02  0.51100000000E-03 0.  1.
    9900012    2    1    2    0    0  0.10537814957E+02 -0.31701766586E+02  0.23175825422E+02  0.50528850565E+02  0.29999971778E+02 0.  0.
         12    1    1    2    0    0 -0.10537814957E+02  0.31701766586E+02 -0.23175825422E+02  0.40659149435E+02  0.00000000000E+00 0. -1.
         11    1    3    3    0    0  0.47323047937E+00  0.73043052944E+00 -0.42608601260E+01  0.43488395141E+01  0.51100000000E-03 0. -1.
        -11    1    3    3    0    0  0.34078363578E+01 -0.12346659301E+02  0.17927778620E+01  0.12933189756E+02  0.51100000000E-03 0.  1.
        -12    1    3    3    0    0  0.66567481196E+01 -0.20085537815E+02  0.25643907686E+02  0.33246821296E+02  0.00000000000E+00 0.  1.
</event>
<event>
 7    1  0.1381607E-011  0.5052886E+02  0.7816164E-02  0.1300439E+00
        -11   -1    0    0    0    0  0.00000000000E+00  0.00000000000E+00  0.45593999997E+02  0.45594000000E+02  0.51100000000E-03 0.  1.
         11   -1    0    0    0    0 -0.00000000000E+00 -0.00000000000E+00 -0.45593999997E+02  0.45594000000E+02  0.51100000000E-03 0. -1.
    9900012    2    1    2    0    0 -0.28523510322E+02  0.14746456811E+02 -0.24942271244E+02  0.50528861736E+02  0.30000005733E+02 0.  0.
         12    1    1    2    0    0  0.28523510322E+02 -0.14746456811E+02  0.24942271244E+02  0.40659138264E+02  0.00000000000E+00 0. -1.
         11    1    3    3    0    0 -0.16354434199E+02 -0.12352701584E+01 -0.72304583437E+01  0.17924088219E+02  0.51100000000E-03 0. -1.
        -11    1    3    3    0    0 -0.17135738898E+02  0.12626777861E+02 -0.14913942150E+02  0.25990281596E+02  0.51100000000E-03 0.  1.
         12    1    3    3    0    0  0.49666627753E+01  0.33549491082E+01 -0.27978707508E+01  0.66144919215E+01  0.00000000000E+00 0. -1.
</event>
<event>
 7    1  0.1381607E-011  0.5052887E+02  0.7816164E-02  0.1300439E+00
        -11   -1    0    0    0    0  0.00000000000E+00  0.00000000000E+00  0.45593999997E+02  0.45594000000E+02  0.51100000000E-03 0.  1.
         11   -1    0    0    0    0 -0.00000000000E+00 -0.00000000000E+00 -0.45593999997E+02  0.45594000000E+02  0.51100000000E-03 0. -1.
    9900012    2    1    2    0    0  0.16996464490E+02  0.26202080679E+01  0.36843173982E+02  0.50528871080E+02  0.30000034134E+02 0.  0.
         12    1    1    2    0    0 -0.16996464490E+02 -0.26202080679E+01 -0.36843173982E+02  0.40659128920E+02  0.00000000000E+00 0. -1.
         11    1    3    3    0    0  0.37321699894E+01  0.85474146636E+01  0.12463679049E+02  0.15566974207E+02  0.51100000000E-03 0. -1.
        -11    1    3    3    0    0  0.13253170569E+02  0.37240782856E+01  0.79217610855E+01  0.15882996826E+02  0.51100000000E-03 0.  1.
        -12    1    3    3    0    0  0.11123931513E-01 -0.96512848812E+01  0.16457733848E+02  0.19078900047E+02  0.00000000000E+00 0.  1.
</event>
<event>
 7    1  0.1381607E-011  0.5052886E+02  0.7816164E-02  0.1300439E+00
        -11   -1    0    0    0    0  0.00000000000E+00  0.00000000000E+00  0.45593999997E+02  0.45594000000E+02  0.51100000000E-03 0. -1.
         11   -1    0    0    0    0 -0.00000000000E+00 -0.00000000000E+00 -0.45593999997E+02  0.45594000000E+02  0.51100000000E-03 0.  1.
    9900012    2    1    2    0    0 -0.15636255828E+02 -0.12447646332E+02 -0.35408039191E+02  0.50528860377E+02  0.30000001603E+02 0.  0.
         12    1    1    2    0    0  0.15636255828E+02  0.12447646332E+02  0.35408039191E+02  0.40659139623E+02  0.00000000000E+00 0. -1.
         11    1    3    3    0    0 -0.52022792404E+01 -0.10480556901E+02 -0.11235574310E+02  0.16221711149E+02  0.51100000000E-03 0.  1.
        -11    1    3    3    0    0  0.67969578111E+01 -0.23941400818E+00 -0.48091481588E+01  0.83296975231E+01  0.51100000000E-03 0. -1.
        -12    1    3    3    0    0 -0.17230934399E+02 -0.17276754226E+01 -0.19363316722E+02  0.25977451706E+02  0.00000000000E+00 0.  1.
</event>
<event>
 7    1  0.1381607E-011  0.5052888E+02  0.7816164E-02  0.1300439E+00
        -11   -1    0    0    0    0  0.00000000000E+00  0.00000000000E+00  0.45593999997E+02  0.45594000000E+02  0.51100000000E-03 0.  1.
         11   -1    0    0    0    0 -0.00000000000E+00 -0.00000000000E+00 -0.45593999997E+02  0.45594000000E+02  0.51100000000E-03 0. -1.
    9900012    2    1    2    0    0 -0.10066817302E+02 -0.15939663866E+02  0.36024299352E+02  0.50528882467E+02  0.30000068748E+02 0.  0.
         12    1    1    2    0    0  0.10066817302E+02  0.15939663866E+02 -0.36024299352E+02  0.40659117533E+02  0.00000000000E+00 0. -1.
         11    1    3    3    0    0  0.37959792654E+00 -0.62694051171E+01 -0.95252042708E+00  0.63527026164E+01  0.51100000000E-03 0. -1.
        -11    1    3    3    0    0 -0.13264095570E+02 -0.80046420729E+01  0.13732287804E+02  0.20702324860E+02  0.51100000000E-03 0.  1.
        -12    1    3    3    0    0  0.28176803418E+01 -0.16656166765E+01  0.23244531975E+02  0.23473854991E+02  0.00000000000E+00 0.  1.
</event>
<event>
 7    1  0.1381607E-011  0.5052886E+02  0.7816164E-02  0.1300439E+00
        -11   -1    0    0    0    0  0.00000000000E+00  0.00000000000E+00  0.45593999997E+02  0.45594000000E+02  0.51100000000E-03 0.  1.
         11   -1    0    0    0    0 -0.00000000000E+00 -0.00000000000E+00 -0.45593999997E+02  0.45594000000E+02  0.51100000000E-03 0. -1.
    9900012    2    1    2    0    0  0.27218740107E+01  0.22761688466E+02  0.33580692382E+02  0.50528856369E+02  0.29999989420E+02 0.  0.
         12    1    1    2    0    0 -0.27218740107E+01 -0.22761688466E+02 -0.33580692382E+02  0.40659143631E+02  0.00000000000E+00 0. -1.
         11    1    3    3    0    0  0.69921437549E+01 -0.30084976400E+01  0.52981519463E+01  0.92742410280E+01  0.51100000000E-03 0. -1.
        -11    1    3    3    0    0  0.51645569408E+01  0.96207086081E+01  0.72409110324E+01  0.13101964561E+02  0.51100000000E-03 0.  1.
        -12    1    3    3    0    0 -0.94348266849E+01  0.16149477498E+02  0.21041629403E+02  0.28152650780E+02  0.00000000000E+00 0.  1.
</event>
<event>
 7    1  0.1381607E-011  0.5052883E+02  0.7816164E-02  0.1300439E+00
        -11   -1    0    0    0    0  0.00000000000E+00  0.00000000000E+00  0.45593999997E+02  0.45594000000E+02  0.51100000000E-03 0. -1.
         11   -1    0    0    0    0 -0.00000000000E+00 -0.00000000000E+00 -0.45593999997E+02  0.45594000000E+02  0.51100000000E-03 0.  1.
    9900012    2    1    2    0    0  0.26364747844E+02 -0.16910827426E+02 -0.25924734208E+02  0.50528833053E+02  0.29999918547E+02 0.  0.
         12    1    1    2    0    0 -0.26364747844E+02  0.16910827426E+02  0.25924734208E+02  0.40659166947E+02  0.00000000000E+00 0. -1.
         11    1    3    3    0    0 -0.31755604553E+01 -0.61198391316E-01 -0.29445809220E+01  0.43311068465E+01  0.51100000000E-03 0. -1.
        -11    1    3    3    0    0  0.52366921048E+01 -0.13506394638E+02 -0.13790349697E+02  0.20000484627E+02  0.51100000000E-03 0.  1.
         12    1    3    3    0    0  0.24303616194E+02 -0.33432343972E+01 -0.91898035894E+01  0.26197241579E+02  0.00000000000E+00 0. -1.
</event>
<event>
 7    1  0.1381607E-011  0.5052887E+02  0.7816164E-02  0.1300439E+00
        -11   -1    0    0    0    0  0.00000000000E+00  0.00000000000E+00  0.45593999997E+02  0.45594000000E+02  0.51100000000E-03 0. -1.
         11   -1    0    0    0    0 -0.00000000000E+00 -0.00000000000E+00 -0.45593999997E+02  0.45594000000E+02  0.51100000000E-03 0.  1.
    9900012    2    1    2    0    0 -0.11772922580E+02  0.26034887990E+02 -0.28926598705E+02  0.50528865586E+02  0.30000017434E+02 0.  0.
         12    1    1    2    0    0  0.11772922580E+02 -0.26034887990E+02  0.28926598705E+02  0.40659134414E+02  0.00000000000E+00 0. -1.
         11    1    3    3    0    0 -0.28680689582E+01 -0.34973924698E+01 -0.68141424105E+01  0.81786374592E+01  0.51100000000E-03 0. -1.
        -11    1    3    3    0    0  0.55858810557E+01  0.12911633448E+02 -0.86956363099E+01  0.16538634664E+02  0.51100000000E-03 0.  1.
         12    1    3    3    0    0 -0.14490734677E+02  0.16620647012E+02 -0.13416819984E+02  0.25811593462E+02  0.00000000000E+00 0. -1.
</event>
<event>
 7    1  0.1381607E-011  0.5052886E+02  0.7816164E-02  0.1300439E+00
        -11   -1    0    0    0    0  0.00000000000E+00  0.00000000000E+00  0.45593999997E+02  0.45594000000E+02  0.51100000000E-03 0.  1.
         11   -1    0    0    0    0 -0.00000000000E+00 -0.00000000000E+00 -0.45593999997E+02  0.45594000000E+02  0.51100000000E-03 0. -1.
    9900012    2    1    2    0    0  0.15528715102E+02 -0.33321156885E+02  0.17370238875E+02  0.50528859730E+02  0.29999999637E+02 0.  0.
         12    1    1    2    0    0 -0.15528715102E+02  0.33321156885E+02 -0.17370238875E+02  0.40659140270E+02  0.00000000000E+00 0. -1.
         11    1    3    3    0    0 -0.27416086906E+01 -0.40376521802E+01 -0.28190657436E+01  0.56361498621E+01  0.51100000000E-03 0. -1.
        -11    1    3    3    0    0  0.83650298145E+01 -0.28694514182E+02  0.17402269724E+02  0.34585948877E+02  0.51100000000E-03 0.  1.
         12    1    3    3    0    0  0.99052939780E+01 -0.58899052341E+00  0.27870348944E+01  0.10306760991E+02  0.00000000000E+00 0. -1.
</event>
<event>
 7    1  0.1381607E-011  0.5052887E+02  0.7816164E-02  0.1300439E+00
        -11   -1    0    0    0    0  0.00000000000E+00  0.00000000000E+00  0.45593999997E+02  0.45594000000E+02  0.51100000000E-03 0.  1.
         11   -1    0    0    0    0 -0.00000000000E+00 -0.00000000000E+00 -0.45593999997E+02  0.45594000000E+02  0.51100000000E-03 0. -1.
    9900012    2    1    2    0    0 -0.26217860487E+00 -0.15282180916E+02  0.37676932537E+02  0.50528867735E+02  0.30000023966E+02 0.  0.
         12    1    1    2    0    0  0.26217860487E+00  0.15282180916E+02 -0.37676932537E+02  0.40659132265E+02  0.00000000000E+00 0. -1.
         11    1    3    3    0    0 -0.22130805055E+01  0.47272402967E+01  0.13770114596E+01  0.53982114601E+01  0.51100000000E-03 0. -1.
        -11    1    3    3    0    0  0.56078147862E+00 -0.62086949130E+00  0.19268200952E+02  0.19286355876E+02  0.51100000000E-03 0.  1.
        -12    1    3    3    0    0  0.13901204220E+01 -0.19388551722E+02  0.17031720126E+02  0.25844300399E+02  0.00000000000E+00 0.  1.
</event>
<event>
 7    1  0.1381607E-011  0.5052886E+02  0.7816164E-02  0.1300439E+00
        -11   -1    0    0    0    0  0.00000000000E+00  0.00000000000E+00  0.45593999997E+02  0.45594000000E+02  0.51100000000E-03 0. -1.
         11   -1    0    0    0    0 -0.00000000000E+00 -0.00000000000E+00 -0.45593999997E+02  0.45594000000E+02  0.51100000000E-03 0.  1.
    9900012    2    1    2    0    0  0.29577472636E+02 -0.27840891237E+02 -0.17953603262E+01  0.50528862883E+02  0.30000009218E+02 0.  0.
         12    1    1    2    0    0 -0.29577472636E+02  0.27840891237E+02  0.17953603262E+01  0.40659137117E+02  0.00000000000E+00 0. -1.
         11    1    3    3    0    0  0.66067799565E+01  0.69229922628E-01  0.38258423796E+01  0.76348807686E+01  0.51100000000E-03 0.  1.
        -11    1    3    3    0    0 -0.30897150409E+01 -0.10917979767E+02 -0.44409970445E+00  0.11355432446E+02  0.51100000000E-03 0. -1.
        -12    1    3    3    0    0  0.26060407721E+02 -0.16992141393E+02 -0.51771030014E+01  0.31538549668E+02  0.00000000000E+00 0.  1.
</event>
<event>
 7    1  0.1381607E-011  0.5052885E+02  0.7816164E-02  0.1300439E+00
        -11   -1    0    0    0    0  0.00000000000E+00  0.00000000000E+00  0.45593999997E+02  0.45594000000E+02  0.51100000000E-03 0.  1.
         11   -1    0    0    0    0 -0.00000000000E+00 -0.00000000000E+00 -0.45593999997E+02  0.45594000000E+02  0.51100000000E-03 0. -1.
    9900012    2    1    2    0    0  0.24886439250E+02 -0.25366321855E+02  0.19758065278E+02  0.50528852364E+02  0.29999977244E+02 0.  0.
         12    1    1    2    0    0 -0.24886439250E+02  0.25366321855E+02 -0.19758065278E+02  0.40659147636E+02  0.00000000000E+00 0. -1.
         11    1    3    3    0    0  0.12689734867E+02 -0.72105607380E+01  0.86922274978E+00  0.14621118480E+02  0.51100000000E-03 0. -1.
        -11    1    3    3    0    0  0.10677269842E+02 -0.81568433538E+01 -0.11251584427E+01  0.13483477539E+02  0.51100000000E-03 0.  1.
        -12    1    3    3    0    0  0.15194345415E+01 -0.99989177635E+01  0.20014000971E+02  0.22424256345E+02  0.00000000000E+00 0.  1.
</event>
<event>
 7    1  0.1381607E-011  0.5052887E+02  0.7816164E-02  0.1300439E+00
        -11   -1    0    0    0    0  0.00000000000E+00  0.00000000000E+00  0.45593999997E+02  0.45594000000E+02  0.51100000000E-03 0.  1.
         11   -1    0    0    0    0 -0.00000000000E+00 -0.00000000000E+00 -0.45593999997E+02  0.45594000000E+02  0.51100000000E-03 0. -1.
    9900012    2    1    2    0    0 -0.28165080892E+02 -0.78638688093E+01  0.28249824187E+02  0.50528870879E+02  0.30000033523E+02 0.  0.
         12    1    1    2    0    0  0.28165080892E+02  0.78638688093E+01 -0.28249824187E+02  0.40659129121E+02  0.00000000000E+00 0. -1.
         11    1    3    3    0    0 -0.11605253131E+02  0.46255343977E+01  0.53873248536E+01  0.13605173209E+02  0.51100000000E-03 0. -1.
        -11    1    3    3    0    0 -0.20345362106E+02 -0.55651220345E+01  0.17065134450E+02  0.27131589642E+02  0.51100000000E-03 0.  1.
         12    1    3    3    0    0  0.37855343445E+01 -0.69242811725E+01  0.57973648831E+01  0.97921080273E+01  0.00000000000E+00 0. -1.
</event>
<event>
 7    1  0.1381607E-011  0.5052882E+02  0.7816164E-02  0.1300439E+00
        -11   -1    0    0    0    0  0.00000000000E+00  0.00000000000E+00  0.45593999997E+02  0.45594000000E+02  0.51100000000E-03 0. -1.
         11   -1    0    0    0    0 -0.00000000000E+00 -0.00000000000E+00 -0.45593999997E+02  0.45594000000E+02  0.51100000000E-03 0.  1.
    9900012    2    1    2    0    0 -0.20402352933E+02 -0.30715248928E+02 -0.17131448320E+02  0.50528818460E+02  0.29999874192E+02 0.  0.
         12    1    1    2    0    0  0.20402352933E+02  0.30715248928E+02  0.17131448320E+02  0.40659181540E+02  0.00000000000E+00 0. -1.
         11    1    3    3    0    0 -0.71717258596E+01 -0.14386170814E+02 -0.79845691520E+01  0.17948507105E+02  0.51100000000E-03 0. -1.
        -11    1    3    3    0    0 -0.16743249697E+02 -0.78828798951E+01  0.14721633416E+01  0.18564575703E+02  0.51100000000E-03 0.  1.
         12    1    3    3    0    0  0.35126226243E+01 -0.84461982191E+01 -0.10619042509E+02  0.14015735652E+02  0.00000000000E+00 0. -1.
</event>
<event>
 7    1  0.1381607E-011  0.5052885E+02  0.7816164E-02  0.1300439E+00
        -11   -1    0    0    0    0  0.00000000000E+00  0.00000000000E+00  0.45593999997E+02  0.45594000000E+02  0.51100000000E-03 0.  1.
         11   -1    0    0    0    0 -0.00000000000E+00 -0.00000000000E+00 -0.45593999997E+02  0.45594000000E+02  0.51100000000E-03 0. -1.
    9900012    2    1    2    0    0  0.11085713684E+01 -0.95983506692E+01  0.39494415689E+02  0.50528854206E+02  0.29999982845E+02 0.  0.
         12    1    1    2    0    0 -0.11085713684E+01  0.95983506692E+01 -0.39494415689E+02  0.40659145794E+02  0.00000000000E+00 0. -1.
         11    1    3    3    0    0 -0.82645339875E+01 -0.13563540807E+01  0.85205068285E+01  0.11947437185E+02  0.51100000000E-03 0. -1.
        -11    1    3    3    0    0 -0.17803153315E+01 -0.12167534880E+01  0.23155332597E+02  0.23255524928E+02  0.51100000000E-03 0.  1.
        -12    1    3    3    0    0  0.11153420687E+02 -0.70252431005E+01  0.78185762635E+01  0.15325892093E+02  0.00000000000E+00 0.  1.
</event>
<event>
 7    1  0.1381607E-011  0.5052886E+02  0.7816164E-02  0.1300439E+00
        -11   -1    0    0    0    0  0.00000000000E+00  0.00000000000E+00  0.45593999997E+02  0.45594000000E+02  0.51100000000E-03 0.  1.
         11   -1    0    0    0    0 -0.00000000000E+00 -0.00000000000E+00 -0.45593999997E+02  0.45594000000E+02  0.51100000000E-03 0. -1.
    9900012    2    1    2    0    0 -0.17236226619E+02 -0.35930798390E+02  0.80657186989E+01  0.50528860817E+02  0.30000002939E+02 0.  0.
         12    1    1    2    0    0  0.17236226619E+02  0.35930798390E+02 -0.80657186989E+01  0.40659139183E+02  0.00000000000E+00 0. -1.
         11    1    3    3    0    0  0.77239946576E+00  0.27717892223E+01  0.66578386818E+00  0.29534191792E+01  0.51100000000E-03 0. -1.
        -11    1    3    3    0    0 -0.18192110797E+02 -0.18190155516E+02  0.83299143448E+01  0.27041119175E+02  0.51100000000E-03 0.  1.
         12    1    3    3    0    0  0.18348471292E+00 -0.20512432096E+02 -0.92997951411E+00  0.20534322463E+02  0.00000000000E+00 0. -1.
</event>
<event>
 7    1  0.1381607E-011  0.5052887E+02  0.7816164E-02  0.1300439E+00
        -11   -1    0    0    0    0  0.00000000000E+00  0.00000000000E+00  0.45593999997E+02  0.45594000000E+02  0.51100000000E-03 0.  1.
         11   -1    0    0    0    0 -0.00000000000E+00 -0.00000000000E+00 -0.45593999997E+02  0.45594000000E+02  0.51100000000E-03 0. -1.
    9900012    2    1    2    0    0  0.34400261506E+02  0.13283452463E+02  0.17127086765E+02  0.50528865700E+02  0.30000017781E+02 0.  0.
         12    1    1    2    0    0 -0.34400261506E+02 -0.13283452463E+02 -0.17127086765E+02  0.40659134300E+02  0.00000000000E+00 0. -1.
         11    1    3    3    0    0  0.65894302548E+00  0.25606694450E+00  0.45634221764E+01  0.46178564737E+01  0.51100000000E-03 0. -1.
        -11    1    3    3    0    0  0.37648647945E+02  0.11587456291E+02  0.13504094959E+02  0.41641930987E+02  0.51100000000E-03 0.  1.
         12    1    3    3    0    0 -0.39073294653E+01  0.14399292271E+01 -0.94043036993E+00  0.42690782389E+01  0.00000000000E+00 0. -1.
</event>
<event>
 7    1  0.1381607E-011  0.5052885E+02  0.7816164E-02  0.1300439E+00
        -11   -1    0    0    0    0  0.00000000000E+00  0.00000000000E+00  0.45593999997E+02  0.45594000000E+02  0.51100000000E-03 0.  1.
         11   -1    0    0    0    0 -0.00000000000E+00 -0.00000000000E+00 -0.45593999997E+02  0.45594000000E+02  0.51100000000E-03 0. -1.
    9900012    2    1    2    0    0 -0.36113016916E+02 -0.44373608898E+01 -0.18147343210E+02  0.50528853083E+02  0.29999979431E+02 0.  0.
         12    1    1    2    0    0  0.36113016916E+02  0.44373608898E+01  0.18147343210E+02  0.40659146917E+02  0.00000000000E+00 0. -1.
         11    1    3    3    0    0  0.14105581270E-01 -0.50623810791E+01  0.44689533835E+01  0.67527361686E+01  0.51100000000E-03 0. -1.
        -11    1    3    3    0    0 -0.15982290214E+02 -0.18748015883E+01 -0.15283046819E+02  0.22192791664E+02  0.51100000000E-03 0.  1.
        -12    1    3    3    0    0 -0.20144832283E+02  0.24998217776E+01 -0.73332497752E+01  0.21583325251E+02  0.00000000000E+00 0.  1.
</event>
<event>
 7    1  0.1381607E-011  0.5052883E+02  0.7816164E-02  0.1300439E+00
        -11   -1    0    0    0    0  0.00000000000E+00  0.00000000000E+00  0.45593999997E+02  0.45594000000E+02  0.51100000000E-03 0.  1.
         11   -1    0    0    0    0 -0.00000000000E+00 -0.00000000000E+00 -0.45593999997E+02  0.45594000000E+02  0.51100000000E-03 0. -1.
    9900012    2    1    2    0    0 -0.12426090231E+02  0.18729064812E+02  0.33881891930E+02  0.50528828981E+02  0.29999906172E+02 0.  0.
         12    1    1    2    0    0  0.12426090231E+02 -0.18729064812E+02 -0.33881891930E+02  0.40659171019E+02  0.00000000000E+00 0. -1.
         11    1    3    3    0    0  0.23205866512E+01  0.43128586738E+01 -0.22011495617E+01  0.53694442915E+01  0.51100000000E-03 0. -1.
        -11    1    3    3    0    0  0.33952150454E+01  0.54423291967E+01  0.12738247487E+02  0.14262166090E+02  0.51100000000E-03 0.  1.
        -12    1    3    3    0    0 -0.18141891927E+02  0.89738769419E+01  0.23344794005E+02  0.30897218600E+02  0.00000000000E+00 0.  1.
</event>
<event>
 7    1  0.1381607E-011  0.5052886E+02  0.7816164E-02  0.1300439E+00
        -11   -1    0    0    0    0  0.00000000000E+00  0.00000000000E+00  0.45593999997E+02  0.45594000000E+02  0.51100000000E-03 0.  1.
         11   -1    0    0    0    0 -0.00000000000E+00 -0.00000000000E+00 -0.45593999997E+02  0.45594000000E+02  0.51100000000E-03 0. -1.
    9900012    2    1    2    0    0  0.30085182954E+02  0.23728630246E+02 -0.13601461753E+02  0.50528857258E+02  0.29999992121E+02 0.  0.
         12    1    1    2    0    0 -0.30085182954E+02 -0.23728630246E+02  0.13601461753E+02  0.40659142742E+02  0.00000000000E+00 0. -1.
         11    1    3    3    0    0  0.92339887022E+01 -0.23520357360E+01 -0.72723169064E+01  0.11986876695E+02  0.51100000000E-03 0. -1.
        -11    1    3    3    0    0  0.17275448725E+02  0.94691293696E+01  0.16507857643E+01  0.19769436855E+02  0.51100000000E-03 0.  1.
         12    1    3    3    0    0  0.35757455266E+01  0.16611536612E+02 -0.79799306112E+01  0.18772543707E+02  0.00000000000E+00 0. -1.
</event>
<event>
 7    1  0.1381607E-011  0.5052884E+02  0.7816164E-02  0.1300439E+00
        -11   -1    0    0    0    0  0.00000000000E+00  0.00000000000E+00  0.45593999997E+02  0.45594000000E+02  0.51100000000E-03 0.  1.
         11   -1    0    0    0    0 -0.00000000000E+00 -0.00000000000E+00 -0.45593999997E+02  0.45594000000E+02  0.51100000000E-03 0. -1.
    9900012    2    1    2    0    0 -0.29888885109E+02  0.15073176459E+02  0.23078579472E+02  0.50528844425E+02  0.29999953115E+02 0.  0.
         12    1    1    2    0    0  0.29888885109E+02 -0.15073176459E+02 -0.23078579472E+02  0.40659155575E+02  0.00000000000E+00 0. -1.
         11    1    3    3    0    0 -0.11037831347E+02 -0.50631419371E+01  0.57084892642E+01  0.13418493845E+02  0.51100000000E-03 0. -1.
        -11    1    3    3    0    0 -0.14821328172E+02  0.56408326649E+01  0.15095104769E+02  0.21894130496E+02  0.51100000000E-03 0.  1.
         12    1    3    3    0    0 -0.40297255896E+01  0.14495485731E+02  0.22749854382E+01  0.15216220084E+02  0.00000000000E+00 0. -1.
</event>
<event>
 7    1  0.1381607E-011  0.5052886E+02  0.7816164E-02  0.1300439E+00
        -11   -1    0    0    0    0  0.00000000000E+00  0.00000000000E+00  0.45593999997E+02  0.45594000000E+02  0.51100000000E-03 0.  1.
         11   -1    0    0    0    0 -0.00000000000E+00 -0.00000000000E+00 -0.45593999997E+02  0.45594000000E+02  0.51100000000E-03 0. -1.
    9900012    2    1    2    0    0 -0.33682987406E+02  0.86470770486E+01  0.21067749008E+02  0.50528860433E+02  0.30000001773E+02 0.  0.
         12    1    1    2    0    0  0.33682987406E+02 -0.86470770486E+01 -0.21067749008E+02  0.40659139567E+02  0.00000000000E+00 0. -1.
         11    1    3    3    0    0 -0.98897857388E+01  0.96489247559E-01 -0.35247339683E+01  0.10499567703E+02  0.51100000000E-03 0. -1.
        -11    1    3    3    0    0 -0.18272747749E+02  0.11660092488E+02  0.95108610698E+01  0.23670816329E+02  0.51100000000E-03 0.  1.
        -12    1    3    3    0    0 -0.55204539179E+01 -0.31095046872E+01  0.15081621906E+02  0.16358476402E+02  0.00000000000E+00 0.  1.
</event>
<event>
 7    1  0.1381607E-011  0.5052886E+02  0.7816164E-02  0.1300439E+00
        -11   -1    0    0    0    0  0.00000000000E+00  0.00000000000E+00  0.45593999997E+02  0.45594000000E+02  0.51100000000E-03 0.  1.
         11   -1    0    0    0    0 -0.00000000000E+00 -0.00000000000E+00 -0.45593999997E+02  0.45594000000E+02  0.51100000000E-03 0. -1.
    9900012    2    1    2    0    0 -0.44084961019E+01 -0.14648794453E+02  0.37671519403E+02  0.50528863377E+02  0.30000010720E+02 0.  0.
         12    1    1    2    0    0  0.44084961019E+01  0.14648794453E+02 -0.37671519403E+02  0.40659136623E+02  0.00000000000E+00 0. -1.
         11    1    3    3    0    0  0.49387774017E+01  0.52988594911E+01  0.83153673274E+01  0.11027908604E+02  0.51100000000E-03 0. -1.
        -11    1    3    3    0    0 -0.44495910550E+01  0.38767444741E+00  0.10211271502E+02  0.11145367557E+02  0.51100000000E-03 0.  1.
        -12    1    3    3    0    0 -0.48976824486E+01 -0.20335328391E+02  0.19144880574E+02  0.28355587216E+02  0.00000000000E+00 0.  1.
</event>
<event>
 7    1  0.1381607E-011  0.5052886E+02  0.7816164E-02  0.1300439E+00
        -11   -1    0    0    0    0  0.00000000000E+00  0.00000000000E+00  0.45593999997E+02  0.45594000000E+02  0.51100000000E-03 0.  1.
         11   -1    0    0    0    0 -0.00000000000E+00 -0.00000000000E+00 -0.45593999997E+02  0.45594000000E+02  0.51100000000E-03 0. -1.
    9900012    2    1    2    0    0 -0.36933749544E+02 -0.93222599173E+01  0.14218266718E+02  0.50528862112E+02  0.30000006877E+02 0.  0.
         12    1    1    2    0    0  0.36933749544E+02  0.93222599173E+01 -0.14218266718E+02  0.40659137888E+02  0.00000000000E+00 0. -1.
         11    1    3    3    0    0 -0.68809184327E+01  0.49811561463E+01 -0.14100979523E+01  0.86108844800E+01  0.51100000000E-03 0. -1.
        -11    1    3    3    0    0 -0.64622613038E+01  0.27511750752E+01  0.10077837875E+02  0.12283834985E+02  0.51100000000E-03 0.  1.
        -12    1    3    3    0    0 -0.23590569807E+02 -0.17054591139E+02  0.55505267955E+01  0.29634142647E+02  0.00000000000E+00 0.  1.
</event>
<event>
 7    1  0.1381607E-011  0.5052885E+02  0.7816164E-02  0.1300439E+00
        -11   -1    0    0    0    0  0.00000000000E+00  0.00000000000E+00  0.45593999997E+02  0.45594000000E+02  0.51100000000E-03 0.  1.
         11   -1    0    0    0    0 -0.00000000000E+00 -0.00000000000E+00 -0.45593999997E+02  0.45594000000E+02  0.51100000000E-03 0. -1.
    9900012    2    1    2    0    0  0.29941978146E+02  0.26396680868E+02 -0.77368773313E+01  0.50528854818E+02  0.29999984704E+02 0.  0.
         12    1    1    2    0    0 -0.29941978146E+02 -0.26396680868E+02  0.77368773313E+01  0.40659145182E+02  0.00000000000E+00 0. -1.
         11    1    3    3    0    0 -0.34855346997E+01  0.12643999339E+01 -0.49914750612E+00  0.37412307908E+01  0.51100000000E-03 0. -1.
        -11    1    3    3    0    0  0.12850641985E+02  0.21316261898E+02 -0.70106128776E+01  0.25858668061E+02  0.51100000000E-03 0.  1.
        -12    1    3    3    0    0  0.20576870861E+02  0.38160190360E+01 -0.22711694759E+00  0.20928955966E+02  0.00000000000E+00 0.  1.
</event>
<event>
 7    1  0.1381607E-011  0.5052886E+02  0.7816164E-02  0.1300439E+00
        -11   -1    0    0    0    0  0.00000000000E+00  0.00000000000E+00  0.45593999997E+02  0.45594000000E+02  0.51100000000E-03 0.  1.
         11   -1    0    0    0    0 -0.00000000000E+00 -0.00000000000E+00 -0.45593999997E+02  0.45594000000E+02  0.51100000000E-03 0. -1.
    9900012    2    1    2    0    0  0.16820718931E+02  0.36934787134E+02  0.24598506409E+01  0.50528856487E+02  0.29999989779E+02 0.  0.
         12    1    1    2    0    0 -0.16820718931E+02 -0.36934787134E+02 -0.24598506409E+01  0.40659143513E+02  0.00000000000E+00 0. -1.
         11    1    3    3    0    0  0.76544589675E+01  0.26557411025E+02  0.38264029358E+01  0.27902117879E+02  0.51100000000E-03 0.  1.
        -11    1    3    3    0    0 -0.19890783676E+01 -0.22355199623E+01  0.39624145598E+01  0.49653511114E+01  0.51100000000E-03 0. -1.
         12    1    3    3    0    0  0.11155338331E+02  0.12612896071E+02 -0.53289668547E+01  0.17661387497E+02  0.00000000000E+00 0. -1.
</event>
<event>
 7    1  0.1381607E-011  0.5052885E+02  0.7816164E-02  0.1300439E+00
        -11   -1    0    0    0    0  0.00000000000E+00  0.00000000000E+00  0.45593999997E+02  0.45594000000E+02  0.51100000000E-03 0. -1.
         11   -1    0    0    0    0 -0.00000000000E+00 -0.00000000000E+00 -0.45593999997E+02  0.45594000000E+02  0.51100000000E-03 0.  1.
    9900012    2    1    2    0    0  0.36931876630E+02 -0.90732893639E+01 -0.14383270014E+02  0.50528849153E+02  0.29999967484E+02 0.  0.
         12    1    1    2    0    0 -0.36931876630E+02  0.90732893639E+01  0.14383270014E+02  0.40659150847E+02  0.00000000000E+00 0. -1.
         11    1    3    3    0    0  0.82672387412E+01  0.17995206296E+00  0.73405055320E+01  0.11057243819E+02  0.51100000000E-03 0. -1.
        -11    1    3    3    0    0  0.45284389319E+01 -0.70884732802E+01 -0.33227990936E+01  0.90440149647E+01  0.51100000000E-03 0.  1.
        -12    1    3    3    0    0  0.24136198957E+02 -0.21647681467E+01 -0.18400976453E+02  0.30427590369E+02  0.00000000000E+00 0.  1.
</event>
<event>
 7    1  0.1381607E-011  0.5052886E+02  0.7816164E-02  0.1300439E+00
        -11   -1    0    0    0    0  0.00000000000E+00  0.00000000000E+00  0.45593999997E+02  0.45594000000E+02  0.51100000000E-03 0. -1.
         11   -1    0    0    0    0 -0.00000000000E+00 -0.00000000000E+00 -0.45593999997E+02  0.45594000000E+02  0.51100000000E-03 0.  1.
    9900012    2    1    2    0    0  0.12840726160E+02  0.20568042222E+02 -0.32637972296E+02  0.50528857796E+02  0.29999993757E+02 0.  0.
         12    1    1    2    0    0 -0.12840726160E+02 -0.20568042222E+02  0.32637972296E+02  0.40659142204E+02  0.00000000000E+00 0. -1.
         11    1    3    3    0    0  0.26255018023E+01  0.12928896393E+02 -0.14804519050E+02  0.19829861477E+02  0.51100000000E-03 0.  1.
        -11    1    3    3    0    0 -0.31355069892E+01 -0.98654951380E+00 -0.13956292344E+02  0.14338158189E+02  0.51100000000E-03 0. -1.
        -12    1    3    3    0    0  0.13350731347E+02  0.86256953423E+01 -0.38771609028E+01  0.16360838129E+02  0.00000000000E+00 0.  1.
</event>
<event>
 7    1  0.1381607E-011  0.5052886E+02  0.7816164E-02  0.1300439E+00
        -11   -1    0    0    0    0  0.00000000000E+00  0.00000000000E+00  0.45593999997E+02  0.45594000000E+02  0.51100000000E-03 0.  1.
         11   -1    0    0    0    0 -0.00000000000E+00 -0.00000000000E+00 -0.45593999997E+02  0.45594000000E+02  0.51100000000E-03 0. -1.
    9900012    2    1    2    0    0 -0.25732487382E+02 -0.26903495355E+02  0.16346453050E+02  0.50528862079E+02  0.30000006774E+02 0.  0.
         12    1    1    2    0    0  0.25732487382E+02  0.26903495355E+02 -0.16346453050E+02  0.40659137921E+02  0.00000000000E+00 0. -1.
         11    1    3    3    0    0  0.29244021497E+01  0.27770705154E+01 -0.19738116599E+01  0.44900090546E+01  0.51100000000E-03 0. -1.
        -11    1    3    3    0    0 -0.13820367814E+02 -0.19791015880E+02  0.79625366309E+01  0.25418278186E+02  0.51100000000E-03 0.  1.
        -12    1    3    3    0    0 -0.14836521718E+02 -0.98895499908E+01  0.10357728079E+02  0.20620574838E+02  0.00000000000E+00 0.  1.
</event>
<event>
 7    1  0.1381607E-011  0.5052886E+02  0.7816164E-02  0.1300439E+00
        -11   -1    0    0    0    0  0.00000000000E+00  0.00000000000E+00  0.45593999997E+02  0.45594000000E+02  0.51100000000E-03 0.  1.
         11   -1    0    0    0    0 -0.00000000000E+00 -0.00000000000E+00 -0.45593999997E+02  0.45594000000E+02  0.51100000000E-03 0. -1.
    9900012    2    1    2    0    0  0.26206402488E+02  0.26005518492E+02  0.17032411809E+02  0.50528861108E+02  0.30000003824E+02 0.  0.
         12    1    1    2    0    0 -0.26206402488E+02 -0.26005518492E+02 -0.17032411809E+02  0.40659138892E+02  0.00000000000E+00 0. -1.
         11    1    3    3    0    0  0.15370973703E+02 -0.45289254111E+00  0.55815648696E+01  0.16359272933E+02  0.51100000000E-03 0. -1.
        -11    1    3    3    0    0  0.67971483492E+01  0.11632564582E+02 -0.21568588498E+01  0.13644406356E+02  0.51100000000E-03 0.  1.
         12    1    3    3    0    0  0.40382804353E+01  0.14825846451E+02  0.13607705790E+02  0.20525181819E+02  0.00000000000E+00 0. -1.
</event>
<event>
 7    1  0.1381607E-011  0.5052886E+02  0.7816164E-02  0.1300439E+00
        -11   -1    0    0    0    0  0.00000000000E+00  0.00000000000E+00  0.45593999997E+02  0.45594000000E+02  0.51100000000E-03 0. -1.
         11   -1    0    0    0    0 -0.00000000000E+00 -0.00000000000E+00 -0.45593999997E+02  0.45594000000E+02  0.51100000000E-03 0.  1.
    9900012    2    1    2    0    0 -0.19293596591E+02 -0.71559157069E+01 -0.35067306198E+02  0.50528856342E+02  0.29999989338E+02 0.  0.
         12    1    1    2    0    0  0.19293596591E+02  0.71559157069E+01  0.35067306198E+02  0.40659143658E+02  0.00000000000E+00 0. -1.
         11    1    3    3    0    0  0.19797550480E+01 -0.48463853976E+01  0.45038398535E+00  0.52544959290E+01  0.51100000000E-03 0. -1.
        -11    1    3    3    0    0 -0.54548234858E+01 -0.86751165034E+01 -0.18705973943E+02  0.21328999204E+02  0.51100000000E-03 0.  1.
         12    1    3    3    0    0 -0.15818528153E+02  0.63655861941E+01 -0.16811716240E+02  0.23945361210E+02  0.00000000000E+00 0. -1.
</event>
<event>
 7    1  0.1381607E-011  0.5052885E+02  0.7816164E-02  0.1300439E+00
        -11   -1    0    0    0    0  0.00000000000E+00  0.00000000000E+00  0.45593999997E+02  0.45594000000E+02  0.51100000000E-03 0.  1.
         11   -1    0    0    0    0 -0.00000000000E+00 -0.00000000000E+00 -0.45593999997E+02  0.45594000000E+02  0.51100000000E-03 0. -1.
    9900012    2    1    2    0    0 -0.77774853316E+01 -0.12233846061E+02  0.37986972401E+02  0.50528851709E+02  0.29999975255E+02 0.  0.
         12    1    1    2    0    0  0.77774853316E+01  0.12233846061E+02 -0.37986972401E+02  0.40659148291E+02  0.00000000000E+00 0. -1.
         11    1    3    3    0    0 -0.27137375022E+01  0.36782335721E+01  0.24639775294E+02  0.25060173588E+02  0.51100000000E-03 0. -1.
        -11    1    3    3    0    0 -0.57061049408E+01 -0.15178794173E+02  0.15915660748E+02  0.22721436650E+02  0.51100000000E-03 0.  1.
        -12    1    3    3    0    0  0.64235711140E+00 -0.73328545988E+00 -0.25684636411E+01  0.27472414710E+01  0.00000000000E+00 0.  1.
</event>
<event>
 7    1  0.1381607E-011  0.5052886E+02  0.7816164E-02  0.1300439E+00
        -11   -1    0    0    0    0  0.00000000000E+00  0.00000000000E+00  0.45593999997E+02  0.45594000000E+02  0.51100000000E-03 0. -1.
         11   -1    0    0    0    0 -0.00000000000E+00 -0.00000000000E+00 -0.45593999997E+02  0.45594000000E+02  0.51100000000E-03 0.  1.
    9900012    2    1    2    0    0 -0.50760366267E+01  0.40063600153E+02 -0.47230476457E+01  0.50528863461E+02  0.30000010976E+02 0.  0.
         12    1    1    2    0    0  0.50760366267E+01 -0.40063600153E+02  0.47230476457E+01  0.40659136539E+02  0.00000000000E+00 0. -1.
         11    1    3    3    0    0 -0.63850102204E+00  0.34566479406E+01  0.90960493528E+01  0.97516261531E+01  0.51100000000E-03 0. -1.
        -11    1    3    3    0    0 -0.47497613994E+01  0.59542180531E+01 -0.16341223083E+01  0.77899487774E+01  0.51100000000E-03 0.  1.
        -12    1    3    3    0    0  0.31222579467E+00  0.30652734159E+02 -0.12184974690E+02  0.32987288530E+02  0.00000000000E+00 0.  1.
</event>
<event>
 7    1  0.1381607E-011  0.5052887E+02  0.7816164E-02  0.1300439E+00
        -11   -1    0    0    0    0  0.00000000000E+00  0.00000000000E+00  0.45593999997E+02  0.45594000000E+02  0.51100000000E-03 0.  1.
         11   -1    0    0    0    0 -0.00000000000E+00 -0.00000000000E+00 -0.45593999997E+02  0.45594000000E+02  0.51100000000E-03 0. -1.
    9900012    2    1    2    0    0 -0.18199752963E+02  0.53887481199E+01 -0.35956848501E+02  0.50528873492E+02  0.30000041468E+02 0.  0.
         12    1    1    2    0    0  0.18199752963E+02 -0.53887481199E+01  0.35956848501E+02  0.40659126508E+02  0.00000000000E+00 0. -1.
         11    1    3    3    0    0  0.16746327804E+01  0.71031718277E+01 -0.12100943095E+02  0.14131251502E+02  0.51100000000E-03 0. -1.
        -11    1    3    3    0    0 -0.17945709329E+02  0.35396340677E+01 -0.24702118010E+02  0.30737145721E+02  0.51100000000E-03 0.  1.
        -12    1    3    3    0    0 -0.19286764143E+01 -0.52540577755E+01  0.84621260387E+00  0.56604762689E+01  0.00000000000E+00 0.  1.
</event>
<event>
 7    1  0.1381607E-011  0.5052887E+02  0.7816164E-02  0.1300439E+00
        -11   -1    0    0    0    0  0.00000000000E+00  0.00000000000E+00  0.45593999997E+02  0.45594000000E+02  0.51100000000E-03 0.  1.
         11   -1    0    0    0    0 -0.00000000000E+00 -0.00000000000E+00 -0.45593999997E+02  0.45594000000E+02  0.51100000000E-03 0. -1.
    9900012    2    1    2    0    0  0.31970782593E+02 -0.46074284455E+00  0.25116162967E+02  0.50528869835E+02  0.30000030350E+02 0.  0.
         12    1    1    2    0    0 -0.31970782593E+02  0.46074284455E+00 -0.25116162967E+02  0.40659130165E+02  0.00000000000E+00 0. -1.
         11    1    3    3    0    0  0.40570557059E+01 -0.63073921056E+01  0.28471499462E+01  0.80217927704E+01  0.51100000000E-03 0. -1.
        -11    1    3    3    0    0  0.48666490718E+01  0.60723409451E+01 -0.29685138064E+01  0.83288457917E+01  0.51100000000E-03 0.  1.
        -12    1    3    3    0    0  0.23047077815E+02 -0.22569168402E+00  0.25237526828E+02  0.34178231273E+02  0.00000000000E+00 0.  1.
</event>
<event>
 7    1  0.1381607E-011  0.5052887E+02  0.7816164E-02  0.1300439E+00
        -11   -1    0    0    0    0  0.00000000000E+00  0.00000000000E+00  0.45593999997E+02  0.45594000000E+02  0.51100000000E-03 0.  1.
         11   -1    0    0    0    0 -0.00000000000E+00 -0.00000000000E+00 -0.45593999997E+02  0.45594000000E+02  0.51100000000E-03 0. -1.
    9900012    2    1    2    0    0  0.43962652909E+01  0.31814542671E+01  0.40295364079E+02  0.50528866142E+02  0.30000019126E+02 0.  0.
         12    1    1    2    0    0 -0.43962652909E+01 -0.31814542671E+01 -0.40295364079E+02  0.40659133858E+02  0.00000000000E+00 0. -1.
         11    1    3    3    0    0  0.42801528754E+00  0.44145717689E+01  0.17047303217E+01  0.47516046468E+01  0.51100000000E-03 0. -1.
        -11    1    3    3    0    0 -0.75816681670E+00  0.10895201759E+02  0.12356267887E+02  0.16491136851E+02  0.51100000000E-03 0.  1.
        -12    1    3    3    0    0  0.47264168201E+01 -0.12128319261E+02  0.26234365871E+02  0.29286124644E+02  0.00000000000E+00 0.  1.
</event>
<event>
 7    1  0.1381607E-011  0.5052885E+02  0.7816164E-02  0.1300439E+00
        -11   -1    0    0    0    0  0.00000000000E+00  0.00000000000E+00  0.45593999997E+02  0.45594000000E+02  0.51100000000E-03 0.  1.
         11   -1    0    0    0    0 -0.00000000000E+00 -0.00000000000E+00 -0.45593999997E+02  0.45594000000E+02  0.51100000000E-03 0. -1.
    9900012    2    1    2    0    0  0.40090666415E+02  0.58721028363E+01 -0.33798782318E+01  0.50528847252E+02  0.29999961709E+02 0.  0.
         12    1    1    2    0    0 -0.40090666415E+02 -0.58721028363E+01  0.33798782318E+01  0.40659152748E+02  0.00000000000E+00 0. -1.
         11    1    3    3    0    0  0.98391461739E+00  0.29559823226E+01  0.17201205442E+01  0.35587546156E+01  0.51100000000E-03 0. -1.
        -11    1    3    3    0    0  0.87122799507E+01 -0.10266988601E+02 -0.10775176121E+00  0.13465752395E+02  0.51100000000E-03 0.  1.
        -12    1    3    3    0    0  0.30394471846E+02  0.13183109115E+02 -0.49922470148E+01  0.33504340241E+02  0.00000000000E+00 0.  1.
</event>
<event>
 7    1  0.1381607E-011  0.5052880E+02  0.7816164E-02  0.1300439E+00
        -11   -1    0    0    0    0  0.00000000000E+00  0.00000000000E+00  0.45593999997E+02  0.45594000000E+02  0.51100000000E-03 0.  1.
         11   -1    0    0    0    0 -0.00000000000E+00 -0.00000000000E+00 -0.45593999997E+02  0.45594000000E+02  0.51100000000E-03 0. -1.
    9900012    2    1    2    0    0 -0.27274753986E+02  0.29783036828E+02  0.47147727740E+01  0.50528799688E+02  0.29999817131E+02 0.  0.
         12    1    1    2    0    0  0.27274753986E+02 -0.29783036828E+02 -0.47147727740E+01  0.40659200312E+02  0.00000000000E+00 0. -1.
         11    1    3    3    0    0 -0.12740466182E+02  0.25481556359E+02 -0.17809545017E+01  0.28544719165E+02  0.51100000000E-03 0. -1.
        -11    1    3    3    0    0 -0.10574261552E+02  0.64740467211E+01 -0.18094855078E+01  0.12530064899E+02  0.51100000000E-03 0.  1.
        -12    1    3    3    0    0 -0.39600262526E+01 -0.21725662520E+01  0.83052127835E+01  0.94540156240E+01  0.00000000000E+00 0.  1.
</event>
<event>
 7    1  0.1381607E-011  0.5052886E+02  0.7816164E-02  0.1300439E+00
        -11   -1    0    0    0    0  0.00000000000E+00  0.00000000000E+00  0.45593999997E+02  0.45594000000E+02  0.51100000000E-03 0.  1.
         11   -1    0    0    0    0 -0.00000000000E+00 -0.00000000000E+00 -0.45593999997E+02  0.45594000000E+02  0.51100000000E-03 0. -1.
    9900012    2    1    2    0    0 -0.20842341788E+02 -0.24792405359E+02  0.24578434768E+02  0.50528855514E+02  0.29999986821E+02 0.  0.
         12    1    1    2    0    0  0.20842341788E+02  0.24792405359E+02 -0.24578434768E+02  0.40659144486E+02  0.00000000000E+00 0. -1.
         11    1    3    3    0    0 -0.96337721435E+01 -0.53535022585E+01 -0.16730132391E+01  0.11147579365E+02  0.51100000000E-03 0. -1.
        -11    1    3    3    0    0 -0.67259791653E+01  0.14002449305E+01  0.11714199548E+02  0.13580204450E+02  0.51100000000E-03 0.  1.
         12    1    3    3    0    0 -0.44825904796E+01 -0.20839148031E+02  0.14537248459E+02  0.25801071699E+02  0.00000000000E+00 0. -1.
</event>
<event>
 7    1  0.1381607E-011  0.5052887E+02  0.7816164E-02  0.1300439E+00
        -11   -1    0    0    0    0  0.00000000000E+00  0.00000000000E+00  0.45593999997E+02  0.45594000000E+02  0.51100000000E-03 0.  1.
         11   -1    0    0    0    0 -0.00000000000E+00 -0.00000000000E+00 -0.45593999997E+02  0.45594000000E+02  0.51100000000E-03 0. -1.
    9900012    2    1    2    0    0 -0.31022115223E+01  0.30769338531E+02  0.26396762229E+02  0.50528868601E+02  0.30000026600E+02 0.  0.
         12    1    1    2    0    0  0.31022115223E+01 -0.30769338531E+02 -0.26396762229E+02  0.40659131399E+02  0.00000000000E+00 0. -1.
         11    1    3    3    0    0 -0.12809390619E+02  0.16983755817E+02  0.11474503253E+02  0.24170078089E+02  0.51100000000E-03 0. -1.
        -11    1    3    3    0    0  0.31963399161E-01  0.11704170146E+02  0.94981303634E+01  0.15073257814E+02  0.51100000000E-03 0.  1.
        -12    1    3    3    0    0  0.96752156975E+01  0.20814125681E+01  0.54241286128E+01  0.11285532698E+02  0.00000000000E+00 0.  1.
</event>
<event>
 7    1  0.1381607E-011  0.5052886E+02  0.7816164E-02  0.1300439E+00
        -11   -1    0    0    0    0  0.00000000000E+00  0.00000000000E+00  0.45593999997E+02  0.45594000000E+02  0.51100000000E-03 0.  1.
         11   -1    0    0    0    0 -0.00000000000E+00 -0.00000000000E+00 -0.45593999997E+02  0.45594000000E+02  0.51100000000E-03 0. -1.
    9900012    2    1    2    0    0 -0.23010109803E+02 -0.22754410403E+01  0.33444325182E+02  0.50528859921E+02  0.30000000216E+02 0.  0.
         12    1    1    2    0    0  0.23010109803E+02  0.22754410403E+01 -0.33444325182E+02  0.40659140079E+02  0.00000000000E+00 0. -1.
         11    1    3    3    0    0 -0.30020342595E+00  0.17117008728E+01  0.40244815931E+00  0.17838180280E+01  0.51100000000E-03 0. -1.
        -11    1    3    3    0    0 -0.22275410393E+02 -0.12179991833E+02  0.16495164386E+02  0.30276006302E+02  0.51100000000E-03 0.  1.
        -12    1    3    3    0    0 -0.43449598408E+00  0.81928499203E+01  0.16546712637E+02  0.18469035591E+02  0.00000000000E+00 0.  1.
</event>
<event>
 7    1  0.1381607E-011  0.5052885E+02  0.7816164E-02  0.1300439E+00
        -11   -1    0    0    0    0  0.00000000000E+00  0.00000000000E+00  0.45593999997E+02  0.45594000000E+02  0.51100000000E-03 0.  1.
         11   -1    0    0    0    0 -0.00000000000E+00 -0.00000000000E+00 -0.45593999997E+02  0.45594000000E+02  0.51100000000E-03 0. -1.
    9900012    2    1    2    0    0  0.14197214367E+02 -0.15901056840E+02  0.34623142322E+02  0.50528849878E+02  0.29999969688E+02 0.  0.
         12    1    1    2    0    0 -0.14197214367E+02  0.15901056840E+02 -0.34623142322E+02  0.40659150122E+02  0.00000000000E+00 0. -1.
         11    1    3    3    0    0 -0.13974492658E+01 -0.11398187629E+01  0.18634406880E+02  0.18721462851E+02  0.51100000000E-03 0. -1.
        -11    1    3    3    0    0  0.11607894836E+02 -0.37707270550E+01  0.15990521813E+02  0.20116122717E+02  0.51100000000E-03 0.  1.
        -12    1    3    3    0    0  0.39867687969E+01 -0.10990511022E+02 -0.17863708511E-02  0.11691264310E+02  0.00000000000E+00 0.  1.
</event>
<event>
 7    1  0.1381607E-011  0.5052886E+02  0.7816164E-02  0.1300439E+00
        -11   -1    0    0    0    0  0.00000000000E+00  0.00000000000E+00  0.45593999997E+02  0.45594000000E+02  0.51100000000E-03 0. -1.
         11   -1    0    0    0    0 -0.00000000000E+00 -0.00000000000E+00 -0.45593999997E+02  0.45594000000E+02  0.51100000000E-03 0.  1.
    9900012    2    1    2    0    0  0.19773401187E+02  0.82761926535E+01 -0.34549718617E+02  0.50528858152E+02  0.29999994838E+02 0.  0.
         12    1    1    2    0    0 -0.19773401187E+02 -0.82761926535E+01  0.34549718617E+02  0.40659141848E+02  0.00000000000E+00 0. -1.
         11    1    3    3    0    0  0.14341714181E+01  0.17662097121E+01 -0.14242244345E+02  0.14422824572E+02  0.51100000000E-03 0. -1.
        -11    1    3    3    0    0  0.21265901555E+02 -0.93097607179E+00 -0.17736015709E+02  0.27706886128E+02  0.51100000000E-03 0.  1.
        -12    1    3    3    0    0 -0.29266717863E+01  0.74409590131E+01 -0.25714585629E+01  0.83991474520E+01  0.00000000000E+00 0.  1.
</event>
<event>
 7    1  0.1381607E-011  0.5052892E+02  0.7816164E-02  0.1300439E+00
        -11   -1    0    0    0    0  0.00000000000E+00  0.00000000000E+00  0.45593999997E+02  0.45594000000E+02  0.51100000000E-03 0.  1.
         11   -1    0    0    0    0 -0.00000000000E+00 -0.00000000000E+00 -0.45593999997E+02  0.45594000000E+02  0.51100000000E-03 0. -1.
    9900012    2    1    2    0    0  0.31095319865E+02  0.23380771016E+02  0.11814473206E+02  0.50528915554E+02  0.30000169319E+02 0.  0.
         12    1    1    2    0    0 -0.31095319865E+02 -0.23380771016E+02 -0.11814473206E+02  0.40659084446E+02  0.00000000000E+00 0. -1.
         11    1    3    3    0    0  0.17614042203E+02  0.53902319709E+00 -0.20917121146E+01  0.17745993592E+02  0.51100000000E-03 0. -1.
        -11    1    3    3    0    0  0.62965894873E+01  0.82041842984E+01  0.12777165763E+02  0.16438115596E+02  0.51100000000E-03 0.  1.
        -12    1    3    3    0    0  0.71846881746E+01  0.14637563520E+02  0.11290195582E+01  0.16344806366E+02  0.00000000000E+00 0.  1.
</event>
<event>
 7    1  0.1381607E-011  0.5052886E+02  0.7816164E-02  0.1300439E+00
        -11   -1    0    0    0    0  0.00000000000E+00  0.00000000000E+00  0.45593999997E+02  0.45594000000E+02  0.51100000000E-03 0.  1.
         11   -1    0    0    0    0 -0.00000000000E+00 -0.00000000000E+00 -0.45593999997E+02  0.45594000000E+02  0.51100000000E-03 0. -1.
    9900012    2    1    2    0    0  0.88459671113E+01 -0.77064492571E+00  0.39677708548E+02  0.50528861011E+02  0.30000003529E+02 0.  0.
         12    1    1    2    0    0 -0.88459671113E+01  0.77064492571E+00 -0.39677708548E+02  0.40659138989E+02  0.00000000000E+00 0. -1.
         11    1    3    3    0    0  0.10769683283E+02  0.40669862387E+01  0.68008860633E+01  0.13370808001E+02  0.51100000000E-03 0. -1.
        -11    1    3    3    0    0  0.40183973926E+01  0.32215660368E+01  0.21006194313E+02  0.21628365752E+02  0.51100000000E-03 0.  1.
         12    1    3    3    0    0 -0.59421135648E+01 -0.80591972012E+01  0.11870628172E+02  0.15529687258E+02  0.00000000000E+00 0. -1.
</event>
<event>
 7    1  0.1381607E-011  0.5052886E+02  0.7816164E-02  0.1300439E+00
        -11   -1    0    0    0    0  0.00000000000E+00  0.00000000000E+00  0.45593999997E+02  0.45594000000E+02  0.51100000000E-03 0.  1.
         11   -1    0    0    0    0 -0.00000000000E+00 -0.00000000000E+00 -0.45593999997E+02  0.45594000000E+02  0.51100000000E-03 0. -1.
    9900012    2    1    2    0    0 -0.17359315861E+02 -0.20716192196E+02  0.30375308346E+02  0.50528858059E+02  0.29999994556E+02 0.  0.
         12    1    1    2    0    0  0.17359315861E+02  0.20716192196E+02 -0.30375308346E+02  0.40659141941E+02  0.00000000000E+00 0. -1.
         11    1    3    3    0    0  0.29368717370E+01 -0.13128830729E+01 -0.14773638022E+00  0.32203577226E+01  0.51100000000E-03 0. -1.
        -11    1    3    3    0    0  0.32230233935E+01 -0.10545179943E+01  0.11355666939E+02  0.11851204997E+02  0.51100000000E-03 0.  1.
         12    1    3    3    0    0 -0.23519210992E+02 -0.18348791128E+02  0.19167377788E+02  0.35457295340E+02  0.00000000000E+00 0. -1.
</event>
<event>
 7    1  0.1381607E-011  0.5052887E+02  0.7816164E-02  0.1300439E+00
        -11   -1    0    0    0    0  0.00000000000E+00  0.00000000000E+00  0.45593999997E+02  0.45594000000E+02  0.51100000000E-03 0.  1.
         11   -1    0    0    0    0 -0.00000000000E+00 -0.00000000000E+00 -0.45593999997E+02  0.45594000000E+02  0.51100000000E-03 0. -1.
    9900012    2    1    2    0    0  0.14698582209E+02 -0.33905124389E+02  0.16957559944E+02  0.50528872882E+02  0.30000039611E+02 0.  0.
         12    1    1    2    0    0 -0.14698582209E+02  0.33905124389E+02 -0.16957559944E+02  0.40659127118E+02  0.00000000000E+00 0. -1.
         11    1    3    3    0    0  0.65934708951E+01 -0.24002094326E+02  0.24478518286E+02  0.34910918753E+02  0.51100000000E-03 0.  1.
        -11    1    3    3    0    0  0.27960084778E+01 -0.96687215050E+00 -0.32593807595E+00  0.29763637301E+01  0.51100000000E-03 0. -1.
        -12    1    3    3    0    0  0.53091028357E+01 -0.89361579129E+01 -0.71950202665E+01  0.12641590398E+02  0.00000000000E+00 0.  1.
</event>
<event>
 7    1  0.1381607E-011  0.5052885E+02  0.7816164E-02  0.1300439E+00
        -11   -1    0    0    0    0  0.00000000000E+00  0.00000000000E+00  0.45593999997E+02  0.45594000000E+02  0.51100000000E-03 0.  1.
         11   -1    0    0    0    0 -0.00000000000E+00 -0.00000000000E+00 -0.45593999997E+02  0.45594000000E+02  0.51100000000E-03 0. -1.
    9900012    2    1    2    0    0  0.32298899364E+01  0.90521941806E+01  0.39506856942E+02  0.50528853994E+02  0.29999982201E+02 0.  0.
         12    1    1    2    0    0 -0.32298899364E+01 -0.90521941806E+01 -0.39506856942E+02  0.40659146006E+02  0.00000000000E+00 0. -1.
         11    1    3    3    0    0 -0.51354032203E+01  0.30028793805E+01  0.28979198232E+02  0.29583501842E+02  0.51100000000E-03 0. -1.
        -11    1    3    3    0    0 -0.13053669913E+01 -0.37771526071E+01  0.41277210337E+01  0.57453412424E+01  0.51100000000E-03 0.  1.
         12    1    3    3    0    0  0.96706601480E+01  0.98264674071E+01  0.63999376761E+01  0.15200010910E+02  0.00000000000E+00 0. -1.
</event>
<event>
 7    1  0.1381607E-011  0.5052885E+02  0.7816164E-02  0.1300439E+00
        -11   -1    0    0    0    0  0.00000000000E+00  0.00000000000E+00  0.45593999997E+02  0.45594000000E+02  0.51100000000E-03 0. -1.
         11   -1    0    0    0    0 -0.00000000000E+00 -0.00000000000E+00 -0.45593999997E+02  0.45594000000E+02  0.51100000000E-03 0.  1.
    9900012    2    1    2    0    0  0.23301068026E+02  0.59277558464E+01 -0.32788544100E+02  0.50528847466E+02  0.29999962359E+02 0.  0.
         12    1    1    2    0    0 -0.23301068026E+02 -0.59277558464E+01  0.32788544100E+02  0.40659152534E+02  0.00000000000E+00 0. -1.
         11    1    3    3    0    0 -0.36653147216E+01  0.36593665148E+01 -0.42725080686E+01  0.67141507844E+01  0.51100000000E-03 0. -1.
        -11    1    3    3    0    0  0.15343822736E+02  0.75735916217E+01 -0.63908801088E+01  0.18265692843E+02  0.51100000000E-03 0.  1.
        -12    1    3    3    0    0  0.11622560012E+02 -0.53052022901E+01 -0.22125155923E+02  0.25549003839E+02  0.00000000000E+00 0.  1.
</event>
<event>
 7    1  0.1381607E-011  0.5052886E+02  0.7816164E-02  0.1300439E+00
        -11   -1    0    0    0    0  0.00000000000E+00  0.00000000000E+00  0.45593999997E+02  0.45594000000E+02  0.51100000000E-03 0.  1.
         11   -1    0    0    0    0 -0.00000000000E+00 -0.00000000000E+00 -0.45593999997E+02  0.45594000000E+02  0.51100000000E-03 0. -1.
    9900012    2    1    2    0    0 -0.16642053505E+02  0.31468735802E+02 -0.19645011622E+02  0.50528858845E+02  0.29999996944E+02 0.  0.
         12    1    1    2    0    0  0.16642053505E+02 -0.31468735802E+02  0.19645011622E+02  0.40659141155E+02  0.00000000000E+00 0. -1.
         11    1    3    3    0    0 -0.93070523136E+01  0.59440978774E+01 -0.43491142042E+01  0.11868795936E+02  0.51100000000E-03 0. -1.
        -11    1    3    3    0    0 -0.82250813893E+01  0.11772911721E+01 -0.11214147313E+02  0.13956900751E+02  0.51100000000E-03 0.  1.
        -12    1    3    3    0    0  0.89008019754E+00  0.24347346753E+02 -0.40817501042E+01  0.24703162157E+02  0.00000000000E+00 0.  1.
</event>
<event>
 7    1  0.1381607E-011  0.5052889E+02  0.7816164E-02  0.1300439E+00
        -11   -1    0    0    0    0  0.00000000000E+00  0.00000000000E+00  0.45593999997E+02  0.45594000000E+02  0.51100000000E-03 0. -1.
         11   -1    0    0    0    0 -0.00000000000E+00 -0.00000000000E+00 -0.45593999997E+02  0.45594000000E+02  0.51100000000E-03 0.  1.
    9900012    2    1    2    0    0  0.11892075188E+02 -0.25136351706E+02 -0.29663201418E+02  0.50528890962E+02  0.30000094569E+02 0.  0.
         12    1    1    2    0    0 -0.11892075188E+02  0.25136351706E+02  0.29663201418E+02  0.40659109038E+02  0.00000000000E+00 0. -1.
         11    1    3    3    0    0  0.66335499673E+01 -0.20696834115E+02 -0.25069169956E+02  0.33178701152E+02  0.51100000000E-03 0. -1.
        -11    1    3    3    0    0  0.89148196215E+01 -0.53394917687E+01 -0.73120104421E+01  0.12706284988E+02  0.51100000000E-03 0.  1.
         12    1    3    3    0    0 -0.36562944005E+01  0.89997417819E+00  0.27179789800E+01  0.46439048224E+01  0.00000000000E+00 0. -1.
</event>
<event>
 7    1  0.1381607E-011  0.5052886E+02  0.7816164E-02  0.1300439E+00
        -11   -1    0    0    0    0  0.00000000000E+00  0.00000000000E+00  0.45593999997E+02  0.45594000000E+02  0.51100000000E-03 0.  1.
         11   -1    0    0    0    0 -0.00000000000E+00 -0.00000000000E+00 -0.45593999997E+02  0.45594000000E+02  0.51100000000E-03 0. -1.
    9900012    2    1    2    0    0 -0.31534630440E+02 -0.11215080223E+02  0.23085810780E+02  0.50528860797E+02  0.30000002877E+02 0.  0.
         12    1    1    2    0    0  0.31534630440E+02  0.11215080223E+02 -0.23085810780E+02  0.40659139203E+02  0.00000000000E+00 0. -1.
         11    1    3    3    0    0 -0.91156212228E+00 -0.18367059876E+01 -0.35349444505E+01  0.40865960061E+01  0.51100000000E-03 0. -1.
        -11    1    3    3    0    0 -0.14516715800E+02 -0.15115894082E+02  0.14648341551E+02  0.25569497491E+02  0.51100000000E-03 0.  1.
         12    1    3    3    0    0 -0.16106352517E+02  0.57375198465E+01  0.11972413680E+02  0.20872767299E+02  0.00000000000E+00 0. -1.
</event>
<event>
 7    1  0.1381607E-011  0.5052885E+02  0.7816164E-02  0.1300439E+00
        -11   -1    0    0    0    0  0.00000000000E+00  0.00000000000E+00  0.45593999997E+02  0.45594000000E+02  0.51100000000E-03 0. -1.
         11   -1    0    0    0    0 -0.00000000000E+00 -0.00000000000E+00 -0.45593999997E+02  0.45594000000E+02  0.51100000000E-03 0.  1.
    9900012    2    1    2    0    0 -0.32913814176E+01 -0.64058894459E+01 -0.40016215558E+02  0.50528854426E+02  0.29999983513E+02 0.  0.
         12    1    1    2    0    0  0.32913814176E+01  0.64058894459E+01  0.40016215558E+02  0.40659145574E+02  0.00000000000E+00 0. -1.
         11    1    3    3    0    0 -0.26834384727E+01  0.17285967409E+01  0.19902433878E+01  0.37616429566E+01  0.51100000000E-03 0. -1.
        -11    1    3    3    0    0  0.73133928927E+01 -0.17678107840E+01 -0.68632622358E+01  0.10184067918E+02  0.51100000000E-03 0.  1.
        -12    1    3    3    0    0 -0.79213358377E+01 -0.63666754028E+01 -0.35143196710E+02  0.36583143552E+02  0.00000000000E+00 0.  1.
</event>
<event>
 7    1  0.1381607E-011  0.5052886E+02  0.7816164E-02  0.1300439E+00
        -11   -1    0    0    0    0  0.00000000000E+00  0.00000000000E+00  0.45593999997E+02  0.45594000000E+02  0.51100000000E-03 0.  1.
         11   -1    0    0    0    0 -0.00000000000E+00 -0.00000000000E+00 -0.45593999997E+02  0.45594000000E+02  0.51100000000E-03 0. -1.
    9900012    2    1    2    0    0  0.98421409661E+01  0.35423298101E+02  0.17363399993E+02  0.50528862694E+02  0.30000008644E+02 0.  0.
         12    1    1    2    0    0 -0.98421409661E+01 -0.35423298101E+02 -0.17363399993E+02  0.40659137306E+02  0.00000000000E+00 0. -1.
         11    1    3    3    0    0  0.54773166530E+01  0.20726882762E+02  0.12001419463E+02  0.24569060547E+02  0.51100000000E-03 0. -1.
        -11    1    3    3    0    0  0.11490552902E+02  0.91561594790E+01 -0.12876039426E+01  0.14748762205E+02  0.51100000000E-03 0.  1.
         12    1    3    3    0    0 -0.71257285894E+01  0.55402558596E+01  0.66495844727E+01  0.11211039942E+02  0.00000000000E+00 0. -1.
</event>
<event>
 7    1  0.1381607E-011  0.5052886E+02  0.7816164E-02  0.1300439E+00
        -11   -1    0    0    0    0  0.00000000000E+00  0.00000000000E+00  0.45593999997E+02  0.45594000000E+02  0.51100000000E-03 0.  1.
         11   -1    0    0    0    0 -0.00000000000E+00 -0.00000000000E+00 -0.45593999997E+02  0.45594000000E+02  0.51100000000E-03 0. -1.
    9900012    2    1    2    0    0 -0.22574770865E+02 -0.29384930242E+02  0.16735333069E+02  0.50528858618E+02  0.29999996256E+02 0.  0.
         12    1    1    2    0    0  0.22574770865E+02  0.29384930242E+02 -0.16735333069E+02  0.40659141382E+02  0.00000000000E+00 0. -1.
         11    1    3    3    0    0 -0.42486200309E+01 -0.32737457663E+00  0.14204134521E+01  0.44917169230E+01  0.51100000000E-03 0. -1.
        -11    1    3    3    0    0 -0.19908904141E+02 -0.14573413987E+02 -0.30738057440E+00  0.24674751111E+02  0.51100000000E-03 0.  1.
         12    1    3    3    0    0  0.15827533064E+01 -0.14484141679E+02  0.15622300192E+02  0.21362390584E+02  0.00000000000E+00 0. -1.
</event>
<event>
 7    1  0.1381607E-011  0.5052886E+02  0.7816164E-02  0.1300439E+00
        -11   -1    0    0    0    0  0.00000000000E+00  0.00000000000E+00  0.45593999997E+02  0.45594000000E+02  0.51100000000E-03 0. -1.
         11   -1    0    0    0    0 -0.00000000000E+00 -0.00000000000E+00 -0.45593999997E+02  0.45594000000E+02  0.51100000000E-03 0.  1.
    9900012    2    1    2    0    0  0.11962362884E+02  0.36924803909E+02 -0.12108943149E+02  0.50528858670E+02  0.29999996414E+02 0.  0.
         12    1    1    2    0    0 -0.11962362884E+02 -0.36924803909E+02  0.12108943149E+02  0.40659141330E+02  0.00000000000E+00 0. -1.
         11    1    3    3    0    0  0.46114052665E+01 -0.44370733638E+01 -0.20558535521E+01  0.67215483824E+01  0.51100000000E-03 0. -1.
        -11    1    3    3    0    0  0.16326712033E+01  0.13308232873E+02  0.16220144901E+00  0.13408989039E+02  0.51100000000E-03 0.  1.
        -12    1    3    3    0    0  0.57182864141E+01  0.28053644399E+02 -0.10215291046E+02  0.30398321249E+02  0.00000000000E+00 0.  1.
</event>
<event>
 7    1  0.1381607E-011  0.5052885E+02  0.7816164E-02  0.1300439E+00
        -11   -1    0    0    0    0  0.00000000000E+00  0.00000000000E+00  0.45593999997E+02  0.45594000000E+02  0.51100000000E-03 0.  1.
         11   -1    0    0    0    0 -0.00000000000E+00 -0.00000000000E+00 -0.45593999997E+02  0.45594000000E+02  0.51100000000E-03 0. -1.
    9900012    2    1    2    0    0  0.45220919967E+00 -0.34839904441E+02  0.20955731543E+02  0.50528854422E+02  0.29999983502E+02 0.  0.
         12    1    1    2    0    0 -0.45220919967E+00  0.34839904441E+02 -0.20955731543E+02  0.40659145578E+02  0.00000000000E+00 0. -1.
         11    1    3    3    0    0  0.24860400849E+01 -0.11810587731E+02 -0.12135437704E+00  0.12070008492E+02  0.51100000000E-03 0. -1.
        -11    1    3    3    0    0 -0.92342575606E+01 -0.15744911235E+02  0.42208425540E+01  0.18734707220E+02  0.51100000000E-03 0.  1.
        -12    1    3    3    0    0  0.72004266754E+01 -0.72844054750E+01  0.16856243366E+02  0.19724138710E+02  0.00000000000E+00 0.  1.
</event>
<event>
 7    1  0.1381607E-011  0.5052885E+02  0.7816164E-02  0.1300439E+00
        -11   -1    0    0    0    0  0.00000000000E+00  0.00000000000E+00  0.45593999997E+02  0.45594000000E+02  0.51100000000E-03 0. -1.
         11   -1    0    0    0    0 -0.00000000000E+00 -0.00000000000E+00 -0.45593999997E+02  0.45594000000E+02  0.51100000000E-03 0.  1.
    9900012    2    1    2    0    0  0.28684008112E+02  0.22200407668E+02  0.18372143354E+02  0.50528854984E+02  0.29999985211E+02 0.  0.
         12    1    1    2    0    0 -0.28684008112E+02 -0.22200407668E+02 -0.18372143354E+02  0.40659145016E+02  0.00000000000E+00 0. -1.
         11    1    3    3    0    0  0.10234087561E+02  0.16682434267E+02  0.15327875395E+02  0.24859282485E+02  0.51100000000E-03 0. -1.
        -11    1    3    3    0    0  0.18520785917E+02  0.46212729230E+01  0.79529927705E+01  0.20679114311E+02  0.51100000000E-03 0.  1.
        -12    1    3    3    0    0 -0.70865366607E-01  0.89670047852E+00 -0.49087248121E+01  0.49904581884E+01  0.00000000000E+00 0.  1.
</event>
<event>
 7    1  0.1381607E-011  0.5052885E+02  0.7816164E-02  0.1300439E+00
        -11   -1    0    0    0    0  0.00000000000E+00  0.00000000000E+00  0.45593999997E+02  0.45594000000E+02  0.51100000000E-03 0.  1.
         11   -1    0    0    0    0 -0.00000000000E+00 -0.00000000000E+00 -0.45593999997E+02  0.45594000000E+02  0.51100000000E-03 0. -1.
    9900012    2    1    2    0    0  0.20828476536E+02  0.18714601827E+02  0.29480575761E+02  0.50528854614E+02  0.29999984085E+02 0.  0.
         12    1    1    2    0    0 -0.20828476536E+02 -0.18714601827E+02 -0.29480575761E+02  0.40659145386E+02  0.00000000000E+00 0. -1.
         11    1    3    3    0    0  0.10494370186E+02  0.81289995271E+01 -0.23503688423E+01  0.13480974477E+02  0.51100000000E-03 0. -1.
        -11    1    3    3    0    0  0.55486859761E+01  0.81971234430E+01  0.83032335496E+01  0.12919924011E+02  0.51100000000E-03 0.  1.
        -12    1    3    3    0    0  0.47854203738E+01  0.23884788573E+01  0.23527711053E+02  0.24127956126E+02  0.00000000000E+00 0.  1.
</event>
<event>
 7    1  0.1381607E-011  0.5052886E+02  0.7816164E-02  0.1300439E+00
        -11   -1    0    0    0    0  0.00000000000E+00  0.00000000000E+00  0.45593999997E+02  0.45594000000E+02  0.51100000000E-03 0.  1.
         11   -1    0    0    0    0 -0.00000000000E+00 -0.00000000000E+00 -0.45593999997E+02  0.45594000000E+02  0.51100000000E-03 0. -1.
    9900012    2    1    2    0    0 -0.11590703106E+02 -0.38134393186E+02 -0.80367470513E+01  0.50528860249E+02  0.30000001212E+02 0.  0.
         12    1    1    2    0    0  0.11590703106E+02  0.38134393186E+02  0.80367470513E+01  0.40659139751E+02  0.00000000000E+00 0. -1.
         11    1    3    3    0    0 -0.62635059984E+01 -0.37994413006E+02  0.44725235597E+00  0.38509829421E+02  0.51100000000E-03 0.  1.
        -11    1    3    3    0    0 -0.28667234964E+01  0.59441802713E+00  0.22794478848E+00  0.29365618473E+01  0.51100000000E-03 0. -1.
        -12    1    3    3    0    0 -0.24604736113E+01 -0.73439820678E+00 -0.87119441958E+01  0.90824689809E+01  0.00000000000E+00 0.  1.
</event>
<event>
 7    1  0.1381607E-011  0.5052886E+02  0.7816164E-02  0.1300439E+00
        -11   -1    0    0    0    0  0.00000000000E+00  0.00000000000E+00  0.45593999997E+02  0.45594000000E+02  0.51100000000E-03 0.  1.
         11   -1    0    0    0    0 -0.00000000000E+00 -0.00000000000E+00 -0.45593999997E+02  0.45594000000E+02  0.51100000000E-03 0. -1.
    9900012    2    1    2    0    0 -0.18548493334E+02  0.36178166993E+02 -0.50907422634E+00  0.50528861685E+02  0.30000005578E+02 0.  0.
         12    1    1    2    0    0  0.18548493334E+02 -0.36178166993E+02  0.50907422634E+00  0.40659138315E+02  0.00000000000E+00 0. -1.
         11    1    3    3    0    0 -0.68391872681E+01  0.32576704056E+01 -0.85613270704E+01  0.11431676186E+02  0.51100000000E-03 0. -1.
        -11    1    3    3    0    0 -0.92060556413E+01  0.17874491374E+02 -0.29076020046E+01  0.20315094192E+02  0.51100000000E-03 0.  1.
        -12    1    3    3    0    0 -0.25032504251E+01  0.15046005213E+02  0.10959854849E+02  0.18782091307E+02  0.00000000000E+00 0.  1.
</event>
<event>
 7    1  0.1381607E-011  0.5052886E+02  0.7816164E-02  0.1300439E+00
        -11   -1    0    0    0    0  0.00000000000E+00  0.00000000000E+00  0.45593999997E+02  0.45594000000E+02  0.51100000000E-03 0. -1.
         11   -1    0    0    0    0 -0.00000000000E+00 -0.00000000000E+00 -0.45593999997E+02  0.45594000000E+02  0.51100000000E-03 0.  1.
    9900012    2    1    2    0    0  0.10365940617E+02 -0.37426256244E+02 -0.12041100331E+02  0.50528862301E+02  0.30000007449E+02 0.  0.
         12    1    1    2    0    0 -0.10365940617E+02  0.37426256244E+02  0.12041100331E+02  0.40659137699E+02  0.00000000000E+00 0. -1.
         11    1    3    3    0    0  0.41657357223E+01 -0.11698435164E+02  0.27063573595E+01  0.12709488967E+02  0.51100000000E-03 0. -1.
        -11    1    3    3    0    0 -0.56214989550E+01  0.86539217329E+00 -0.17903272791E+01  0.59628370883E+01  0.51100000000E-03 0.  1.
        -12    1    3    3    0    0  0.11821703849E+02 -0.26593213253E+02 -0.12957130412E+02  0.31856536245E+02  0.00000000000E+00 0.  1.
</event>
<event>
 7    1  0.1381607E-011  0.5052887E+02  0.7816164E-02  0.1300439E+00
        -11   -1    0    0    0    0  0.00000000000E+00  0.00000000000E+00  0.45593999997E+02  0.45594000000E+02  0.51100000000E-03 0. -1.
         11   -1    0    0    0    0 -0.00000000000E+00 -0.00000000000E+00 -0.45593999997E+02  0.45594000000E+02  0.51100000000E-03 0.  1.
    9900012    2    1    2    0    0 -0.19901650040E+02 -0.29650120189E+02 -0.19441176999E+02  0.50528872309E+02  0.30000037870E+02 0.  0.
         12    1    1    2    0    0  0.19901650040E+02  0.29650120189E+02  0.19441176999E+02  0.40659127691E+02  0.00000000000E+00 0. -1.
         11    1    3    3    0    0 -0.17666568217E+02 -0.77802855764E+01 -0.14922403550E+02  0.24399151710E+02  0.51100000000E-03 0. -1.
        -11    1    3    3    0    0 -0.30168604394E+01 -0.18915873545E+01 -0.49904852412E+01  0.61306192863E+01  0.51100000000E-03 0.  1.
         12    1    3    3    0    0  0.78177861656E+00 -0.19978247258E+02  0.47171179134E+00  0.19999101312E+02  0.00000000000E+00 0. -1.
</event>
<event>
 7    1  0.1381607E-011  0.5052884E+02  0.7816164E-02  0.1300439E+00
        -11   -1    0    0    0    0  0.00000000000E+00  0.00000000000E+00  0.45593999997E+02  0.45594000000E+02  0.51100000000E-03 0.  1.
         11   -1    0    0    0    0 -0.00000000000E+00 -0.00000000000E+00 -0.45593999997E+02  0.45594000000E+02  0.51100000000E-03 0. -1.
    9900012    2    1    2    0    0  0.38746949160E+02 -0.12097259022E+02  0.23446920951E+01  0.50528839579E+02  0.29999938385E+02 0.  0.
         12    1    1    2    0    0 -0.38746949160E+02  0.12097259022E+02 -0.23446920951E+01  0.40659160421E+02  0.00000000000E+00 0. -1.
         11    1    3    3    0    0  0.64123380231E+01  0.58166908152E+01 -0.39042782953E+01  0.94971237872E+01  0.51100000000E-03 0. -1.
        -11    1    3    3    0    0  0.89053896620E+01 -0.13093723165E+02 -0.14548198892E+01  0.15901825447E+02  0.51100000000E-03 0.  1.
        -12    1    3    3    0    0  0.23429221475E+02 -0.48202266719E+01  0.77037902796E+01  0.25129890346E+02  0.00000000000E+00 0.  1.
</event>
<event>
 7    1  0.1381607E-011  0.5052884E+02  0.7816164E-02  0.1300439E+00
        -11   -1    0    0    0    0  0.00000000000E+00  0.00000000000E+00  0.45593999997E+02  0.45594000000E+02  0.51100000000E-03 0.  1.
         11   -1    0    0    0    0 -0.00000000000E+00 -0.00000000000E+00 -0.45593999997E+02  0.45594000000E+02  0.51100000000E-03 0. -1.
    9900012    2    1    2    0    0  0.28544538871E+01 -0.76079670933E+01  0.39838899090E+02  0.50528844192E+02  0.29999952407E+02 0.  0.
         12    1    1    2    0    0 -0.28544538871E+01  0.76079670933E+01 -0.39838899090E+02  0.40659155808E+02  0.00000000000E+00 0. -1.
         11    1    3    3    0    0 -0.10643645506E+02 -0.37958376780E+01  0.14360410693E+02  0.18273395110E+02  0.51100000000E-03 0. -1.
        -11    1    3    3    0    0  0.25915331638E+01  0.18314270398E+01  0.17093698113E+02  0.17385760972E+02  0.51100000000E-03 0.  1.
        -12    1    3    3    0    0  0.10906566229E+02 -0.56435564552E+01  0.83847902845E+01  0.14869688110E+02  0.00000000000E+00 0.  1.
</event>
<event>
 7    1  0.1381607E-011  0.5052886E+02  0.7816164E-02  0.1300439E+00
        -11   -1    0    0    0    0  0.00000000000E+00  0.00000000000E+00  0.45593999997E+02  0.45594000000E+02  0.51100000000E-03 0. -1.
         11   -1    0    0    0    0 -0.00000000000E+00 -0.00000000000E+00 -0.45593999997E+02  0.45594000000E+02  0.51100000000E-03 0.  1.
    9900012    2    1    2    0    0 -0.22237400704E+02  0.14417068900E+02 -0.30835242812E+02  0.50528855087E+02  0.29999985524E+02 0.  0.
         12    1    1    2    0    0  0.22237400704E+02 -0.14417068900E+02  0.30835242812E+02  0.40659144913E+02  0.00000000000E+00 0. -1.
         11    1    3    3    0    0  0.25198975430E+01  0.76795296645E+00 -0.30502211155E+01  0.40303206449E+01  0.51100000000E-03 0.  1.
        -11    1    3    3    0    0 -0.80758415700E+01  0.22512793345E+01  0.36395329371E+01  0.91396759224E+01  0.51100000000E-03 0. -1.
        -12    1    3    3    0    0 -0.16681456677E+02  0.11397836599E+02 -0.31424554634E+02  0.37358858520E+02  0.00000000000E+00 0.  1.
</event>
<event>
 7    1  0.1381607E-011  0.5052886E+02  0.7816164E-02  0.1300439E+00
        -11   -1    0    0    0    0  0.00000000000E+00  0.00000000000E+00  0.45593999997E+02  0.45594000000E+02  0.51100000000E-03 0.  1.
         11   -1    0    0    0    0 -0.00000000000E+00 -0.00000000000E+00 -0.45593999997E+02  0.45594000000E+02  0.51100000000E-03 0. -1.
    9900012    2    1    2    0    0  0.26886403559E+00  0.17886008454E+02  0.36512791042E+02  0.50528862086E+02  0.30000006796E+02 0.  0.
         12    1    1    2    0    0 -0.26886403559E+00 -0.17886008454E+02 -0.36512791042E+02  0.40659137914E+02  0.00000000000E+00 0. -1.
         11    1    3    3    0    0  0.59907319370E+01  0.27270680995E+01  0.11352102166E+02  0.13122347100E+02  0.51100000000E-03 0.  1.
        -11    1    3    3    0    0 -0.11964704129E+02  0.11303022288E+02  0.71251131298E+01  0.17935431277E+02  0.51100000000E-03 0. -1.
         12    1    3    3    0    0  0.62428362276E+01  0.38559180663E+01  0.18035575746E+02  0.19471083708E+02  0.00000000000E+00 0. -1.
</event>
<event>
 7    1  0.1381607E-011  0.5052887E+02  0.7816164E-02  0.1300439E+00
        -11   -1    0    0    0    0  0.00000000000E+00  0.00000000000E+00  0.45593999997E+02  0.45594000000E+02  0.51100000000E-03 0. -1.
         11   -1    0    0    0    0 -0.00000000000E+00 -0.00000000000E+00 -0.45593999997E+02  0.45594000000E+02  0.51100000000E-03 0.  1.
    9900012    2    1    2    0    0 -0.25800410587E+02 -0.77587368726E+01 -0.30451695315E+02  0.50528869022E+02  0.30000027879E+02 0.  0.
         12    1    1    2    0    0  0.25800410587E+02  0.77587368726E+01  0.30451695315E+02  0.40659130978E+02  0.00000000000E+00 0. -1.
         11    1    3    3    0    0 -0.13452539146E+01  0.54566171870E+01  0.23536137174E+01  0.60929366493E+01  0.51100000000E-03 0. -1.
        -11    1    3    3    0    0 -0.80516499612E+01 -0.74644600706E+01 -0.60669670847E+01  0.12544134929E+02  0.51100000000E-03 0.  1.
        -12    1    3    3    0    0 -0.16403506712E+02 -0.57508939891E+01 -0.26738341947E+02  0.31891797444E+02  0.00000000000E+00 0.  1.
</event>
<event>
 7    1  0.1381607E-011  0.5052886E+02  0.7816164E-02  0.1300439E+00
        -11   -1    0    0    0    0  0.00000000000E+00  0.00000000000E+00  0.45593999997E+02  0.45594000000E+02  0.51100000000E-03 0.  1.
         11   -1    0    0    0    0 -0.00000000000E+00 -0.00000000000E+00 -0.45593999997E+02  0.45594000000E+02  0.51100000000E-03 0. -1.
    9900012    2    1    2    0    0  0.75990304002E+01  0.34008395989E+02  0.20948729770E+02  0.50528861547E+02  0.30000005158E+02 0.  0.
         12    1    1    2    0    0 -0.75990304002E+01 -0.34008395989E+02 -0.20948729770E+02  0.40659138453E+02  0.00000000000E+00 0. -1.
         11    1    3    3    0    0  0.17552130406E+01  0.50074611762E+01  0.10969637505E+02  0.12185581131E+02  0.51100000000E-03 0. -1.
        -11    1    3    3    0    0 -0.79235413139E+01  0.51748034906E+01  0.33423059417E+01  0.10036538616E+02  0.51100000000E-03 0.  1.
        -12    1    3    3    0    0  0.13767358673E+02  0.23826131323E+02  0.66367863232E+01  0.28306741800E+02  0.00000000000E+00 0.  1.
</event>
<event>
 7    1  0.1381607E-011  0.5052886E+02  0.7816164E-02  0.1300439E+00
        -11   -1    0    0    0    0  0.00000000000E+00  0.00000000000E+00  0.45593999997E+02  0.45594000000E+02  0.51100000000E-03 0.  1.
         11   -1    0    0    0    0 -0.00000000000E+00 -0.00000000000E+00 -0.45593999997E+02  0.45594000000E+02  0.51100000000E-03 0. -1.
    9900012    2    1    2    0    0 -0.98604362389E+01 -0.11217758355E+02  0.37816657476E+02  0.50528857264E+02  0.29999992140E+02 0.  0.
         12    1    1    2    0    0  0.98604362389E+01  0.11217758355E+02 -0.37816657476E+02  0.40659142736E+02  0.00000000000E+00 0. -1.
         11    1    3    3    0    0  0.35573504103E+01  0.93787907164E+00  0.68679839065E+00  0.37424659497E+01  0.51100000000E-03 0. -1.
        -11    1    3    3    0    0 -0.72439916776E+01  0.45963228406E+01  0.47387570015E+01  0.98008885955E+01  0.51100000000E-03 0.  1.
        -12    1    3    3    0    0 -0.61737949715E+01 -0.16751960267E+02  0.32391102084E+02  0.36985502719E+02  0.00000000000E+00 0.  1.
</event>
<event>
 7    1  0.1381607E-011  0.5052887E+02  0.7816164E-02  0.1300439E+00
        -11   -1    0    0    0    0  0.00000000000E+00  0.00000000000E+00  0.45593999997E+02  0.45594000000E+02  0.51100000000E-03 0.  1.
         11   -1    0    0    0    0 -0.00000000000E+00 -0.00000000000E+00 -0.45593999997E+02  0.45594000000E+02  0.51100000000E-03 0. -1.
    9900012    2    1    2    0    0  0.20572107676E+02  0.10397585891E+02  0.33493926873E+02  0.50528873792E+02  0.30000042379E+02 0.  0.
         12    1    1    2    0    0 -0.20572107676E+02 -0.10397585891E+02 -0.33493926873E+02  0.40659126208E+02  0.00000000000E+00 0. -1.
         11    1    3    3    0    0 -0.19012602914E+01 -0.23346323667E+01  0.27350444603E+01  0.40676488840E+01  0.51100000000E-03 0. -1.
        -11    1    3    3    0    0  0.14530433524E+02  0.47705335181E+01  0.31678960162E+02  0.35177379175E+02  0.51100000000E-03 0.  1.
         12    1    3    3    0    0  0.79429344431E+01  0.79616847398E+01 -0.92007774910E+00  0.11283845733E+02  0.00000000000E+00 0. -1.
</event>
<event>
 7    1  0.1381607E-011  0.5052885E+02  0.7816164E-02  0.1300439E+00
        -11   -1    0    0    0    0  0.00000000000E+00  0.00000000000E+00  0.45593999997E+02  0.45594000000E+02  0.51100000000E-03 0.  1.
         11   -1    0    0    0    0 -0.00000000000E+00 -0.00000000000E+00 -0.45593999997E+02  0.45594000000E+02  0.51100000000E-03 0. -1.
    9900012    2    1    2    0    0 -0.19940375616E+02 -0.97281289675E+01  0.34072145571E+02  0.50528853714E+02  0.29999981348E+02 0.  0.
         12    1    1    2    0    0  0.19940375616E+02  0.97281289675E+01 -0.34072145571E+02  0.40659146286E+02  0.00000000000E+00 0. -1.
         11    1    3    3    0    0 -0.66961370750E+01  0.14088457676E+01  0.43614494584E+01  0.81145141422E+01  0.51100000000E-03 0. -1.
        -11    1    3    3    0    0  0.48510863732E+01  0.13094270697E+01 -0.51603989215E+00  0.50511321189E+01  0.51100000000E-03 0.  1.
        -12    1    3    3    0    0 -0.18095324914E+02 -0.12446401805E+02  0.30226736005E+02  0.37363207453E+02  0.00000000000E+00 0.  1.
</event>
<event>
 7    1  0.1381607E-011  0.5052886E+02  0.7816164E-02  0.1300439E+00
        -11   -1    0    0    0    0  0.00000000000E+00  0.00000000000E+00  0.45593999997E+02  0.45594000000E+02  0.51100000000E-03 0. -1.
         11   -1    0    0    0    0 -0.00000000000E+00 -0.00000000000E+00 -0.45593999997E+02  0.45594000000E+02  0.51100000000E-03 0.  1.
    9900012    2    1    2    0    0  0.53086126855E+01 -0.37117886595E+02  0.15724091612E+02  0.50528856736E+02  0.29999990534E+02 0.  0.
         12    1    1    2    0    0 -0.53086126855E+01  0.37117886595E+02 -0.15724091612E+02  0.40659143264E+02  0.00000000000E+00 0. -1.
         11    1    3    3    0    0 -0.13067045646E+01 -0.21802630044E+01 -0.36681135523E+01  0.44627436495E+01  0.51100000000E-03 0.  1.
        -11    1    3    3    0    0 -0.21314965927E+01 -0.28920932108E+01  0.11327144557E+02  0.11883252288E+02  0.51100000000E-03 0. -1.
        -12    1    3    3    0    0  0.87468138427E+01 -0.32045530380E+02  0.80650606068E+01  0.34182860798E+02  0.00000000000E+00 0.  1.
</event>
<event>
 7    1  0.1381607E-011  0.5052884E+02  0.7816164E-02  0.1300439E+00
        -11   -1    0    0    0    0  0.00000000000E+00  0.00000000000E+00  0.45593999997E+02  0.45594000000E+02  0.51100000000E-03 0.  1.
         11   -1    0    0    0    0 -0.00000000000E+00 -0.00000000000E+00 -0.45593999997E+02  0.45594000000E+02  0.51100000000E-03 0. -1.
    9900012    2    1    2    0    0 -0.40180261257E+02  0.25436173103E+01  0.56784017381E+01  0.50528835843E+02  0.29999927027E+02 0.  0.
         12    1    1    2    0    0  0.40180261257E+02 -0.25436173103E+01 -0.56784017381E+01  0.40659164157E+02  0.00000000000E+00 0. -1.
         11    1    3    3    0    0 -0.10359323146E+02 -0.64769220448E+01  0.43460694046E+01  0.12967436707E+02  0.51100000000E-03 0. -1.
        -11    1    3    3    0    0 -0.17549650525E+02 -0.68459072722E+00  0.94409990012E+01  0.19939693088E+02  0.51100000000E-03 0.  1.
         12    1    3    3    0    0 -0.12271287585E+02  0.97051300824E+01 -0.81086666677E+01  0.17621706048E+02  0.00000000000E+00 0. -1.
</event>
<event>
 7    1  0.1381607E-011  0.5052886E+02  0.7816164E-02  0.1300439E+00
        -11   -1    0    0    0    0  0.00000000000E+00  0.00000000000E+00  0.45593999997E+02  0.45594000000E+02  0.51100000000E-03 0. -1.
         11   -1    0    0    0    0 -0.00000000000E+00 -0.00000000000E+00 -0.45593999997E+02  0.45594000000E+02  0.51100000000E-03 0.  1.
    9900012    2    1    2    0    0  0.27812007573E+02 -0.25507560053E+02  0.15133483994E+02  0.50528859295E+02  0.29999998312E+02 0.  0.
         12    1    1    2    0    0 -0.27812007573E+02  0.25507560053E+02 -0.15133483994E+02  0.40659140705E+02  0.00000000000E+00 0. -1.
         11    1    3    3    0    0  0.12877610481E+02 -0.30793520283E+01  0.10548302383E+02  0.16928731318E+02  0.51100000000E-03 0. -1.
        -11    1    3    3    0    0  0.15496344377E+02 -0.90378850681E+01 -0.30181404406E+01  0.18191460291E+02  0.51100000000E-03 0.  1.
        -12    1    3    3    0    0 -0.56194728373E+00 -0.13390322957E+02  0.76033220513E+01  0.15408667686E+02  0.00000000000E+00 0.  1.
</event>
<event>
 7    1  0.1381607E-011  0.5052886E+02  0.7816164E-02  0.1300439E+00
        -11   -1    0    0    0    0  0.00000000000E+00  0.00000000000E+00  0.45593999997E+02  0.45594000000E+02  0.51100000000E-03 0.  1.
         11   -1    0    0    0    0 -0.00000000000E+00 -0.00000000000E+00 -0.45593999997E+02  0.45594000000E+02  0.51100000000E-03 0. -1.
    9900012    2    1    2    0    0 -0.25440528810E+02 -0.29161687514E+02  0.12471620187E+02  0.50528857917E+02  0.29999994125E+02 0.  0.
         12    1    1    2    0    0  0.25440528810E+02  0.29161687514E+02 -0.12471620187E+02  0.40659142083E+02  0.00000000000E+00 0. -1.
         11    1    3    3    0    0 -0.12041956810E+02 -0.80102397388E+00  0.82867445832E+01  0.14639689179E+02  0.51100000000E-03 0. -1.
        -11    1    3    3    0    0 -0.77041011358E+01 -0.44863206063E+01 -0.43286829781E+01  0.99104865410E+01  0.51100000000E-03 0.  1.
        -12    1    3    3    0    0 -0.56944708649E+01 -0.23874342934E+02  0.85135585820E+01  0.25978682197E+02  0.00000000000E+00 0.  1.
</event>
<event>
 7    1  0.1381607E-011  0.5052887E+02  0.7816164E-02  0.1300439E+00
        -11   -1    0    0    0    0  0.00000000000E+00  0.00000000000E+00  0.45593999997E+02  0.45594000000E+02  0.51100000000E-03 0.  1.
         11   -1    0    0    0    0 -0.00000000000E+00 -0.00000000000E+00 -0.45593999997E+02  0.45594000000E+02  0.51100000000E-03 0. -1.
    9900012    2    1    2    0    0  0.38941952799E+01 -0.26198977561E+02  0.30848233823E+02  0.50528871725E+02  0.30000036094E+02 0.  0.
         12    1    1    2    0    0 -0.38941952799E+01  0.26198977561E+02 -0.30848233823E+02  0.40659128275E+02  0.00000000000E+00 0. -1.
         11    1    3    3    0    0  0.50716965266E+00  0.29577783712E+01  0.87260309443E+01  0.92276373060E+01  0.51100000000E-03 0. -1.
        -11    1    3    3    0    0 -0.37409690449E+01 -0.90008591263E+01  0.16551214329E+02  0.19208149584E+02  0.51100000000E-03 0.  1.
         12    1    3    3    0    0  0.71279946721E+01 -0.20155896806E+02  0.55709885494E+01  0.22093084835E+02  0.00000000000E+00 0. -1.
</event>
<event>
 7    1  0.1381607E-011  0.5052887E+02  0.7816164E-02  0.1300439E+00
        -11   -1    0    0    0    0  0.00000000000E+00  0.00000000000E+00  0.45593999997E+02  0.45594000000E+02  0.51100000000E-03 0.  1.
         11   -1    0    0    0    0 -0.00000000000E+00 -0.00000000000E+00 -0.45593999997E+02  0.45594000000E+02  0.51100000000E-03 0. -1.
    9900012    2    1    2    0    0 -0.14087338228E+02 -0.17132811119E+02  0.34076066037E+02  0.50528873205E+02  0.30000040594E+02 0.  0.
         12    1    1    2    0    0  0.14087338228E+02  0.17132811119E+02 -0.34076066037E+02  0.40659126795E+02  0.00000000000E+00 0. -1.
         11    1    3    3    0    0 -0.88480388445E+01 -0.90299242951E+01 -0.25347266951E+00  0.12644823954E+02  0.51100000000E-03 0. -1.
        -11    1    3    3    0    0  0.30153149860E+01  0.14881478878E+01  0.68392381810E+01  0.76211474043E+01  0.51100000000E-03 0.  1.
         12    1    3    3    0    0 -0.82546143691E+01 -0.95910347115E+01  0.27490300526E+02  0.30262901847E+02  0.00000000000E+00 0. -1.
</event>
<event>
 7    1  0.1381607E-011  0.5052886E+02  0.7816164E-02  0.1300439E+00
        -11   -1    0    0    0    0  0.00000000000E+00  0.00000000000E+00  0.45593999997E+02  0.45594000000E+02  0.51100000000E-03 0.  1.
         11   -1    0    0    0    0 -0.00000000000E+00 -0.00000000000E+00 -0.45593999997E+02  0.45594000000E+02  0.51100000000E-03 0. -1.
    9900012    2    1    2    0    0 -0.54913393290E+01 -0.25798659628E+02  0.30942532338E+02  0.50528856456E+02  0.29999989682E+02 0.  0.
         12    1    1    2    0    0  0.54913393290E+01  0.25798659628E+02 -0.30942532338E+02  0.40659143544E+02  0.00000000000E+00 0. -1.
         11    1    3    3    0    0 -0.38693208634E+01 -0.59586363681E+01 -0.15180765169E+01  0.72650910444E+01  0.51100000000E-03 0. -1.
        -11    1    3    3    0    0 -0.37661326373E+01 -0.18954495725E+02  0.12163121316E+02  0.22834145126E+02  0.51100000000E-03 0.  1.
        -12    1    3    3    0    0  0.21441141716E+01 -0.88552753561E+00  0.20297487539E+02  0.20429620285E+02  0.00000000000E+00 0.  1.
</event>
<event>
 7    1  0.1381607E-011  0.5052887E+02  0.7816164E-02  0.1300439E+00
        -11   -1    0    0    0    0  0.00000000000E+00  0.00000000000E+00  0.45593999997E+02  0.45594000000E+02  0.51100000000E-03 0.  1.
         11   -1    0    0    0    0 -0.00000000000E+00 -0.00000000000E+00 -0.45593999997E+02  0.45594000000E+02  0.51100000000E-03 0. -1.
    9900012    2    1    2    0    0 -0.39381216381E+02  0.24174077071E+01 -0.98204332890E+01  0.50528868508E+02  0.30000026318E+02 0.  0.
         12    1    1    2    0    0  0.39381216381E+02 -0.24174077071E+01  0.98204332890E+01  0.40659131492E+02  0.00000000000E+00 0. -1.
         11    1    3    3    0    0 -0.11620672301E+01  0.42025944854E+01  0.23164761092E+01  0.49374348078E+01  0.51100000000E-03 0. -1.
        -11    1    3    3    0    0 -0.24157619259E+02 -0.84051967150E+01  0.46523584308E+00  0.25582305305E+02  0.51100000000E-03 0.  1.
         12    1    3    3    0    0 -0.14061529892E+02  0.66200099367E+01 -0.12602145241E+02  0.20009128396E+02  0.00000000000E+00 0. -1.
</event>
<event>
 7    1  0.1381607E-011  0.5052884E+02  0.7816164E-02  0.1300439E+00
        -11   -1    0    0    0    0  0.00000000000E+00  0.00000000000E+00  0.45593999997E+02  0.45594000000E+02  0.51100000000E-03 0.  1.
         11   -1    0    0    0    0 -0.00000000000E+00 -0.00000000000E+00 -0.45593999997E+02  0.45594000000E+02  0.51100000000E-03 0. -1.
    9900012    2    1    2    0    0  0.13389000552E+01 -0.65486538318E+01  0.40105977020E+02  0.50528844658E+02  0.29999953823E+02 0.  0.
         12    1    1    2    0    0 -0.13389000552E+01  0.65486538318E+01 -0.40105977020E+02  0.40659155342E+02  0.00000000000E+00 0. -1.
         11    1    3    3    0    0  0.10188845461E+02 -0.49221203136E+00  0.69459539063E+01  0.12341034010E+02  0.51100000000E-03 0. -1.
        -11    1    3    3    0    0  0.92752704769E+00  0.15062390977E+01 -0.87799961519E+00  0.19748281518E+01  0.51100000000E-03 0.  1.
        -12    1    3    3    0    0 -0.97774724536E+01 -0.75626808981E+01  0.34038022729E+02  0.36212982496E+02  0.00000000000E+00 0.  1.
</event>
<event>
 7    1  0.1381607E-011  0.5052886E+02  0.7816164E-02  0.1300439E+00
        -11   -1    0    0    0    0  0.00000000000E+00  0.00000000000E+00  0.45593999997E+02  0.45594000000E+02  0.51100000000E-03 0.  1.
         11   -1    0    0    0    0 -0.00000000000E+00 -0.00000000000E+00 -0.45593999997E+02  0.45594000000E+02  0.51100000000E-03 0. -1.
    9900012    2    1    2    0    0  0.28699179662E+02 -0.72080728845E+01  0.27884877088E+02  0.50528860829E+02  0.30000002975E+02 0.  0.
         12    1    1    2    0    0 -0.28699179662E+02  0.72080728845E+01 -0.27884877088E+02  0.40659139171E+02  0.00000000000E+00 0. -1.
         11    1    3    3    0    0 -0.13419081138E+01  0.46050921761E+01  0.11156698858E+01  0.49246635308E+01  0.51100000000E-03 0. -1.
        -11    1    3    3    0    0  0.12115626727E+02 -0.88707744554E+00  0.20264240958E+02  0.23626569350E+02  0.51100000000E-03 0.  1.
        -12    1    3    3    0    0  0.17925461048E+02 -0.10926087615E+02  0.65049662433E+01  0.21977627947E+02  0.00000000000E+00 0.  1.
</event>
<event>
 7    1  0.1381607E-011  0.5052885E+02  0.7816164E-02  0.1300439E+00
        -11   -1    0    0    0    0  0.00000000000E+00  0.00000000000E+00  0.45593999997E+02  0.45594000000E+02  0.51100000000E-03 0. -1.
         11   -1    0    0    0    0 -0.00000000000E+00 -0.00000000000E+00 -0.45593999997E+02  0.45594000000E+02  0.51100000000E-03 0.  1.
    9900012    2    1    2    0    0 -0.28079712146E+02 -0.26077464282E+02 -0.13589054639E+02  0.50528846251E+02  0.29999958666E+02 0.  0.
         12    1    1    2    0    0  0.28079712146E+02  0.26077464282E+02  0.13589054639E+02  0.40659153749E+02  0.00000000000E+00 0. -1.
         11    1    3    3    0    0  0.27815915769E+01  0.45972208860E+00  0.16263947130E+01  0.32548050822E+01  0.51100000000E-03 0. -1.
        -11    1    3    3    0    0 -0.43796738227E+01 -0.86019920189E+01 -0.11593702700E+02  0.15086078087E+02  0.51100000000E-03 0.  1.
        -12    1    3    3    0    0 -0.26481629900E+02 -0.17935194351E+02 -0.36217466523E+01  0.32187963083E+02  0.00000000000E+00 0.  1.
</event>
<event>
 7    1  0.1381607E-011  0.5052886E+02  0.7816164E-02  0.1300439E+00
        -11   -1    0    0    0    0  0.00000000000E+00  0.00000000000E+00  0.45593999997E+02  0.45594000000E+02  0.51100000000E-03 0.  1.
         11   -1    0    0    0    0 -0.00000000000E+00 -0.00000000000E+00 -0.45593999997E+02  0.45594000000E+02  0.51100000000E-03 0. -1.
    9900012    2    1    2    0    0 -0.15731339694E+02  0.71275904138E+01  0.36808801006E+02  0.50528862955E+02  0.30000009439E+02 0.  0.
         12    1    1    2    0    0  0.15731339694E+02 -0.71275904138E+01 -0.36808801006E+02  0.40659137045E+02  0.00000000000E+00 0. -1.
         11    1    3    3    0    0 -0.13181033573E+02  0.16566128723E+01  0.48178035518E+01  0.14131356750E+02  0.51100000000E-03 0. -1.
        -11    1    3    3    0    0 -0.83992196312E+01 -0.90284883059E+00  0.18956091510E+02  0.20753202934E+02  0.51100000000E-03 0.  1.
         12    1    3    3    0    0  0.58489135098E+01  0.63738263722E+01  0.13034905944E+02  0.15644303271E+02  0.00000000000E+00 0. -1.
</event>
<event>
 7    1  0.1381607E-011  0.5052885E+02  0.7816164E-02  0.1300439E+00
        -11   -1    0    0    0    0  0.00000000000E+00  0.00000000000E+00  0.45593999997E+02  0.45594000000E+02  0.51100000000E-03 0. -1.
         11   -1    0    0    0    0 -0.00000000000E+00 -0.00000000000E+00 -0.45593999997E+02  0.45594000000E+02  0.51100000000E-03 0.  1.
    9900012    2    1    2    0    0 -0.26987877361E+02  0.23410736840E+02 -0.19410266272E+02  0.50528848993E+02  0.29999966999E+02 0.  0.
         12    1    1    2    0    0  0.26987877361E+02 -0.23410736840E+02  0.19410266272E+02  0.40659151007E+02  0.00000000000E+00 0. -1.
         11    1    3    3    0    0 -0.12388833295E+02  0.72021499674E+00  0.45872463062E+00  0.12418225663E+02  0.51100000000E-03 0.  1.
        -11    1    3    3    0    0 -0.62479690045E+01 -0.17222503886E+01 -0.22217317324E+01  0.68512301986E+01  0.51100000000E-03 0. -1.
        -12    1    3    3    0    0 -0.83510750615E+01  0.24412772232E+02 -0.17647259171E+02  0.31259393132E+02  0.00000000000E+00 0.  1.
</event>
<event>
 7    1  0.1381607E-011  0.5052886E+02  0.7816164E-02  0.1300439E+00
        -11   -1    0    0    0    0  0.00000000000E+00  0.00000000000E+00  0.45593999997E+02  0.45594000000E+02  0.51100000000E-03 0. -1.
         11   -1    0    0    0    0 -0.00000000000E+00 -0.00000000000E+00 -0.45593999997E+02  0.45594000000E+02  0.51100000000E-03 0.  1.
    9900012    2    1    2    0    0 -0.92329688702E+01  0.20789609655E+02 -0.33700298093E+02  0.50528859880E+02  0.30000000090E+02 0.  0.
         12    1    1    2    0    0  0.92329688702E+01 -0.20789609655E+02  0.33700298093E+02  0.40659140120E+02  0.00000000000E+00 0. -1.
         11    1    3    3    0    0  0.62962528520E+01  0.17365251700E+02 -0.20246155380E+02  0.27406232402E+02  0.51100000000E-03 0. -1.
        -11    1    3    3    0    0 -0.51048469396E+01  0.60503247397E+01 -0.71086736682E+01  0.10639508133E+02  0.51100000000E-03 0.  1.
        -12    1    3    3    0    0 -0.10424374783E+02 -0.26259667844E+01 -0.63454690455E+01  0.12483119344E+02  0.00000000000E+00 0.  1.
</event>
<event>
 7    1  0.1381607E-011  0.5052886E+02  0.7816164E-02  0.1300439E+00
        -11   -1    0    0    0    0  0.00000000000E+00  0.00000000000E+00  0.45593999997E+02  0.45594000000E+02  0.51100000000E-03 0.  1.
         11   -1    0    0    0    0 -0.00000000000E+00 -0.00000000000E+00 -0.45593999997E+02  0.45594000000E+02  0.51100000000E-03 0. -1.
    9900012    2    1    2    0    0 -0.30551209567E+02 -0.15380045716E+02  0.21982796384E+02  0.50528861432E+02  0.30000004809E+02 0.  0.
         12    1    1    2    0    0  0.30551209567E+02  0.15380045716E+02 -0.21982796384E+02  0.40659138568E+02  0.00000000000E+00 0. -1.
         11    1    3    3    0    0 -0.13560004268E+01  0.39491974148E+00  0.16476051262E+02  0.16536473754E+02  0.51100000000E-03 0.  1.
        -11    1    3    3    0    0 -0.13905056599E+02 -0.57634137111E+01  0.44028092092E+01  0.15682865357E+02  0.51100000000E-03 0. -1.
        -12    1    3    3    0    0 -0.15290152542E+02 -0.10011551746E+02  0.11039359123E+01  0.18309522321E+02  0.00000000000E+00 0.  1.
</event>
<event>
 7    1  0.1381607E-011  0.5052885E+02  0.7816164E-02  0.1300439E+00
        -11   -1    0    0    0    0  0.00000000000E+00  0.00000000000E+00  0.45593999997E+02  0.45594000000E+02  0.51100000000E-03 0. -1.
         11   -1    0    0    0    0 -0.00000000000E+00 -0.00000000000E+00 -0.45593999997E+02  0.45594000000E+02  0.51100000000E-03 0.  1.
    9900012    2    1    2    0    0 -0.11490787531E+02  0.34412734641E+02  0.18354612812E+02  0.50528852013E+02  0.29999976179E+02 0.  0.
         12    1    1    2    0    0  0.11490787531E+02 -0.34412734641E+02 -0.18354612812E+02  0.40659147987E+02  0.00000000000E+00 0. -1.
         11    1    3    3    0    0 -0.13352250118E+02  0.55131813464E+01  0.63809586478E+00  0.14459768960E+02  0.51100000000E-03 0. -1.
        -11    1    3    3    0    0 -0.37160460259E+01  0.12949782420E+02  0.33313745298E+01  0.13878181412E+02  0.51100000000E-03 0.  1.
         12    1    3    3    0    0  0.55775086130E+01  0.15949770875E+02  0.14385142418E+02  0.22190901642E+02  0.00000000000E+00 0. -1.
</event>
<event>
 7    1  0.1381607E-011  0.5052887E+02  0.7816164E-02  0.1300439E+00
        -11   -1    0    0    0    0  0.00000000000E+00  0.00000000000E+00  0.45593999997E+02  0.45594000000E+02  0.51100000000E-03 0.  1.
         11   -1    0    0    0    0 -0.00000000000E+00 -0.00000000000E+00 -0.45593999997E+02  0.45594000000E+02  0.51100000000E-03 0. -1.
    9900012    2    1    2    0    0 -0.20375985294E+01 -0.17928872240E+02  0.36435815400E+02  0.50528869274E+02  0.30000028645E+02 0.  0.
         12    1    1    2    0    0  0.20375985294E+01  0.17928872240E+02 -0.36435815400E+02  0.40659130726E+02  0.00000000000E+00 0. -1.
         11    1    3    3    0    0  0.18092673263E+01 -0.86727938959E+01  0.19468262203E+01  0.90708839047E+01  0.51100000000E-03 0. -1.
        -11    1    3    3    0    0 -0.84185977075E+01 -0.13366904593E+02  0.18495361334E+02  0.24323349212E+02  0.51100000000E-03 0.  1.
         12    1    3    3    0    0  0.45717318518E+01  0.41108262491E+01  0.15993627845E+02  0.17134636157E+02  0.00000000000E+00 0. -1.
</event>
<event>
 7    1  0.1381607E-011  0.5052886E+02  0.7816164E-02  0.1300439E+00
        -11   -1    0    0    0    0  0.00000000000E+00  0.00000000000E+00  0.45593999997E+02  0.45594000000E+02  0.51100000000E-03 0.  1.
         11   -1    0    0    0    0 -0.00000000000E+00 -0.00000000000E+00 -0.45593999997E+02  0.45594000000E+02  0.51100000000E-03 0. -1.
    9900012    2    1    2    0    0  0.27902115879E+02  0.26564296217E+02  0.12999082520E+02  0.50528855268E+02  0.29999986071E+02 0.  0.
         12    1    1    2    0    0 -0.27902115879E+02 -0.26564296217E+02 -0.12999082520E+02  0.40659144732E+02  0.00000000000E+00 0. -1.
         11    1    3    3    0    0  0.44156415129E+01 -0.29821954810E+01  0.52770782866E+01  0.74992623211E+01  0.51100000000E-03 0. -1.
        -11    1    3    3    0    0  0.19621662526E+02  0.10883276965E+02  0.83993255614E+01  0.23958381162E+02  0.51100000000E-03 0.  1.
        -12    1    3    3    0    0  0.38648118400E+01  0.18663214733E+02 -0.67732132823E+00  0.19071211784E+02  0.00000000000E+00 0.  1.
</event>
<event>
 7    1  0.1381607E-011  0.5052880E+02  0.7816164E-02  0.1300439E+00
        -11   -1    0    0    0    0  0.00000000000E+00  0.00000000000E+00  0.45593999997E+02  0.45594000000E+02  0.51100000000E-03 0. -1.
         11   -1    0    0    0    0 -0.00000000000E+00 -0.00000000000E+00 -0.45593999997E+02  0.45594000000E+02  0.51100000000E-03 0.  1.
    9900012    2    1    2    0    0 -0.40165513070E+02  0.10089913148E+01  0.62356864087E+01  0.50528803148E+02  0.29999827648E+02 0.  0.
         12    1    1    2    0    0  0.40165513070E+02 -0.10089913148E+01 -0.62356864087E+01  0.40659196852E+02  0.00000000000E+00 0. -1.
         11    1    3    3    0    0 -0.12940429125E+02 -0.61647871768E+01  0.82305480170E+01  0.16528799950E+02  0.51100000000E-03 0. -1.
        -11    1    3    3    0    0 -0.29451530373E+02  0.47395680135E+01  0.54696563547E+00  0.29835470801E+02  0.51100000000E-03 0.  1.
         12    1    3    3    0    0  0.22264464276E+01  0.24342104782E+01 -0.25418272437E+01  0.41645323968E+01  0.00000000000E+00 0. -1.
</event>
<event>
 7    1  0.1381607E-011  0.5052886E+02  0.7816164E-02  0.1300439E+00
        -11   -1    0    0    0    0  0.00000000000E+00  0.00000000000E+00  0.45593999997E+02  0.45594000000E+02  0.51100000000E-03 0.  1.
         11   -1    0    0    0    0 -0.00000000000E+00 -0.00000000000E+00 -0.45593999997E+02  0.45594000000E+02  0.51100000000E-03 0. -1.
    9900012    2    1    2    0    0  0.12977689435E+02  0.21081004059E+02  0.32254246182E+02  0.50528861396E+02  0.30000004701E+02 0.  0.
         12    1    1    2    0    0 -0.12977689435E+02 -0.21081004059E+02 -0.32254246182E+02  0.40659138604E+02  0.00000000000E+00 0. -1.
         11    1    3    3    0    0  0.59590748825E+01  0.43666967707E-01  0.14548304992E+02  0.15721503066E+02  0.51100000000E-03 0. -1.
        -11    1    3    3    0    0 -0.25723591981E+01 -0.65747974457E+00 -0.25005665459E+01  0.36472105464E+01  0.51100000000E-03 0.  1.
        -12    1    3    3    0    0  0.95909737503E+01  0.21694816836E+02  0.20206507736E+02  0.31160147784E+02  0.00000000000E+00 0.  1.
</event>
<event>
 7    1  0.1381607E-011  0.5052888E+02  0.7816164E-02  0.1300439E+00
        -11   -1    0    0    0    0  0.00000000000E+00  0.00000000000E+00  0.45593999997E+02  0.45594000000E+02  0.51100000000E-03 0. -1.
         11   -1    0    0    0    0 -0.00000000000E+00 -0.00000000000E+00 -0.45593999997E+02  0.45594000000E+02  0.51100000000E-03 0.  1.
    9900012    2    1    2    0    0 -0.16530914421E+02  0.36446240865E+02 -0.71808609915E+01  0.50528875940E+02  0.30000048907E+02 0.  0.
         12    1    1    2    0    0  0.16530914421E+02 -0.36446240865E+02  0.71808609915E+01  0.40659124060E+02  0.00000000000E+00 0. -1.
         11    1    3    3    0    0 -0.34329768044E+01  0.59322588696E+01 -0.75372949298E+01  0.10187631725E+02  0.51100000000E-03 0. -1.
        -11    1    3    3    0    0 -0.10301262622E+01 -0.29005306546E+01 -0.34353219993E+01  0.46125563080E+01  0.51100000000E-03 0.  1.
         12    1    3    3    0    0 -0.12067811355E+02  0.33414512650E+02  0.37917559376E+01  0.35728687907E+02  0.00000000000E+00 0. -1.
</event>
<event>
 7    1  0.1381607E-011  0.5052886E+02  0.7816164E-02  0.1300439E+00
        -11   -1    0    0    0    0  0.00000000000E+00  0.00000000000E+00  0.45593999997E+02  0.45594000000E+02  0.51100000000E-03 0.  1.
         11   -1    0    0    0    0 -0.00000000000E+00 -0.00000000000E+00 -0.45593999997E+02  0.45594000000E+02  0.51100000000E-03 0. -1.
    9900012    2    1    2    0    0 -0.16948971705E+02  0.80465806952E+01  0.36071470182E+02  0.50528855102E+02  0.29999985569E+02 0.  0.
         12    1    1    2    0    0  0.16948971705E+02 -0.80465806952E+01 -0.36071470182E+02  0.40659144898E+02  0.00000000000E+00 0. -1.
         11    1    3    3    0    0  0.51179488949E+00  0.21716643549E+01  0.58962014510E+01  0.63042249239E+01  0.51100000000E-03 0.  1.
        -11    1    3    3    0    0 -0.39412051940E+00 -0.93782966508E+01  0.76303568845E+01  0.12096698951E+02  0.51100000000E-03 0. -1.
         12    1    3    3    0    0 -0.17066646075E+02  0.15253212991E+02  0.22544911846E+02  0.32127931228E+02  0.00000000000E+00 0. -1.
</event>
<event>
 7    1  0.1381607E-011  0.5052887E+02  0.7816164E-02  0.1300439E+00
        -11   -1    0    0    0    0  0.00000000000E+00  0.00000000000E+00  0.45593999997E+02  0.45594000000E+02  0.51100000000E-03 0.  1.
         11   -1    0    0    0    0 -0.00000000000E+00 -0.00000000000E+00 -0.45593999997E+02  0.45594000000E+02  0.51100000000E-03 0. -1.
    9900012    2    1    2    0    0  0.22706938175E+02 -0.21444149736E+02  0.26032832714E+02  0.50528868451E+02  0.30000026144E+02 0.  0.
         12    1    1    2    0    0 -0.22706938175E+02  0.21444149736E+02 -0.26032832714E+02  0.40659131549E+02  0.00000000000E+00 0. -1.
         11    1    3    3    0    0  0.52949701411E+01  0.27290075262E+01  0.66463723314E+01  0.89251586149E+01  0.51100000000E-03 0. -1.
        -11    1    3    3    0    0 -0.48873851592E+01 -0.71603236417E+01  0.58619854685E+01  0.10465163269E+02  0.51100000000E-03 0.  1.
         12    1    3    3    0    0  0.22299353193E+02 -0.17012833621E+02  0.13524474914E+02  0.31138546568E+02  0.00000000000E+00 0. -1.
</event>
<event>
 7    1  0.1381607E-011  0.5052883E+02  0.7816164E-02  0.1300439E+00
        -11   -1    0    0    0    0  0.00000000000E+00  0.00000000000E+00  0.45593999997E+02  0.45594000000E+02  0.51100000000E-03 0. -1.
         11   -1    0    0    0    0 -0.00000000000E+00 -0.00000000000E+00 -0.45593999997E+02  0.45594000000E+02  0.51100000000E-03 0.  1.
    9900012    2    1    2    0    0 -0.40234319809E+02  0.92493206387E+00 -0.57889304468E+01  0.50528834914E+02  0.29999924203E+02 0.  0.
         12    1    1    2    0    0  0.40234319809E+02 -0.92493206387E+00  0.57889304468E+01  0.40659165086E+02  0.00000000000E+00 0. -1.
         11    1    3    3    0    0 -0.15592815935E+02 -0.29804844655E+01 -0.38795041362E+01  0.16342268785E+02  0.51100000000E-03 0. -1.
        -11    1    3    3    0    0 -0.14849907112E+02  0.13149010569E+02  0.25587984055E+01  0.19999091723E+02  0.51100000000E-03 0.  1.
         12    1    3    3    0    0 -0.97915967614E+01 -0.92435940397E+01 -0.44682247161E+01  0.14187474406E+02  0.00000000000E+00 0. -1.
</event>
<event>
 7    1  0.1381607E-011  0.5052884E+02  0.7816164E-02  0.1300439E+00
        -11   -1    0    0    0    0  0.00000000000E+00  0.00000000000E+00  0.45593999997E+02  0.45594000000E+02  0.51100000000E-03 0.  1.
         11   -1    0    0    0    0 -0.00000000000E+00 -0.00000000000E+00 -0.45593999997E+02  0.45594000000E+02  0.51100000000E-03 0. -1.
    9900012    2    1    2    0    0 -0.12161560667E+02 -0.18663039513E+02  0.34014033973E+02  0.50528842252E+02  0.29999946508E+02 0.  0.
         12    1    1    2    0    0  0.12161560667E+02  0.18663039513E+02 -0.34014033973E+02  0.40659157748E+02  0.00000000000E+00 0. -1.
         11    1    3    3    0    0 -0.47959111359E+01 -0.56606722996E+01  0.90463886530E+01  0.11699620610E+02  0.51100000000E-03 0. -1.
        -11    1    3    3    0    0  0.46830905491E+01 -0.11126118563E+02  0.12189578132E+01  0.12132918436E+02  0.51100000000E-03 0.  1.
        -12    1    3    3    0    0 -0.12048740080E+02 -0.18762486499E+01  0.23748687507E+02  0.26696303205E+02  0.00000000000E+00 0.  1.
</event>
<event>
 7    1  0.1381607E-011  0.5052886E+02  0.7816164E-02  0.1300439E+00
        -11   -1    0    0    0    0  0.00000000000E+00  0.00000000000E+00  0.45593999997E+02  0.45594000000E+02  0.51100000000E-03 0.  1.
         11   -1    0    0    0    0 -0.00000000000E+00 -0.00000000000E+00 -0.45593999997E+02  0.45594000000E+02  0.51100000000E-03 0. -1.
    9900012    2    1    2    0    0  0.33250208738E+01  0.40121932556E+02  0.56868887893E+01  0.50528856626E+02  0.29999990199E+02 0.  0.
         12    1    1    2    0    0 -0.33250208738E+01 -0.40121932556E+02 -0.56868887893E+01  0.40659143374E+02  0.00000000000E+00 0. -1.
         11    1    3    3    0    0 -0.44212575239E+01  0.91974825066E+01 -0.33349429258E+01  0.10736062925E+02  0.51100000000E-03 0. -1.
        -11    1    3    3    0    0 -0.37816131150E+01  0.19542492863E+02  0.12112325611E+02  0.23300602074E+02  0.51100000000E-03 0.  1.
        -12    1    3    3    0    0  0.11527891513E+02  0.11381957186E+02 -0.30904938955E+01  0.16492191626E+02  0.00000000000E+00 0.  1.
</event>
<event>
 7    1  0.1381607E-011  0.5052886E+02  0.7816164E-02  0.1300439E+00
        -11   -1    0    0    0    0  0.00000000000E+00  0.00000000000E+00  0.45593999997E+02  0.45594000000E+02  0.51100000000E-03 0.  1.
         11   -1    0    0    0    0 -0.00000000000E+00 -0.00000000000E+00 -0.45593999997E+02  0.45594000000E+02  0.51100000000E-03 0. -1.
    9900012    2    1    2    0    0  0.14256594215E+02  0.33659726973E+02  0.17802753673E+02  0.50528859124E+02  0.29999997792E+02 0.  0.
         12    1    1    2    0    0 -0.14256594215E+02 -0.33659726973E+02 -0.17802753673E+02  0.40659140876E+02  0.00000000000E+00 0. -1.
         11    1    3    3    0    0 -0.26367390215E+00  0.12493564486E+02 -0.12366117410E+01  0.12557383738E+02  0.51100000000E-03 0. -1.
        -11    1    3    3    0    0  0.71836304467E+01  0.55397898326E+01 -0.33757204512E+01  0.96793236650E+01  0.51100000000E-03 0.  1.
        -12    1    3    3    0    0  0.73366376700E+01  0.15626372654E+02  0.22415085865E+02  0.28292151720E+02  0.00000000000E+00 0.  1.
</event>
<event>
 7    1  0.1381607E-011  0.5052885E+02  0.7816164E-02  0.1300439E+00
        -11   -1    0    0    0    0  0.00000000000E+00  0.00000000000E+00  0.45593999997E+02  0.45594000000E+02  0.51100000000E-03 0. -1.
         11   -1    0    0    0    0 -0.00000000000E+00 -0.00000000000E+00 -0.45593999997E+02  0.45594000000E+02  0.51100000000E-03 0.  1.
    9900012    2    1    2    0    0 -0.12938558334E+02 -0.33526875868E+02 -0.19018647322E+02  0.50528847978E+02  0.29999963914E+02 0.  0.
         12    1    1    2    0    0  0.12938558334E+02  0.33526875868E+02  0.19018647322E+02  0.40659152022E+02  0.00000000000E+00 0. -1.
         11    1    3    3    0    0 -0.15084557973E+02 -0.17173721316E+02 -0.12774862043E+02  0.26185448126E+02  0.51100000000E-03 0. -1.
        -11    1    3    3    0    0  0.23393378942E+01  0.20379290606E+01 -0.50318109631E+01  0.59114108696E+01  0.51100000000E-03 0.  1.
        -12    1    3    3    0    0 -0.19333825529E+00 -0.18391083612E+02 -0.12119743160E+01  0.18431988983E+02  0.00000000000E+00 0.  1.
</event>
<event>
 7    1  0.1381607E-011  0.5052879E+02  0.7816164E-02  0.1300439E+00
        -11   -1    0    0    0    0  0.00000000000E+00  0.00000000000E+00  0.45593999997E+02  0.45594000000E+02  0.51100000000E-03 0. -1.
         11   -1    0    0    0    0 -0.00000000000E+00 -0.00000000000E+00 -0.45593999997E+02  0.45594000000E+02  0.51100000000E-03 0.  1.
    9900012    2    1    2    0    0 -0.18921031850E+01  0.35096388578E+02 -0.20441001421E+02  0.50528793358E+02  0.29999797891E+02 0.  0.
         12    1    1    2    0    0  0.18921031850E+01 -0.35096388578E+02  0.20441001421E+02  0.40659206642E+02  0.00000000000E+00 0. -1.
         11    1    3    3    0    0  0.31455074683E+01  0.86784816461E+01 -0.84071360427E+01  0.12485599610E+02  0.51100000000E-03 0. -1.
        -11    1    3    3    0    0  0.62390899781E+01  0.64373766435E+01  0.42376615757E+01  0.99158377204E+01  0.51100000000E-03 0.  1.
        -12    1    3    3    0    0 -0.11276700631E+02  0.19980530288E+02 -0.16271526954E+02  0.28127356028E+02  0.00000000000E+00 0.  1.
</event>
<event>
 7    1  0.1381607E-011  0.5052885E+02  0.7816164E-02  0.1300439E+00
        -11   -1    0    0    0    0  0.00000000000E+00  0.00000000000E+00  0.45593999997E+02  0.45594000000E+02  0.51100000000E-03 0.  1.
         11   -1    0    0    0    0 -0.00000000000E+00 -0.00000000000E+00 -0.45593999997E+02  0.45594000000E+02  0.51100000000E-03 0. -1.
    9900012    2    1    2    0    0  0.34581972141E+02 -0.21011657287E+02  0.39704149065E+01  0.50528846865E+02  0.29999960532E+02 0.  0.
         12    1    1    2    0    0 -0.34581972141E+02  0.21011657287E+02 -0.39704149065E+01  0.40659153135E+02  0.00000000000E+00 0. -1.
         11    1    3    3    0    0  0.50044434187E+01  0.35064292877E+01  0.51472212855E-01  0.61108223612E+01  0.51100000000E-03 0. -1.
        -11    1    3    3    0    0 -0.35512956575E+01 -0.36042288118E+01  0.70094760368E+00  0.51081791256E+01  0.51100000000E-03 0.  1.
        -12    1    3    3    0    0  0.33128824380E+02 -0.20913857763E+02  0.32179950900E+01  0.39309845379E+02  0.00000000000E+00 0.  1.
</event>
<event>
 7    1  0.1381607E-011  0.5052885E+02  0.7816164E-02  0.1300439E+00
        -11   -1    0    0    0    0  0.00000000000E+00  0.00000000000E+00  0.45593999997E+02  0.45594000000E+02  0.51100000000E-03 0.  1.
         11   -1    0    0    0    0 -0.00000000000E+00 -0.00000000000E+00 -0.45593999997E+02  0.45594000000E+02  0.51100000000E-03 0. -1.
    9900012    2    1    2    0    0  0.11972585897E+02  0.31045937718E+02  0.23366077054E+02  0.50528848278E+02  0.29999964826E+02 0.  0.
         12    1    1    2    0    0 -0.11972585897E+02 -0.31045937718E+02 -0.23366077054E+02  0.40659151722E+02  0.00000000000E+00 0. -1.
         11    1    3    3    0    0 -0.13256563582E+01  0.15399363601E+02  0.40902497911E+01  0.15988367887E+02  0.51100000000E-03 0. -1.
        -11    1    3    3    0    0 -0.10670550501E+01  0.95093942757E+01  0.15901735996E+02  0.18558889889E+02  0.51100000000E-03 0.  1.
         12    1    3    3    0    0  0.14365297306E+02  0.61371798415E+01  0.33740912667E+01  0.15981590502E+02  0.00000000000E+00 0. -1.
</event>
<event>
 7    1  0.1381607E-011  0.5052887E+02  0.7816164E-02  0.1300439E+00
        -11   -1    0    0    0    0  0.00000000000E+00  0.00000000000E+00  0.45593999997E+02  0.45594000000E+02  0.51100000000E-03 0.  1.
         11   -1    0    0    0    0 -0.00000000000E+00 -0.00000000000E+00 -0.45593999997E+02  0.45594000000E+02  0.51100000000E-03 0. -1.
    9900012    2    1    2    0    0  0.93466450757E+01  0.10642463905E+02  0.38112245329E+02  0.50528867493E+02  0.30000023233E+02 0.  0.
         12    1    1    2    0    0 -0.93466450757E+01 -0.10642463905E+02 -0.38112245329E+02  0.40659132507E+02  0.00000000000E+00 0. -1.
         11    1    3    3    0    0 -0.44676200814E+01 -0.45475625539E+01  0.37991873578E+01  0.74211710136E+01  0.51100000000E-03 0. -1.
        -11    1    3    3    0    0  0.84784564630E+01  0.66449356562E+01  0.45639263661E+01  0.11699094752E+02  0.51100000000E-03 0.  1.
         12    1    3    3    0    0  0.53358086940E+01  0.85450908025E+01  0.29749131606E+02  0.31408601728E+02  0.00000000000E+00 0. -1.
</event>
<event>
 7    1  0.1381607E-011  0.5052886E+02  0.7816164E-02  0.1300439E+00
        -11   -1    0    0    0    0  0.00000000000E+00  0.00000000000E+00  0.45593999997E+02  0.45594000000E+02  0.51100000000E-03 0.  1.
         11   -1    0    0    0    0 -0.00000000000E+00 -0.00000000000E+00 -0.45593999997E+02  0.45594000000E+02  0.51100000000E-03 0. -1.
    9900012    2    1    2    0    0 -0.17237761134E+02  0.26807185641E+02  0.25246778585E+02  0.50528862775E+02  0.30000008892E+02 0.  0.
         12    1    1    2    0    0  0.17237761134E+02 -0.26807185641E+02 -0.25246778585E+02  0.40659137225E+02  0.00000000000E+00 0. -1.
         11    1    3    3    0    0 -0.36741448381E+01  0.98332391482E+01 -0.35156177783E+01  0.11070298147E+02  0.51100000000E-03 0. -1.
        -11    1    3    3    0    0 -0.13660102238E+02  0.13159714087E+02  0.12409702377E+02  0.22666653510E+02  0.51100000000E-03 0.  1.
        -12    1    3    3    0    0  0.96485942183E-01  0.38142324061E+01  0.16352693987E+02  0.16791911118E+02  0.00000000000E+00 0.  1.
</event>
<event>
 7    1  0.1381607E-011  0.5052887E+02  0.7816164E-02  0.1300439E+00
        -11   -1    0    0    0    0  0.00000000000E+00  0.00000000000E+00  0.45593999997E+02  0.45594000000E+02  0.51100000000E-03 0.  1.
         11   -1    0    0    0    0 -0.00000000000E+00 -0.00000000000E+00 -0.45593999997E+02  0.45594000000E+02  0.51100000000E-03 0. -1.
    9900012    2    1    2    0    0  0.20138509408E+01 -0.33535282921E+02  0.22901843777E+02  0.50528865176E+02  0.30000016190E+02 0.  0.
         12    1    1    2    0    0 -0.20138509408E+01  0.33535282921E+02 -0.22901843777E+02  0.40659134824E+02  0.00000000000E+00 0. -1.
         11    1    3    3    0    0 -0.78072202609E+01 -0.25181586812E+02  0.19644348358E+02  0.32878038647E+02  0.51100000000E-03 0. -1.
        -11    1    3    3    0    0 -0.17489209479E+01 -0.49143376123E+01  0.16667459342E+01  0.54760826254E+01  0.51100000000E-03 0.  1.
         12    1    3    3    0    0  0.11569992150E+02 -0.34393584967E+01  0.15907494852E+01  0.12174743904E+02  0.00000000000E+00 0. -1.
</event>
<event>
 7    1  0.1381607E-011  0.5052888E+02  0.7816164E-02  0.1300439E+00
        -11   -1    0    0    0    0  0.00000000000E+00  0.00000000000E+00  0.45593999997E+02  0.45594000000E+02  0.51100000000E-03 0. -1.
         11   -1    0    0    0    0 -0.00000000000E+00 -0.00000000000E+00 -0.45593999997E+02  0.45594000000E+02  0.51100000000E-03 0.  1.
    9900012    2    1    2    0    0 -0.26820545103E+02  0.30329148033E+02 -0.37370095618E+01  0.50528879246E+02  0.30000058957E+02 0.  0.
         12    1    1    2    0    0  0.26820545103E+02 -0.30329148033E+02  0.37370095618E+01  0.40659120754E+02  0.00000000000E+00 0. -1.
         11    1    3    3    0    0 -0.59909971777E+01  0.71995951723E+01  0.25700147139E+01  0.97124247085E+01  0.51100000000E-03 0.  1.
        -11    1    3    3    0    0 -0.25314157071E+02  0.15210073744E+02  0.36036890334E+00  0.29534433421E+02  0.51100000000E-03 0. -1.
         12    1    3    3    0    0  0.44846091459E+01  0.79194791164E+01 -0.66673931791E+01  0.11282021116E+02  0.00000000000E+00 0. -1.
</event>
<event>
 7    1  0.1381607E-011  0.5052886E+02  0.7816164E-02  0.1300439E+00
        -11   -1    0    0    0    0  0.00000000000E+00  0.00000000000E+00  0.45593999997E+02  0.45594000000E+02  0.51100000000E-03 0.  1.
         11   -1    0    0    0    0 -0.00000000000E+00 -0.00000000000E+00 -0.45593999997E+02  0.45594000000E+02  0.51100000000E-03 0. -1.
    9900012    2    1    2    0    0  0.14886182509E+02  0.30956821781E+02  0.21754140292E+02  0.50528857556E+02  0.29999993026E+02 0.  0.
         12    1    1    2    0    0 -0.14886182509E+02 -0.30956821781E+02 -0.21754140292E+02  0.40659142444E+02  0.00000000000E+00 0. -1.
         11    1    3    3    0    0  0.28683294891E+01  0.14219088401E+02  0.33812854863E+01  0.14894390917E+02  0.51100000000E-03 0. -1.
        -11    1    3    3    0    0  0.16695928682E+02  0.16969868086E+02  0.95593669639E+01  0.25653692803E+02  0.51100000000E-03 0.  1.
         12    1    3    3    0    0 -0.46780756615E+01 -0.23213470588E+00  0.88134878418E+01  0.99807738354E+01  0.00000000000E+00 0. -1.
</event>
<event>
 7    1  0.1381607E-011  0.5052885E+02  0.7816164E-02  0.1300439E+00
        -11   -1    0    0    0    0  0.00000000000E+00  0.00000000000E+00  0.45593999997E+02  0.45594000000E+02  0.51100000000E-03 0.  1.
         11   -1    0    0    0    0 -0.00000000000E+00 -0.00000000000E+00 -0.45593999997E+02  0.45594000000E+02  0.51100000000E-03 0. -1.
    9900012    2    1    2    0    0 -0.32526398303E+01 -0.17558125829E+02  0.36528063071E+02  0.50528845554E+02  0.29999956547E+02 0.  0.
         12    1    1    2    0    0  0.32526398303E+01  0.17558125829E+02 -0.36528063071E+02  0.40659154446E+02  0.00000000000E+00 0. -1.
         11    1    3    3    0    0 -0.10204463720E+02 -0.10312009411E+02  0.24246020775E+02  0.28254878191E+02  0.51100000000E-03 0. -1.
        -11    1    3    3    0    0  0.30613238346E+01 -0.11200109489E+02  0.12032767403E+02  0.16721293246E+02  0.51100000000E-03 0.  1.
         12    1    3    3    0    0  0.38905000554E+01  0.39539930711E+01  0.24927489402E+00  0.55526741180E+01  0.00000000000E+00 0. -1.
</event>
<event>
 7    1  0.1381607E-011  0.5052887E+02  0.7816164E-02  0.1300439E+00
        -11   -1    0    0    0    0  0.00000000000E+00  0.00000000000E+00  0.45593999997E+02  0.45594000000E+02  0.51100000000E-03 0. -1.
         11   -1    0    0    0    0 -0.00000000000E+00 -0.00000000000E+00 -0.45593999997E+02  0.45594000000E+02  0.51100000000E-03 0.  1.
    9900012    2    1    2    0    0  0.29406938536E+02  0.13571442613E+02 -0.24580734463E+02  0.50528873160E+02  0.30000040457E+02 0.  0.
         12    1    1    2    0    0 -0.29406938536E+02 -0.13571442613E+02  0.24580734463E+02  0.40659126840E+02  0.00000000000E+00 0. -1.
         11    1    3    3    0    0 -0.26618624491E+01  0.86103180085E+01 -0.55563543675E+01  0.10587547498E+02  0.51100000000E-03 0. -1.
        -11    1    3    3    0    0  0.66226643606E+01  0.47184319992E+01 -0.10117578590E+02  0.12980318970E+02  0.51100000000E-03 0.  1.
        -12    1    3    3    0    0  0.25446136624E+02  0.24269260506E+00 -0.89068015055E+01  0.26961006692E+02  0.00000000000E+00 0.  1.
</event>
<event>
 7    1  0.1381607E-011  0.5052886E+02  0.7816164E-02  0.1300439E+00
        -11   -1    0    0    0    0  0.00000000000E+00  0.00000000000E+00  0.45593999997E+02  0.45594000000E+02  0.51100000000E-03 0.  1.
         11   -1    0    0    0    0 -0.00000000000E+00 -0.00000000000E+00 -0.45593999997E+02  0.45594000000E+02  0.51100000000E-03 0. -1.
    9900012    2    1    2    0    0 -0.16943245401E+02 -0.52004731906E+01  0.36592989754E+02  0.50528863447E+02  0.30000010933E+02 0.  0.
         12    1    1    2    0    0  0.16943245401E+02  0.52004731906E+01 -0.36592989754E+02  0.40659136553E+02  0.00000000000E+00 0. -1.
         11    1    3    3    0    0 -0.45981762409E+01  0.34980984224E+01  0.14974097283E+02  0.16050031371E+02  0.51100000000E-03 0. -1.
        -11    1    3    3    0    0  0.58452551077E+01  0.73639234071E+00  0.77500557693E+01  0.97351243260E+01  0.51100000000E-03 0.  1.
        -12    1    3    3    0    0 -0.18190324267E+02 -0.94349639537E+01  0.13868836702E+02  0.24743707750E+02  0.00000000000E+00 0.  1.
</event>
<event>
 7    1  0.1381607E-011  0.5052885E+02  0.7816164E-02  0.1300439E+00
        -11   -1    0    0    0    0  0.00000000000E+00  0.00000000000E+00  0.45593999997E+02  0.45594000000E+02  0.51100000000E-03 0. -1.
         11   -1    0    0    0    0 -0.00000000000E+00 -0.00000000000E+00 -0.45593999997E+02  0.45594000000E+02  0.51100000000E-03 0.  1.
    9900012    2    1    2    0    0 -0.34916751484E+02 -0.18552663736E+01 -0.20749568636E+02  0.50528854090E+02  0.29999982493E+02 0.  0.
         12    1    1    2    0    0  0.34916751484E+02  0.18552663736E+01  0.20749568636E+02  0.40659145910E+02  0.00000000000E+00 0. -1.
         11    1    3    3    0    0  0.19879524390E+01  0.24117690247E+01  0.32654828182E-01  0.31256441459E+01  0.51100000000E-03 0. -1.
        -11    1    3    3    0    0 -0.61728514589E+01 -0.96000892444E+01 -0.56275530787E+01  0.12725374751E+02  0.51100000000E-03 0.  1.
        -12    1    3    3    0    0 -0.30731852464E+02  0.53330538461E+01 -0.15154670386E+02  0.34677835193E+02  0.00000000000E+00 0.  1.
</event>
<event>
 7    1  0.1381607E-011  0.5052887E+02  0.7816164E-02  0.1300439E+00
        -11   -1    0    0    0    0  0.00000000000E+00  0.00000000000E+00  0.45593999997E+02  0.45594000000E+02  0.51100000000E-03 0.  1.
         11   -1    0    0    0    0 -0.00000000000E+00 -0.00000000000E+00 -0.45593999997E+02  0.45594000000E+02  0.51100000000E-03 0. -1.
    9900012    2    1    2    0    0  0.21204639749E+02  0.34674223866E+02 -0.11075253005E+01  0.50528866218E+02  0.30000019356E+02 0.  0.
         12    1    1    2    0    0 -0.21204639749E+02 -0.34674223866E+02  0.11075253005E+01  0.40659133782E+02  0.00000000000E+00 0. -1.
         11    1    3    3    0    0  0.11428496008E+02  0.12684680686E+01  0.36078388979E+01  0.12051391373E+02  0.51100000000E-03 0. -1.
        -11    1    3    3    0    0  0.55524249031E+01  0.64467428287E+01 -0.71056182859E+01  0.11085112850E+02  0.51100000000E-03 0.  1.
         12    1    3    3    0    0  0.42237188375E+01  0.26959012969E+02  0.23902540875E+01  0.27392361995E+02  0.00000000000E+00 0. -1.
</event>
<event>
 7    1  0.1381607E-011  0.5052885E+02  0.7816164E-02  0.1300439E+00
        -11   -1    0    0    0    0  0.00000000000E+00  0.00000000000E+00  0.45593999997E+02  0.45594000000E+02  0.51100000000E-03 0. -1.
         11   -1    0    0    0    0 -0.00000000000E+00 -0.00000000000E+00 -0.45593999997E+02  0.45594000000E+02  0.51100000000E-03 0.  1.
    9900012    2    1    2    0    0 -0.84594388683E-02  0.18827867459E+02 -0.36037167369E+02  0.50528854699E+02  0.29999984343E+02 0.  0.
         12    1    1    2    0    0  0.84594388683E-02 -0.18827867459E+02  0.36037167369E+02  0.40659145301E+02  0.00000000000E+00 0. -1.
         11    1    3    3    0    0 -0.77070332568E+01  0.11106085355E+02 -0.60973230896E+01  0.14829728340E+02  0.51100000000E-03 0. -1.
        -11    1    3    3    0    0 -0.92466215188E+00 -0.33180056518E+01 -0.14273168690E+02  0.14682898430E+02  0.51100000000E-03 0.  1.
         12    1    3    3    0    0  0.86232359699E+01  0.11039787756E+02 -0.15666675589E+02  0.21016227928E+02  0.00000000000E+00 0. -1.
</event>
<event>
 7    1  0.1381607E-011  0.5052880E+02  0.7816164E-02  0.1300439E+00
        -11   -1    0    0    0    0  0.00000000000E+00  0.00000000000E+00  0.45593999997E+02  0.45594000000E+02  0.51100000000E-03 0.  1.
         11   -1    0    0    0    0 -0.00000000000E+00 -0.00000000000E+00 -0.45593999997E+02  0.45594000000E+02  0.51100000000E-03 0. -1.
    9900012    2    1    2    0    0 -0.32205245215E+02  0.23591664709E+02  0.77088565680E+01  0.50528795228E+02  0.29999803574E+02 0.  0.
         12    1    1    2    0    0  0.32205245215E+02 -0.23591664709E+02 -0.77088565680E+01  0.40659204772E+02  0.00000000000E+00 0. -1.
         11    1    3    3    0    0 -0.27371815449E+02  0.96273829153E+01 -0.26779182347E+01  0.29138874877E+02  0.51100000000E-03 0. -1.
        -11    1    3    3    0    0  0.14901118649E+01  0.63977470445E+01 -0.63637351555E+00  0.65997403076E+01  0.51100000000E-03 0.  1.
        -12    1    3    3    0    0 -0.63235416315E+01  0.75665347488E+01  0.11023148318E+02  0.14790180043E+02  0.00000000000E+00 0.  1.
</event>
<event>
 7    1  0.1381607E-011  0.5052884E+02  0.7816164E-02  0.1300439E+00
        -11   -1    0    0    0    0  0.00000000000E+00  0.00000000000E+00  0.45593999997E+02  0.45594000000E+02  0.51100000000E-03 0. -1.
         11   -1    0    0    0    0 -0.00000000000E+00 -0.00000000000E+00 -0.45593999997E+02  0.45594000000E+02  0.51100000000E-03 0.  1.
    9900012    2    1    2    0    0  0.22688693030E+01 -0.31112932552E+02  0.26076900324E+02  0.50528842724E+02  0.29999947944E+02 0.  0.
         12    1    1    2    0    0 -0.22688693030E+01  0.31112932552E+02 -0.26076900324E+02  0.40659157276E+02  0.00000000000E+00 0. -1.
         11    1    3    3    0    0 -0.61821090097E+01 -0.15490275043E+02  0.85824291345E+01  0.18757003568E+02  0.51100000000E-03 0. -1.
        -11    1    3    3    0    0 -0.72981390037E+00 -0.95006382426E+01  0.18378428335E+02  0.20701724171E+02  0.51100000000E-03 0.  1.
        -12    1    3    3    0    0  0.91807922131E+01 -0.61220192659E+01 -0.88395714536E+00  0.11070114985E+02  0.00000000000E+00 0.  1.
</event>
<event>
 7    1  0.1381607E-011  0.5052886E+02  0.7816164E-02  0.1300439E+00
        -11   -1    0    0    0    0  0.00000000000E+00  0.00000000000E+00  0.45593999997E+02  0.45594000000E+02  0.51100000000E-03 0. -1.
         11   -1    0    0    0    0 -0.00000000000E+00 -0.00000000000E+00 -0.45593999997E+02  0.45594000000E+02  0.51100000000E-03 0.  1.
    9900012    2    1    2    0    0  0.13868946696E+02  0.13474060230E+02 -0.35766849810E+02  0.50528861706E+02  0.30000005640E+02 0.  0.
         12    1    1    2    0    0 -0.13868946696E+02 -0.13474060230E+02  0.35766849810E+02  0.40659138294E+02  0.00000000000E+00 0. -1.
         11    1    3    3    0    0  0.99340767677E+01 -0.88906994272E+00 -0.13791496481E+02  0.17020038250E+02  0.51100000000E-03 0. -1.
        -11    1    3    3    0    0 -0.52931809157E+01  0.53680561568E+01 -0.18772977650E+02  0.20230137944E+02  0.51100000000E-03 0.  1.
        -12    1    3    3    0    0  0.92280508437E+01  0.89950740158E+01 -0.32023756784E+01  0.13278685511E+02  0.00000000000E+00 0.  1.
</event>
<event>
 7    1  0.1381607E-011  0.5052886E+02  0.7816164E-02  0.1300439E+00
        -11   -1    0    0    0    0  0.00000000000E+00  0.00000000000E+00  0.45593999997E+02  0.45594000000E+02  0.51100000000E-03 0. -1.
         11   -1    0    0    0    0 -0.00000000000E+00 -0.00000000000E+00 -0.45593999997E+02  0.45594000000E+02  0.51100000000E-03 0.  1.
    9900012    2    1    2    0    0 -0.87761546280E+01  0.39659180025E+02  0.18149272937E+01  0.50528863125E+02  0.30000009955E+02 0.  0.
         12    1    1    2    0    0  0.87761546280E+01 -0.39659180025E+02 -0.18149272937E+01  0.40659136875E+02  0.00000000000E+00 0. -1.
         11    1    3    3    0    0 -0.28944260852E+01  0.11123319509E+02 -0.89896108928E+01  0.14591745733E+02  0.51100000000E-03 0. -1.
        -11    1    3    3    0    0  0.20079437043E+01  0.21333252839E+02  0.10220553230E+01  0.21451902293E+02  0.51100000000E-03 0.  1.
         12    1    3    3    0    0 -0.78896722471E+01  0.72026076771E+01  0.97824828635E+01  0.14485215100E+02  0.00000000000E+00 0. -1.
</event>
<event>
 7    1  0.1381607E-011  0.5052886E+02  0.7816164E-02  0.1300439E+00
        -11   -1    0    0    0    0  0.00000000000E+00  0.00000000000E+00  0.45593999997E+02  0.45594000000E+02  0.51100000000E-03 0. -1.
         11   -1    0    0    0    0 -0.00000000000E+00 -0.00000000000E+00 -0.45593999997E+02  0.45594000000E+02  0.51100000000E-03 0.  1.
    9900012    2    1    2    0    0 -0.63322202932E+01 -0.39948238199E+02  0.41481253837E+01  0.50528859659E+02  0.29999999421E+02 0.  0.
         12    1    1    2    0    0  0.63322202932E+01  0.39948238199E+02 -0.41481253837E+01  0.40659140341E+02  0.00000000000E+00 0. -1.
         11    1    3    3    0    0  0.33492022175E+01 -0.33518962392E+01  0.62059428598E+01  0.78080785686E+01  0.51100000000E-03 0. -1.
        -11    1    3    3    0    0  0.47439752582E+01 -0.96896333849E+01 -0.52986049987E+01  0.12019547062E+02  0.51100000000E-03 0.  1.
        -12    1    3    3    0    0 -0.14425397769E+02 -0.26906708575E+02  0.32407875226E+01  0.30701234029E+02  0.00000000000E+00 0.  1.
</event>
<event>
 7    1  0.1381607E-011  0.5052887E+02  0.7816164E-02  0.1300439E+00
        -11   -1    0    0    0    0  0.00000000000E+00  0.00000000000E+00  0.45593999997E+02  0.45594000000E+02  0.51100000000E-03 0.  1.
         11   -1    0    0    0    0 -0.00000000000E+00 -0.00000000000E+00 -0.45593999997E+02  0.45594000000E+02  0.51100000000E-03 0. -1.
    9900012    2    1    2    0    0 -0.30867829424E+02  0.63509867696E+01  0.25690604480E+02  0.50528867141E+02  0.30000022162E+02 0.  0.
         12    1    1    2    0    0  0.30867829424E+02 -0.63509867696E+01 -0.25690604480E+02  0.40659132859E+02  0.00000000000E+00 0. -1.
         11    1    3    3    0    0 -0.15675335859E+02 -0.56829033595E+01  0.12818448592E+02  0.21031504213E+02  0.51100000000E-03 0. -1.
        -11    1    3    3    0    0 -0.40059263233E+01  0.46769637267E+01  0.14743890119E+02  0.15978226795E+02  0.51100000000E-03 0.  1.
         12    1    3    3    0    0 -0.11186567242E+02  0.73569264024E+01 -0.18717342316E+01  0.13519136133E+02  0.00000000000E+00 0. -1.
</event>
<event>
 7    1  0.1381607E-011  0.5052886E+02  0.7816164E-02  0.1300439E+00
        -11   -1    0    0    0    0  0.00000000000E+00  0.00000000000E+00  0.45593999997E+02  0.45594000000E+02  0.51100000000E-03 0.  1.
         11   -1    0    0    0    0 -0.00000000000E+00 -0.00000000000E+00 -0.45593999997E+02  0.45594000000E+02  0.51100000000E-03 0. -1.
    9900012    2    1    2    0    0 -0.10998960281E+02 -0.38888595037E+02 -0.44570941001E+01  0.50528860326E+02  0.30000001448E+02 0.  0.
         12    1    1    2    0    0  0.10998960281E+02  0.38888595037E+02  0.44570941001E+01  0.40659139674E+02  0.00000000000E+00 0. -1.
         11    1    3    3    0    0  0.63722125242E+01 -0.72079488846E+01 -0.11079249678E+01  0.96843749190E+01  0.51100000000E-03 0. -1.
        -11    1    3    3    0    0 -0.26557907557E+01 -0.10611532549E+02 -0.94223628981E+01  0.14437408715E+02  0.51100000000E-03 0.  1.
        -12    1    3    3    0    0 -0.14715382050E+02 -0.21069113603E+02  0.60731937659E+01  0.26407076692E+02  0.00000000000E+00 0.  1.
</event>
<event>
 7    1  0.1381607E-011  0.5052886E+02  0.7816164E-02  0.1300439E+00
        -11   -1    0    0    0    0  0.00000000000E+00  0.00000000000E+00  0.45593999997E+02  0.45594000000E+02  0.51100000000E-03 0.  1.
         11   -1    0    0    0    0 -0.00000000000E+00 -0.00000000000E+00 -0.45593999997E+02  0.45594000000E+02  0.51100000000E-03 0. -1.
    9900012    2    1    2    0    0 -0.70252385721E+01 -0.34566684438E+02  0.20222655364E+02  0.50528862773E+02  0.30000008885E+02 0.  0.
         12    1    1    2    0    0  0.70252385721E+01  0.34566684438E+02 -0.20222655364E+02  0.40659137227E+02  0.00000000000E+00 0. -1.
         11    1    3    3    0    0  0.60431278660E+01 -0.22823116875E+02  0.53545239422E+01  0.24209192163E+02  0.51100000000E-03 0. -1.
        -11    1    3    3    0    0 -0.59043653079E+01 -0.12966875666E+02  0.11497947191E+02  0.18308582253E+02  0.51100000000E-03 0.  1.
         12    1    3    3    0    0 -0.71640011302E+01  0.12233081031E+01  0.33701842308E+01  0.80110883567E+01  0.00000000000E+00 0. -1.
</event>
<event>
 7    1  0.1381607E-011  0.5052886E+02  0.7816164E-02  0.1300439E+00
        -11   -1    0    0    0    0  0.00000000000E+00  0.00000000000E+00  0.45593999997E+02  0.45594000000E+02  0.51100000000E-03 0.  1.
         11   -1    0    0    0    0 -0.00000000000E+00 -0.00000000000E+00 -0.45593999997E+02  0.45594000000E+02  0.51100000000E-03 0. -1.
    9900012    2    1    2    0    0  0.27775771933E+02 -0.17386008667E+02  0.24070706275E+02  0.50528859522E+02  0.29999999003E+02 0.  0.
         12    1    1    2    0    0 -0.27775771933E+02  0.17386008667E+02 -0.24070706275E+02  0.40659140478E+02  0.00000000000E+00 0. -1.
         11    1    3    3    0    0 -0.49828984221E-01  0.51559548486E+01  0.71266853396E+00  0.52052137352E+01  0.51100000000E-03 0. -1.
        -11    1    3    3    0    0  0.10928420906E+02 -0.59916697850E+01  0.16536938637E+02  0.20707506611E+02  0.51100000000E-03 0.  1.
        -12    1    3    3    0    0  0.16897180011E+02 -0.16550293731E+02  0.68210991037E+01  0.24616139175E+02  0.00000000000E+00 0.  1.
</event>
<event>
 7    1  0.1381607E-011  0.5052886E+02  0.7816164E-02  0.1300439E+00
        -11   -1    0    0    0    0  0.00000000000E+00  0.00000000000E+00  0.45593999997E+02  0.45594000000E+02  0.51100000000E-03 0. -1.
         11   -1    0    0    0    0 -0.00000000000E+00 -0.00000000000E+00 -0.45593999997E+02  0.45594000000E+02  0.51100000000E-03 0.  1.
    9900012    2    1    2    0    0  0.20504140298E+02  0.42212499082E+01 -0.34855804753E+02  0.50528857792E+02  0.29999993743E+02 0.  0.
         12    1    1    2    0    0 -0.20504140298E+02 -0.42212499082E+01  0.34855804753E+02  0.40659142208E+02  0.00000000000E+00 0. -1.
         11    1    3    3    0    0 -0.89536230705E+00  0.26202641993E+01 -0.82279907839E+01  0.86814336798E+01  0.51100000000E-03 0. -1.
        -11    1    3    3    0    0  0.16865737737E+02  0.44334138757E+01 -0.30577539983E+02  0.35200770157E+02  0.51100000000E-03 0.  1.
         12    1    3    3    0    0  0.45337648685E+01 -0.28324281669E+01  0.39497260141E+01  0.66466539544E+01  0.00000000000E+00 0. -1.
</event>
<event>
 7    1  0.1381607E-011  0.5052887E+02  0.7816164E-02  0.1300439E+00
        -11   -1    0    0    0    0  0.00000000000E+00  0.00000000000E+00  0.45593999997E+02  0.45594000000E+02  0.51100000000E-03 0. -1.
         11   -1    0    0    0    0 -0.00000000000E+00 -0.00000000000E+00 -0.45593999997E+02  0.45594000000E+02  0.51100000000E-03 0.  1.
    9900012    2    1    2    0    0  0.25774410740E+02  0.26289393420E+02 -0.17254355389E+02  0.50528865291E+02  0.30000016538E+02 0.  0.
         12    1    1    2    0    0 -0.25774410740E+02 -0.26289393420E+02  0.17254355389E+02  0.40659134709E+02  0.00000000000E+00 0. -1.
         11    1    3    3    0    0  0.14870577041E+02  0.99706559040E+00  0.16863737256E+00  0.14904919998E+02  0.51100000000E-03 0. -1.
        -11    1    3    3    0    0  0.71685106461E+01  0.31396435256E+01 -0.82113363088E+01  0.11343321850E+02  0.51100000000E-03 0.  1.
         12    1    3    3    0    0  0.37353230537E+01  0.22152684304E+02 -0.92116564525E+01  0.24280623443E+02  0.00000000000E+00 0. -1.
</event>
<event>
 7    1  0.1381607E-011  0.5052886E+02  0.7816164E-02  0.1300439E+00
        -11   -1    0    0    0    0  0.00000000000E+00  0.00000000000E+00  0.45593999997E+02  0.45594000000E+02  0.51100000000E-03 0.  1.
         11   -1    0    0    0    0 -0.00000000000E+00 -0.00000000000E+00 -0.45593999997E+02  0.45594000000E+02  0.51100000000E-03 0. -1.
    9900012    2    1    2    0    0  0.12684537843E+02 -0.36538280264E+02  0.12538823118E+02  0.50528861911E+02  0.30000006266E+02 0.  0.
         12    1    1    2    0    0 -0.12684537843E+02  0.36538280264E+02 -0.12538823118E+02  0.40659138089E+02  0.00000000000E+00 0. -1.
         11    1    3    3    0    0  0.36305815662E+01 -0.57972928580E+00 -0.59675297266E+01  0.70091811114E+01  0.51100000000E-03 0. -1.
        -11    1    3    3    0    0 -0.23720476694E+01 -0.15402088513E+02  0.99690803849E+01  0.18499554176E+02  0.51100000000E-03 0.  1.
        -12    1    3    3    0    0  0.11426003946E+02 -0.20556462465E+02  0.85372724593E+01  0.25020126624E+02  0.00000000000E+00 0.  1.
</event>
<event>
 7    1  0.1381607E-011  0.5052877E+02  0.7816164E-02  0.1300439E+00
        -11   -1    0    0    0    0  0.00000000000E+00  0.00000000000E+00  0.45593999997E+02  0.45594000000E+02  0.51100000000E-03 0. -1.
         11   -1    0    0    0    0 -0.00000000000E+00 -0.00000000000E+00 -0.45593999997E+02  0.45594000000E+02  0.51100000000E-03 0.  1.
    9900012    2    1    2    0    0 -0.39090999855E+02 -0.10697627012E+02  0.32600148459E+01  0.50528767468E+02  0.29999719193E+02 0.  0.
         12    1    1    2    0    0  0.39090999855E+02  0.10697627012E+02 -0.32600148459E+01  0.40659232532E+02  0.00000000000E+00 0. -1.
         11    1    3    3    0    0 -0.12000670020E+02  0.17312614140E+01 -0.40832207567E+01  0.12793984485E+02  0.51100000000E-03 0. -1.
        -11    1    3    3    0    0 -0.87334449046E+01 -0.12195205589E+02 -0.47702187018E+01  0.15740110736E+02  0.51100000000E-03 0.  1.
         12    1    3    3    0    0 -0.18356884930E+02 -0.23368283730E+00  0.12113454304E+02  0.21994672246E+02  0.00000000000E+00 0. -1.
</event>
<event>
 7    1  0.1381607E-011  0.5052887E+02  0.7816164E-02  0.1300439E+00
        -11   -1    0    0    0    0  0.00000000000E+00  0.00000000000E+00  0.45593999997E+02  0.45594000000E+02  0.51100000000E-03 0.  1.
         11   -1    0    0    0    0 -0.00000000000E+00 -0.00000000000E+00 -0.45593999997E+02  0.45594000000E+02  0.51100000000E-03 0. -1.
    9900012    2    1    2    0    0  0.32704005302E+02  0.35123652305E+01 -0.23901383570E+02  0.50528870535E+02  0.30000032478E+02 0.  0.
         12    1    1    2    0    0 -0.32704005302E+02 -0.35123652305E+01  0.23901383570E+02  0.40659129465E+02  0.00000000000E+00 0. -1.
         11    1    3    3    0    0  0.12233050209E+02  0.34624432371E+01 -0.99619259148E+01  0.16151656224E+02  0.51100000000E-03 0. -1.
        -11    1    3    3    0    0  0.53189837637E+01  0.11336476370E+02 -0.59456997773E+01  0.13862129377E+02  0.51100000000E-03 0.  1.
         12    1    3    3    0    0  0.15151971329E+02 -0.11286554376E+02 -0.79937578780E+01  0.20515084934E+02  0.00000000000E+00 0. -1.
</event>
<event>
 7    1  0.1381607E-011  0.5052886E+02  0.7816164E-02  0.1300439E+00
        -11   -1    0    0    0    0  0.00000000000E+00  0.00000000000E+00  0.45593999997E+02  0.45594000000E+02  0.51100000000E-03 0.  1.
         11   -1    0    0    0    0 -0.00000000000E+00 -0.00000000000E+00 -0.45593999997E+02  0.45594000000E+02  0.51100000000E-03 0. -1.
    9900012    2    1    2    0    0  0.11559512023E+02 -0.13286592276E+02  0.36647098064E+02  0.50528860203E+02  0.30000001073E+02 0.  0.
         12    1    1    2    0    0 -0.11559512023E+02  0.13286592276E+02 -0.36647098064E+02  0.40659139797E+02  0.00000000000E+00 0. -1.
         11    1    3    3    0    0  0.28372207696E+01 -0.57862239772E+01  0.13179108798E+02  0.14670348278E+02  0.51100000000E-03 0. -1.
        -11    1    3    3    0    0  0.29552831569E+01 -0.15055233747E+02  0.70431054122E+01  0.16881916237E+02  0.51100000000E-03 0.  1.
         12    1    3    3    0    0  0.57670080966E+01  0.75548654484E+01  0.16424883853E+02  0.18976595688E+02  0.00000000000E+00 0. -1.
</event>
<event>
 7    1  0.1381607E-011  0.5052887E+02  0.7816164E-02  0.1300439E+00
        -11   -1    0    0    0    0  0.00000000000E+00  0.00000000000E+00  0.45593999997E+02  0.45594000000E+02  0.51100000000E-03 0.  1.
         11   -1    0    0    0    0 -0.00000000000E+00 -0.00000000000E+00 -0.45593999997E+02  0.45594000000E+02  0.51100000000E-03 0. -1.
    9900012    2    1    2    0    0  0.23772256493E+02  0.23665741529E+01  0.32900516514E+02  0.50528870166E+02  0.30000031357E+02 0.  0.
         12    1    1    2    0    0 -0.23772256493E+02 -0.23665741529E+01 -0.32900516514E+02  0.40659129834E+02  0.00000000000E+00 0. -1.
         11    1    3    3    0    0  0.85760981955E+00 -0.65142977170E+01  0.47456978670E+01  0.81051352768E+01  0.51100000000E-03 0. -1.
        -11    1    3    3    0    0  0.18468390903E+02 -0.30932457916E+01  0.14162598446E+02  0.23478262863E+02  0.51100000000E-03 0.  1.
        -12    1    3    3    0    0  0.44462557705E+01  0.11974117661E+02  0.13992220200E+02  0.18945472026E+02  0.00000000000E+00 0.  1.
</event>
<event>
 7    1  0.1381607E-011  0.5052886E+02  0.7816164E-02  0.1300439E+00
        -11   -1    0    0    0    0  0.00000000000E+00  0.00000000000E+00  0.45593999997E+02  0.45594000000E+02  0.51100000000E-03 0. -1.
         11   -1    0    0    0    0 -0.00000000000E+00 -0.00000000000E+00 -0.45593999997E+02  0.45594000000E+02  0.51100000000E-03 0.  1.
    9900012    2    1    2    0    0  0.16202233524E+02  0.33224089021E+02  0.16935562613E+02  0.50528859041E+02  0.29999997541E+02 0.  0.
         12    1    1    2    0    0 -0.16202233524E+02 -0.33224089021E+02 -0.16935562613E+02  0.40659140959E+02  0.00000000000E+00 0. -1.
         11    1    3    3    0    0  0.13076031011E+02  0.22578333619E+02  0.13837654814E+02  0.29533784502E+02  0.51100000000E-03 0. -1.
        -11    1    3    3    0    0 -0.19937672881E+01  0.14035269150E+02  0.13380436849E+00  0.14176804717E+02  0.51100000000E-03 0.  1.
         12    1    3    3    0    0  0.51199698011E+01 -0.33895137478E+01  0.29641034311E+01  0.68182698217E+01  0.00000000000E+00 0. -1.
</event>
<event>
 7    1  0.1381607E-011  0.5052889E+02  0.7816164E-02  0.1300439E+00
        -11   -1    0    0    0    0  0.00000000000E+00  0.00000000000E+00  0.45593999997E+02  0.45594000000E+02  0.51100000000E-03 0.  1.
         11   -1    0    0    0    0 -0.00000000000E+00 -0.00000000000E+00 -0.45593999997E+02  0.45594000000E+02  0.51100000000E-03 0. -1.
    9900012    2    1    2    0    0 -0.33599979088E+02  0.18532837002E+02  0.13443903589E+02  0.50528890495E+02  0.30000093147E+02 0.  0.
         12    1    1    2    0    0  0.33599979088E+02 -0.18532837002E+02 -0.13443903589E+02  0.40659109505E+02  0.00000000000E+00 0. -1.
         11    1    3    3    0    0  0.11406303359E+01  0.53546931735E+00  0.46359278159E+01  0.48041223890E+01  0.51100000000E-03 0. -1.
        -11    1    3    3    0    0 -0.24306952554E+02  0.21330743906E+02  0.11709273271E+02  0.34393831697E+02  0.51100000000E-03 0.  1.
        -12    1    3    3    0    0 -0.10433656870E+02 -0.33333762212E+01 -0.29012974978E+01  0.11330936408E+02  0.00000000000E+00 0.  1.
</event>
<event>
 7    1  0.1381607E-011  0.5052886E+02  0.7816164E-02  0.1300439E+00
        -11   -1    0    0    0    0  0.00000000000E+00  0.00000000000E+00  0.45593999997E+02  0.45594000000E+02  0.51100000000E-03 0.  1.
         11   -1    0    0    0    0 -0.00000000000E+00 -0.00000000000E+00 -0.45593999997E+02  0.45594000000E+02  0.51100000000E-03 0. -1.
    9900012    2    1    2    0    0 -0.25023956042E+02 -0.27392497317E+01  0.31929039388E+02  0.50528863003E+02  0.30000009584E+02 0.  0.
         12    1    1    2    0    0  0.25023956042E+02  0.27392497317E+01 -0.31929039388E+02  0.40659136997E+02  0.00000000000E+00 0. -1.
         11    1    3    3    0    0 -0.98989187143E+01 -0.94658013882E+01  0.36658631466E+01  0.14178453389E+02  0.51100000000E-03 0. -1.
        -11    1    3    3    0    0 -0.78793296790E+01 -0.29637486654E+01  0.19996881174E+02  0.21696610318E+02  0.51100000000E-03 0.  1.
         12    1    3    3    0    0 -0.72457076490E+01  0.96903003220E+01  0.82662950678E+01  0.14653799296E+02  0.00000000000E+00 0. -1.
</event>
<event>
 7    1  0.1381607E-011  0.5052886E+02  0.7816164E-02  0.1300439E+00
        -11   -1    0    0    0    0  0.00000000000E+00  0.00000000000E+00  0.45593999997E+02  0.45594000000E+02  0.51100000000E-03 0. -1.
         11   -1    0    0    0    0 -0.00000000000E+00 -0.00000000000E+00 -0.45593999997E+02  0.45594000000E+02  0.51100000000E-03 0.  1.
    9900012    2    1    2    0    0 -0.21531858598E+02 -0.34281321818E+02  0.37862763306E+01  0.50528857748E+02  0.29999993610E+02 0.  0.
         12    1    1    2    0    0  0.21531858598E+02  0.34281321818E+02 -0.37862763306E+01  0.40659142252E+02  0.00000000000E+00 0. -1.
         11    1    3    3    0    0 -0.11552389705E+02 -0.12087985673E+02  0.22574244022E+01  0.16872257428E+02  0.51100000000E-03 0. -1.
        -11    1    3    3    0    0 -0.17155315843E+01 -0.18254514286E+02 -0.83860087589E+01  0.20161733150E+02  0.51100000000E-03 0.  1.
         12    1    3    3    0    0 -0.82639373088E+01 -0.39388218584E+01  0.99148606873E+01  0.13494867170E+02  0.00000000000E+00 0. -1.
</event>
<event>
 7    1  0.1381607E-011  0.5052886E+02  0.7816164E-02  0.1300439E+00
        -11   -1    0    0    0    0  0.00000000000E+00  0.00000000000E+00  0.45593999997E+02  0.45594000000E+02  0.51100000000E-03 0.  1.
         11   -1    0    0    0    0 -0.00000000000E+00 -0.00000000000E+00 -0.45593999997E+02  0.45594000000E+02  0.51100000000E-03 0. -1.
    9900012    2    1    2    0    0  0.15107391703E+02  0.18248534262E+02  0.33044260572E+02  0.50528862730E+02  0.30000008754E+02 0.  0.
         12    1    1    2    0    0 -0.15107391703E+02 -0.18248534262E+02 -0.33044260572E+02  0.40659137270E+02  0.00000000000E+00 0. -1.
         11    1    3    3    0    0  0.19697265647E+01  0.15097108524E+02  0.14895703799E+02  0.21299870902E+02  0.51100000000E-03 0. -1.
        -11    1    3    3    0    0  0.11108333394E+02  0.94361572121E+01  0.17219274906E+02  0.22559688878E+02  0.51100000000E-03 0.  1.
         12    1    3    3    0    0  0.20293317443E+01 -0.62847314749E+01  0.92928186706E+00  0.66693029492E+01  0.00000000000E+00 0. -1.
</event>
<event>
 7    1  0.1381607E-011  0.5052890E+02  0.7816164E-02  0.1300439E+00
        -11   -1    0    0    0    0  0.00000000000E+00  0.00000000000E+00  0.45593999997E+02  0.45594000000E+02  0.51100000000E-03 0.  1.
         11   -1    0    0    0    0 -0.00000000000E+00 -0.00000000000E+00 -0.45593999997E+02  0.45594000000E+02  0.51100000000E-03 0. -1.
    9900012    2    1    2    0    0 -0.30601657242E+02 -0.25447834995E+02  0.83131845021E+01  0.50528895626E+02  0.30000108746E+02 0.  0.
         12    1    1    2    0    0  0.30601657242E+02  0.25447834995E+02 -0.83131845021E+01  0.40659104374E+02  0.00000000000E+00 0. -1.
         11    1    3    3    0    0  0.15010653707E+01 -0.15958628262E+01  0.59984159306E+01  0.63859979130E+01  0.51100000000E-03 0. -1.
        -11    1    3    3    0    0 -0.31501781232E+01 -0.12508439325E+02  0.19481891352E+01  0.13045310182E+02  0.51100000000E-03 0.  1.
        -12    1    3    3    0    0 -0.28952544490E+02 -0.11343532843E+02  0.36657943624E+00  0.31097587532E+02  0.00000000000E+00 0.  1.
</event>
<event>
 7    1  0.1381607E-011  0.5052886E+02  0.7816164E-02  0.1300439E+00
        -11   -1    0    0    0    0  0.00000000000E+00  0.00000000000E+00  0.45593999997E+02  0.45594000000E+02  0.51100000000E-03 0.  1.
         11   -1    0    0    0    0 -0.00000000000E+00 -0.00000000000E+00 -0.45593999997E+02  0.45594000000E+02  0.51100000000E-03 0. -1.
    9900012    2    1    2    0    0 -0.22166957071E+02  0.17728878388E+02  0.29111479837E+02  0.50528863597E+02  0.30000011391E+02 0.  0.
         12    1    1    2    0    0  0.22166957071E+02 -0.17728878388E+02 -0.29111479837E+02  0.40659136403E+02  0.00000000000E+00 0. -1.
         11    1    3    3    0    0 -0.47746730884E+00  0.10373149211E+02  0.14414676906E+01  0.10483703017E+02  0.51100000000E-03 0. -1.
        -11    1    3    3    0    0 -0.44229126057E+01 -0.57611884512E+01  0.67992602530E+01  0.99490395787E+01  0.51100000000E-03 0.  1.
        -12    1    3    3    0    0 -0.17266577156E+02  0.13116917629E+02  0.20870751894E+02  0.30096121002E+02  0.00000000000E+00 0.  1.
</event>
<event>
 7    1  0.1381607E-011  0.5052886E+02  0.7816164E-02  0.1300439E+00
        -11   -1    0    0    0    0  0.00000000000E+00  0.00000000000E+00  0.45593999997E+02  0.45594000000E+02  0.51100000000E-03 0. -1.
         11   -1    0    0    0    0 -0.00000000000E+00 -0.00000000000E+00 -0.45593999997E+02  0.45594000000E+02  0.51100000000E-03 0.  1.
    9900012    2    1    2    0    0  0.25995123610E+01 -0.39527274631E+02 -0.91653080317E+01  0.50528858647E+02  0.29999996343E+02 0.  0.
         12    1    1    2    0    0 -0.25995123610E+01  0.39527274631E+02  0.91653080317E+01  0.40659141353E+02  0.00000000000E+00 0. -1.
         11    1    3    3    0    0  0.24096539327E+01 -0.15216670455E+02 -0.12299330831E+02  0.19713625515E+02  0.51100000000E-03 0. -1.
        -11    1    3    3    0    0 -0.58119876286E+01 -0.23837032121E+02  0.15212675313E+01  0.24582464394E+02  0.51100000000E-03 0.  1.
         12    1    3    3    0    0  0.60018460569E+01 -0.47357205547E+00  0.16127552680E+01  0.62327687377E+01  0.00000000000E+00 0. -1.
</event>
<event>
 7    1  0.1381607E-011  0.5052884E+02  0.7816164E-02  0.1300439E+00
        -11   -1    0    0    0    0  0.00000000000E+00  0.00000000000E+00  0.45593999997E+02  0.45594000000E+02  0.51100000000E-03 0.  1.
         11   -1    0    0    0    0 -0.00000000000E+00 -0.00000000000E+00 -0.45593999997E+02  0.45594000000E+02  0.51100000000E-03 0. -1.
    9900012    2    1    2    0    0 -0.29384162456E+02  0.27464684371E+02 -0.59522594219E+01  0.50528840109E+02  0.29999939994E+02 0.  0.
         12    1    1    2    0    0  0.29384162456E+02 -0.27464684371E+02  0.59522594219E+01  0.40659159891E+02  0.00000000000E+00 0. -1.
         11    1    3    3    0    0 -0.34749831887E+00  0.10150308570E+01  0.49906577305E+01  0.51046750697E+01  0.51100000000E-03 0. -1.
        -11    1    3    3    0    0 -0.22718409253E+02  0.12478150827E+02  0.10750865450E+01  0.25941977149E+02  0.51100000000E-03 0.  1.
         12    1    3    3    0    0 -0.63182548842E+01  0.13971502687E+02 -0.12018003697E+02  0.19482187890E+02  0.00000000000E+00 0. -1.
</event>
<event>
 7    1  0.1381607E-011  0.5052886E+02  0.7816164E-02  0.1300439E+00
        -11   -1    0    0    0    0  0.00000000000E+00  0.00000000000E+00  0.45593999997E+02  0.45594000000E+02  0.51100000000E-03 0.  1.
         11   -1    0    0    0    0 -0.00000000000E+00 -0.00000000000E+00 -0.45593999997E+02  0.45594000000E+02  0.51100000000E-03 0. -1.
    9900012    2    1    2    0    0  0.32980445943E+02  0.23437497741E+02  0.40173836553E+01  0.50528862203E+02  0.30000007153E+02 0.  0.
         12    1    1    2    0    0 -0.32980445943E+02 -0.23437497741E+02 -0.40173836553E+01  0.40659137797E+02  0.00000000000E+00 0. -1.
         11    1    3    3    0    0  0.22631506258E+02  0.89956841279E+01 -0.97781818184E+01  0.26243480112E+02  0.51100000000E-03 0. -1.
        -11    1    3    3    0    0  0.23208509056E+01 -0.89765093058E+00  0.29338702235E+01  0.38470405338E+01  0.51100000000E-03 0.  1.
        -12    1    3    3    0    0  0.80280887789E+01  0.15339464543E+02  0.10861695250E+02  0.20438341558E+02  0.00000000000E+00 0.  1.
</event>
<event>
 7    1  0.1381607E-011  0.5052886E+02  0.7816164E-02  0.1300439E+00
        -11   -1    0    0    0    0  0.00000000000E+00  0.00000000000E+00  0.45593999997E+02  0.45594000000E+02  0.51100000000E-03 0.  1.
         11   -1    0    0    0    0 -0.00000000000E+00 -0.00000000000E+00 -0.45593999997E+02  0.45594000000E+02  0.51100000000E-03 0. -1.
    9900012    2    1    2    0    0 -0.27106299830E+02 -0.13333413573E+02  0.27214593615E+02  0.50528861868E+02  0.30000006135E+02 0.  0.
         12    1    1    2    0    0  0.27106299830E+02  0.13333413573E+02 -0.27214593615E+02  0.40659138132E+02  0.00000000000E+00 0. -1.
         11    1    3    3    0    0 -0.15782951072E+02 -0.15874958221E+02  0.13675176171E+02  0.26232161303E+02  0.51100000000E-03 0. -1.
        -11    1    3    3    0    0 -0.14953321213E+02  0.16985320705E+00  0.71519812326E+01  0.16576534656E+02  0.51100000000E-03 0.  1.
         12    1    3    3    0    0  0.36299724540E+01  0.23716914411E+01  0.63874362110E+01  0.77201659088E+01  0.00000000000E+00 0. -1.
</event>
<event>
 7    1  0.1381607E-011  0.5052886E+02  0.7816164E-02  0.1300439E+00
        -11   -1    0    0    0    0  0.00000000000E+00  0.00000000000E+00  0.45593999997E+02  0.45594000000E+02  0.51100000000E-03 0. -1.
         11   -1    0    0    0    0 -0.00000000000E+00 -0.00000000000E+00 -0.45593999997E+02  0.45594000000E+02  0.51100000000E-03 0.  1.
    9900012    2    1    2    0    0  0.49115191898E+01 -0.38688718779E+02 -0.11498929666E+02  0.50528863696E+02  0.30000011690E+02 0.  0.
         12    1    1    2    0    0 -0.49115191898E+01  0.38688718779E+02  0.11498929666E+02  0.40659136304E+02  0.00000000000E+00 0. -1.
         11    1    3    3    0    0 -0.55685399370E+00 -0.10619923820E+01  0.28080500285E+01  0.30533685354E+01  0.51100000000E-03 0. -1.
        -11    1    3    3    0    0 -0.22378916062E+01 -0.16957071979E+02  0.53575914445E+01  0.17923566478E+02  0.51100000000E-03 0.  1.
         12    1    3    3    0    0  0.77062647897E+01 -0.20669654418E+02 -0.19664571139E+02  0.29551928682E+02  0.00000000000E+00 0. -1.
</event>
<event>
 7    1  0.1381607E-011  0.5052885E+02  0.7816164E-02  0.1300439E+00
        -11   -1    0    0    0    0  0.00000000000E+00  0.00000000000E+00  0.45593999997E+02  0.45594000000E+02  0.51100000000E-03 0.  1.
         11   -1    0    0    0    0 -0.00000000000E+00 -0.00000000000E+00 -0.45593999997E+02  0.45594000000E+02  0.51100000000E-03 0. -1.
    9900012    2    1    2    0    0 -0.21341260969E+01 -0.22769826239E+02  0.33617657086E+02  0.50528851594E+02  0.29999974904E+02 0.  0.
         12    1    1    2    0    0  0.21341260969E+01  0.22769826239E+02 -0.33617657086E+02  0.40659148406E+02  0.00000000000E+00 0. -1.
         11    1    3    3    0    0 -0.23295597810E+01  0.66309792115E+01  0.26167675210E+01  0.74996137632E+01  0.51100000000E-03 0. -1.
        -11    1    3    3    0    0  0.94871163072E+00 -0.31260029298E+01  0.55571499006E+01  0.64462286148E+01  0.51100000000E-03 0.  1.
        -12    1    3    3    0    0 -0.75327794661E+00 -0.26274802521E+02  0.25443739665E+02  0.36583009216E+02  0.00000000000E+00 0.  1.
</event>
<event>
 7    1  0.1381607E-011  0.5052886E+02  0.7816164E-02  0.1300439E+00
        -11   -1    0    0    0    0  0.00000000000E+00  0.00000000000E+00  0.45593999997E+02  0.45594000000E+02  0.51100000000E-03 0. -1.
         11   -1    0    0    0    0 -0.00000000000E+00 -0.00000000000E+00 -0.45593999997E+02  0.45594000000E+02  0.51100000000E-03 0.  1.
    9900012    2    1    2    0    0  0.52540776563E+00  0.35111450456E+02 -0.20495748403E+02  0.50528859465E+02  0.29999998831E+02 0.  0.
         12    1    1    2    0    0 -0.52540776563E+00 -0.35111450456E+02  0.20495748403E+02  0.40659140535E+02  0.00000000000E+00 0. -1.
         11    1    3    3    0    0  0.14323847946E+01  0.19922853712E+02 -0.30415746095E+01  0.20204529260E+02  0.51100000000E-03 0. -1.
        -11    1    3    3    0    0 -0.78254960396E+01  0.10000630536E+02 -0.23416371309E+01  0.12912562259E+02  0.51100000000E-03 0.  1.
         12    1    3    3    0    0  0.69185190106E+01  0.51879662079E+01 -0.15112536662E+02  0.17411767947E+02  0.00000000000E+00 0. -1.
</event>
<event>
 7    1  0.1381607E-011  0.5052886E+02  0.7816164E-02  0.1300439E+00
        -11   -1    0    0    0    0  0.00000000000E+00  0.00000000000E+00  0.45593999997E+02  0.45594000000E+02  0.51100000000E-03 0.  1.
         11   -1    0    0    0    0 -0.00000000000E+00 -0.00000000000E+00 -0.45593999997E+02  0.45594000000E+02  0.51100000000E-03 0. -1.
    9900012    2    1    2    0    0  0.37059267571E+02  0.10653497015E+02  0.12894932908E+02  0.50528860729E+02  0.30000002671E+02 0.  0.
         12    1    1    2    0    0 -0.37059267571E+02 -0.10653497015E+02 -0.12894932908E+02  0.40659139271E+02  0.00000000000E+00 0. -1.
         11    1    3    3    0    0  0.13126998958E+02  0.67729477488E+01  0.82800014749E+00  0.14794475569E+02  0.51100000000E-03 0. -1.
        -11    1    3    3    0    0  0.22031789152E+02  0.53934246275E+01  0.18236219872E+02  0.29104097270E+02  0.51100000000E-03 0.  1.
         12    1    3    3    0    0  0.19004794617E+01 -0.15128753613E+01 -0.61692871110E+01  0.66302878898E+01  0.00000000000E+00 0. -1.
</event>
<event>
 7    1  0.1381607E-011  0.5052887E+02  0.7816164E-02  0.1300439E+00
        -11   -1    0    0    0    0  0.00000000000E+00  0.00000000000E+00  0.45593999997E+02  0.45594000000E+02  0.51100000000E-03 0. -1.
         11   -1    0    0    0    0 -0.00000000000E+00 -0.00000000000E+00 -0.45593999997E+02  0.45594000000E+02  0.51100000000E-03 0.  1.
    9900012    2    1    2    0    0  0.17896027641E+01 -0.37754612595E+01 -0.40443891056E+02  0.50528866838E+02  0.30000021240E+02 0.  0.
         12    1    1    2    0    0 -0.17896027641E+01  0.37754612595E+01  0.40443891056E+02  0.40659133162E+02  0.00000000000E+00 0. -1.
         11    1    3    3    0    0  0.53649274625E+01 -0.16893820008E+01 -0.98035732320E+01  0.11302500015E+02  0.51100000000E-03 0. -1.
        -11    1    3    3    0    0 -0.14334559503E+01  0.61877675207E+01 -0.29989823182E+02  0.30655060881E+02  0.51100000000E-03 0.  1.
        -12    1    3    3    0    0 -0.21418687480E+01 -0.82738467794E+01 -0.65049464168E+00  0.85713059415E+01  0.00000000000E+00 0.  1.
</event>
<event>
 7    1  0.1381607E-011  0.5052886E+02  0.7816164E-02  0.1300439E+00
        -11   -1    0    0    0    0  0.00000000000E+00  0.00000000000E+00  0.45593999997E+02  0.45594000000E+02  0.51100000000E-03 0. -1.
         11   -1    0    0    0    0 -0.00000000000E+00 -0.00000000000E+00 -0.45593999997E+02  0.45594000000E+02  0.51100000000E-03 0.  1.
    9900012    2    1    2    0    0 -0.20683099207E+02 -0.11846315055E+02 -0.32939948884E+02  0.50528855818E+02  0.29999987743E+02 0.  0.
         12    1    1    2    0    0  0.20683099207E+02  0.11846315055E+02  0.32939948884E+02  0.40659144182E+02  0.00000000000E+00 0. -1.
         11    1    3    3    0    0 -0.14534497843E+01 -0.72743524940E+01 -0.67231338495E+01  0.10011455913E+02  0.51100000000E-03 0. -1.
        -11    1    3    3    0    0 -0.13497340701E+02 -0.32822972904E+01 -0.30320287583E+02  0.33350734938E+02  0.51100000000E-03 0.  1.
         12    1    3    3    0    0 -0.57323087213E+01 -0.12896652704E+01  0.41034725487E+01  0.71666649666E+01  0.00000000000E+00 0. -1.
</event>
<event>
 7    1  0.1381607E-011  0.5052889E+02  0.7816164E-02  0.1300439E+00
        -11   -1    0    0    0    0  0.00000000000E+00  0.00000000000E+00  0.45593999997E+02  0.45594000000E+02  0.51100000000E-03 0.  1.
         11   -1    0    0    0    0 -0.00000000000E+00 -0.00000000000E+00 -0.45593999997E+02  0.45594000000E+02  0.51100000000E-03 0. -1.
    9900012    2    1    2    0    0 -0.18465051139E+01 -0.17140172075E+02  0.36823476767E+02  0.50528886371E+02  0.30000080614E+02 0.  0.
         12    1    1    2    0    0  0.18465051139E+01  0.17140172075E+02 -0.36823476767E+02  0.40659113629E+02  0.00000000000E+00 0. -1.
         11    1    3    3    0    0  0.18248521122E+01  0.25159545787E+01  0.44662767360E+01  0.54412995522E+01  0.51100000000E-03 0. -1.
        -11    1    3    3    0    0 -0.10024400570E+02 -0.55328232755E+01  0.29059997836E+01  0.11812941005E+02  0.51100000000E-03 0.  1.
        -12    1    3    3    0    0  0.63530433441E+01 -0.14123303378E+02  0.29451200247E+02  0.33274645814E+02  0.00000000000E+00 0.  1.
</event>
<event>
 7    1  0.1381607E-011  0.5052886E+02  0.7816164E-02  0.1300439E+00
        -11   -1    0    0    0    0  0.00000000000E+00  0.00000000000E+00  0.45593999997E+02  0.45594000000E+02  0.51100000000E-03 0.  1.
         11   -1    0    0    0    0 -0.00000000000E+00 -0.00000000000E+00 -0.45593999997E+02  0.45594000000E+02  0.51100000000E-03 0. -1.
    9900012    2    1    2    0    0  0.32931626915E+01  0.22981002682E+02  0.33379546855E+02  0.50528861384E+02  0.30000004662E+02 0.  0.
         12    1    1    2    0    0 -0.32931626915E+01 -0.22981002682E+02 -0.33379546855E+02  0.40659138616E+02  0.00000000000E+00 0. -1.
         11    1    3    3    0    0  0.15448647605E+01  0.95479230111E+01 -0.85925285765E+00  0.97101882931E+01  0.51100000000E-03 0. -1.
        -11    1    3    3    0    0  0.75127799457E+01  0.66363588291E+00  0.75257454301E+01  0.10654535168E+02  0.51100000000E-03 0.  1.
        -12    1    3    3    0    0 -0.57644820147E+01  0.12769443788E+02  0.26713054282E+02  0.30164137923E+02  0.00000000000E+00 0.  1.
</event>
<event>
 7    1  0.1381607E-011  0.5052888E+02  0.7816164E-02  0.1300439E+00
        -11   -1    0    0    0    0  0.00000000000E+00  0.00000000000E+00  0.45593999997E+02  0.45594000000E+02  0.51100000000E-03 0.  1.
         11   -1    0    0    0    0 -0.00000000000E+00 -0.00000000000E+00 -0.45593999997E+02  0.45594000000E+02  0.51100000000E-03 0. -1.
    9900012    2    1    2    0    0  0.35739807337E+02  0.76088724721E+01  0.17830736509E+02  0.50528881303E+02  0.30000065208E+02 0.  0.
         12    1    1    2    0    0 -0.35739807337E+02 -0.76088724721E+01 -0.17830736509E+02  0.40659118697E+02  0.00000000000E+00 0. -1.
         11    1    3    3    0    0  0.13206077385E+02  0.10067956169E+01  0.12879586220E+02  0.18474248531E+02  0.51100000000E-03 0. -1.
        -11    1    3    3    0    0  0.48023912502E+01  0.94337723500E+00  0.11360266238E+02  0.12369663358E+02  0.51100000000E-03 0.  1.
         12    1    3    3    0    0  0.17731338702E+02  0.56586996202E+01 -0.64091159498E+01  0.19684969414E+02  0.00000000000E+00 0. -1.
</event>
<event>
 7    1  0.1381607E-011  0.5052886E+02  0.7816164E-02  0.1300439E+00
        -11   -1    0    0    0    0  0.00000000000E+00  0.00000000000E+00  0.45593999997E+02  0.45594000000E+02  0.51100000000E-03 0.  1.
         11   -1    0    0    0    0 -0.00000000000E+00 -0.00000000000E+00 -0.45593999997E+02  0.45594000000E+02  0.51100000000E-03 0. -1.
    9900012    2    1    2    0    0  0.12796736417E+02  0.88113251251E+01  0.37573521700E+02  0.50528862696E+02  0.30000008649E+02 0.  0.
         12    1    1    2    0    0 -0.12796736417E+02 -0.88113251251E+01 -0.37573521700E+02  0.40659137304E+02  0.00000000000E+00 0. -1.
         11    1    3    3    0    0  0.36719979016E+01 -0.61037901421E+01  0.38999799436E+01  0.81209400016E+01  0.51100000000E-03 0. -1.
        -11    1    3    3    0    0  0.14245388405E+02  0.81357496874E+01  0.16605770108E+02  0.23342517322E+02  0.51100000000E-03 0.  1.
        -12    1    3    3    0    0 -0.51206498891E+01  0.67793655799E+01  0.17067771649E+02  0.19065405372E+02  0.00000000000E+00 0.  1.
</event>
<event>
 7    1  0.1381607E-011  0.5052886E+02  0.7816164E-02  0.1300439E+00
        -11   -1    0    0    0    0  0.00000000000E+00  0.00000000000E+00  0.45593999997E+02  0.45594000000E+02  0.51100000000E-03 0.  1.
         11   -1    0    0    0    0 -0.00000000000E+00 -0.00000000000E+00 -0.45593999997E+02  0.45594000000E+02  0.51100000000E-03 0. -1.
    9900012    2    1    2    0    0  0.29710718419E+02  0.27086003335E+02  0.60652783217E+01  0.50528856296E+02  0.29999989196E+02 0.  0.
         12    1    1    2    0    0 -0.29710718419E+02 -0.27086003335E+02 -0.60652783217E+01  0.40659143704E+02  0.00000000000E+00 0. -1.
         11    1    3    3    0    0  0.13391050697E+02  0.41423789645E+01  0.35222648282E+01  0.14452885249E+02  0.51100000000E-03 0. -1.
        -11    1    3    3    0    0  0.19618592801E+02  0.24832834562E+02  0.27373926667E+00  0.31648598537E+02  0.51100000000E-03 0.  1.
        -12    1    3    3    0    0 -0.32989250787E+01 -0.18892101915E+01  0.22692742268E+01  0.44273725096E+01  0.00000000000E+00 0.  1.
</event>
<event>
 7    1  0.1381607E-011  0.5052886E+02  0.7816164E-02  0.1300439E+00
        -11   -1    0    0    0    0  0.00000000000E+00  0.00000000000E+00  0.45593999997E+02  0.45594000000E+02  0.51100000000E-03 0.  1.
         11   -1    0    0    0    0 -0.00000000000E+00 -0.00000000000E+00 -0.45593999997E+02  0.45594000000E+02  0.51100000000E-03 0. -1.
    9900012    2    1    2    0    0  0.19522812429E+02  0.32900579582E+02  0.13768718263E+02  0.50528856569E+02  0.29999990027E+02 0.  0.
         12    1    1    2    0    0 -0.19522812429E+02 -0.32900579582E+02 -0.13768718263E+02  0.40659143431E+02  0.00000000000E+00 0. -1.
         11    1    3    3    0    0  0.57291725090E+01 -0.72927583631E-01  0.71493726112E+01  0.91620011496E+01  0.51100000000E-03 0. -1.
        -11    1    3    3    0    0 -0.50238424794E+01  0.49219566911E+01  0.16584927839E+01  0.72260120054E+01  0.51100000000E-03 0.  1.
         12    1    3    3    0    0  0.18817482399E+02  0.28051550474E+02  0.49608528675E+01  0.34140843414E+02  0.00000000000E+00 0. -1.
</event>
<event>
 7    1  0.1381607E-011  0.5052888E+02  0.7816164E-02  0.1300439E+00
        -11   -1    0    0    0    0  0.00000000000E+00  0.00000000000E+00  0.45593999997E+02  0.45594000000E+02  0.51100000000E-03 0.  1.
         11   -1    0    0    0    0 -0.00000000000E+00 -0.00000000000E+00 -0.45593999997E+02  0.45594000000E+02  0.51100000000E-03 0. -1.
    9900012    2    1    2    0    0  0.94227889264E+01 -0.74884875702E+01  0.38836805920E+02  0.50528881818E+02  0.30000066774E+02 0.  0.
         12    1    1    2    0    0 -0.94227889264E+01  0.74884875702E+01 -0.38836805920E+02  0.40659118182E+02  0.00000000000E+00 0. -1.
         11    1    3    3    0    0  0.16836307958E+02 -0.83188233025E+01  0.36850124207E+02  0.41359348896E+02  0.51100000000E-03 0.  1.
        -11    1    3    3    0    0  0.31188066327E-01  0.13693564107E+00 -0.10793004928E+01  0.10883996877E+01  0.51100000000E-03 0. -1.
        -12    1    3    3    0    0 -0.74447070976E+01  0.69340009126E+00  0.30659822060E+01  0.80811332338E+01  0.00000000000E+00 0.  1.
</event>
<event>
 7    1  0.1381607E-011  0.5052887E+02  0.7816164E-02  0.1300439E+00
        -11   -1    0    0    0    0  0.00000000000E+00  0.00000000000E+00  0.45593999997E+02  0.45594000000E+02  0.51100000000E-03 0.  1.
         11   -1    0    0    0    0 -0.00000000000E+00 -0.00000000000E+00 -0.45593999997E+02  0.45594000000E+02  0.51100000000E-03 0. -1.
    9900012    2    1    2    0    0 -0.32903440514E+02  0.21820870432E+02  0.97148413119E+01  0.50528869097E+02  0.30000028108E+02 0.  0.
         12    1    1    2    0    0  0.32903440514E+02 -0.21820870432E+02 -0.97148413119E+01  0.40659130903E+02  0.00000000000E+00 0. -1.
         11    1    3    3    0    0 -0.24886927683E+02  0.79685611067E+01 -0.65350711806E+01  0.26936300622E+02  0.51100000000E-03 0. -1.
        -11    1    3    3    0    0 -0.90360516888E+00  0.43822805546E+01  0.79747907577E+01  0.91442972968E+01  0.51100000000E-03 0.  1.
        -12    1    3    3    0    0 -0.71129076624E+01  0.94700287703E+01  0.82751217348E+01  0.14448271179E+02  0.00000000000E+00 0.  1.
</event>
<event>
 7    1  0.1381607E-011  0.5052886E+02  0.7816164E-02  0.1300439E+00
        -11   -1    0    0    0    0  0.00000000000E+00  0.00000000000E+00  0.45593999997E+02  0.45594000000E+02  0.51100000000E-03 0.  1.
         11   -1    0    0    0    0 -0.00000000000E+00 -0.00000000000E+00 -0.45593999997E+02  0.45594000000E+02  0.51100000000E-03 0. -1.
    9900012    2    1    2    0    0 -0.25415124935E+02 -0.31561827814E+02 -0.33298266753E+01  0.50528864543E+02  0.30000014264E+02 0.  0.
         12    1    1    2    0    0  0.25415124935E+02  0.31561827814E+02  0.33298266753E+01  0.40659135457E+02  0.00000000000E+00 0. -1.
         11    1    3    3    0    0 -0.65388852498E+01 -0.13222591441E+02 -0.80885772075E+01  0.16823169327E+02  0.51100000000E-03 0. -1.
        -11    1    3    3    0    0 -0.21372921024E+01 -0.14084163462E+02 -0.33371363082E+01  0.14631068210E+02  0.51100000000E-03 0.  1.
        -12    1    3    3    0    0 -0.16738947583E+02 -0.42550729115E+01  0.80958868404E+01  0.19074627005E+02  0.00000000000E+00 0.  1.
</event>
<event>
 7    1  0.1381607E-011  0.5052886E+02  0.7816164E-02  0.1300439E+00
        -11   -1    0    0    0    0  0.00000000000E+00  0.00000000000E+00  0.45593999997E+02  0.45594000000E+02  0.51100000000E-03 0. -1.
         11   -1    0    0    0    0 -0.00000000000E+00 -0.00000000000E+00 -0.45593999997E+02  0.45594000000E+02  0.51100000000E-03 0.  1.
    9900012    2    1    2    0    0 -0.13810771797E+02 -0.63487231082E+01 -0.37711033322E+02  0.50528859122E+02  0.29999997786E+02 0.  0.
         12    1    1    2    0    0  0.13810771797E+02  0.63487231082E+01  0.37711033322E+02  0.40659140878E+02  0.00000000000E+00 0. -1.
         11    1    3    3    0    0  0.92994239510E+00 -0.65521761163E+01 -0.22648977347E+01  0.69946813170E+01  0.51100000000E-03 0. -1.
        -11    1    3    3    0    0 -0.15947014290E+01  0.75335168024E+01 -0.40133754625E+01  0.86835552007E+01  0.51100000000E-03 0.  1.
        -12    1    3    3    0    0 -0.13146012763E+02 -0.73300637943E+01 -0.31432760125E+02  0.34850622604E+02  0.00000000000E+00 0.  1.
</event>
<event>
 7    1  0.1381607E-011  0.5052886E+02  0.7816164E-02  0.1300439E+00
        -11   -1    0    0    0    0  0.00000000000E+00  0.00000000000E+00  0.45593999997E+02  0.45594000000E+02  0.51100000000E-03 0.  1.
         11   -1    0    0    0    0 -0.00000000000E+00 -0.00000000000E+00 -0.45593999997E+02  0.45594000000E+02  0.51100000000E-03 0. -1.
    9900012    2    1    2    0    0 -0.16974469445E+02 -0.11808696893E+02  0.35008396740E+02  0.50528858622E+02  0.29999996268E+02 0.  0.
         12    1    1    2    0    0  0.16974469445E+02  0.11808696893E+02 -0.35008396740E+02  0.40659141378E+02  0.00000000000E+00 0. -1.
         11    1    3    3    0    0 -0.94863477413E+01 -0.74501972158E+01  0.14834254598E+02  0.19119397003E+02  0.51100000000E-03 0. -1.
        -11    1    3    3    0    0 -0.56275249346E+01 -0.11939666213E+02  0.45814423964E+01  0.13971910422E+02  0.51100000000E-03 0.  1.
         12    1    3    3    0    0 -0.18605967695E+01  0.75811665355E+01  0.15592699746E+02  0.17437551197E+02  0.00000000000E+00 0. -1.
</event>
<event>
 7    1  0.1381607E-011  0.5052883E+02  0.7816164E-02  0.1300439E+00
        -11   -1    0    0    0    0  0.00000000000E+00  0.00000000000E+00  0.45593999997E+02  0.45594000000E+02  0.51100000000E-03 0. -1.
         11   -1    0    0    0    0 -0.00000000000E+00 -0.00000000000E+00 -0.45593999997E+02  0.45594000000E+02  0.51100000000E-03 0.  1.
    9900012    2    1    2    0    0 -0.38669130330E+02  0.12141210893E+02 -0.32337847240E+01  0.50528831218E+02  0.29999912969E+02 0.  0.
         12    1    1    2    0    0  0.38669130330E+02 -0.12141210893E+02  0.32337847240E+01  0.40659168782E+02  0.00000000000E+00 0. -1.
         11    1    3    3    0    0  0.21308662192E+01 -0.20919968349E+00 -0.30209980939E+01  0.37028077314E+01  0.51100000000E-03 0. -1.
        -11    1    3    3    0    0 -0.11728306630E+02  0.20788603520E-01  0.80004386317E+01  0.14197204905E+02  0.51100000000E-03 0.  1.
        -12    1    3    3    0    0 -0.29071689919E+02  0.12329621973E+02 -0.82132252618E+01  0.32628818581E+02  0.00000000000E+00 0.  1.
</event>
<event>
 7    1  0.1381607E-011  0.5052885E+02  0.7816164E-02  0.1300439E+00
        -11   -1    0    0    0    0  0.00000000000E+00  0.00000000000E+00  0.45593999997E+02  0.45594000000E+02  0.51100000000E-03 0. -1.
         11   -1    0    0    0    0 -0.00000000000E+00 -0.00000000000E+00 -0.45593999997E+02  0.45594000000E+02  0.51100000000E-03 0.  1.
    9900012    2    1    2    0    0 -0.24444478368E+02  0.32357403534E+02 -0.29380412193E+01  0.50528853768E+02  0.29999981513E+02 0.  0.
         12    1    1    2    0    0  0.24444478368E+02 -0.32357403534E+02  0.29380412193E+01  0.40659146232E+02  0.00000000000E+00 0. -1.
         11    1    3    3    0    0 -0.62658491468E+01  0.11489494519E+02  0.74574773167E+01  0.15062646448E+02  0.51100000000E-03 0. -1.
        -11    1    3    3    0    0 -0.52436968246E+01  0.19926911165E+02 -0.87760681682E+01  0.22396372870E+02  0.51100000000E-03 0.  1.
        -12    1    3    3    0    0 -0.12934932396E+02  0.94099784934E+00 -0.16194503677E+01  0.13069834450E+02  0.00000000000E+00 0.  1.
</event>
<event>
 7    1  0.1381607E-011  0.5052886E+02  0.7816164E-02  0.1300439E+00
        -11   -1    0    0    0    0  0.00000000000E+00  0.00000000000E+00  0.45593999997E+02  0.45594000000E+02  0.51100000000E-03 0. -1.
         11   -1    0    0    0    0 -0.00000000000E+00 -0.00000000000E+00 -0.45593999997E+02  0.45594000000E+02  0.51100000000E-03 0.  1.
    9900012    2    1    2    0    0 -0.12093228333E+02 -0.31912586550E+02 -0.22102179225E+02  0.50528859843E+02  0.29999999979E+02 0.  0.
         12    1    1    2    0    0  0.12093228333E+02  0.31912586550E+02  0.22102179225E+02  0.40659140157E+02  0.00000000000E+00 0. -1.
         11    1    3    3    0    0 -0.63193895319E+01 -0.92040437301E+01  0.32325712938E+01  0.11623193299E+02  0.51100000000E-03 0.  1.
        -11    1    3    3    0    0  0.19569517100E+01 -0.18455702974E+02 -0.96709658477E+01  0.20927737884E+02  0.51100000000E-03 0. -1.
        -12    1    3    3    0    0 -0.77307905109E+01 -0.42528398459E+01 -0.15663784671E+02  0.17977928660E+02  0.00000000000E+00 0.  1.
</event>
<event>
 7    1  0.1381607E-011  0.5052887E+02  0.7816164E-02  0.1300439E+00
        -11   -1    0    0    0    0  0.00000000000E+00  0.00000000000E+00  0.45593999997E+02  0.45594000000E+02  0.51100000000E-03 0.  1.
         11   -1    0    0    0    0 -0.00000000000E+00 -0.00000000000E+00 -0.45593999997E+02  0.45594000000E+02  0.51100000000E-03 0. -1.
    9900012    2    1    2    0    0  0.13733202995E+02  0.31407126270E+02  0.21866789297E+02  0.50528869178E+02  0.30000028353E+02 0.  0.
         12    1    1    2    0    0 -0.13733202995E+02 -0.31407126270E+02 -0.21866789297E+02  0.40659130822E+02  0.00000000000E+00 0. -1.
         11    1    3    3    0    0  0.78307462813E+01  0.33148722311E+01  0.86977208538E+01  0.12163852743E+02  0.51100000000E-03 0. -1.
        -11    1    3    3    0    0  0.12796668655E+02  0.14997214369E+02  0.19833448615E+01  0.19814258114E+02  0.51100000000E-03 0.  1.
         12    1    3    3    0    0 -0.68942119412E+01  0.13095039670E+02  0.11185723581E+02  0.18550758321E+02  0.00000000000E+00 0. -1.
</event>
<event>
 7    1  0.1381607E-011  0.5052881E+02  0.7816164E-02  0.1300439E+00
        -11   -1    0    0    0    0  0.00000000000E+00  0.00000000000E+00  0.45593999997E+02  0.45594000000E+02  0.51100000000E-03 0.  1.
         11   -1    0    0    0    0 -0.00000000000E+00 -0.00000000000E+00 -0.45593999997E+02  0.45594000000E+02  0.51100000000E-03 0. -1.
    9900012    2    1    2    0    0 -0.14505166656E+02 -0.10336009801E+02  0.36550467601E+02  0.50528811122E+02  0.29999851887E+02 0.  0.
         12    1    1    2    0    0  0.14505166656E+02  0.10336009801E+02 -0.36550467601E+02  0.40659188878E+02  0.00000000000E+00 0. -1.
         11    1    3    3    0    0 -0.14436740075E+01  0.82209110027E+00  0.46223693807E+01  0.49118557970E+01  0.51100000000E-03 0. -1.
        -11    1    3    3    0    0 -0.15541194959E+01 -0.18694784095E+02  0.16980426812E+02  0.25303065718E+02  0.51100000000E-03 0.  1.
        -12    1    3    3    0    0 -0.11507373153E+02  0.75366831934E+01  0.14947671409E+02  0.20313889607E+02  0.00000000000E+00 0.  1.
</event>
<event>
 7    1  0.1381607E-011  0.5052882E+02  0.7816164E-02  0.1300439E+00
        -11   -1    0    0    0    0  0.00000000000E+00  0.00000000000E+00  0.45593999997E+02  0.45594000000E+02  0.51100000000E-03 0.  1.
         11   -1    0    0    0    0 -0.00000000000E+00 -0.00000000000E+00 -0.45593999997E+02  0.45594000000E+02  0.51100000000E-03 0. -1.
    9900012    2    1    2    0    0  0.20909407739E+02 -0.84572968500E+01  0.33829574389E+02  0.50528815240E+02  0.29999864402E+02 0.  0.
         12    1    1    2    0    0 -0.20909407739E+02  0.84572968500E+01 -0.33829574389E+02  0.40659184760E+02  0.00000000000E+00 0. -1.
         11    1    3    3    0    0 -0.22416234910E+01  0.49372758001E+01  0.46275211687E+01  0.71285005877E+01  0.51100000000E-03 0. -1.
        -11    1    3    3    0    0  0.40041207708E+01  0.43080537978E+01  0.70795939832E+01  0.92039644665E+01  0.51100000000E-03 0.  1.
         12    1    3    3    0    0  0.19146910460E+02 -0.17702626448E+02  0.22122459237E+02  0.34196350185E+02  0.00000000000E+00 0. -1.
</event>
<event>
 7    1  0.1381607E-011  0.5052886E+02  0.7816164E-02  0.1300439E+00
        -11   -1    0    0    0    0  0.00000000000E+00  0.00000000000E+00  0.45593999997E+02  0.45594000000E+02  0.51100000000E-03 0.  1.
         11   -1    0    0    0    0 -0.00000000000E+00 -0.00000000000E+00 -0.45593999997E+02  0.45594000000E+02  0.51100000000E-03 0. -1.
    9900012    2    1    2    0    0 -0.53737227743E+01  0.20347675658E+02  0.34788805332E+02  0.50528858622E+02  0.29999996268E+02 0.  0.
         12    1    1    2    0    0  0.53737227743E+01 -0.20347675658E+02 -0.34788805332E+02  0.40659141378E+02  0.00000000000E+00 0. -1.
         11    1    3    3    0    0 -0.10020700250E+02 -0.17740971416E+01  0.12181482112E+02  0.15872944304E+02  0.51100000000E-03 0. -1.
        -11    1    3    3    0    0  0.26345607799E+01  0.58637563480E+01 -0.36716889614E+00  0.64388944914E+01  0.51100000000E-03 0.  1.
         12    1    3    3    0    0  0.20124166960E+01  0.16258016451E+02  0.22974492116E+02  0.28217019827E+02  0.00000000000E+00 0. -1.
</event>
<event>
 7    1  0.1381607E-011  0.5052886E+02  0.7816164E-02  0.1300439E+00
        -11   -1    0    0    0    0  0.00000000000E+00  0.00000000000E+00  0.45593999997E+02  0.45594000000E+02  0.51100000000E-03 0. -1.
         11   -1    0    0    0    0 -0.00000000000E+00 -0.00000000000E+00 -0.45593999997E+02  0.45594000000E+02  0.51100000000E-03 0.  1.
    9900012    2    1    2    0    0 -0.34730426493E+02 -0.13069789992E+02  0.16617567339E+02  0.50528862293E+02  0.30000007425E+02 0.  0.
         12    1    1    2    0    0  0.34730426493E+02  0.13069789992E+02 -0.16617567339E+02  0.40659137707E+02  0.00000000000E+00 0. -1.
         11    1    3    3    0    0  0.30024291653E+01  0.18400126158E+01  0.17004355751E+01  0.39104614466E+01  0.51100000000E-03 0. -1.
        -11    1    3    3    0    0 -0.29483789251E+02 -0.30248934117E+01  0.88607423338E+01  0.30934714541E+02  0.51100000000E-03 0.  1.
        -12    1    3    3    0    0 -0.82490664074E+01 -0.11884909196E+02  0.60563894298E+01  0.15683686305E+02  0.00000000000E+00 0.  1.
</event>
<event>
 7    1  0.1381607E-011  0.5052885E+02  0.7816164E-02  0.1300439E+00
        -11   -1    0    0    0    0  0.00000000000E+00  0.00000000000E+00  0.45593999997E+02  0.45594000000E+02  0.51100000000E-03 0.  1.
         11   -1    0    0    0    0 -0.00000000000E+00 -0.00000000000E+00 -0.45593999997E+02  0.45594000000E+02  0.51100000000E-03 0. -1.
    9900012    2    1    2    0    0  0.34904461807E+02  0.15983649893E+02  0.13392817878E+02  0.50528854797E+02  0.29999984640E+02 0.  0.
         12    1    1    2    0    0 -0.34904461807E+02 -0.15983649893E+02 -0.13392817878E+02  0.40659145203E+02  0.00000000000E+00 0. -1.
         11    1    3    3    0    0  0.27851770390E+02  0.22087705070E+02  0.11447686894E+02  0.37344843882E+02  0.51100000000E-03 0.  1.
        -11    1    3    3    0    0  0.72778671882E+01 -0.15919374558E+01 -0.13772146959E+01  0.75761689693E+01  0.51100000000E-03 0. -1.
        -12    1    3    3    0    0 -0.22517577065E+00 -0.45121177216E+01  0.33223456801E+01  0.56078419449E+01  0.00000000000E+00 0.  1.
</event>
<event>
 7    1  0.1381607E-011  0.5052885E+02  0.7816164E-02  0.1300439E+00
        -11   -1    0    0    0    0  0.00000000000E+00  0.00000000000E+00  0.45593999997E+02  0.45594000000E+02  0.51100000000E-03 0.  1.
         11   -1    0    0    0    0 -0.00000000000E+00 -0.00000000000E+00 -0.45593999997E+02  0.45594000000E+02  0.51100000000E-03 0. -1.
    9900012    2    1    2    0    0  0.87243085402E+01 -0.37628815631E+02  0.12693507409E+02  0.50528850284E+02  0.29999970924E+02 0.  0.
         12    1    1    2    0    0 -0.87243085402E+01  0.37628815631E+02 -0.12693507409E+02  0.40659149716E+02  0.00000000000E+00 0. -1.
         11    1    3    3    0    0  0.19963565114E+01 -0.40495167100E+01 -0.52038381810E+01  0.68894090444E+01  0.51100000000E-03 0. -1.
        -11    1    3    3    0    0 -0.48235025210E+01 -0.65445091483E+01  0.10580612304E+02  0.13343392880E+02  0.51100000000E-03 0.  1.
        -12    1    3    3    0    0  0.11551454550E+02 -0.27034789772E+02  0.73167332865E+01  0.30296048360E+02  0.00000000000E+00 0.  1.
</event>
<event>
 7    1  0.1381607E-011  0.5052886E+02  0.7816164E-02  0.1300439E+00
        -11   -1    0    0    0    0  0.00000000000E+00  0.00000000000E+00  0.45593999997E+02  0.45594000000E+02  0.51100000000E-03 0.  1.
         11   -1    0    0    0    0 -0.00000000000E+00 -0.00000000000E+00 -0.45593999997E+02  0.45594000000E+02  0.51100000000E-03 0. -1.
    9900012    2    1    2    0    0 -0.28234780221E+02 -0.25896462865E+02  0.13613811053E+02  0.50528862596E+02  0.30000008347E+02 0.  0.
         12    1    1    2    0    0  0.28234780221E+02  0.25896462865E+02 -0.13613811053E+02  0.40659137404E+02  0.00000000000E+00 0. -1.
         11    1    3    3    0    0  0.42918230514E+01  0.87420875133E+00 -0.21581803495E+01  0.48827992716E+01  0.51100000000E-03 0. -1.
        -11    1    3    3    0    0 -0.81594535127E+01 -0.59524227820E+01  0.74018622549E+01  0.12521804331E+02  0.51100000000E-03 0.  1.
        -12    1    3    3    0    0 -0.24367149759E+02 -0.20818248835E+02  0.83701291473E+01  0.33124258994E+02  0.00000000000E+00 0.  1.
</event>
<event>
 7    1  0.1381607E-011  0.5052886E+02  0.7816164E-02  0.1300439E+00
        -11   -1    0    0    0    0  0.00000000000E+00  0.00000000000E+00  0.45593999997E+02  0.45594000000E+02  0.51100000000E-03 0.  1.
         11   -1    0    0    0    0 -0.00000000000E+00 -0.00000000000E+00 -0.45593999997E+02  0.45594000000E+02  0.51100000000E-03 0. -1.
    9900012    2    1    2    0    0 -0.32926019695E+02  0.15002007857E+02 -0.18546778532E+02  0.50528855806E+02  0.29999987707E+02 0.  0.
         12    1    1    2    0    0  0.32926019695E+02 -0.15002007857E+02  0.18546778532E+02  0.40659144194E+02  0.00000000000E+00 0. -1.
         11    1    3    3    0    0 -0.80045901877E+01 -0.28647259960E+01  0.12883577202E+01  0.85988362574E+01  0.51100000000E-03 0. -1.
        -11    1    3    3    0    0 -0.98971532696E+01  0.47823219470E+01  0.32250845004E+01  0.11455366268E+02  0.51100000000E-03 0.  1.
         12    1    3    3    0    0 -0.15024276238E+02  0.13084411906E+02 -0.23060220752E+02  0.30474653280E+02  0.00000000000E+00 0. -1.
</event>
<event>
 7    1  0.1381607E-011  0.5052887E+02  0.7816164E-02  0.1300439E+00
        -11   -1    0    0    0    0  0.00000000000E+00  0.00000000000E+00  0.45593999997E+02  0.45594000000E+02  0.51100000000E-03 0.  1.
         11   -1    0    0    0    0 -0.00000000000E+00 -0.00000000000E+00 -0.45593999997E+02  0.45594000000E+02  0.51100000000E-03 0. -1.
    9900012    2    1    2    0    0  0.16487677933E+01  0.16966818490E+02  0.36913048497E+02  0.50528874158E+02  0.30000043492E+02 0.  0.
         12    1    1    2    0    0 -0.16487677933E+01 -0.16966818490E+02 -0.36913048497E+02  0.40659125842E+02  0.00000000000E+00 0. -1.
         11    1    3    3    0    0 -0.16441327012E+01  0.11327764241E+02  0.27045816229E+01  0.11761640066E+02  0.51100000000E-03 0. -1.
        -11    1    3    3    0    0 -0.72020560620E+00  0.60648954162E+01  0.21790693087E+01  0.64845968138E+01  0.51100000000E-03 0.  1.
        -12    1    3    3    0    0  0.40131061007E+01 -0.42584116725E+00  0.32029397565E+02  0.32282637278E+02  0.00000000000E+00 0.  1.
</event>
<event>
 7    1  0.1381607E-011  0.5052898E+02  0.7816164E-02  0.1300438E+00
        -11   -1    0    0    0    0  0.00000000000E+00  0.00000000000E+00  0.45593999997E+02  0.45594000000E+02  0.51100000000E-03 0.  1.
         11   -1    0    0    0    0 -0.00000000000E+00 -0.00000000000E+00 -0.45593999997E+02  0.45594000000E+02  0.51100000000E-03 0. -1.
    9900012    2    1    2    0    0 -0.15442371646E+02  0.22284609419E+02  0.30299923539E+02  0.50528978547E+02  0.30000360790E+02 0.  0.
         12    1    1    2    0    0  0.15442371646E+02 -0.22284609419E+02 -0.30299923539E+02  0.40659021453E+02  0.00000000000E+00 0. -1.
         11    1    3    3    0    0 -0.23297752658E+01  0.10941937148E+02 -0.10748181612E+01  0.11238731053E+02  0.51100000000E-03 0.  1.
        -11    1    3    3    0    0  0.24489599148E+01 -0.19820087966E+01  0.46417617979E+01  0.56099658095E+01  0.51100000000E-03 0. -1.
        -12    1    3    3    0    0 -0.15561556295E+02  0.13324681068E+02  0.26732979903E+02  0.33680281685E+02  0.00000000000E+00 0.  1.
</event>
<event>
 7    1  0.1381607E-011  0.5052887E+02  0.7816164E-02  0.1300439E+00
        -11   -1    0    0    0    0  0.00000000000E+00  0.00000000000E+00  0.45593999997E+02  0.45594000000E+02  0.51100000000E-03 0.  1.
         11   -1    0    0    0    0 -0.00000000000E+00 -0.00000000000E+00 -0.45593999997E+02  0.45594000000E+02  0.51100000000E-03 0. -1.
    9900012    2    1    2    0    0 -0.89755429033E+01 -0.22388376968E+02  0.32731716855E+02  0.50528867177E+02  0.30000022271E+02 0.  0.
         12    1    1    2    0    0  0.89755429033E+01  0.22388376968E+02 -0.32731716855E+02  0.40659132823E+02  0.00000000000E+00 0. -1.
         11    1    3    3    0    0  0.26626479349E+01 -0.75290868187E+01  0.40234251551E+01  0.89423035393E+01  0.51100000000E-03 0. -1.
        -11    1    3    3    0    0 -0.42155533766E+01 -0.36629515625E+01  0.27542269617E+02  0.28102752896E+02  0.51100000000E-03 0.  1.
         12    1    3    3    0    0 -0.74226374616E+01 -0.11196338587E+02  0.11660220829E+01  0.13483810742E+02  0.00000000000E+00 0. -1.
</event>
<event>
 7    1  0.1381607E-011  0.5052873E+02  0.7816164E-02  0.1300439E+00
        -11   -1    0    0    0    0  0.00000000000E+00  0.00000000000E+00  0.45593999997E+02  0.45594000000E+02  0.51100000000E-03 0.  1.
         11   -1    0    0    0    0 -0.00000000000E+00 -0.00000000000E+00 -0.45593999997E+02  0.45594000000E+02  0.51100000000E-03 0. -1.
    9900012    2    1    2    0    0 -0.85668795280E+01  0.16732334106E+02  0.36052930609E+02  0.50528730025E+02  0.29999605380E+02 0.  0.
         12    1    1    2    0    0  0.85668795280E+01 -0.16732334106E+02 -0.36052930609E+02  0.40659269975E+02  0.00000000000E+00 0. -1.
         11    1    3    3    0    0 -0.33320664240E+01 -0.58789298055E+01  0.32705922059E+01  0.75074133995E+01  0.51100000000E-03 0. -1.
        -11    1    3    3    0    0  0.16672469855E+01  0.19607611527E+00  0.10623568668E+02  0.10755387946E+02  0.51100000000E-03 0.  1.
         12    1    3    3    0    0 -0.69020600895E+01  0.22415187796E+02  0.22158769734E+02  0.32265928679E+02  0.00000000000E+00 0. -1.
</event>
<event>
 7    1  0.1381607E-011  0.5052886E+02  0.7816164E-02  0.1300439E+00
        -11   -1    0    0    0    0  0.00000000000E+00  0.00000000000E+00  0.45593999997E+02  0.45594000000E+02  0.51100000000E-03 0.  1.
         11   -1    0    0    0    0 -0.00000000000E+00 -0.00000000000E+00 -0.45593999997E+02  0.45594000000E+02  0.51100000000E-03 0. -1.
    9900012    2    1    2    0    0  0.38092117902E+02  0.14118163243E+02  0.16834561577E+01  0.50528855835E+02  0.29999987795E+02 0.  0.
         12    1    1    2    0    0 -0.38092117902E+02 -0.14118163243E+02 -0.16834561577E+01  0.40659144165E+02  0.00000000000E+00 0. -1.
         11    1    3    3    0    0  0.11030795021E+02  0.62846992085E+01 -0.13304819189E+01  0.12765032915E+02  0.51100000000E-03 0. -1.
        -11    1    3    3    0    0  0.27967021343E+02  0.11712448360E+02 -0.30873863938E+01  0.30477330663E+02  0.51100000000E-03 0.  1.
         12    1    3    3    0    0 -0.90569846128E+00 -0.38789843253E+01  0.61013244705E+01  0.72864922557E+01  0.00000000000E+00 0. -1.
</event>
<event>
 7    1  0.1381607E-011  0.5052885E+02  0.7816164E-02  0.1300439E+00
        -11   -1    0    0    0    0  0.00000000000E+00  0.00000000000E+00  0.45593999997E+02  0.45594000000E+02  0.51100000000E-03 0.  1.
         11   -1    0    0    0    0 -0.00000000000E+00 -0.00000000000E+00 -0.45593999997E+02  0.45594000000E+02  0.51100000000E-03 0. -1.
    9900012    2    1    2    0    0  0.37409002454E+02 -0.15462401327E+02 -0.38271191571E+01  0.50528853914E+02  0.29999981958E+02 0.  0.
         12    1    1    2    0    0 -0.37409002454E+02  0.15462401327E+02  0.38271191571E+01  0.40659146086E+02  0.00000000000E+00 0. -1.
         11    1    3    3    0    0  0.46122110409E+01  0.83469558827E+00  0.44257626707E+01  0.64464395513E+01  0.51100000000E-03 0. -1.
        -11    1    3    3    0    0  0.26545457151E+02 -0.12234712271E+02  0.42388914147E+01  0.29535024638E+02  0.51100000000E-03 0.  1.
        -12    1    3    3    0    0  0.62513342619E+01 -0.40623846448E+01 -0.12491773242E+02  0.14547389725E+02  0.00000000000E+00 0.  1.
</event>
<event>
 7    1  0.1381607E-011  0.5052887E+02  0.7816164E-02  0.1300439E+00
        -11   -1    0    0    0    0  0.00000000000E+00  0.00000000000E+00  0.45593999997E+02  0.45594000000E+02  0.51100000000E-03 0.  1.
         11   -1    0    0    0    0 -0.00000000000E+00 -0.00000000000E+00 -0.45593999997E+02  0.45594000000E+02  0.51100000000E-03 0. -1.
    9900012    2    1    2    0    0 -0.21906049216E+02 -0.34041878639E+02 -0.38000950101E+01  0.50528865533E+02  0.30000017275E+02 0.  0.
         12    1    1    2    0    0  0.21906049216E+02  0.34041878639E+02  0.38000950101E+01  0.40659134467E+02  0.00000000000E+00 0. -1.
         11    1    3    3    0    0  0.32036733784E+01  0.17095175587E+01 -0.26713327885E+01  0.45079920727E+01  0.51100000000E-03 0. -1.
        -11    1    3    3    0    0 -0.15977864339E+02 -0.32594280176E+02 -0.61508787138E-01  0.36299904030E+02  0.51100000000E-03 0.  1.
        -12    1    3    3    0    0 -0.91318582557E+01 -0.31571160217E+01 -0.10672534344E+01  0.97209694306E+01  0.00000000000E+00 0.  1.
</event>
<event>
 7    1  0.1381607E-011  0.5052886E+02  0.7816164E-02  0.1300439E+00
        -11   -1    0    0    0    0  0.00000000000E+00  0.00000000000E+00  0.45593999997E+02  0.45594000000E+02  0.51100000000E-03 0. -1.
         11   -1    0    0    0    0 -0.00000000000E+00 -0.00000000000E+00 -0.45593999997E+02  0.45594000000E+02  0.51100000000E-03 0.  1.
    9900012    2    1    2    0    0  0.40536704961E+01  0.34495639783E+02 -0.21137267568E+02  0.50528862174E+02  0.30000007063E+02 0.  0.
         12    1    1    2    0    0 -0.40536704961E+01 -0.34495639783E+02  0.21137267568E+02  0.40659137826E+02  0.00000000000E+00 0. -1.
         11    1    3    3    0    0 -0.49004902984E+01  0.49313287683E+01 -0.18126594580E+01  0.71846045930E+01  0.51100000000E-03 0. -1.
        -11    1    3    3    0    0  0.80457242699E+01  0.26962775556E+02 -0.47797712209E+01  0.28540693018E+02  0.51100000000E-03 0.  1.
         12    1    3    3    0    0  0.90843652472E+00  0.26015354585E+01 -0.14544836889E+02  0.14803564563E+02  0.00000000000E+00 0. -1.
</event>
<event>
 7    1  0.1381607E-011  0.5052886E+02  0.7816164E-02  0.1300439E+00
        -11   -1    0    0    0    0  0.00000000000E+00  0.00000000000E+00  0.45593999997E+02  0.45594000000E+02  0.51100000000E-03 0. -1.
         11   -1    0    0    0    0 -0.00000000000E+00 -0.00000000000E+00 -0.45593999997E+02  0.45594000000E+02  0.51100000000E-03 0.  1.
    9900012    2    1    2    0    0 -0.14558178375E+02  0.32710911307E+02 -0.19267116319E+02  0.50528855304E+02  0.29999986183E+02 0.  0.
         12    1    1    2    0    0  0.14558178375E+02 -0.32710911307E+02  0.19267116319E+02  0.40659144696E+02  0.00000000000E+00 0. -1.
         11    1    3    3    0    0 -0.95308929421E+01  0.17617892025E+02 -0.24243303275E+02  0.31447826532E+02  0.51100000000E-03 0.  1.
        -11    1    3    3    0    0 -0.57298367071E+01  0.15062146141E+02  0.22571104149E+01  0.16272486680E+02  0.51100000000E-03 0. -1.
        -12    1    3    3    0    0  0.70255127399E+00  0.30873141430E-01  0.27190765415E+01  0.28085420919E+01  0.00000000000E+00 0.  1.
</event>
<event>
 7    1  0.1381607E-011  0.5052886E+02  0.7816164E-02  0.1300439E+00
        -11   -1    0    0    0    0  0.00000000000E+00  0.00000000000E+00  0.45593999997E+02  0.45594000000E+02  0.51100000000E-03 0.  1.
         11   -1    0    0    0    0 -0.00000000000E+00 -0.00000000000E+00 -0.45593999997E+02  0.45594000000E+02  0.51100000000E-03 0. -1.
    9900012    2    1    2    0    0 -0.27987353755E+02 -0.17824058337E+02  0.23498437017E+02  0.50528861199E+02  0.30000004100E+02 0.  0.
         12    1    1    2    0    0  0.27987353755E+02  0.17824058337E+02 -0.23498437017E+02  0.40659138801E+02  0.00000000000E+00 0. -1.
         11    1    3    3    0    0 -0.44329046251E+01  0.57623665877E+01  0.11061711905E+01  0.73538511727E+01  0.51100000000E-03 0. -1.
        -11    1    3    3    0    0 -0.15488180761E+02 -0.46673567665E+01  0.78079853805E+01  0.17961976462E+02  0.51100000000E-03 0.  1.
         12    1    3    3    0    0 -0.80662683687E+01 -0.18919068158E+02  0.14584280446E+02  0.25213033564E+02  0.00000000000E+00 0. -1.
</event>
<event>
 7    1  0.1381607E-011  0.5052886E+02  0.7816164E-02  0.1300439E+00
        -11   -1    0    0    0    0  0.00000000000E+00  0.00000000000E+00  0.45593999997E+02  0.45594000000E+02  0.51100000000E-03 0.  1.
         11   -1    0    0    0    0 -0.00000000000E+00 -0.00000000000E+00 -0.45593999997E+02  0.45594000000E+02  0.51100000000E-03 0. -1.
    9900012    2    1    2    0    0  0.28456596197E+02 -0.18610257685E+02 -0.22294528713E+02  0.50528861190E+02  0.30000004074E+02 0.  0.
         12    1    1    2    0    0 -0.28456596197E+02  0.18610257685E+02  0.22294528713E+02  0.40659138810E+02  0.00000000000E+00 0. -1.
         11    1    3    3    0    0  0.63046866275E+01 -0.94710464304E+00  0.14116974289E+01  0.65298522624E+01  0.51100000000E-03 0. -1.
        -11    1    3    3    0    0  0.19166373159E+02 -0.18506295497E+02 -0.77542615040E+01  0.27748178406E+02  0.51100000000E-03 0.  1.
         12    1    3    3    0    0  0.29855364108E+01  0.84314245565E+00 -0.15951964638E+02  0.16250830522E+02  0.00000000000E+00 0. -1.
</event>
<event>
 7    1  0.1381607E-011  0.5052890E+02  0.7816164E-02  0.1300439E+00
        -11   -1    0    0    0    0  0.00000000000E+00  0.00000000000E+00  0.45593999997E+02  0.45594000000E+02  0.51100000000E-03 0.  1.
         11   -1    0    0    0    0 -0.00000000000E+00 -0.00000000000E+00 -0.45593999997E+02  0.45594000000E+02  0.51100000000E-03 0. -1.
    9900012    2    1    2    0    0  0.29153562545E+02 -0.28082528437E+02  0.38214676067E+01  0.50528902283E+02  0.30000128980E+02 0.  0.
         12    1    1    2    0    0 -0.29153562545E+02  0.28082528437E+02 -0.38214676067E+01  0.40659097717E+02  0.00000000000E+00 0. -1.
         11    1    3    3    0    0 -0.17415318204E+01  0.39625742427E+00 -0.32164770053E+01  0.36790865191E+01  0.51100000000E-03 0. -1.
        -11    1    3    3    0    0  0.73308670672E+01 -0.16827356235E+02 -0.32137730907E+01  0.18634104958E+02  0.51100000000E-03 0.  1.
        -12    1    3    3    0    0  0.23564227298E+02 -0.11651429625E+02  0.10251717703E+02  0.28215710807E+02  0.00000000000E+00 0.  1.
</event>
<event>
 7    1  0.1381607E-011  0.5052886E+02  0.7816164E-02  0.1300439E+00
        -11   -1    0    0    0    0  0.00000000000E+00  0.00000000000E+00  0.45593999997E+02  0.45594000000E+02  0.51100000000E-03 0. -1.
         11   -1    0    0    0    0 -0.00000000000E+00 -0.00000000000E+00 -0.45593999997E+02  0.45594000000E+02  0.51100000000E-03 0.  1.
    9900012    2    1    2    0    0  0.17339165934E+02  0.15774431461E+02 -0.33221770661E+02  0.50528863154E+02  0.30000010042E+02 0.  0.
         12    1    1    2    0    0 -0.17339165934E+02 -0.15774431461E+02  0.33221770661E+02  0.40659136846E+02  0.00000000000E+00 0. -1.
         11    1    3    3    0    0  0.73087177642E+01 -0.34071516035E+01 -0.12355624440E+02  0.14754236441E+02  0.51100000000E-03 0. -1.
        -11    1    3    3    0    0  0.14593200370E+02  0.73611069082E+01 -0.12724778935E+02  0.20713941951E+02  0.51100000000E-03 0.  1.
         12    1    3    3    0    0 -0.45627521999E+01  0.11820476156E+02 -0.81413672870E+01  0.15060684762E+02  0.00000000000E+00 0. -1.
</event>
<event>
 7    1  0.1381607E-011  0.5052886E+02  0.7816164E-02  0.1300439E+00
        -11   -1    0    0    0    0  0.00000000000E+00  0.00000000000E+00  0.45593999997E+02  0.45594000000E+02  0.51100000000E-03 0.  1.
         11   -1    0    0    0    0 -0.00000000000E+00 -0.00000000000E+00 -0.45593999997E+02  0.45594000000E+02  0.51100000000E-03 0. -1.
    9900012    2    1    2    0    0  0.24416544803E+02 -0.20096242049E+02  0.25556592472E+02  0.50528855599E+02  0.29999987079E+02 0.  0.
         12    1    1    2    0    0 -0.24416544803E+02  0.20096242049E+02 -0.25556592472E+02  0.40659144401E+02  0.00000000000E+00 0. -1.
         11    1    3    3    0    0  0.62621509387E+01 -0.25175816044E+01 -0.27839298230E+01  0.73008915233E+01  0.51100000000E-03 0. -1.
        -11    1    3    3    0    0  0.20343171002E+02 -0.16216746155E+02  0.15827622859E+02  0.30452275907E+02  0.51100000000E-03 0.  1.
         12    1    3    3    0    0 -0.21887771377E+01 -0.13619142896E+01  0.12512899436E+02  0.12775688169E+02  0.00000000000E+00 0. -1.
</event>
<event>
 7    1  0.1381607E-011  0.5052885E+02  0.7816164E-02  0.1300439E+00
        -11   -1    0    0    0    0  0.00000000000E+00  0.00000000000E+00  0.45593999997E+02  0.45594000000E+02  0.51100000000E-03 0. -1.
         11   -1    0    0    0    0 -0.00000000000E+00 -0.00000000000E+00 -0.45593999997E+02  0.45594000000E+02  0.51100000000E-03 0.  1.
    9900012    2    1    2    0    0 -0.12743092140E-01  0.22305277321E+01 -0.40597919134E+02  0.50528850299E+02  0.29999970970E+02 0.  0.
         12    1    1    2    0    0  0.12743092140E-01 -0.22305277321E+01  0.40597919134E+02  0.40659149701E+02  0.00000000000E+00 0. -1.
         11    1    3    3    0    0 -0.12593177496E+01  0.12036726876E+02 -0.12748334998E+02  0.17578074996E+02  0.51100000000E-03 0.  1.
        -11    1    3    3    0    0  0.33796330882E+01 -0.25401033969E+01 -0.14540925519E+00  0.42302705812E+01  0.51100000000E-03 0. -1.
        -12    1    3    3    0    0 -0.21330584308E+01 -0.72660957467E+01 -0.27704174881E+02  0.28720504723E+02  0.00000000000E+00 0.  1.
</event>
<event>
 7    1  0.1381607E-011  0.5052886E+02  0.7816164E-02  0.1300439E+00
        -11   -1    0    0    0    0  0.00000000000E+00  0.00000000000E+00  0.45593999997E+02  0.45594000000E+02  0.51100000000E-03 0.  1.
         11   -1    0    0    0    0 -0.00000000000E+00 -0.00000000000E+00 -0.45593999997E+02  0.45594000000E+02  0.51100000000E-03 0. -1.
    9900012    2    1    2    0    0  0.38923009932E+02  0.11095456905E+02  0.38801930394E+01  0.50528858788E+02  0.29999996771E+02 0.  0.
         12    1    1    2    0    0 -0.38923009932E+02 -0.11095456905E+02 -0.38801930394E+01  0.40659141212E+02  0.00000000000E+00 0. -1.
         11    1    3    3    0    0  0.23094766280E+02  0.31507505351E+01 -0.10813057221E+01  0.23333766965E+02  0.51100000000E-03 0. -1.
        -11    1    3    3    0    0  0.74837674626E+01 -0.65937340114E+01  0.19924776817E+01  0.10171237448E+02  0.51100000000E-03 0.  1.
         12    1    3    3    0    0  0.83444761895E+01  0.14538440382E+02  0.29690210798E+01  0.17023854375E+02  0.00000000000E+00 0. -1.
</event>
<event>
 7    1  0.1381607E-011  0.5052886E+02  0.7816164E-02  0.1300439E+00
        -11   -1    0    0    0    0  0.00000000000E+00  0.00000000000E+00  0.45593999997E+02  0.45594000000E+02  0.51100000000E-03 0. -1.
         11   -1    0    0    0    0 -0.00000000000E+00 -0.00000000000E+00 -0.45593999997E+02  0.45594000000E+02  0.51100000000E-03 0.  1.
    9900012    2    1    2    0    0 -0.44562445335E+01  0.13742729889E+02 -0.38005854395E+02  0.50528859472E+02  0.29999998852E+02 0.  0.
         12    1    1    2    0    0  0.44562445335E+01 -0.13742729889E+02  0.38005854395E+02  0.40659140528E+02  0.00000000000E+00 0. -1.
         11    1    3    3    0    0 -0.62728895228E+01  0.17094908281E+02 -0.24043673277E+02  0.30160955837E+02  0.51100000000E-03 0. -1.
        -11    1    3    3    0    0  0.82838391299E-01  0.11571222048E+01 -0.15308728171E+02  0.15352620378E+02  0.51100000000E-03 0.  1.
         12    1    3    3    0    0  0.17338065980E+01 -0.45093005964E+01  0.13465470528E+01  0.50152832575E+01  0.00000000000E+00 0. -1.
</event>
<event>
 7    1  0.1381607E-011  0.5052886E+02  0.7816164E-02  0.1300439E+00
        -11   -1    0    0    0    0  0.00000000000E+00  0.00000000000E+00  0.45593999997E+02  0.45594000000E+02  0.51100000000E-03 0.  1.
         11   -1    0    0    0    0 -0.00000000000E+00 -0.00000000000E+00 -0.45593999997E+02  0.45594000000E+02  0.51100000000E-03 0. -1.
    9900012    2    1    2    0    0 -0.44484546495E+01 -0.31319281087E+02  0.25543674965E+02  0.50528862683E+02  0.30000008612E+02 0.  0.
         12    1    1    2    0    0  0.44484546495E+01  0.31319281087E+02 -0.25543674965E+02  0.40659137317E+02  0.00000000000E+00 0. -1.
         11    1    3    3    0    0 -0.14313232229E+02 -0.16851581027E+02  0.55611475083E+01  0.22798481568E+02  0.51100000000E-03 0. -1.
        -11    1    3    3    0    0  0.44872266748E+00 -0.59899171085E+01  0.97159505401E+01  0.11422790997E+02  0.51100000000E-03 0.  1.
        -12    1    3    3    0    0  0.94160549118E+01 -0.84777829522E+01  0.10266576917E+02  0.16307590119E+02  0.00000000000E+00 0.  1.
</event>
<event>
 7    1  0.1381607E-011  0.5052886E+02  0.7816164E-02  0.1300439E+00
        -11   -1    0    0    0    0  0.00000000000E+00  0.00000000000E+00  0.45593999997E+02  0.45594000000E+02  0.51100000000E-03 0. -1.
         11   -1    0    0    0    0 -0.00000000000E+00 -0.00000000000E+00 -0.45593999997E+02  0.45594000000E+02  0.51100000000E-03 0.  1.
    9900012    2    1    2    0    0  0.21319813142E+02  0.26807365354E+02 -0.21908817053E+02  0.50528861614E+02  0.30000005362E+02 0.  0.
         12    1    1    2    0    0 -0.21319813142E+02 -0.26807365354E+02  0.21908817053E+02  0.40659138386E+02  0.00000000000E+00 0. -1.
         11    1    3    3    0    0  0.15276692575E+02  0.14711738542E+01 -0.63242605569E+01  0.16599336143E+02  0.51100000000E-03 0. -1.
        -11    1    3    3    0    0  0.82299416143E+01  0.14699225557E+02 -0.15759600988E+02  0.23068684282E+02  0.51100000000E-03 0.  1.
        -12    1    3    3    0    0 -0.21868210471E+01  0.10636965943E+02  0.17504449178E+00  0.10860841189E+02  0.00000000000E+00 0.  1.
</event>
<event>
 7    1  0.1381607E-011  0.5052886E+02  0.7816164E-02  0.1300439E+00
        -11   -1    0    0    0    0  0.00000000000E+00  0.00000000000E+00  0.45593999997E+02  0.45594000000E+02  0.51100000000E-03 0. -1.
         11   -1    0    0    0    0 -0.00000000000E+00 -0.00000000000E+00 -0.45593999997E+02  0.45594000000E+02  0.51100000000E-03 0.  1.
    9900012    2    1    2    0    0  0.39685038208E+02  0.29783919173E+01 -0.83302142318E+01  0.50528861480E+02  0.30000004955E+02 0.  0.
         12    1    1    2    0    0 -0.39685038208E+02 -0.29783919173E+01  0.83302142318E+01  0.40659138520E+02  0.00000000000E+00 0. -1.
         11    1    3    3    0    0  0.14837649109E+02 -0.54602464513E+01 -0.68935774095E+01  0.17247942838E+02  0.51100000000E-03 0. -1.
        -11    1    3    3    0    0  0.28316635940E+02  0.59001485353E+01 -0.16946363838E+01  0.28974392426E+02  0.51100000000E-03 0.  1.
         12    1    3    3    0    0 -0.34692468409E+01  0.25384898333E+01  0.25799956147E+00  0.43065262162E+01  0.00000000000E+00 0. -1.
</event>
<event>
 7    1  0.1381607E-011  0.5052887E+02  0.7816164E-02  0.1300439E+00
        -11   -1    0    0    0    0  0.00000000000E+00  0.00000000000E+00  0.45593999997E+02  0.45594000000E+02  0.51100000000E-03 0. -1.
         11   -1    0    0    0    0 -0.00000000000E+00 -0.00000000000E+00 -0.45593999997E+02  0.45594000000E+02  0.51100000000E-03 0.  1.
    9900012    2    1    2    0    0  0.17019593767E+02 -0.36118179967E+02 -0.76795513608E+01  0.50528868121E+02  0.30000025139E+02 0.  0.
         12    1    1    2    0    0 -0.17019593767E+02  0.36118179967E+02  0.76795513608E+01  0.40659131879E+02  0.00000000000E+00 0. -1.
         11    1    3    3    0    0 -0.22938397043E+01 -0.79580710029E+01 -0.35802717543E+01  0.90228011600E+01  0.51100000000E-03 0. -1.
        -11    1    3    3    0    0  0.14661653168E+02 -0.12898044598E+02 -0.12784348157E+02  0.23340162513E+02  0.51100000000E-03 0.  1.
         12    1    3    3    0    0  0.46517803030E+01 -0.15262064365E+02  0.86850685503E+01  0.18165904448E+02  0.00000000000E+00 0. -1.
</event>
<event>
 7    1  0.1381607E-011  0.5052886E+02  0.7816164E-02  0.1300439E+00
        -11   -1    0    0    0    0  0.00000000000E+00  0.00000000000E+00  0.45593999997E+02  0.45594000000E+02  0.51100000000E-03 0. -1.
         11   -1    0    0    0    0 -0.00000000000E+00 -0.00000000000E+00 -0.45593999997E+02  0.45594000000E+02  0.51100000000E-03 0.  1.
    9900012    2    1    2    0    0 -0.13441519909E+02 -0.13279632787E+01 -0.38350071620E+02  0.50528856659E+02  0.29999990301E+02 0.  0.
         12    1    1    2    0    0  0.13441519909E+02  0.13279632787E+01  0.38350071620E+02  0.40659143341E+02  0.00000000000E+00 0. -1.
         11    1    3    3    0    0 -0.10276338815E+02 -0.61563437330E+01 -0.30750840300E+01  0.12367693789E+02  0.51100000000E-03 0. -1.
        -11    1    3    3    0    0 -0.97295420304E+00  0.56778562510E+01 -0.45352697322E+01  0.73316685204E+01  0.51100000000E-03 0.  1.
        -12    1    3    3    0    0 -0.21922268915E+01 -0.84947579678E+00 -0.30739717858E+02  0.30829494350E+02  0.00000000000E+00 0.  1.
</event>
<event>
 7    1  0.1381607E-011  0.5052886E+02  0.7816164E-02  0.1300439E+00
        -11   -1    0    0    0    0  0.00000000000E+00  0.00000000000E+00  0.45593999997E+02  0.45594000000E+02  0.51100000000E-03 0. -1.
         11   -1    0    0    0    0 -0.00000000000E+00 -0.00000000000E+00 -0.45593999997E+02  0.45594000000E+02  0.51100000000E-03 0.  1.
    9900012    2    1    2    0    0 -0.24641956872E+01  0.40388329713E+02 -0.39845181877E+01  0.50528858069E+02  0.29999994587E+02 0.  0.
         12    1    1    2    0    0  0.24641956872E+01 -0.40388329713E+02  0.39845181877E+01  0.40659141931E+02  0.00000000000E+00 0. -1.
         11    1    3    3    0    0  0.39141946463E+01  0.15517752573E+02  0.18309551323E+01  0.16108195479E+02  0.51100000000E-03 0.  1.
        -11    1    3    3    0    0  0.41302453758E+01  0.16545479874E+02  0.43459393143E+01  0.17598267526E+02  0.51100000000E-03 0. -1.
        -12    1    3    3    0    0 -0.10508635709E+02  0.83250972654E+01 -0.10161412634E+02  0.16822395064E+02  0.00000000000E+00 0.  1.
</event>
<event>
 7    1  0.1381607E-011  0.5052885E+02  0.7816164E-02  0.1300439E+00
        -11   -1    0    0    0    0  0.00000000000E+00  0.00000000000E+00  0.45593999997E+02  0.45594000000E+02  0.51100000000E-03 0. -1.
         11   -1    0    0    0    0 -0.00000000000E+00 -0.00000000000E+00 -0.45593999997E+02  0.45594000000E+02  0.51100000000E-03 0.  1.
    9900012    2    1    2    0    0 -0.78049227590E+01 -0.30517141544E+02 -0.25709018361E+02  0.50528851308E+02  0.29999974036E+02 0.  0.
         12    1    1    2    0    0  0.78049227590E+01  0.30517141544E+02  0.25709018361E+02  0.40659148692E+02  0.00000000000E+00 0. -1.
         11    1    3    3    0    0 -0.88021651899E+01 -0.20035358065E+02 -0.20473984292E+02  0.29967944839E+02  0.51100000000E-03 0. -1.
        -11    1    3    3    0    0  0.46090346743E+01 -0.13229259012E+02 -0.70381826751E+01  0.15677771215E+02  0.51100000000E-03 0.  1.
         12    1    3    3    0    0 -0.36117922434E+01  0.27474755327E+01  0.18031486069E+01  0.48831352542E+01  0.00000000000E+00 0. -1.
</event>
<event>
 7    1  0.1381607E-011  0.5052887E+02  0.7816164E-02  0.1300439E+00
        -11   -1    0    0    0    0  0.00000000000E+00  0.00000000000E+00  0.45593999997E+02  0.45594000000E+02  0.51100000000E-03 0.  1.
         11   -1    0    0    0    0 -0.00000000000E+00 -0.00000000000E+00 -0.45593999997E+02  0.45594000000E+02  0.51100000000E-03 0. -1.
    9900012    2    1    2    0    0 -0.23821450929E+01  0.38689855338E+02 -0.12271310676E+02  0.50528873263E+02  0.30000040771E+02 0.  0.
         12    1    1    2    0    0  0.23821450929E+01 -0.38689855338E+02  0.12271310676E+02  0.40659126737E+02  0.00000000000E+00 0. -1.
         11    1    3    3    0    0  0.43471948828E+01  0.15309702456E+02 -0.13110584146E+02  0.20619711675E+02  0.51100000000E-03 0. -1.
        -11    1    3    3    0    0 -0.85181335298E+01  0.48118678772E+01 -0.41068565459E+01  0.10610322438E+02  0.51100000000E-03 0.  1.
        -12    1    3    3    0    0  0.17887935541E+01  0.18568285004E+02  0.49461300167E+01  0.19298839150E+02  0.00000000000E+00 0.  1.
</event>
<event>
 7    1  0.1381607E-011  0.5052886E+02  0.7816164E-02  0.1300439E+00
        -11   -1    0    0    0    0  0.00000000000E+00  0.00000000000E+00  0.45593999997E+02  0.45594000000E+02  0.51100000000E-03 0.  1.
         11   -1    0    0    0    0 -0.00000000000E+00 -0.00000000000E+00 -0.45593999997E+02  0.45594000000E+02  0.51100000000E-03 0. -1.
    9900012    2    1    2    0    0 -0.15028856980E+02  0.32055380971E+02  0.19993799124E+02  0.50528855952E+02  0.29999988152E+02 0.  0.
         12    1    1    2    0    0  0.15028856980E+02 -0.32055380971E+02 -0.19993799124E+02  0.40659144048E+02  0.00000000000E+00 0. -1.
         11    1    3    3    0    0 -0.74223139610E+01  0.19668890612E+00  0.11909048039E+01  0.75198195174E+01  0.51100000000E-03 0. -1.
        -11    1    3    3    0    0 -0.11436310714E+02  0.24623720897E+02  0.59875491248E+01  0.27802294480E+02  0.51100000000E-03 0.  1.
        -12    1    3    3    0    0  0.38297676955E+01  0.72349711676E+01  0.12815345196E+02  0.15206741955E+02  0.00000000000E+00 0.  1.
</event>
<event>
 7    1  0.1381607E-011  0.5052886E+02  0.7816164E-02  0.1300439E+00
        -11   -1    0    0    0    0  0.00000000000E+00  0.00000000000E+00  0.45593999997E+02  0.45594000000E+02  0.51100000000E-03 0.  1.
         11   -1    0    0    0    0 -0.00000000000E+00 -0.00000000000E+00 -0.45593999997E+02  0.45594000000E+02  0.51100000000E-03 0. -1.
    9900012    2    1    2    0    0  0.17620081751E+02 -0.52177321721E+01  0.36269457971E+02  0.50528860911E+02  0.30000003225E+02 0.  0.
         12    1    1    2    0    0 -0.17620081751E+02  0.52177321721E+01 -0.36269457971E+02  0.40659139089E+02  0.00000000000E+00 0. -1.
         11    1    3    3    0    0  0.16596979864E+02  0.27789546946E+01  0.24595523985E+02  0.29801377991E+02  0.51100000000E-03 0. -1.
        -11    1    3    3    0    0  0.31725157799E+01 -0.36749725045E+01  0.14391486691E+02  0.15188323434E+02  0.51100000000E-03 0.  1.
         12    1    3    3    0    0 -0.21494138936E+01 -0.43217143622E+01 -0.27175527045E+01  0.55391594864E+01  0.00000000000E+00 0. -1.
</event>
<event>
 7    1  0.1381607E-011  0.5052886E+02  0.7816164E-02  0.1300439E+00
        -11   -1    0    0    0    0  0.00000000000E+00  0.00000000000E+00  0.45593999997E+02  0.45594000000E+02  0.51100000000E-03 0. -1.
         11   -1    0    0    0    0 -0.00000000000E+00 -0.00000000000E+00 -0.45593999997E+02  0.45594000000E+02  0.51100000000E-03 0.  1.
    9900012    2    1    2    0    0  0.17887848742E+01  0.39126522938E+02 -0.10912412680E+02  0.50528864507E+02  0.30000014155E+02 0.  0.
         12    1    1    2    0    0 -0.17887848742E+01 -0.39126522938E+02  0.10912412680E+02  0.40659135493E+02  0.00000000000E+00 0. -1.
         11    1    3    3    0    0 -0.83907802645E+01  0.46437351409E+01 -0.46122241153E+01  0.10641526256E+02  0.51100000000E-03 0. -1.
        -11    1    3    3    0    0  0.50941602029E+01  0.11668119043E+02 -0.10041780434E+02  0.16215203505E+02  0.51100000000E-03 0.  1.
         12    1    3    3    0    0  0.50854049359E+01  0.22814668754E+02  0.37415918686E+01  0.23672134746E+02  0.00000000000E+00 0. -1.
</event>
<event>
 7    1  0.1381607E-011  0.5052886E+02  0.7816164E-02  0.1300439E+00
        -11   -1    0    0    0    0  0.00000000000E+00  0.00000000000E+00  0.45593999997E+02  0.45594000000E+02  0.51100000000E-03 0.  1.
         11   -1    0    0    0    0 -0.00000000000E+00 -0.00000000000E+00 -0.45593999997E+02  0.45594000000E+02  0.51100000000E-03 0. -1.
    9900012    2    1    2    0    0  0.94039503886E+01  0.17543593944E+02  0.35453542314E+02  0.50528860388E+02  0.30000001635E+02 0.  0.
         12    1    1    2    0    0 -0.94039503886E+01 -0.17543593944E+02 -0.35453542314E+02  0.40659139612E+02  0.00000000000E+00 0. -1.
         11    1    3    3    0    0  0.54707161127E+01  0.13099805635E+02  0.15056438006E+02  0.20693718084E+02  0.51100000000E-03 0. -1.
        -11    1    3    3    0    0  0.78264761330E+01 -0.79786487713E+00  0.21783225767E+02  0.23160294517E+02  0.51100000000E-03 0.  1.
         12    1    3    3    0    0 -0.38932418571E+01  0.52416531865E+01 -0.13861214590E+01  0.66748477874E+01  0.00000000000E+00 0. -1.
</event>
<event>
 7    1  0.1381607E-011  0.5052887E+02  0.7816164E-02  0.1300439E+00
        -11   -1    0    0    0    0  0.00000000000E+00  0.00000000000E+00  0.45593999997E+02  0.45594000000E+02  0.51100000000E-03 0.  1.
         11   -1    0    0    0    0 -0.00000000000E+00 -0.00000000000E+00 -0.45593999997E+02  0.45594000000E+02  0.51100000000E-03 0. -1.
    9900012    2    1    2    0    0 -0.15400229790E+02 -0.94004654368E+01  0.36436642752E+02  0.50528871098E+02  0.30000034189E+02 0.  0.
         12    1    1    2    0    0  0.15400229790E+02  0.94004654368E+01 -0.36436642752E+02  0.40659128902E+02  0.00000000000E+00 0. -1.
         11    1    3    3    0    0 -0.13068346538E+01  0.64315866334E+01  0.12942077944E+02  0.14511047695E+02  0.51100000000E-03 0. -1.
        -11    1    3    3    0    0 -0.92654514942E+01 -0.77434055691E+01  0.23696486080E+02  0.26595720972E+02  0.51100000000E-03 0.  1.
        -12    1    3    3    0    0 -0.48279436420E+01 -0.80886465012E+01 -0.20192127161E+00  0.94221024315E+01  0.00000000000E+00 0.  1.
</event>
<event>
 7    1  0.1381607E-011  0.5052886E+02  0.7816164E-02  0.1300439E+00
        -11   -1    0    0    0    0  0.00000000000E+00  0.00000000000E+00  0.45593999997E+02  0.45594000000E+02  0.51100000000E-03 0.  1.
         11   -1    0    0    0    0 -0.00000000000E+00 -0.00000000000E+00 -0.45593999997E+02  0.45594000000E+02  0.51100000000E-03 0. -1.
    9900012    2    1    2    0    0  0.18988079377E+02 -0.34774069843E+02  0.91314070339E+01  0.50528859745E+02  0.29999999680E+02 0.  0.
         12    1    1    2    0    0 -0.18988079377E+02  0.34774069843E+02 -0.91314070339E+01  0.40659140255E+02  0.00000000000E+00 0. -1.
         11    1    3    3    0    0 -0.26856782550E+01 -0.62178716823E+00  0.30248480983E+01  0.40925778247E+01  0.51100000000E-03 0. -1.
        -11    1    3    3    0    0  0.13996441734E+02 -0.14328147369E+02  0.13242610914E+02  0.24011724893E+02  0.51100000000E-03 0.  1.
        -12    1    3    3    0    0  0.76773158979E+01 -0.19824135306E+02 -0.71360519789E+01  0.22424557027E+02  0.00000000000E+00 0.  1.
</event>
<event>
 7    1  0.1381607E-011  0.5052889E+02  0.7816164E-02  0.1300439E+00
        -11   -1    0    0    0    0  0.00000000000E+00  0.00000000000E+00  0.45593999997E+02  0.45594000000E+02  0.51100000000E-03 0. -1.
         11   -1    0    0    0    0 -0.00000000000E+00 -0.00000000000E+00 -0.45593999997E+02  0.45594000000E+02  0.51100000000E-03 0.  1.
    9900012    2    1    2    0    0  0.88914817275E+01 -0.18371878765E+02 -0.35165023126E+02  0.50528889974E+02  0.30000091566E+02 0.  0.
         12    1    1    2    0    0 -0.88914817275E+01  0.18371878765E+02  0.35165023126E+02  0.40659110026E+02  0.00000000000E+00 0. -1.
         11    1    3    3    0    0 -0.10225749127E+01 -0.81492310264E+01  0.24021817215E+01  0.85572251962E+01  0.51100000000E-03 0. -1.
        -11    1    3    3    0    0  0.61325531399E+00  0.27140150906E+01 -0.57763848833E+01  0.64115975056E+01  0.51100000000E-03 0.  1.
        -12    1    3    3    0    0  0.93008013262E+01 -0.12936662829E+02 -0.31790819964E+02  0.35560067273E+02  0.00000000000E+00 0.  1.
</event>
<event>
 7    1  0.1381607E-011  0.5052887E+02  0.7816164E-02  0.1300439E+00
        -11   -1    0    0    0    0  0.00000000000E+00  0.00000000000E+00  0.45593999997E+02  0.45594000000E+02  0.51100000000E-03 0.  1.
         11   -1    0    0    0    0 -0.00000000000E+00 -0.00000000000E+00 -0.45593999997E+02  0.45594000000E+02  0.51100000000E-03 0. -1.
    9900012    2    1    2    0    0  0.90352190699E+01 -0.22586627029E+02  0.32578737935E+02  0.50528867329E+02  0.30000022732E+02 0.  0.
         12    1    1    2    0    0 -0.90352190699E+01  0.22586627029E+02 -0.32578737935E+02  0.40659132671E+02  0.00000000000E+00 0. -1.
         11    1    3    3    0    0  0.12464393774E+02 -0.10372946417E+02  0.27673902566E+02  0.32074974872E+02  0.51100000000E-03 0. -1.
        -11    1    3    3    0    0 -0.33684086356E+01  0.10753041482E+01  0.36879789392E+01  0.51091726008E+01  0.51100000000E-03 0.  1.
         12    1    3    3    0    0 -0.60766068472E-01 -0.13288984760E+02  0.12168564291E+01  0.13344719856E+02  0.00000000000E+00 0. -1.
</event>
<event>
 7    1  0.1381607E-011  0.5052885E+02  0.7816164E-02  0.1300439E+00
        -11   -1    0    0    0    0  0.00000000000E+00  0.00000000000E+00  0.45593999997E+02  0.45594000000E+02  0.51100000000E-03 0.  1.
         11   -1    0    0    0    0 -0.00000000000E+00 -0.00000000000E+00 -0.45593999997E+02  0.45594000000E+02  0.51100000000E-03 0. -1.
    9900012    2    1    2    0    0  0.12066494606E+00 -0.10903059172E+02  0.39169826203E+02  0.50528849196E+02  0.29999967617E+02 0.  0.
         12    1    1    2    0    0 -0.12066494606E+00  0.10903059172E+02 -0.39169826203E+02  0.40659150804E+02  0.00000000000E+00 0. -1.
         11    1    3    3    0    0 -0.18055857088E+01  0.49888478116E+01  0.62957082878E+01  0.82331455317E+01  0.51100000000E-03 0. -1.
        -11    1    3    3    0    0 -0.45527829726E+01 -0.37824877308E+01  0.26503354482E+02  0.27156267146E+02  0.51100000000E-03 0.  1.
        -12    1    3    3    0    0  0.64790336274E+01 -0.12109419253E+02  0.63707634327E+01  0.15139436519E+02  0.00000000000E+00 0.  1.
</event>
<event>
 7    1  0.1381607E-011  0.5052889E+02  0.7816164E-02  0.1300439E+00
        -11   -1    0    0    0    0  0.00000000000E+00  0.00000000000E+00  0.45593999997E+02  0.45594000000E+02  0.51100000000E-03 0. -1.
         11   -1    0    0    0    0 -0.00000000000E+00 -0.00000000000E+00 -0.45593999997E+02  0.45594000000E+02  0.51100000000E-03 0.  1.
    9900012    2    1    2    0    0  0.24085595432E+02 -0.30403505245E+02  0.12193196650E+02  0.50528891758E+02  0.30000096987E+02 0.  0.
         12    1    1    2    0    0 -0.24085595432E+02  0.30403505245E+02 -0.12193196650E+02  0.40659108242E+02  0.00000000000E+00 0. -1.
         11    1    3    3    0    0 -0.26031175265E+01  0.22389948979E+01 -0.54752647413E+00  0.34769389570E+01  0.51100000000E-03 0. -1.
        -11    1    3    3    0    0  0.65860961153E+01 -0.65040875838E+01 -0.39852188682E+01  0.10077786812E+02  0.51100000000E-03 0.  1.
         12    1    3    3    0    0  0.20102616843E+02 -0.26138412559E+02  0.16725941992E+02  0.36974165989E+02  0.00000000000E+00 0. -1.
</event>
<event>
 7    1  0.1381607E-011  0.5052886E+02  0.7816164E-02  0.1300439E+00
        -11   -1    0    0    0    0  0.00000000000E+00  0.00000000000E+00  0.45593999997E+02  0.45594000000E+02  0.51100000000E-03 0.  1.
         11   -1    0    0    0    0 -0.00000000000E+00 -0.00000000000E+00 -0.45593999997E+02  0.45594000000E+02  0.51100000000E-03 0. -1.
    9900012    2    1    2    0    0 -0.34665332393E+02 -0.21033600631E+02 -0.30113832796E+01  0.50528855215E+02  0.29999985911E+02 0.  0.
         12    1    1    2    0    0  0.34665332393E+02  0.21033600631E+02  0.30113832796E+01  0.40659144785E+02  0.00000000000E+00 0. -1.
         11    1    3    3    0    0 -0.55436872371E+01 -0.12626131276E+01  0.91905512904E+01  0.10807076079E+02  0.51100000000E-03 0. -1.
        -11    1    3    3    0    0 -0.14293689041E+02 -0.74886228799E+01  0.13250136097E+01  0.16190882631E+02  0.51100000000E-03 0.  1.
        -12    1    3    3    0    0 -0.14827956114E+02 -0.12282364623E+02 -0.13526948180E+02  0.23530896505E+02  0.00000000000E+00 0.  1.
</event>
<event>
 7    1  0.1381607E-011  0.5052886E+02  0.7816164E-02  0.1300439E+00
        -11   -1    0    0    0    0  0.00000000000E+00  0.00000000000E+00  0.45593999997E+02  0.45594000000E+02  0.51100000000E-03 0.  1.
         11   -1    0    0    0    0 -0.00000000000E+00 -0.00000000000E+00 -0.45593999997E+02  0.45594000000E+02  0.51100000000E-03 0. -1.
    9900012    2    1    2    0    0 -0.14807162431E+02 -0.33263920965E+02 -0.18094884577E+02  0.50528863941E+02  0.30000012435E+02 0.  0.
         12    1    1    2    0    0  0.14807162431E+02  0.33263920965E+02  0.18094884577E+02  0.40659136059E+02  0.00000000000E+00 0. -1.
         11    1    3    3    0    0 -0.69631222726E+01 -0.70004562030E+01  0.45587346354E+01  0.10875363009E+02  0.51100000000E-03 0. -1.
        -11    1    3    3    0    0 -0.38464579735E+01  0.11029101669E+01 -0.64764938351E+01  0.76129246966E+01  0.51100000000E-03 0.  1.
        -12    1    3    3    0    0 -0.39975821851E+01 -0.27366374928E+02 -0.16177125377E+02  0.32040576236E+02  0.00000000000E+00 0.  1.
</event>
<event>
 7    1  0.1381607E-011  0.5052886E+02  0.7816164E-02  0.1300439E+00
        -11   -1    0    0    0    0  0.00000000000E+00  0.00000000000E+00  0.45593999997E+02  0.45594000000E+02  0.51100000000E-03 0.  1.
         11   -1    0    0    0    0 -0.00000000000E+00 -0.00000000000E+00 -0.45593999997E+02  0.45594000000E+02  0.51100000000E-03 0. -1.
    9900012    2    1    2    0    0 -0.25032208811E+02 -0.24220233256E+02  0.20974623183E+02  0.50528855954E+02  0.29999988156E+02 0.  0.
         12    1    1    2    0    0  0.25032208811E+02  0.24220233256E+02 -0.20974623183E+02  0.40659144046E+02  0.00000000000E+00 0. -1.
         11    1    3    3    0    0 -0.78272583169E+00 -0.84659012917E+01  0.54462210030E+01  0.10096804835E+02  0.51100000000E-03 0. -1.
        -11    1    3    3    0    0 -0.22639436949E+02 -0.21584943770E+02  0.12852014594E+02  0.33817572093E+02  0.51100000000E-03 0.  1.
         12    1    3    3    0    0 -0.16100460302E+01  0.58306118061E+01  0.26763875868E+01  0.66144790247E+01  0.00000000000E+00 0. -1.
</event>
<event>
 7    1  0.1381607E-011  0.5052887E+02  0.7816164E-02  0.1300439E+00
        -11   -1    0    0    0    0  0.00000000000E+00  0.00000000000E+00  0.45593999997E+02  0.45594000000E+02  0.51100000000E-03 0.  1.
         11   -1    0    0    0    0 -0.00000000000E+00 -0.00000000000E+00 -0.45593999997E+02  0.45594000000E+02  0.51100000000E-03 0. -1.
    9900012    2    1    2    0    0  0.38673935487E+02 -0.63299735821E+01  0.10836197230E+02  0.50528867914E+02  0.30000024511E+02 0.  0.
         12    1    1    2    0    0 -0.38673935487E+02  0.63299735821E+01 -0.10836197230E+02  0.40659132086E+02  0.00000000000E+00 0. -1.
         11    1    3    3    0    0  0.30176871410E+02 -0.53214705548E+01  0.69517736819E+01  0.31421151706E+02  0.51100000000E-03 0. -1.
        -11    1    3    3    0    0  0.84359844671E+01 -0.47497079679E+01  0.86954538575E+01  0.13012935017E+02  0.51100000000E-03 0.  1.
         12    1    3    3    0    0  0.61079609996E-01  0.37412049406E+01 -0.48110303092E+01  0.60947811907E+01  0.00000000000E+00 0. -1.
</event>
<event>
 7    1  0.1381607E-011  0.5052886E+02  0.7816164E-02  0.1300439E+00
        -11   -1    0    0    0    0  0.00000000000E+00  0.00000000000E+00  0.45593999997E+02  0.45594000000E+02  0.51100000000E-03 0.  1.
         11   -1    0    0    0    0 -0.00000000000E+00 -0.00000000000E+00 -0.45593999997E+02  0.45594000000E+02  0.51100000000E-03 0. -1.
    9900012    2    1    2    0    0 -0.26489471090E+01  0.12991019390E+02  0.38436733844E+02  0.50528855713E+02  0.29999987424E+02 0.  0.
         12    1    1    2    0    0  0.26489471090E+01 -0.12991019390E+02 -0.38436733844E+02  0.40659144287E+02  0.00000000000E+00 0. -1.
         11    1    3    3    0    0 -0.43555146367E+01  0.93081067702E+00  0.12030295936E+02  0.12828286590E+02  0.51100000000E-03 0. -1.
        -11    1    3    3    0    0 -0.30028425193E+00  0.18116773947E+02  0.25461575997E+02  0.31250592337E+02  0.51100000000E-03 0.  1.
        -12    1    3    3    0    0  0.20068517796E+01 -0.60565652346E+01  0.94486191092E+00  0.64499767858E+01  0.00000000000E+00 0.  1.
</event>
<event>
 7    1  0.1381607E-011  0.5052886E+02  0.7816164E-02  0.1300439E+00
        -11   -1    0    0    0    0  0.00000000000E+00  0.00000000000E+00  0.45593999997E+02  0.45594000000E+02  0.51100000000E-03 0.  1.
         11   -1    0    0    0    0 -0.00000000000E+00 -0.00000000000E+00 -0.45593999997E+02  0.45594000000E+02  0.51100000000E-03 0. -1.
    9900012    2    1    2    0    0  0.34755434712E+02 -0.17616020735E+02  0.11614704056E+02  0.50528858606E+02  0.29999996219E+02 0.  0.
         12    1    1    2    0    0 -0.34755434712E+02  0.17616020735E+02 -0.11614704056E+02  0.40659141394E+02  0.00000000000E+00 0. -1.
         11    1    3    3    0    0  0.21999650713E+01  0.18547312430E+01  0.87051268794E+01  0.91683754584E+01  0.51100000000E-03 0. -1.
        -11    1    3    3    0    0 -0.18024532446E+00 -0.52768533684E+01  0.20669561730E+01  0.56700950548E+01  0.51100000000E-03 0.  1.
        -12    1    3    3    0    0  0.32735714966E+02 -0.14193898610E+02  0.84262100375E+00  0.35690388093E+02  0.00000000000E+00 0.  1.
</event>
<event>
 7    1  0.1381607E-011  0.5052885E+02  0.7816164E-02  0.1300439E+00
        -11   -1    0    0    0    0  0.00000000000E+00  0.00000000000E+00  0.45593999997E+02  0.45594000000E+02  0.51100000000E-03 0.  1.
         11   -1    0    0    0    0 -0.00000000000E+00 -0.00000000000E+00 -0.45593999997E+02  0.45594000000E+02  0.51100000000E-03 0. -1.
    9900012    2    1    2    0    0 -0.84103084183E+01  0.25924067238E+02  0.30172430182E+02  0.50528854744E+02  0.29999984480E+02 0.  0.
         12    1    1    2    0    0  0.84103084183E+01 -0.25924067238E+02 -0.30172430182E+02  0.40659145256E+02  0.00000000000E+00 0. -1.
         11    1    3    3    0    0  0.33573948716E+01  0.20986266069E+00  0.47813109486E+01  0.58461164296E+01  0.51100000000E-03 0.  1.
        -11    1    3    3    0    0 -0.12011227341E+02  0.23716119884E+02  0.29740530289E+02  0.39890137461E+02  0.51100000000E-03 0. -1.
         12    1    3    3    0    0  0.24352405097E+00  0.19980846939E+01 -0.43494110556E+01  0.47926008532E+01  0.00000000000E+00 0. -1.
</event>
<event>
 7    1  0.1381607E-011  0.5052886E+02  0.7816164E-02  0.1300439E+00
        -11   -1    0    0    0    0  0.00000000000E+00  0.00000000000E+00  0.45593999997E+02  0.45594000000E+02  0.51100000000E-03 0.  1.
         11   -1    0    0    0    0 -0.00000000000E+00 -0.00000000000E+00 -0.45593999997E+02  0.45594000000E+02  0.51100000000E-03 0. -1.
    9900012    2    1    2    0    0  0.60993049293E+01  0.39640754206E+02  0.66764474021E+01  0.50528857553E+02  0.29999993018E+02 0.  0.
         12    1    1    2    0    0 -0.60993049293E+01 -0.39640754206E+02 -0.66764474021E+01  0.40659142447E+02  0.00000000000E+00 0. -1.
         11    1    3    3    0    0  0.21598593065E+00  0.25883300453E+02  0.17548956285E+01  0.25943622554E+02  0.51100000000E-03 0. -1.
        -11    1    3    3    0    0  0.10459373478E+02  0.15886613688E+02  0.42936443063E+01  0.19499188950E+02  0.51100000000E-03 0.  1.
        -12    1    3    3    0    0 -0.45760544792E+01 -0.21291599354E+01  0.62790746734E+00  0.50860460492E+01  0.00000000000E+00 0.  1.
</event>
<event>
 7    1  0.1381607E-011  0.5052890E+02  0.7816164E-02  0.1300439E+00
        -11   -1    0    0    0    0  0.00000000000E+00  0.00000000000E+00  0.45593999997E+02  0.45594000000E+02  0.51100000000E-03 0.  1.
         11   -1    0    0    0    0 -0.00000000000E+00 -0.00000000000E+00 -0.45593999997E+02  0.45594000000E+02  0.51100000000E-03 0. -1.
    9900012    2    1    2    0    0  0.90486986522E+00 -0.17477864065E+02  0.36699695463E+02  0.50528903000E+02  0.30000131159E+02 0.  0.
         12    1    1    2    0    0 -0.90486986522E+00  0.17477864065E+02 -0.36699695463E+02  0.40659097000E+02  0.00000000000E+00 0. -1.
         11    1    3    3    0    0  0.47481999582E+01  0.59802057443E+01  0.63461410309E+01  0.99288352707E+01  0.51100000000E-03 0. -1.
        -11    1    3    3    0    0 -0.51799725991E+01 -0.38042804035E+01  0.35686964434E+01  0.73512080696E+01  0.51100000000E-03 0.  1.
        -12    1    3    3    0    0  0.13366425061E+01 -0.19653789406E+02  0.26784857989E+02  0.33248859660E+02  0.00000000000E+00 0.  1.
</event>
<event>
 7    1  0.1381607E-011  0.5052885E+02  0.7816164E-02  0.1300439E+00
        -11   -1    0    0    0    0  0.00000000000E+00  0.00000000000E+00  0.45593999997E+02  0.45594000000E+02  0.51100000000E-03 0.  1.
         11   -1    0    0    0    0 -0.00000000000E+00 -0.00000000000E+00 -0.45593999997E+02  0.45594000000E+02  0.51100000000E-03 0. -1.
    9900012    2    1    2    0    0 -0.33939594543E+02  0.19585597803E+02  0.10847785112E+02  0.50528853909E+02  0.29999981942E+02 0.  0.
         12    1    1    2    0    0  0.33939594543E+02 -0.19585597803E+02 -0.10847785112E+02  0.40659146091E+02  0.00000000000E+00 0. -1.
         11    1    3    3    0    0 -0.27269978560E+02  0.20560530300E+02  0.67648900146E+01  0.34815957175E+02  0.51100000000E-03 0. -1.
        -11    1    3    3    0    0 -0.16376078830E+01  0.53604008288E+01 -0.15964995141E+01  0.58279042188E+01  0.51100000000E-03 0.  1.
         12    1    3    3    0    0 -0.50320081001E+01 -0.63353333262E+01  0.56793946113E+01  0.98849925151E+01  0.00000000000E+00 0. -1.
</event>
<event>
 7    1  0.1381607E-011  0.5052887E+02  0.7816164E-02  0.1300439E+00
        -11   -1    0    0    0    0  0.00000000000E+00  0.00000000000E+00  0.45593999997E+02  0.45594000000E+02  0.51100000000E-03 0.  1.
         11   -1    0    0    0    0 -0.00000000000E+00 -0.00000000000E+00 -0.45593999997E+02  0.45594000000E+02  0.51100000000E-03 0. -1.
    9900012    2    1    2    0    0 -0.39939415973E+01 -0.23595389386E+02  0.32870518693E+02  0.50528868567E+02  0.30000026495E+02 0.  0.
         12    1    1    2    0    0  0.39939415973E+01  0.23595389386E+02 -0.32870518693E+02  0.40659131433E+02  0.00000000000E+00 0. -1.
         11    1    3    3    0    0 -0.12802404992E+02 -0.53780268016E+01  0.11535862439E+02  0.18052724679E+02  0.51100000000E-03 0. -1.
        -11    1    3    3    0    0  0.26364191630E+00 -0.12658726609E+02  0.17466998132E+02  0.21573337490E+02  0.51100000000E-03 0.  1.
         12    1    3    3    0    0  0.85448214786E+01 -0.55586359754E+01  0.38676581220E+01  0.10902806398E+02  0.00000000000E+00 0. -1.
</event>
<event>
 7    1  0.1381607E-011  0.5052886E+02  0.7816164E-02  0.1300439E+00
        -11   -1    0    0    0    0  0.00000000000E+00  0.00000000000E+00  0.45593999997E+02  0.45594000000E+02  0.51100000000E-03 0.  1.
         11   -1    0    0    0    0 -0.00000000000E+00 -0.00000000000E+00 -0.45593999997E+02  0.45594000000E+02  0.51100000000E-03 0. -1.
    9900012    2    1    2    0    0 -0.15974734698E+02  0.25724122332E+01  0.37300888871E+02  0.50528858790E+02  0.29999996778E+02 0.  0.
         12    1    1    2    0    0  0.15974734698E+02 -0.25724122332E+01 -0.37300888871E+02  0.40659141210E+02  0.00000000000E+00 0. -1.
         11    1    3    3    0    0 -0.11555204637E+00 -0.36688642120E+01  0.27228518920E+02  0.27474827747E+02  0.51100000000E-03 0. -1.
        -11    1    3    3    0    0 -0.38646577788E+01  0.59814523871E+01  0.82839022035E+01  0.10924119570E+02  0.51100000000E-03 0.  1.
         12    1    3    3    0    0 -0.11994524873E+02  0.25982405806E+00  0.17884677479E+01  0.12129911473E+02  0.00000000000E+00 0. -1.
</event>
<event>
 7    1  0.1381607E-011  0.5052882E+02  0.7816164E-02  0.1300439E+00
        -11   -1    0    0    0    0  0.00000000000E+00  0.00000000000E+00  0.45593999997E+02  0.45594000000E+02  0.51100000000E-03 0.  1.
         11   -1    0    0    0    0 -0.00000000000E+00 -0.00000000000E+00 -0.45593999997E+02  0.45594000000E+02  0.51100000000E-03 0. -1.
    9900012    2    1    2    0    0  0.18107523209E+02  0.35258287614E+02  0.90630756835E+01  0.50528824122E+02  0.29999891401E+02 0.  0.
         12    1    1    2    0    0 -0.18107523209E+02 -0.35258287614E+02 -0.90630756835E+01  0.40659175878E+02  0.00000000000E+00 0. -1.
         11    1    3    3    0    0  0.90956321537E+01  0.73679772933E+01  0.76876090795E+01  0.14004176066E+02  0.51100000000E-03 0.  1.
        -11    1    3    3    0    0  0.14180980155E+02  0.27541160627E+02 -0.59055032258E+00  0.30983293511E+02  0.51100000000E-03 0. -1.
        -12    1    3    3    0    0 -0.51690891007E+01  0.34914969427E+00  0.19660169265E+01  0.55413545451E+01  0.00000000000E+00 0.  1.
</event>
<event>
 7    1  0.1381607E-011  0.5052886E+02  0.7816164E-02  0.1300439E+00
        -11   -1    0    0    0    0  0.00000000000E+00  0.00000000000E+00  0.45593999997E+02  0.45594000000E+02  0.51100000000E-03 0.  1.
         11   -1    0    0    0    0 -0.00000000000E+00 -0.00000000000E+00 -0.45593999997E+02  0.45594000000E+02  0.51100000000E-03 0. -1.
    9900012    2    1    2    0    0  0.12319652768E+02  0.35077425719E+02  0.16461043270E+02  0.50528860991E+02  0.30000003468E+02 0.  0.
         12    1    1    2    0    0 -0.12319652768E+02 -0.35077425719E+02 -0.16461043270E+02  0.40659139009E+02  0.00000000000E+00 0. -1.
         11    1    3    3    0    0  0.14676530746E+02  0.38226364656E+01  0.52879718114E+01  0.16061623530E+02  0.51100000000E-03 0. -1.
        -11    1    3    3    0    0  0.18601622969E+01  0.15521325478E+02  0.19636502662E+01  0.15755242651E+02  0.51100000000E-03 0.  1.
        -12    1    3    3    0    0 -0.42170402750E+01  0.15733463776E+02  0.92094211925E+01  0.18711994810E+02  0.00000000000E+00 0.  1.
</event>
<event>
 7    1  0.1381607E-011  0.5052886E+02  0.7816164E-02  0.1300439E+00
        -11   -1    0    0    0    0  0.00000000000E+00  0.00000000000E+00  0.45593999997E+02  0.45594000000E+02  0.51100000000E-03 0. -1.
         11   -1    0    0    0    0 -0.00000000000E+00 -0.00000000000E+00 -0.45593999997E+02  0.45594000000E+02  0.51100000000E-03 0.  1.
    9900012    2    1    2    0    0  0.52554141372E+01  0.40234446985E+02 -0.25952327408E+01  0.50528864066E+02  0.30000012815E+02 0.  0.
         12    1    1    2    0    0 -0.52554141372E+01 -0.40234446985E+02  0.25952327408E+01  0.40659135934E+02  0.00000000000E+00 0. -1.
         11    1    3    3    0    0  0.43104664955E+01  0.22978719765E+02 -0.89470366735E+01  0.25033001198E+02  0.51100000000E-03 0. -1.
        -11    1    3    3    0    0  0.87504451572E+01  0.50673646977E+01  0.14521960191E+01  0.10215544477E+02  0.51100000000E-03 0.  1.
         12    1    3    3    0    0 -0.78054975155E+01  0.12188362522E+02  0.48996079136E+01  0.15280318391E+02  0.00000000000E+00 0. -1.
</event>
<event>
 7    1  0.1381607E-011  0.5052887E+02  0.7816164E-02  0.1300439E+00
        -11   -1    0    0    0    0  0.00000000000E+00  0.00000000000E+00  0.45593999997E+02  0.45594000000E+02  0.51100000000E-03 0. -1.
         11   -1    0    0    0    0 -0.00000000000E+00 -0.00000000000E+00 -0.45593999997E+02  0.45594000000E+02  0.51100000000E-03 0.  1.
    9900012    2    1    2    0    0  0.26751529092E+01  0.37573807779E+02 -0.15304149006E+02  0.50528874937E+02  0.30000045858E+02 0.  0.
         12    1    1    2    0    0 -0.26751529092E+01 -0.37573807779E+02  0.15304149006E+02  0.40659125063E+02  0.00000000000E+00 0. -1.
         11    1    3    3    0    0 -0.87905904127E+01  0.19231955695E+02 -0.17584128869E+02  0.27501712456E+02  0.51100000000E-03 0.  1.
        -11    1    3    3    0    0  0.73049759880E+01  0.14738255424E+02 -0.12360771088E+01  0.16495658035E+02  0.51100000000E-03 0. -1.
        -12    1    3    3    0    0  0.41607673340E+01  0.36035966600E+01  0.35160569718E+01  0.65315044457E+01  0.00000000000E+00 0.  1.
</event>
<event>
 7    1  0.1381607E-011  0.5052886E+02  0.7816164E-02  0.1300439E+00
        -11   -1    0    0    0    0  0.00000000000E+00  0.00000000000E+00  0.45593999997E+02  0.45594000000E+02  0.51100000000E-03 0.  1.
         11   -1    0    0    0    0 -0.00000000000E+00 -0.00000000000E+00 -0.45593999997E+02  0.45594000000E+02  0.51100000000E-03 0. -1.
    9900012    2    1    2    0    0 -0.13768661819E+02 -0.58221561128E+01  0.37811269809E+02  0.50528859887E+02  0.30000000114E+02 0.  0.
         12    1    1    2    0    0  0.13768661819E+02  0.58221561128E+01 -0.37811269809E+02  0.40659140113E+02  0.00000000000E+00 0. -1.
         11    1    3    3    0    0  0.18560737774E+00 -0.11783199836E+02  0.20340302575E+02  0.23507576600E+02  0.51100000000E-03 0. -1.
        -11    1    3    3    0    0 -0.16448118124E+01  0.29349918988E+01  0.13235524415E+02  0.13656452326E+02  0.51100000000E-03 0.  1.
        -12    1    3    3    0    0 -0.12309457384E+02  0.30260518249E+01  0.42354428193E+01  0.13364830961E+02  0.00000000000E+00 0.  1.
</event>
<event>
 7    1  0.1381607E-011  0.5052885E+02  0.7816164E-02  0.1300439E+00
        -11   -1    0    0    0    0  0.00000000000E+00  0.00000000000E+00  0.45593999997E+02  0.45594000000E+02  0.51100000000E-03 0.  1.
         11   -1    0    0    0    0 -0.00000000000E+00 -0.00000000000E+00 -0.45593999997E+02  0.45594000000E+02  0.51100000000E-03 0. -1.
    9900012    2    1    2    0    0  0.16568147364E+02 -0.32627267926E+02  0.17723546846E+02  0.50528853032E+02  0.29999979275E+02 0.  0.
         12    1    1    2    0    0 -0.16568147364E+02  0.32627267926E+02 -0.17723546846E+02  0.40659146968E+02  0.00000000000E+00 0. -1.
         11    1    3    3    0    0 -0.45825766048E+01 -0.92501147728E+01  0.45853175840E+01  0.11295564141E+02  0.51100000000E-03 0. -1.
        -11    1    3    3    0    0  0.82354421777E+01 -0.22570994601E+02  0.83909629907E+01  0.25449569059E+02  0.51100000000E-03 0.  1.
        -12    1    3    3    0    0  0.12915281791E+02 -0.80615855261E+00  0.47472662709E+01  0.13783719832E+02  0.00000000000E+00 0.  1.
</event>
<event>
 7    1  0.1381607E-011  0.5052886E+02  0.7816164E-02  0.1300439E+00
        -11   -1    0    0    0    0  0.00000000000E+00  0.00000000000E+00  0.45593999997E+02  0.45594000000E+02  0.51100000000E-03 0.  1.
         11   -1    0    0    0    0 -0.00000000000E+00 -0.00000000000E+00 -0.45593999997E+02  0.45594000000E+02  0.51100000000E-03 0. -1.
    9900012    2    1    2    0    0 -0.39314721410E+01  0.23005835908E+02  0.33293256662E+02  0.50528857139E+02  0.29999991760E+02 0.  0.
         12    1    1    2    0    0  0.39314721410E+01 -0.23005835908E+02 -0.33293256662E+02  0.40659142861E+02  0.00000000000E+00 0. -1.
         11    1    3    3    0    0  0.49964708250E+01  0.16720114956E+02  0.80762669847E+01  0.19228963922E+02  0.51100000000E-03 0. -1.
        -11    1    3    3    0    0 -0.52147985732E+01  0.49847559792E+01  0.16415728510E+01  0.73984240225E+01  0.51100000000E-03 0.  1.
        -12    1    3    3    0    0 -0.37131443928E+01  0.13009649733E+01  0.23575416826E+02  0.23901469195E+02  0.00000000000E+00 0.  1.
</event>
<event>
 7    1  0.1381607E-011  0.5052886E+02  0.7816164E-02  0.1300439E+00
        -11   -1    0    0    0    0  0.00000000000E+00  0.00000000000E+00  0.45593999997E+02  0.45594000000E+02  0.51100000000E-03 0.  1.
         11   -1    0    0    0    0 -0.00000000000E+00 -0.00000000000E+00 -0.45593999997E+02  0.45594000000E+02  0.51100000000E-03 0. -1.
    9900012    2    1    2    0    0 -0.31965860593E+02  0.24175801925E+02 -0.68469107750E+01  0.50528857986E+02  0.29999994333E+02 0.  0.
         12    1    1    2    0    0  0.31965860593E+02 -0.24175801925E+02  0.68469107750E+01  0.40659142014E+02  0.00000000000E+00 0. -1.
         11    1    3    3    0    0 -0.26816669311E+02  0.89380838275E+01 -0.41386446446E+00  0.28270026167E+02  0.51100000000E-03 0. -1.
        -11    1    3    3    0    0 -0.87482629865E+01  0.11575032665E+02 -0.64806406953E+00  0.14523548939E+02  0.51100000000E-03 0.  1.
         12    1    3    3    0    0  0.35990717039E+01  0.36626854321E+01 -0.57849822410E+01  0.77352828800E+01  0.00000000000E+00 0. -1.
</event>
<event>
 7    1  0.1381607E-011  0.5052887E+02  0.7816164E-02  0.1300439E+00
        -11   -1    0    0    0    0  0.00000000000E+00  0.00000000000E+00  0.45593999997E+02  0.45594000000E+02  0.51100000000E-03 0.  1.
         11   -1    0    0    0    0 -0.00000000000E+00 -0.00000000000E+00 -0.45593999997E+02  0.45594000000E+02  0.51100000000E-03 0. -1.
    9900012    2    1    2    0    0 -0.10272810058E+02  0.15884060014E+02  0.35990708972E+02  0.50528866692E+02  0.30000020798E+02 0.  0.
         12    1    1    2    0    0  0.10272810058E+02 -0.15884060014E+02 -0.35990708972E+02  0.40659133308E+02  0.00000000000E+00 0. -1.
         11    1    3    3    0    0 -0.23625424281E+01  0.15232524620E+02  0.66630691835E+01  0.16793090967E+02  0.51100000000E-03 0. -1.
        -11    1    3    3    0    0 -0.32932107689E+01 -0.22094170647E+00 -0.67373339927E+00  0.33686747187E+01  0.51100000000E-03 0.  1.
        -12    1    3    3    0    0 -0.46170568607E+01  0.87247709990E+00  0.30001373188E+02  0.30367101006E+02  0.00000000000E+00 0.  1.
</event>
<event>
 7    1  0.1381607E-011  0.5052887E+02  0.7816164E-02  0.1300439E+00
        -11   -1    0    0    0    0  0.00000000000E+00  0.00000000000E+00  0.45593999997E+02  0.45594000000E+02  0.51100000000E-03 0. -1.
         11   -1    0    0    0    0 -0.00000000000E+00 -0.00000000000E+00 -0.45593999997E+02  0.45594000000E+02  0.51100000000E-03 0.  1.
    9900012    2    1    2    0    0 -0.40614251553E+02  0.16205216602E+01 -0.10105749783E+01  0.50528870872E+02  0.30000033503E+02 0.  0.
         12    1    1    2    0    0  0.40614251553E+02 -0.16205216602E+01  0.10105749783E+01  0.40659129128E+02  0.00000000000E+00 0. -1.
         11    1    3    3    0    0 -0.10079265062E+02  0.29809316643E+01  0.99363185607E+01  0.14464023111E+02  0.51100000000E-03 0. -1.
        -11    1    3    3    0    0 -0.15045791157E+02 -0.45931177792E+01  0.16807097445E+01  0.15820788475E+02  0.51100000000E-03 0.  1.
        -12    1    3    3    0    0 -0.15489195335E+02  0.32327077751E+01 -0.12627603283E+02  0.20244059286E+02  0.00000000000E+00 0.  1.
</event>
<event>
 7    1  0.1381607E-011  0.5052886E+02  0.7816164E-02  0.1300439E+00
        -11   -1    0    0    0    0  0.00000000000E+00  0.00000000000E+00  0.45593999997E+02  0.45594000000E+02  0.51100000000E-03 0. -1.
         11   -1    0    0    0    0 -0.00000000000E+00 -0.00000000000E+00 -0.45593999997E+02  0.45594000000E+02  0.51100000000E-03 0.  1.
    9900012    2    1    2    0    0  0.33562286699E+02  0.19225351532E+02 -0.12534936012E+02  0.50528857721E+02  0.29999993530E+02 0.  0.
         12    1    1    2    0    0 -0.33562286699E+02 -0.19225351532E+02  0.12534936012E+02  0.40659142279E+02  0.00000000000E+00 0. -1.
         11    1    3    3    0    0 -0.26756051510E+01 -0.28258222731E+01  0.15953704561E+00  0.38948153709E+01  0.51100000000E-03 0. -1.
        -11    1    3    3    0    0  0.69293218556E+01  0.46931382784E+01 -0.91293282962E+01  0.12384897403E+02  0.51100000000E-03 0.  1.
        -12    1    3    3    0    0  0.29308569994E+02  0.17358035527E+02 -0.35651447618E+01  0.34249144948E+02  0.00000000000E+00 0.  1.
</event>
<event>
 7    1  0.1381607E-011  0.5052886E+02  0.7816164E-02  0.1300439E+00
        -11   -1    0    0    0    0  0.00000000000E+00  0.00000000000E+00  0.45593999997E+02  0.45594000000E+02  0.51100000000E-03 0. -1.
         11   -1    0    0    0    0 -0.00000000000E+00 -0.00000000000E+00 -0.45593999997E+02  0.45594000000E+02  0.51100000000E-03 0.  1.
    9900012    2    1    2    0    0  0.21170122494E+02 -0.11141713633E+02 -0.32876346778E+02  0.50528855314E+02  0.29999986213E+02 0.  0.
         12    1    1    2    0    0 -0.21170122494E+02  0.11141713633E+02  0.32876346778E+02  0.40659144686E+02  0.00000000000E+00 0. -1.
         11    1    3    3    0    0  0.14903902781E+02 -0.11434039131E+02 -0.19240320120E+02  0.26889653912E+02  0.51100000000E-03 0. -1.
        -11    1    3    3    0    0  0.86687948144E+01 -0.46065013877E+01 -0.15081249721E+02  0.17994775686E+02  0.51100000000E-03 0.  1.
         12    1    3    3    0    0 -0.24025751012E+01  0.48988268853E+01  0.14452230622E+01  0.56444257165E+01  0.00000000000E+00 0. -1.
</event>
<event>
 7    1  0.1381607E-011  0.5052886E+02  0.7816164E-02  0.1300439E+00
        -11   -1    0    0    0    0  0.00000000000E+00  0.00000000000E+00  0.45593999997E+02  0.45594000000E+02  0.51100000000E-03 0.  1.
         11   -1    0    0    0    0 -0.00000000000E+00 -0.00000000000E+00 -0.45593999997E+02  0.45594000000E+02  0.51100000000E-03 0. -1.
    9900012    2    1    2    0    0 -0.34305950726E+01  0.15049422163E+02  0.37615313453E+02  0.50528857164E+02  0.29999991837E+02 0.  0.
         12    1    1    2    0    0  0.34305950726E+01 -0.15049422163E+02 -0.37615313453E+02  0.40659142836E+02  0.00000000000E+00 0. -1.
         11    1    3    3    0    0  0.89462348997E+01  0.53059727988E+01  0.48872813631E+01  0.11492344652E+02  0.51100000000E-03 0.  1.
        -11    1    3    3    0    0 -0.10561272165E+01 -0.31668871000E+01  0.10059095260E+02  0.10598583693E+02  0.51100000000E-03 0. -1.
         12    1    3    3    0    0 -0.11320702756E+02  0.12910336464E+02  0.22668936830E+02  0.28437928819E+02  0.00000000000E+00 0. -1.
</event>
<event>
 7    1  0.1381607E-011  0.5052886E+02  0.7816164E-02  0.1300439E+00
        -11   -1    0    0    0    0  0.00000000000E+00  0.00000000000E+00  0.45593999997E+02  0.45594000000E+02  0.51100000000E-03 0.  1.
         11   -1    0    0    0    0 -0.00000000000E+00 -0.00000000000E+00 -0.45593999997E+02  0.45594000000E+02  0.51100000000E-03 0. -1.
    9900012    2    1    2    0    0  0.27081694226E+02  0.75071791064E+00  0.30318042144E+02  0.50528863032E+02  0.30000009673E+02 0.  0.
         12    1    1    2    0    0 -0.27081694226E+02 -0.75071791064E+00 -0.30318042144E+02  0.40659136968E+02  0.00000000000E+00 0. -1.
         11    1    3    3    0    0  0.22901725345E+02 -0.32070937278E+01  0.26425801628E+02  0.35115487550E+02  0.51100000000E-03 0. -1.
        -11    1    3    3    0    0  0.67978949794E+01  0.64816117377E+01  0.60618653590E+01  0.11178948017E+02  0.51100000000E-03 0.  1.
         12    1    3    3    0    0 -0.26179260985E+01 -0.25238000992E+01 -0.21696248432E+01  0.42344274652E+01  0.00000000000E+00 0. -1.
</event>
<event>
 7    1  0.1381607E-011  0.5052887E+02  0.7816164E-02  0.1300439E+00
        -11   -1    0    0    0    0  0.00000000000E+00  0.00000000000E+00  0.45593999997E+02  0.45594000000E+02  0.51100000000E-03 0.  1.
         11   -1    0    0    0    0 -0.00000000000E+00 -0.00000000000E+00 -0.45593999997E+02  0.45594000000E+02  0.51100000000E-03 0. -1.
    9900012    2    1    2    0    0  0.17774212760E+02 -0.36561673569E+02 -0.69729198114E+00  0.50528870281E+02  0.30000031705E+02 0.  0.
         12    1    1    2    0    0 -0.17774212760E+02  0.36561673569E+02  0.69729198114E+00  0.40659129719E+02  0.00000000000E+00 0. -1.
         11    1    3    3    0    0  0.22631944028E+01 -0.17544338983E+01 -0.98904292226E+01  0.10296634289E+02  0.51100000000E-03 0. -1.
        -11    1    3    3    0    0  0.37672827417E+01 -0.19042399697E+02  0.59907763809E+01  0.20314891272E+02  0.51100000000E-03 0.  1.
        -12    1    3    3    0    0  0.11743735616E+02 -0.15764839974E+02  0.32023608605E+01  0.19917344720E+02  0.00000000000E+00 0.  1.
</event>
<event>
 7    1  0.1381607E-011  0.5052886E+02  0.7816164E-02  0.1300439E+00
        -11   -1    0    0    0    0  0.00000000000E+00  0.00000000000E+00  0.45593999997E+02  0.45594000000E+02  0.51100000000E-03 0.  1.
         11   -1    0    0    0    0 -0.00000000000E+00 -0.00000000000E+00 -0.45593999997E+02  0.45594000000E+02  0.51100000000E-03 0. -1.
    9900012    2    1    2    0    0 -0.75480058161E+01 -0.10283879888E+02  0.38606154304E+02  0.50528859238E+02  0.29999998141E+02 0.  0.
         12    1    1    2    0    0  0.75480058161E+01  0.10283879888E+02 -0.38606154304E+02  0.40659140762E+02  0.00000000000E+00 0. -1.
         11    1    3    3    0    0 -0.12452681947E+01 -0.10868034169E+02  0.48823938485E+01  0.11979258305E+02  0.51100000000E-03 0. -1.
        -11    1    3    3    0    0 -0.11415541187E+02 -0.36208267187E+01  0.19972428393E+02  0.23287826496E+02  0.51100000000E-03 0.  1.
         12    1    3    3    0    0  0.51128035656E+01  0.42049809994E+01  0.13751332062E+02  0.15261774438E+02  0.00000000000E+00 0. -1.
</event>
<event>
 7    1  0.1381607E-011  0.5052886E+02  0.7816164E-02  0.1300439E+00
        -11   -1    0    0    0    0  0.00000000000E+00  0.00000000000E+00  0.45593999997E+02  0.45594000000E+02  0.51100000000E-03 0. -1.
         11   -1    0    0    0    0 -0.00000000000E+00 -0.00000000000E+00 -0.45593999997E+02  0.45594000000E+02  0.51100000000E-03 0.  1.
    9900012    2    1    2    0    0  0.38480936529E+01 -0.72970593260E+00 -0.40470056542E+02  0.50528858690E+02  0.29999996474E+02 0.  0.
         12    1    1    2    0    0 -0.38480936529E+01  0.72970593260E+00  0.40470056542E+02  0.40659141310E+02  0.00000000000E+00 0. -1.
         11    1    3    3    0    0  0.29383604696E+01  0.12996774267E+01 -0.21294544833E+02  0.21535569730E+02  0.51100000000E-03 0. -1.
        -11    1    3    3    0    0  0.96788602587E+01 -0.66660747929E+01 -0.11589241196E+02  0.16505374906E+02  0.51100000000E-03 0.  1.
         12    1    3    3    0    0 -0.87691270753E+01  0.46366914336E+01 -0.75862705135E+01  0.12487914054E+02  0.00000000000E+00 0. -1.
</event>
<event>
 7    1  0.1381607E-011  0.5052886E+02  0.7816164E-02  0.1300439E+00
        -11   -1    0    0    0    0  0.00000000000E+00  0.00000000000E+00  0.45593999997E+02  0.45594000000E+02  0.51100000000E-03 0. -1.
         11   -1    0    0    0    0 -0.00000000000E+00 -0.00000000000E+00 -0.45593999997E+02  0.45594000000E+02  0.51100000000E-03 0.  1.
    9900012    2    1    2    0    0  0.16580771119E+02 -0.32843587821E+02  0.17307284327E+02  0.50528864216E+02  0.30000013272E+02 0.  0.
         12    1    1    2    0    0 -0.16580771119E+02  0.32843587821E+02 -0.17307284327E+02  0.40659135784E+02  0.00000000000E+00 0. -1.
         11    1    3    3    0    0  0.22547722914E+01 -0.14124222403E+02  0.18616251262E+02  0.23476423661E+02  0.51100000000E-03 0. -1.
        -11    1    3    3    0    0 -0.21809868494E+01 -0.20244650844E+01 -0.19643390793E+01  0.35656403064E+01  0.51100000000E-03 0.  1.
        -12    1    3    3    0    0  0.16506985677E+02 -0.16694900334E+02  0.65537214454E+00  0.23486800249E+02  0.00000000000E+00 0.  1.
</event>
<event>
 7    1  0.1381607E-011  0.5052886E+02  0.7816164E-02  0.1300439E+00
        -11   -1    0    0    0    0  0.00000000000E+00  0.00000000000E+00  0.45593999997E+02  0.45594000000E+02  0.51100000000E-03 0.  1.
         11   -1    0    0    0    0 -0.00000000000E+00 -0.00000000000E+00 -0.45593999997E+02  0.45594000000E+02  0.51100000000E-03 0. -1.
    9900012    2    1    2    0    0  0.73405564801E+00  0.38477026219E+01  0.40470013549E+02  0.50528860193E+02  0.30000001042E+02 0.  0.
         12    1    1    2    0    0 -0.73405564801E+00 -0.38477026219E+01 -0.40470013549E+02  0.40659139807E+02  0.00000000000E+00 0. -1.
         11    1    3    3    0    0 -0.38437903990E+01 -0.48291845088E+01  0.55076703174E+01  0.82722536371E+01  0.51100000000E-03 0. -1.
        -11    1    3    3    0    0 -0.10981041295E+01 -0.22531349149E+01  0.27994031142E+02  0.28106017674E+02  0.51100000000E-03 0.  1.
         12    1    3    3    0    0  0.56759501765E+01  0.10930022046E+02  0.69683120898E+01  0.14150588882E+02  0.00000000000E+00 0. -1.
</event>
<event>
 7    1  0.1381607E-011  0.5052887E+02  0.7816164E-02  0.1300439E+00
        -11   -1    0    0    0    0  0.00000000000E+00  0.00000000000E+00  0.45593999997E+02  0.45594000000E+02  0.51100000000E-03 0.  1.
         11   -1    0    0    0    0 -0.00000000000E+00 -0.00000000000E+00 -0.45593999997E+02  0.45594000000E+02  0.51100000000E-03 0. -1.
    9900012    2    1    2    0    0  0.13316296719E+02  0.35288382769E+02  0.15184568921E+02  0.50528870027E+02  0.30000030935E+02 0.  0.
         12    1    1    2    0    0 -0.13316296719E+02 -0.35288382769E+02 -0.15184568921E+02  0.40659129973E+02  0.00000000000E+00 0. -1.
         11    1    3    3    0    0  0.66675961055E+01  0.16373761683E+02  0.18813388412E+02  0.25816670841E+02  0.51100000000E-03 0.  1.
        -11    1    3    3    0    0  0.11840855865E+01 -0.20329920224E+01 -0.18456188090E+01  0.29902214447E+01  0.51100000000E-03 0. -1.
        -12    1    3    3    0    0  0.54646150270E+01  0.20947613109E+02 -0.17832006821E+01  0.21721977742E+02  0.00000000000E+00 0.  1.
</event>
<event>
 7    1  0.1381607E-011  0.5052891E+02  0.7816164E-02  0.1300439E+00
        -11   -1    0    0    0    0  0.00000000000E+00  0.00000000000E+00  0.45593999997E+02  0.45594000000E+02  0.51100000000E-03 0. -1.
         11   -1    0    0    0    0 -0.00000000000E+00 -0.00000000000E+00 -0.45593999997E+02  0.45594000000E+02  0.51100000000E-03 0.  1.
    9900012    2    1    2    0    0 -0.46675312890E+01 -0.19917738027E+01 -0.40341150693E+02  0.50528911835E+02  0.30000158013E+02 0.  0.
         12    1    1    2    0    0  0.46675312890E+01  0.19917738027E+01  0.40341150693E+02  0.40659088165E+02  0.00000000000E+00 0. -1.
         11    1    3    3    0    0 -0.31204329183E+01 -0.10971904030E+02 -0.18186827914E+02  0.21468127293E+02  0.51100000000E-03 0.  1.
        -11    1    3    3    0    0  0.56666111264E+01 -0.16596027170E+01 -0.60296978028E+01  0.84393138756E+01  0.51100000000E-03 0. -1.
        -12    1    3    3    0    0 -0.72137094971E+01  0.10639732944E+02 -0.16124624976E+02  0.20621470666E+02  0.00000000000E+00 0.  1.
</event>
<event>
 7    1  0.1381607E-011  0.5052885E+02  0.7816164E-02  0.1300439E+00
        -11   -1    0    0    0    0  0.00000000000E+00  0.00000000000E+00  0.45593999997E+02  0.45594000000E+02  0.51100000000E-03 0. -1.
         11   -1    0    0    0    0 -0.00000000000E+00 -0.00000000000E+00 -0.45593999997E+02  0.45594000000E+02  0.51100000000E-03 0.  1.
    9900012    2    1    2    0    0  0.20996549881E+01  0.25159700579E+02 -0.31870790558E+02  0.50528851275E+02  0.29999973935E+02 0.  0.
         12    1    1    2    0    0 -0.20996549881E+01 -0.25159700579E+02  0.31870790558E+02  0.40659148725E+02  0.00000000000E+00 0. -1.
         11    1    3    3    0    0  0.31422332297E+01  0.55744135449E+01  0.12276533203E+01  0.65157385595E+01  0.51100000000E-03 0. -1.
        -11    1    3    3    0    0 -0.85863609154E+01  0.61417675828E+01 -0.44012355383E+01  0.11437559938E+02  0.51100000000E-03 0.  1.
         12    1    3    3    0    0  0.75437826738E+01  0.13443519451E+02 -0.28697208340E+02  0.32575552777E+02  0.00000000000E+00 0. -1.
</event>
<event>
 7    1  0.1381607E-011  0.5052886E+02  0.7816164E-02  0.1300439E+00
        -11   -1    0    0    0    0  0.00000000000E+00  0.00000000000E+00  0.45593999997E+02  0.45594000000E+02  0.51100000000E-03 0.  1.
         11   -1    0    0    0    0 -0.00000000000E+00 -0.00000000000E+00 -0.45593999997E+02  0.45594000000E+02  0.51100000000E-03 0. -1.
    9900012    2    1    2    0    0  0.19420054011E+02  0.34481849525E+02 -0.93289567057E+01  0.50528857392E+02  0.29999992528E+02 0.  0.
         12    1    1    2    0    0 -0.19420054011E+02 -0.34481849525E+02  0.93289567057E+01  0.40659142608E+02  0.00000000000E+00 0. -1.
         11    1    3    3    0    0  0.63799098769E+00 -0.30691003143E+01 -0.19160604194E+01  0.36739212065E+01  0.51100000000E-03 0. -1.
        -11    1    3    3    0    0  0.16421024785E+02  0.17232787571E+02 -0.10769222093E+02  0.26126522294E+02  0.51100000000E-03 0.  1.
        -12    1    3    3    0    0  0.23610382386E+01  0.20318162268E+02  0.33563258064E+01  0.20728413891E+02  0.00000000000E+00 0.  1.
</event>
<event>
 7    1  0.1381607E-011  0.5052886E+02  0.7816164E-02  0.1300439E+00
        -11   -1    0    0    0    0  0.00000000000E+00  0.00000000000E+00  0.45593999997E+02  0.45594000000E+02  0.51100000000E-03 0.  1.
         11   -1    0    0    0    0 -0.00000000000E+00 -0.00000000000E+00 -0.45593999997E+02  0.45594000000E+02  0.51100000000E-03 0. -1.
    9900012    2    1    2    0    0  0.14833084123E+01  0.61857962516E+00  0.40627369611E+02  0.50528855812E+02  0.29999987727E+02 0.  0.
         12    1    1    2    0    0 -0.14833084123E+01 -0.61857962516E+00 -0.40627369611E+02  0.40659144188E+02  0.00000000000E+00 0. -1.
         11    1    3    3    0    0  0.28783813700E+01  0.74569208762E+01  0.33314671126E+01  0.86596432749E+01  0.51100000000E-03 0.  1.
        -11    1    3    3    0    0  0.47830670821E+01 -0.45305577132E+01  0.35476967775E+01  0.74826356713E+01  0.51100000000E-03 0. -1.
        -12    1    3    3    0    0 -0.61781400398E+01 -0.23077835379E+01  0.33748205721E+02  0.34386576866E+02  0.00000000000E+00 0.  1.
</event>
<event>
 7    1  0.1381607E-011  0.5052886E+02  0.7816164E-02  0.1300439E+00
        -11   -1    0    0    0    0  0.00000000000E+00  0.00000000000E+00  0.45593999997E+02  0.45594000000E+02  0.51100000000E-03 0.  1.
         11   -1    0    0    0    0 -0.00000000000E+00 -0.00000000000E+00 -0.45593999997E+02  0.45594000000E+02  0.51100000000E-03 0. -1.
    9900012    2    1    2    0    0 -0.32413780476E+02 -0.16946853876E+02  0.17757160368E+02  0.50528858772E+02  0.29999996723E+02 0.  0.
         12    1    1    2    0    0  0.32413780476E+02  0.16946853876E+02 -0.17757160368E+02  0.40659141228E+02  0.00000000000E+00 0. -1.
         11    1    3    3    0    0 -0.18010346315E+02 -0.91239025426E+01  0.19825543039E+02  0.28296118621E+02  0.51100000000E-03 0. -1.
        -11    1    3    3    0    0 -0.60430375139E+01  0.92811208759E+00  0.52761911500E+01  0.80757592680E+01  0.51100000000E-03 0.  1.
         12    1    3    3    0    0 -0.83603966478E+01 -0.87510634210E+01 -0.73445738206E+01  0.14156980883E+02  0.00000000000E+00 0. -1.
</event>
<event>
 7    1  0.1381607E-011  0.5052885E+02  0.7816164E-02  0.1300439E+00
        -11   -1    0    0    0    0  0.00000000000E+00  0.00000000000E+00  0.45593999997E+02  0.45594000000E+02  0.51100000000E-03 0.  1.
         11   -1    0    0    0    0 -0.00000000000E+00 -0.00000000000E+00 -0.45593999997E+02  0.45594000000E+02  0.51100000000E-03 0. -1.
    9900012    2    1    2    0    0  0.34329286942E+02  0.15617517313E+02  0.15190765669E+02  0.50528854035E+02  0.29999982326E+02 0.  0.
         12    1    1    2    0    0 -0.34329286942E+02 -0.15617517313E+02 -0.15190765669E+02  0.40659145965E+02  0.00000000000E+00 0. -1.
         11    1    3    3    0    0  0.85725260847E+01 -0.31941594829E+01 -0.41698971849E+01  0.10053800330E+02  0.51100000000E-03 0. -1.
        -11    1    3    3    0    0  0.21220280485E+02  0.13192555986E+02  0.66509714521E+01  0.25856899637E+02  0.51100000000E-03 0.  1.
         12    1    3    3    0    0  0.45364803721E+01  0.56191208096E+01  0.12709691402E+02  0.14618154069E+02  0.00000000000E+00 0. -1.
</event>
<event>
 7    1  0.1381607E-011  0.5052888E+02  0.7816164E-02  0.1300439E+00
        -11   -1    0    0    0    0  0.00000000000E+00  0.00000000000E+00  0.45593999997E+02  0.45594000000E+02  0.51100000000E-03 0. -1.
         11   -1    0    0    0    0 -0.00000000000E+00 -0.00000000000E+00 -0.45593999997E+02  0.45594000000E+02  0.51100000000E-03 0.  1.
    9900012    2    1    2    0    0 -0.37341793096E+02  0.62613852655E+01 -0.14817217783E+02  0.50528875564E+02  0.30000047763E+02 0.  0.
         12    1    1    2    0    0  0.37341793096E+02 -0.62613852655E+01  0.14817217783E+02  0.40659124436E+02  0.00000000000E+00 0. -1.
         11    1    3    3    0    0 -0.12397140237E+01  0.41051056739E+01  0.37674744242E+01  0.57081211666E+01  0.51100000000E-03 0. -1.
        -11    1    3    3    0    0 -0.22696510660E+02 -0.46958756520E+01 -0.33780587357E+01  0.23422086273E+02  0.51100000000E-03 0.  1.
        -12    1    3    3    0    0 -0.13405568412E+02  0.68521552436E+01 -0.15206633472E+02  0.21398668124E+02  0.00000000000E+00 0.  1.
</event>
<event>
 7    1  0.1381607E-011  0.5052885E+02  0.7816164E-02  0.1300439E+00
        -11   -1    0    0    0    0  0.00000000000E+00  0.00000000000E+00  0.45593999997E+02  0.45594000000E+02  0.51100000000E-03 0. -1.
         11   -1    0    0    0    0 -0.00000000000E+00 -0.00000000000E+00 -0.45593999997E+02  0.45594000000E+02  0.51100000000E-03 0.  1.
    9900012    2    1    2    0    0 -0.39260105663E+02 -0.10308061769E+02  0.23567758419E+01  0.50528850643E+02  0.29999972014E+02 0.  0.
         12    1    1    2    0    0  0.39260105663E+02  0.10308061769E+02 -0.23567758419E+01  0.40659149357E+02  0.00000000000E+00 0. -1.
         11    1    3    3    0    0  0.15188350965E+01  0.25781181245E+01 -0.15111844975E+01  0.33521980790E+01  0.51100000000E-03 0. -1.
        -11    1    3    3    0    0 -0.87249367419E+01 -0.97097299056E+01  0.70025638783E+01  0.14813482950E+02  0.51100000000E-03 0.  1.
        -12    1    3    3    0    0 -0.32054004017E+02 -0.31764499880E+01 -0.31346035389E+01  0.32363169613E+02  0.00000000000E+00 0.  1.
</event>
<event>
 7    1  0.1381607E-011  0.5052888E+02  0.7816164E-02  0.1300439E+00
        -11   -1    0    0    0    0  0.00000000000E+00  0.00000000000E+00  0.45593999997E+02  0.45594000000E+02  0.51100000000E-03 0. -1.
         11   -1    0    0    0    0 -0.00000000000E+00 -0.00000000000E+00 -0.45593999997E+02  0.45594000000E+02  0.51100000000E-03 0.  1.
    9900012    2    1    2    0    0 -0.30972835541E+02 -0.25590672291E+02  0.62421971264E+01  0.50528879563E+02  0.30000059920E+02 0.  0.
         12    1    1    2    0    0  0.30972835541E+02  0.25590672291E+02 -0.62421971264E+01  0.40659120437E+02  0.00000000000E+00 0. -1.
         11    1    3    3    0    0  0.31084979037E-01 -0.10679500076E+01 -0.33001781666E+01  0.34688124318E+01  0.51100000000E-03 0. -1.
        -11    1    3    3    0    0 -0.16471581707E+02 -0.25910743603E+02  0.10451748636E+02  0.32433295975E+02  0.51100000000E-03 0.  1.
         12    1    3    3    0    0 -0.14532338814E+02  0.13880213204E+01 -0.90937334256E+00  0.14626771156E+02  0.00000000000E+00 0. -1.
</event>
<event>
 7    1  0.1381607E-011  0.5052886E+02  0.7816164E-02  0.1300439E+00
        -11   -1    0    0    0    0  0.00000000000E+00  0.00000000000E+00  0.45593999997E+02  0.45594000000E+02  0.51100000000E-03 0. -1.
         11   -1    0    0    0    0 -0.00000000000E+00 -0.00000000000E+00 -0.45593999997E+02  0.45594000000E+02  0.51100000000E-03 0.  1.
    9900012    2    1    2    0    0 -0.10417160187E+02 -0.79672059862E+01 -0.38485999043E+02  0.50528859331E+02  0.29999998424E+02 0.  0.
         12    1    1    2    0    0  0.10417160187E+02  0.79672059862E+01  0.38485999043E+02  0.40659140669E+02  0.00000000000E+00 0. -1.
         11    1    3    3    0    0  0.25245436575E+01  0.63170321106E+01 -0.66718624766E+01  0.95284817538E+01  0.51100000000E-03 0. -1.
        -11    1    3    3    0    0  0.39651191652E+00 -0.66695528734E+01 -0.12542080199E+01  0.67980287768E+01  0.51100000000E-03 0.  1.
        -12    1    3    3    0    0 -0.13338215761E+02 -0.76146852234E+01 -0.30559928546E+02  0.34202348801E+02  0.00000000000E+00 0.  1.
</event>
<event>
 7    1  0.1381607E-011  0.5052884E+02  0.7816164E-02  0.1300439E+00
        -11   -1    0    0    0    0  0.00000000000E+00  0.00000000000E+00  0.45593999997E+02  0.45594000000E+02  0.51100000000E-03 0.  1.
         11   -1    0    0    0    0 -0.00000000000E+00 -0.00000000000E+00 -0.45593999997E+02  0.45594000000E+02  0.51100000000E-03 0. -1.
    9900012    2    1    2    0    0  0.55185153533E+01 -0.69017825748E+01  0.39687265858E+02  0.50528835158E+02  0.29999924945E+02 0.  0.
         12    1    1    2    0    0 -0.55185153533E+01  0.69017825748E+01 -0.39687265858E+02  0.40659164842E+02  0.00000000000E+00 0. -1.
         11    1    3    3    0    0  0.10032817180E+02 -0.35464238103E+01  0.39843859516E+01  0.11362652599E+02  0.51100000000E-03 0. -1.
        -11    1    3    3    0    0 -0.42189875235E+01  0.34760245154E+01  0.41030815412E+01  0.68350479552E+01  0.51100000000E-03 0.  1.
         12    1    3    3    0    0 -0.29531430290E+00 -0.68313832799E+01  0.31599798365E+02  0.32331134604E+02  0.00000000000E+00 0. -1.
</event>
<event>
 7    1  0.1381607E-011  0.5052886E+02  0.7816164E-02  0.1300439E+00
        -11   -1    0    0    0    0  0.00000000000E+00  0.00000000000E+00  0.45593999997E+02  0.45594000000E+02  0.51100000000E-03 0.  1.
         11   -1    0    0    0    0 -0.00000000000E+00 -0.00000000000E+00 -0.45593999997E+02  0.45594000000E+02  0.51100000000E-03 0. -1.
    9900012    2    1    2    0    0 -0.10760318072E+02  0.43081043892E+01  0.38972057663E+02  0.50528862196E+02  0.30000007132E+02 0.  0.
         12    1    1    2    0    0  0.10760318072E+02 -0.43081043892E+01 -0.38972057663E+02  0.40659137804E+02  0.00000000000E+00 0. -1.
         11    1    3    3    0    0  0.45084711049E+01  0.11554650853E+01  0.11001763309E+02  0.11945719210E+02  0.51100000000E-03 0. -1.
        -11    1    3    3    0    0 -0.84715515677E+01  0.33490619785E+01  0.30107244604E+02  0.31455199570E+02  0.51100000000E-03 0.  1.
         12    1    3    3    0    0 -0.67972376093E+01 -0.19642267468E+00 -0.21369502496E+01  0.71279434168E+01  0.00000000000E+00 0. -1.
</event>
<event>
 7    1  0.1381607E-011  0.5052884E+02  0.7816164E-02  0.1300439E+00
        -11   -1    0    0    0    0  0.00000000000E+00  0.00000000000E+00  0.45593999997E+02  0.45594000000E+02  0.51100000000E-03 0.  1.
         11   -1    0    0    0    0 -0.00000000000E+00 -0.00000000000E+00 -0.45593999997E+02  0.45594000000E+02  0.51100000000E-03 0. -1.
    9900012    2    1    2    0    0  0.12237033741E+02 -0.60867899721E+01  0.38293251372E+02  0.50528842267E+02  0.29999946554E+02 0.  0.
         12    1    1    2    0    0 -0.12237033741E+02  0.60867899721E+01 -0.38293251372E+02  0.40659157733E+02  0.00000000000E+00 0. -1.
         11    1    3    3    0    0  0.83950789607E+00 -0.85109478501E+01  0.55793268611E+01  0.10211263159E+02  0.51100000000E-03 0. -1.
        -11    1    3    3    0    0  0.30062509398E+01  0.22555883425E+01 -0.22365523604E+01  0.43734871905E+01  0.51100000000E-03 0.  1.
        -12    1    3    3    0    0  0.83912749049E+01  0.16856953544E+00  0.34950476871E+02  0.35944091917E+02  0.00000000000E+00 0.  1.
</event>
<event>
 7    1  0.1381607E-011  0.5052885E+02  0.7816164E-02  0.1300439E+00
        -11   -1    0    0    0    0  0.00000000000E+00  0.00000000000E+00  0.45593999997E+02  0.45594000000E+02  0.51100000000E-03 0.  1.
         11   -1    0    0    0    0 -0.00000000000E+00 -0.00000000000E+00 -0.45593999997E+02  0.45594000000E+02  0.51100000000E-03 0. -1.
    9900012    2    1    2    0    0 -0.19759180674E+02  0.16031428759E+02  0.31713312739E+02  0.50528854241E+02  0.29999982952E+02 0.  0.
         12    1    1    2    0    0  0.19759180674E+02 -0.16031428759E+02 -0.31713312739E+02  0.40659145759E+02  0.00000000000E+00 0. -1.
         11    1    3    3    0    0 -0.12112644334E+02  0.11387343206E+02  0.48748250830E+01  0.17324885509E+02  0.51100000000E-03 0. -1.
        -11    1    3    3    0    0  0.42173517224E+01  0.50000502068E+01  0.46013202950E+01  0.79974187297E+01  0.51100000000E-03 0.  1.
         12    1    3    3    0    0 -0.11863888063E+02 -0.35596465370E+00  0.22237167361E+02  0.25206550002E+02  0.00000000000E+00 0. -1.
</event>
<event>
 7    1  0.1381607E-011  0.5052886E+02  0.7816164E-02  0.1300439E+00
        -11   -1    0    0    0    0  0.00000000000E+00  0.00000000000E+00  0.45593999997E+02  0.45594000000E+02  0.51100000000E-03 0.  1.
         11   -1    0    0    0    0 -0.00000000000E+00 -0.00000000000E+00 -0.45593999997E+02  0.45594000000E+02  0.51100000000E-03 0. -1.
    9900012    2    1    2    0    0  0.22064268475E+01  0.14397385095E+02  0.37960669529E+02  0.50528862674E+02  0.30000008585E+02 0.  0.
         12    1    1    2    0    0 -0.22064268475E+01 -0.14397385095E+02 -0.37960669529E+02  0.40659137326E+02  0.00000000000E+00 0. -1.
         11    1    3    3    0    0  0.43871023290E+01  0.34872673068E+01  0.47578814608E+01  0.73515397279E+01  0.51100000000E-03 0. -1.
        -11    1    3    3    0    0  0.98179878182E+01  0.12045688001E+02  0.19259187244E+02  0.24746874101E+02  0.51100000000E-03 0.  1.
         12    1    3    3    0    0 -0.11998663300E+02 -0.11355702137E+01  0.13943600824E+02  0.18430448845E+02  0.00000000000E+00 0. -1.
</event>
<event>
 7    1  0.1381607E-011  0.5052886E+02  0.7816164E-02  0.1300439E+00
        -11   -1    0    0    0    0  0.00000000000E+00  0.00000000000E+00  0.45593999997E+02  0.45594000000E+02  0.51100000000E-03 0. -1.
         11   -1    0    0    0    0 -0.00000000000E+00 -0.00000000000E+00 -0.45593999997E+02  0.45594000000E+02  0.51100000000E-03 0.  1.
    9900012    2    1    2    0    0 -0.16432861092E+02  0.32594548794E+02 -0.17908713933E+02  0.50528861181E+02  0.30000004046E+02 0.  0.
         12    1    1    2    0    0  0.16432861092E+02 -0.32594548794E+02  0.17908713933E+02  0.40659138819E+02  0.00000000000E+00 0. -1.
         11    1    3    3    0    0 -0.81592878241E+01  0.11975079453E+02  0.76782607524E+00  0.14510894626E+02  0.51100000000E-03 0. -1.
        -11    1    3    3    0    0  0.59672491438E+01  0.12687073828E+02 -0.55119273510E+01  0.15064901196E+02  0.51100000000E-03 0.  1.
        -12    1    3    3    0    0 -0.14240822412E+02  0.79323955136E+01 -0.13164612657E+02  0.20953065360E+02  0.00000000000E+00 0.  1.
</event>
<event>
 7    1  0.1381607E-011  0.5052886E+02  0.7816164E-02  0.1300439E+00
        -11   -1    0    0    0    0  0.00000000000E+00  0.00000000000E+00  0.45593999997E+02  0.45594000000E+02  0.51100000000E-03 0. -1.
         11   -1    0    0    0    0 -0.00000000000E+00 -0.00000000000E+00 -0.45593999997E+02  0.45594000000E+02  0.51100000000E-03 0.  1.
    9900012    2    1    2    0    0  0.91216611228E+01 -0.19567944542E+02 -0.34453684503E+02  0.50528861654E+02  0.30000005482E+02 0.  0.
         12    1    1    2    0    0 -0.91216611228E+01  0.19567944542E+02  0.34453684503E+02  0.40659138346E+02  0.00000000000E+00 0. -1.
         11    1    3    3    0    0  0.62173452921E+01 -0.32103040190E+01 -0.80388353845E+01  0.10657593958E+02  0.51100000000E-03 0. -1.
        -11    1    3    3    0    0  0.16163598845E+01  0.64991472255E+01 -0.38404636783E+01  0.77201486683E+01  0.51100000000E-03 0.  1.
        -12    1    3    3    0    0  0.12879559461E+01 -0.22856787748E+02 -0.22574385440E+02  0.32151119027E+02  0.00000000000E+00 0.  1.
</event>
<event>
 7    1  0.1381607E-011  0.5052885E+02  0.7816164E-02  0.1300439E+00
        -11   -1    0    0    0    0  0.00000000000E+00  0.00000000000E+00  0.45593999997E+02  0.45594000000E+02  0.51100000000E-03 0.  1.
         11   -1    0    0    0    0 -0.00000000000E+00 -0.00000000000E+00 -0.45593999997E+02  0.45594000000E+02  0.51100000000E-03 0. -1.
    9900012    2    1    2    0    0 -0.13683825339E+02 -0.36037972535E+02  0.12929949001E+02  0.50528854393E+02  0.29999983412E+02 0.  0.
         12    1    1    2    0    0  0.13683825339E+02  0.36037972535E+02 -0.12929949001E+02  0.40659145607E+02  0.00000000000E+00 0. -1.
         11    1    3    3    0    0 -0.15655760200E+02 -0.28268500679E+02  0.96398934477E+01  0.33721484309E+02  0.51100000000E-03 0. -1.
        -11    1    3    3    0    0 -0.51114948833E+01 -0.77029670859E+00  0.43991301150E+01  0.67877155945E+01  0.51100000000E-03 0.  1.
         12    1    3    3    0    0  0.70834297445E+01 -0.69991751478E+01 -0.11090745622E+01  0.10019654489E+02  0.00000000000E+00 0. -1.
</event>
<event>
 7    1  0.1381607E-011  0.5052886E+02  0.7816164E-02  0.1300439E+00
        -11   -1    0    0    0    0  0.00000000000E+00  0.00000000000E+00  0.45593999997E+02  0.45594000000E+02  0.51100000000E-03 0. -1.
         11   -1    0    0    0    0 -0.00000000000E+00 -0.00000000000E+00 -0.45593999997E+02  0.45594000000E+02  0.51100000000E-03 0.  1.
    9900012    2    1    2    0    0 -0.12293584549E+02  0.11496982611E+02 -0.37011522272E+02  0.50528860670E+02  0.30000002492E+02 0.  0.
         12    1    1    2    0    0  0.12293584549E+02 -0.11496982611E+02  0.37011522272E+02  0.40659139330E+02  0.00000000000E+00 0. -1.
         11    1    3    3    0    0  0.39079309753E+01  0.31418768171E+01 -0.28264114619E+01  0.57560330484E+01  0.51100000000E-03 0. -1.
        -11    1    3    3    0    0 -0.62963052839E+01 -0.48805529111E+01 -0.14459259254E+01  0.80965399393E+01  0.51100000000E-03 0.  1.
        -12    1    3    3    0    0 -0.99052102400E+01  0.13235658705E+02 -0.32739184884E+02  0.36676287682E+02  0.00000000000E+00 0.  1.
</event>
<event>
 7    1  0.1381607E-011  0.5052886E+02  0.7816164E-02  0.1300439E+00
        -11   -1    0    0    0    0  0.00000000000E+00  0.00000000000E+00  0.45593999997E+02  0.45594000000E+02  0.51100000000E-03 0.  1.
         11   -1    0    0    0    0 -0.00000000000E+00 -0.00000000000E+00 -0.45593999997E+02  0.45594000000E+02  0.51100000000E-03 0. -1.
    9900012    2    1    2    0    0 -0.38969407311E+01 -0.31272363220E+02  0.25690823943E+02  0.50528864701E+02  0.30000014744E+02 0.  0.
         12    1    1    2    0    0  0.38969407311E+01  0.31272363220E+02 -0.25690823943E+02  0.40659135299E+02  0.00000000000E+00 0. -1.
         11    1    3    3    0    0 -0.39034860859E+01 -0.18695162188E+01 -0.20580278315E+01  0.47924704831E+01  0.51100000000E-03 0. -1.
        -11    1    3    3    0    0 -0.10596379961E+02 -0.13057896279E+02  0.14141911099E+02  0.21972382058E+02  0.51100000000E-03 0.  1.
        -12    1    3    3    0    0  0.10602925316E+02 -0.16344950722E+02  0.13606940676E+02  0.23764012160E+02  0.00000000000E+00 0.  1.
</event>
<event>
 7    1  0.1381607E-011  0.5052885E+02  0.7816164E-02  0.1300439E+00
        -11   -1    0    0    0    0  0.00000000000E+00  0.00000000000E+00  0.45593999997E+02  0.45594000000E+02  0.51100000000E-03 0. -1.
         11   -1    0    0    0    0 -0.00000000000E+00 -0.00000000000E+00 -0.45593999997E+02  0.45594000000E+02  0.51100000000E-03 0.  1.
    9900012    2    1    2    0    0  0.39303982836E+02  0.35471813859E+01 -0.97867555849E+01  0.50528854074E+02  0.29999982443E+02 0.  0.
         12    1    1    2    0    0 -0.39303982836E+02 -0.35471813859E+01  0.97867555849E+01  0.40659145926E+02  0.00000000000E+00 0. -1.
         11    1    3    3    0    0  0.11361385128E+02 -0.76106479877E+01  0.13283599324E+01  0.13739271276E+02  0.51100000000E-03 0. -1.
        -11    1    3    3    0    0 -0.26468489684E+01  0.85288208429E+00 -0.63666160061E+00  0.28528153754E+01  0.51100000000E-03 0.  1.
        -12    1    3    3    0    0  0.30589446677E+02  0.10304947289E+02 -0.10478453917E+02  0.33936767423E+02  0.00000000000E+00 0.  1.
</event>
<event>
 7    1  0.1381607E-011  0.5052886E+02  0.7816164E-02  0.1300439E+00
        -11   -1    0    0    0    0  0.00000000000E+00  0.00000000000E+00  0.45593999997E+02  0.45594000000E+02  0.51100000000E-03 0.  1.
         11   -1    0    0    0    0 -0.00000000000E+00 -0.00000000000E+00 -0.45593999997E+02  0.45594000000E+02  0.51100000000E-03 0. -1.
    9900012    2    1    2    0    0  0.26214323847E+02 -0.19805941260E+02  0.23952025156E+02  0.50528860892E+02  0.30000003166E+02 0.  0.
         12    1    1    2    0    0 -0.26214323847E+02  0.19805941260E+02 -0.23952025156E+02  0.40659139108E+02  0.00000000000E+00 0. -1.
         11    1    3    3    0    0 -0.23342336924E+01 -0.39771686659E+01  0.38439056229E+01  0.60035096591E+01  0.51100000000E-03 0. -1.
        -11    1    3    3    0    0  0.49674399919E+01 -0.12037430881E+02  0.15424690131E+02  0.20186536805E+02  0.51100000000E-03 0.  1.
         12    1    3    3    0    0  0.23581117548E+02 -0.37913417136E+01  0.46834294021E+01  0.24338814428E+02  0.00000000000E+00 0. -1.
</event>
<event>
 7    1  0.1381607E-011  0.5052885E+02  0.7816164E-02  0.1300439E+00
        -11   -1    0    0    0    0  0.00000000000E+00  0.00000000000E+00  0.45593999997E+02  0.45594000000E+02  0.51100000000E-03 0.  1.
         11   -1    0    0    0    0 -0.00000000000E+00 -0.00000000000E+00 -0.45593999997E+02  0.45594000000E+02  0.51100000000E-03 0. -1.
    9900012    2    1    2    0    0 -0.27219877374E+02  0.23751481977E+02  0.18657753171E+02  0.50528851291E+02  0.29999973984E+02 0.  0.
         12    1    1    2    0    0  0.27219877374E+02 -0.23751481977E+02 -0.18657753171E+02  0.40659148709E+02  0.00000000000E+00 0. -1.
         11    1    3    3    0    0 -0.15376806952E+02  0.74142680170E+01  0.14163481151E+01  0.17129611920E+02  0.51100000000E-03 0. -1.
        -11    1    3    3    0    0 -0.10907330744E+02 -0.10115672305E+01  0.89631586512E+01  0.14153845608E+02  0.51100000000E-03 0.  1.
         12    1    3    3    0    0 -0.93573967689E+00  0.17348781191E+02  0.82782464050E+01  0.19245393763E+02  0.00000000000E+00 0. -1.
</event>
<event>
 7    1  0.1381607E-011  0.5052886E+02  0.7816164E-02  0.1300439E+00
        -11   -1    0    0    0    0  0.00000000000E+00  0.00000000000E+00  0.45593999997E+02  0.45594000000E+02  0.51100000000E-03 0.  1.
         11   -1    0    0    0    0 -0.00000000000E+00 -0.00000000000E+00 -0.45593999997E+02  0.45594000000E+02  0.51100000000E-03 0. -1.
    9900012    2    1    2    0    0  0.27041906571E+02 -0.30152272732E+02  0.35695033761E+01  0.50528860606E+02  0.30000002297E+02 0.  0.
         12    1    1    2    0    0 -0.27041906571E+02  0.30152272732E+02 -0.35695033761E+01  0.40659139394E+02  0.00000000000E+00 0. -1.
         11    1    3    3    0    0  0.13873033173E+02 -0.17552438144E+02  0.83300365198E+01  0.23873387755E+02  0.51100000000E-03 0. -1.
        -11    1    3    3    0    0  0.17685594721E+02 -0.12463416410E+02 -0.46778909562E+01  0.22135936242E+02  0.51100000000E-03 0.  1.
         12    1    3    3    0    0 -0.45167213229E+01 -0.13641817830E+00 -0.82642187482E-01  0.45195366089E+01  0.00000000000E+00 0. -1.
</event>
<event>
 7    1  0.1381607E-011  0.5052884E+02  0.7816164E-02  0.1300439E+00
        -11   -1    0    0    0    0  0.00000000000E+00  0.00000000000E+00  0.45593999997E+02  0.45594000000E+02  0.51100000000E-03 0.  1.
         11   -1    0    0    0    0 -0.00000000000E+00 -0.00000000000E+00 -0.45593999997E+02  0.45594000000E+02  0.51100000000E-03 0. -1.
    9900012    2    1    2    0    0  0.17967230787E+02  0.14828373284E+02  0.33323642638E+02  0.50528841191E+02  0.29999943284E+02 0.  0.
         12    1    1    2    0    0 -0.17967230787E+02 -0.14828373284E+02 -0.33323642638E+02  0.40659158809E+02  0.00000000000E+00 0. -1.
         11    1    3    3    0    0  0.16834353184E+02  0.92204796981E+00  0.71196161428E+01  0.18301217278E+02  0.51100000000E-03 0. -1.
        -11    1    3    3    0    0  0.32371122267E+01  0.35074431976E+00  0.12188738151E+02  0.12616150566E+02  0.51100000000E-03 0.  1.
         12    1    3    3    0    0 -0.21042346234E+01  0.13555580995E+02  0.14015288344E+02  0.19611473347E+02  0.00000000000E+00 0. -1.
</event>
<event>
 7    1  0.1381607E-011  0.5052886E+02  0.7816164E-02  0.1300439E+00
        -11   -1    0    0    0    0  0.00000000000E+00  0.00000000000E+00  0.45593999997E+02  0.45594000000E+02  0.51100000000E-03 0. -1.
         11   -1    0    0    0    0 -0.00000000000E+00 -0.00000000000E+00 -0.45593999997E+02  0.45594000000E+02  0.51100000000E-03 0.  1.
    9900012    2    1    2    0    0  0.32826477737E+02  0.22262034948E+02 -0.89437030522E+01  0.50528860007E+02  0.30000000479E+02 0.  0.
         12    1    1    2    0    0 -0.32826477737E+02 -0.22262034948E+02  0.89437030522E+01  0.40659139993E+02  0.00000000000E+00 0. -1.
         11    1    3    3    0    0  0.12940622223E+02  0.13275046538E+02 -0.10701071556E+01  0.18569644415E+02  0.51100000000E-03 0. -1.
        -11    1    3    3    0    0  0.17875502477E+02  0.90142103005E+01 -0.14703759718E+02  0.24839285945E+02  0.51100000000E-03 0.  1.
         12    1    3    3    0    0  0.20103530376E+01 -0.27221890945E-01  0.68301638212E+01  0.71199296480E+01  0.00000000000E+00 0. -1.
</event>
<event>
 7    1  0.1381607E-011  0.5052885E+02  0.7816164E-02  0.1300439E+00
        -11   -1    0    0    0    0  0.00000000000E+00  0.00000000000E+00  0.45593999997E+02  0.45594000000E+02  0.51100000000E-03 0. -1.
         11   -1    0    0    0    0 -0.00000000000E+00 -0.00000000000E+00 -0.45593999997E+02  0.45594000000E+02  0.51100000000E-03 0.  1.
    9900012    2    1    2    0    0 -0.14171375142E+02 -0.29651002175E+02 -0.23940685966E+02  0.50528852838E+02  0.29999978687E+02 0.  0.
         12    1    1    2    0    0  0.14171375142E+02  0.29651002175E+02  0.23940685966E+02  0.40659147162E+02  0.00000000000E+00 0. -1.
         11    1    3    3    0    0  0.52979074608E+01 -0.62601934799E+00  0.46086522688E+00  0.53546354410E+01  0.51100000000E-03 0. -1.
        -11    1    3    3    0    0 -0.51417223335E+01 -0.20928376042E+02 -0.14321880273E+02  0.25875673656E+02  0.51100000000E-03 0.  1.
         12    1    3    3    0    0 -0.14327560269E+02 -0.80966067848E+01 -0.10079670919E+02  0.19298543741E+02  0.00000000000E+00 0. -1.
</event>
<event>
 7    1  0.1381607E-011  0.5052886E+02  0.7816164E-02  0.1300439E+00
        -11   -1    0    0    0    0  0.00000000000E+00  0.00000000000E+00  0.45593999997E+02  0.45594000000E+02  0.51100000000E-03 0. -1.
         11   -1    0    0    0    0 -0.00000000000E+00 -0.00000000000E+00 -0.45593999997E+02  0.45594000000E+02  0.51100000000E-03 0.  1.
    9900012    2    1    2    0    0 -0.19711678413E+02  0.35148413680E+02 -0.54041355501E+01  0.50528856734E+02  0.29999990530E+02 0.  0.
         12    1    1    2    0    0  0.19711678413E+02 -0.35148413680E+02  0.54041355501E+01  0.40659143266E+02  0.00000000000E+00 0. -1.
         11    1    3    3    0    0 -0.99756463597E+01  0.25538414537E+02  0.51465799277E+01  0.27896441038E+02  0.51100000000E-03 0. -1.
        -11    1    3    3    0    0 -0.78458719832E+01  0.10490395482E+02 -0.13166469400E+01  0.13165852193E+02  0.51100000000E-03 0.  1.
        -12    1    3    3    0    0 -0.18901600696E+01 -0.88039633913E+00 -0.92340685378E+01  0.94665635034E+01  0.00000000000E+00 0.  1.
</event>
<event>
 7    1  0.1381607E-011  0.5052886E+02  0.7816164E-02  0.1300439E+00
        -11   -1    0    0    0    0  0.00000000000E+00  0.00000000000E+00  0.45593999997E+02  0.45594000000E+02  0.51100000000E-03 0. -1.
         11   -1    0    0    0    0 -0.00000000000E+00 -0.00000000000E+00 -0.45593999997E+02  0.45594000000E+02  0.51100000000E-03 0.  1.
    9900012    2    1    2    0    0  0.39872789057E+02 -0.78123060139E+01  0.15145618847E+01  0.50528864125E+02  0.30000012993E+02 0.  0.
         12    1    1    2    0    0 -0.39872789057E+02  0.78123060139E+01 -0.15145618847E+01  0.40659135875E+02  0.00000000000E+00 0. -1.
         11    1    3    3    0    0  0.33924163022E+01  0.33994344938E+01 -0.14431225021E+01  0.50147029885E+01  0.51100000000E-03 0. -1.
        -11    1    3    3    0    0  0.36339854943E+02 -0.13434639714E+02  0.83910767748E+01  0.39641957207E+02  0.51100000000E-03 0.  1.
         12    1    3    3    0    0  0.14051781153E+00  0.22228992062E+01 -0.54333923880E+01  0.58722039286E+01  0.00000000000E+00 0. -1.
</event>
<event>
 7    1  0.1381607E-011  0.5052886E+02  0.7816164E-02  0.1300439E+00
        -11   -1    0    0    0    0  0.00000000000E+00  0.00000000000E+00  0.45593999997E+02  0.45594000000E+02  0.51100000000E-03 0. -1.
         11   -1    0    0    0    0 -0.00000000000E+00 -0.00000000000E+00 -0.45593999997E+02  0.45594000000E+02  0.51100000000E-03 0.  1.
    9900012    2    1    2    0    0  0.27901309029E+02 -0.17077068790E+02 -0.24146561979E+02  0.50528858600E+02  0.29999996200E+02 0.  0.
         12    1    1    2    0    0 -0.27901309029E+02  0.17077068790E+02  0.24146561979E+02  0.40659141400E+02  0.00000000000E+00 0. -1.
         11    1    3    3    0    0  0.10720084705E+02 -0.85197691440E+01 -0.22853897153E+02  0.26642208949E+02  0.51100000000E-03 0. -1.
        -11    1    3    3    0    0  0.49597196033E+00 -0.70822014885E+01 -0.25179351279E+00  0.71040105816E+01  0.51100000000E-03 0.  1.
        -12    1    3    3    0    0  0.16685252364E+02 -0.14750981577E+01 -0.10408713127E+01  0.16782639069E+02  0.00000000000E+00 0.  1.
</event>
<event>
 7    1  0.1381607E-011  0.5052886E+02  0.7816164E-02  0.1300439E+00
        -11   -1    0    0    0    0  0.00000000000E+00  0.00000000000E+00  0.45593999997E+02  0.45594000000E+02  0.51100000000E-03 0. -1.
         11   -1    0    0    0    0 -0.00000000000E+00 -0.00000000000E+00 -0.45593999997E+02  0.45594000000E+02  0.51100000000E-03 0.  1.
    9900012    2    1    2    0    0 -0.34879014028E+02  0.68263798734E+01 -0.19748937963E+02  0.50528860408E+02  0.30000001695E+02 0.  0.
         12    1    1    2    0    0  0.34879014028E+02 -0.68263798734E+01  0.19748937963E+02  0.40659139592E+02  0.00000000000E+00 0. -1.
         11    1    3    3    0    0 -0.25665363917E+01  0.46157410867E+01 -0.13268546903E+01  0.54454309710E+01  0.51100000000E-03 0. -1.
        -11    1    3    3    0    0 -0.15777485020E+02 -0.16385443443E+01 -0.22589296343E+02  0.27602358064E+02  0.51100000000E-03 0.  1.
         12    1    3    3    0    0 -0.16534992616E+02  0.38491831310E+01  0.41672130705E+01  0.17481071373E+02  0.00000000000E+00 0. -1.
</event>
<event>
 7    1  0.1381607E-011  0.5052886E+02  0.7816164E-02  0.1300439E+00
        -11   -1    0    0    0    0  0.00000000000E+00  0.00000000000E+00  0.45593999997E+02  0.45594000000E+02  0.51100000000E-03 0.  1.
         11   -1    0    0    0    0 -0.00000000000E+00 -0.00000000000E+00 -0.45593999997E+02  0.45594000000E+02  0.51100000000E-03 0. -1.
    9900012    2    1    2    0    0  0.33934465466E+02  0.22264650226E+02  0.24296432565E+01  0.50528858807E+02  0.29999996831E+02 0.  0.
         12    1    1    2    0    0 -0.33934465466E+02 -0.22264650226E+02 -0.24296432565E+01  0.40659141193E+02  0.00000000000E+00 0. -1.
         11    1    3    3    0    0  0.10001498205E+02  0.16666102876E+02 -0.64773172313E+01  0.20487669223E+02  0.51100000000E-03 0. -1.
        -11    1    3    3    0    0  0.14935880071E+02  0.10313655030E+02  0.33319448498E+01  0.18454101179E+02  0.51100000000E-03 0.  1.
         12    1    3    3    0    0  0.89970871897E+01 -0.47151076805E+01  0.55750156380E+01  0.11587088405E+02  0.00000000000E+00 0. -1.
</event>
<event>
 7    1  0.1381607E-011  0.5052886E+02  0.7816164E-02  0.1300439E+00
        -11   -1    0    0    0    0  0.00000000000E+00  0.00000000000E+00  0.45593999997E+02  0.45594000000E+02  0.51100000000E-03 0.  1.
         11   -1    0    0    0    0 -0.00000000000E+00 -0.00000000000E+00 -0.45593999997E+02  0.45594000000E+02  0.51100000000E-03 0. -1.
    9900012    2    1    2    0    0  0.39115959370E+02 -0.95452561229E+01 -0.56564633155E+01  0.50528858726E+02  0.29999996583E+02 0.  0.
         12    1    1    2    0    0 -0.39115959370E+02  0.95452561229E+01  0.56564633155E+01  0.40659141274E+02  0.00000000000E+00 0. -1.
         11    1    3    3    0    0  0.14452105300E+02 -0.67929421293E+00 -0.14709200863E+02  0.20632144302E+02  0.51100000000E-03 0. -1.
        -11    1    3    3    0    0  0.85606278253E+01 -0.82515367775E+01  0.11417686015E+01  0.11944699400E+02  0.51100000000E-03 0.  1.
        -12    1    3    3    0    0  0.16103226245E+02 -0.61442513250E+00  0.79109689460E+01  0.17952015024E+02  0.00000000000E+00 0.  1.
</event>
<event>
 7    1  0.1381607E-011  0.5052887E+02  0.7816164E-02  0.1300439E+00
        -11   -1    0    0    0    0  0.00000000000E+00  0.00000000000E+00  0.45593999997E+02  0.45594000000E+02  0.51100000000E-03 0.  1.
         11   -1    0    0    0    0 -0.00000000000E+00 -0.00000000000E+00 -0.45593999997E+02  0.45594000000E+02  0.51100000000E-03 0. -1.
    9900012    2    1    2    0    0 -0.39088140948E+00  0.32457973989E+02  0.24484523475E+02  0.50528871215E+02  0.30000034546E+02 0.  0.
         12    1    1    2    0    0  0.39088140948E+00 -0.32457973989E+02 -0.24484523475E+02  0.40659128785E+02  0.00000000000E+00 0. -1.
         11    1    3    3    0    0  0.64433400384E+01  0.26721417540E+01  0.26695726772E+01  0.74688413387E+01  0.51100000000E-03 0. -1.
        -11    1    3    3    0    0  0.44150312210E+01  0.23792741215E+02  0.12241091180E+02  0.27118837526E+02  0.51100000000E-03 0.  1.
        -12    1    3    3    0    0 -0.11249252669E+02  0.59930910196E+01  0.95738596173E+01  0.15941192350E+02  0.00000000000E+00 0.  1.
</event>
<event>
 7    1  0.1381607E-011  0.5052895E+02  0.7816164E-02  0.1300438E+00
        -11   -1    0    0    0    0  0.00000000000E+00  0.00000000000E+00  0.45593999997E+02  0.45594000000E+02  0.51100000000E-03 0. -1.
         11   -1    0    0    0    0 -0.00000000000E+00 -0.00000000000E+00 -0.45593999997E+02  0.45594000000E+02  0.51100000000E-03 0.  1.
    9900012    2    1    2    0    0  0.61870335354E+01 -0.25796180883E+02 -0.30812922417E+02  0.50528947872E+02  0.30000267550E+02 0.  0.
         12    1    1    2    0    0 -0.61870335354E+01  0.25796180883E+02  0.30812922417E+02  0.40659052128E+02  0.00000000000E+00 0. -1.
         11    1    3    3    0    0  0.97716176037E+01 -0.10535824145E+02 -0.14847099537E+02  0.20662150564E+02  0.51100000000E-03 0.  1.
        -11    1    3    3    0    0  0.65101740858E+01 -0.94180680570E+00 -0.67389150609E+00  0.66123745137E+01  0.51100000000E-03 0. -1.
        -12    1    3    3    0    0 -0.10094758154E+02 -0.14318549932E+02 -0.15291931373E+02  0.23254422794E+02  0.00000000000E+00 0.  1.
</event>
<event>
 7    1  0.1381607E-011  0.5052886E+02  0.7816164E-02  0.1300439E+00
        -11   -1    0    0    0    0  0.00000000000E+00  0.00000000000E+00  0.45593999997E+02  0.45594000000E+02  0.51100000000E-03 0. -1.
         11   -1    0    0    0    0 -0.00000000000E+00 -0.00000000000E+00 -0.45593999997E+02  0.45594000000E+02  0.51100000000E-03 0.  1.
    9900012    2    1    2    0    0  0.39337115024E+01  0.36915958120E+01 -0.40299678272E+02  0.50528855461E+02  0.29999986659E+02 0.  0.
         12    1    1    2    0    0 -0.39337115024E+01 -0.36915958120E+01  0.40299678272E+02  0.40659144539E+02  0.00000000000E+00 0. -1.
         11    1    3    3    0    0 -0.13684531034E+01  0.15368743810E+01  0.15575272370E+01  0.25808018355E+01  0.51100000000E-03 0. -1.
        -11    1    3    3    0    0 -0.69703118774E+01 -0.30525349127E+01 -0.26695267840E+02  0.27758612040E+02  0.51100000000E-03 0.  1.
         12    1    3    3    0    0  0.12272476483E+02  0.52072563436E+01 -0.15161937669E+02  0.20189441585E+02  0.00000000000E+00 0. -1.
</event>
<event>
 7    1  0.1381607E-011  0.5052884E+02  0.7816164E-02  0.1300439E+00
        -11   -1    0    0    0    0  0.00000000000E+00  0.00000000000E+00  0.45593999997E+02  0.45594000000E+02  0.51100000000E-03 0.  1.
         11   -1    0    0    0    0 -0.00000000000E+00 -0.00000000000E+00 -0.45593999997E+02  0.45594000000E+02  0.51100000000E-03 0. -1.
    9900012    2    1    2    0    0  0.10456490073E+02  0.34944536640E+02  0.17964082869E+02  0.50528842373E+02  0.29999946877E+02 0.  0.
         12    1    1    2    0    0 -0.10456490073E+02 -0.34944536640E+02 -0.17964082869E+02  0.40659157627E+02  0.00000000000E+00 0. -1.
         11    1    3    3    0    0  0.34022625645E+01  0.30672155665E+01 -0.29987147642E+01  0.54749878893E+01  0.51100000000E-03 0.  1.
        -11    1    3    3    0    0  0.80189092764E+01  0.26991167750E+02  0.53434850122E+01  0.28659708213E+02  0.51100000000E-03 0. -1.
        -12    1    3    3    0    0 -0.96468176814E+00  0.48861533229E+01  0.15619312621E+02  0.16394146271E+02  0.00000000000E+00 0.  1.
</event>
<event>
 7    1  0.1381607E-011  0.5052886E+02  0.7816164E-02  0.1300439E+00
        -11   -1    0    0    0    0  0.00000000000E+00  0.00000000000E+00  0.45593999997E+02  0.45594000000E+02  0.51100000000E-03 0. -1.
         11   -1    0    0    0    0 -0.00000000000E+00 -0.00000000000E+00 -0.45593999997E+02  0.45594000000E+02  0.51100000000E-03 0.  1.
    9900012    2    1    2    0    0 -0.11449869729E+02  0.82317629500E+01 -0.38135340144E+02  0.50528860732E+02  0.30000002682E+02 0.  0.
         12    1    1    2    0    0  0.11449869729E+02 -0.82317629500E+01  0.38135340144E+02  0.40659139268E+02  0.00000000000E+00 0. -1.
         11    1    3    3    0    0 -0.24512204038E+01  0.62826496489E+01  0.22357041445E+01  0.71048252168E+01  0.51100000000E-03 0. -1.
        -11    1    3    3    0    0 -0.69310689540E+01  0.46007786952E+01 -0.10653179204E+02  0.13516549443E+02  0.51100000000E-03 0.  1.
         12    1    3    3    0    0 -0.20675803711E+01 -0.26516653941E+01 -0.29717865085E+02  0.29907486072E+02  0.00000000000E+00 0. -1.
</event>
<event>
 7    1  0.1381607E-011  0.5052886E+02  0.7816164E-02  0.1300439E+00
        -11   -1    0    0    0    0  0.00000000000E+00  0.00000000000E+00  0.45593999997E+02  0.45594000000E+02  0.51100000000E-03 0. -1.
         11   -1    0    0    0    0 -0.00000000000E+00 -0.00000000000E+00 -0.45593999997E+02  0.45594000000E+02  0.51100000000E-03 0.  1.
    9900012    2    1    2    0    0  0.62410370744E+01  0.32692702972E+02 -0.23353847187E+02  0.50528861423E+02  0.30000004783E+02 0.  0.
         12    1    1    2    0    0 -0.62410370744E+01 -0.32692702972E+02  0.23353847187E+02  0.40659138577E+02  0.00000000000E+00 0. -1.
         11    1    3    3    0    0 -0.54286711650E+01  0.45101040381E+01 -0.45877514584E+01  0.84177771862E+01  0.51100000000E-03 0. -1.
        -11    1    3    3    0    0  0.16574332338E+01  0.27570282536E+02 -0.14689634995E+02  0.31283429169E+02  0.51100000000E-03 0.  1.
         12    1    3    3    0    0  0.10012275006E+02  0.61231639759E+00 -0.40764607335E+01  0.10827655068E+02  0.00000000000E+00 0. -1.
</event>
<event>
 7    1  0.1381607E-011  0.5052885E+02  0.7816164E-02  0.1300439E+00
        -11   -1    0    0    0    0  0.00000000000E+00  0.00000000000E+00  0.45593999997E+02  0.45594000000E+02  0.51100000000E-03 0. -1.
         11   -1    0    0    0    0 -0.00000000000E+00 -0.00000000000E+00 -0.45593999997E+02  0.45594000000E+02  0.51100000000E-03 0.  1.
    9900012    2    1    2    0    0 -0.71287207064E+01 -0.14136995427E+02 -0.37449870414E+02  0.50528854748E+02  0.29999984491E+02 0.  0.
         12    1    1    2    0    0  0.71287207064E+01  0.14136995427E+02  0.37449870414E+02  0.40659145252E+02  0.00000000000E+00 0. -1.
         11    1    3    3    0    0  0.57051337001E+01 -0.86834474762E+00 -0.50355001430E+01  0.76589056064E+01  0.51100000000E-03 0. -1.
        -11    1    3    3    0    0 -0.74313121216E+01 -0.56753871113E+01 -0.21923265181E+00  0.93532070398E+01  0.51100000000E-03 0.  1.
         12    1    3    3    0    0 -0.54025422848E+01 -0.75932635680E+01 -0.32195137619E+02  0.33516742101E+02  0.00000000000E+00 0. -1.
</event>
<event>
 7    1  0.1381607E-011  0.5052885E+02  0.7816164E-02  0.1300439E+00
        -11   -1    0    0    0    0  0.00000000000E+00  0.00000000000E+00  0.45593999997E+02  0.45594000000E+02  0.51100000000E-03 0.  1.
         11   -1    0    0    0    0 -0.00000000000E+00 -0.00000000000E+00 -0.45593999997E+02  0.45594000000E+02  0.51100000000E-03 0. -1.
    9900012    2    1    2    0    0  0.33868754907E+02  0.21213130746E+02  0.74884374643E+01  0.50528853788E+02  0.29999981575E+02 0.  0.
         12    1    1    2    0    0 -0.33868754907E+02 -0.21213130746E+02 -0.74884374643E+01  0.40659146212E+02  0.00000000000E+00 0. -1.
         11    1    3    3    0    0  0.15280806427E+02  0.17200414582E+01 -0.22405822538E+01  0.15539684578E+02  0.51100000000E-03 0. -1.
        -11    1    3    3    0    0  0.29632427105E+01  0.10169908396E+02 -0.48726155954E+01  0.11659769601E+02  0.51100000000E-03 0.  1.
        -12    1    3    3    0    0  0.15624705770E+02  0.93231808917E+01  0.14601635313E+02  0.23329399610E+02  0.00000000000E+00 0.  1.
</event>
<event>
 7    1  0.1381607E-011  0.5052887E+02  0.7816164E-02  0.1300439E+00
        -11   -1    0    0    0    0  0.00000000000E+00  0.00000000000E+00  0.45593999997E+02  0.45594000000E+02  0.51100000000E-03 0.  1.
         11   -1    0    0    0    0 -0.00000000000E+00 -0.00000000000E+00 -0.45593999997E+02  0.45594000000E+02  0.51100000000E-03 0. -1.
    9900012    2    1    2    0    0 -0.24726027501E+02 -0.13010685135E+02  0.29538293021E+02  0.50528866729E+02  0.30000020911E+02 0.  0.
         12    1    1    2    0    0  0.24726027501E+02  0.13010685135E+02 -0.29538293021E+02  0.40659133271E+02  0.00000000000E+00 0. -1.
         11    1    3    3    0    0 -0.62931198044E+01  0.67926114724E+01  0.59671112647E+01  0.11015867855E+02  0.51100000000E-03 0. -1.
        -11    1    3    3    0    0 -0.44669813700E+01 -0.57217457276E+01  0.17221125604E+02  0.18688484799E+02  0.51100000000E-03 0.  1.
         12    1    3    3    0    0 -0.13965926327E+02 -0.14081550880E+02  0.63500561524E+01  0.20824514076E+02  0.00000000000E+00 0. -1.
</event>
<event>
 7    1  0.1381607E-011  0.5052886E+02  0.7816164E-02  0.1300439E+00
        -11   -1    0    0    0    0  0.00000000000E+00  0.00000000000E+00  0.45593999997E+02  0.45594000000E+02  0.51100000000E-03 0.  1.
         11   -1    0    0    0    0 -0.00000000000E+00 -0.00000000000E+00 -0.45593999997E+02  0.45594000000E+02  0.51100000000E-03 0. -1.
    9900012    2    1    2    0    0 -0.37960777329E+01 -0.29422364933E+02  0.27804313837E+02  0.50528860408E+02  0.30000001697E+02 0.  0.
         12    1    1    2    0    0  0.37960777329E+01  0.29422364933E+02 -0.27804313837E+02  0.40659139592E+02  0.00000000000E+00 0. -1.
         11    1    3    3    0    0  0.45694458875E+01 -0.18148370170E+02  0.42318677473E+01  0.19187284343E+02  0.51100000000E-03 0. -1.
        -11    1    3    3    0    0  0.41052013820E+01 -0.40479531224E+01  0.10005795139E+02  0.11547923601E+02  0.51100000000E-03 0.  1.
         12    1    3    3    0    0 -0.12470725002E+02 -0.72260416404E+01  0.13566650951E+02  0.19793652465E+02  0.00000000000E+00 0. -1.
</event>
<event>
 7    1  0.1381607E-011  0.5052886E+02  0.7816164E-02  0.1300439E+00
        -11   -1    0    0    0    0  0.00000000000E+00  0.00000000000E+00  0.45593999997E+02  0.45594000000E+02  0.51100000000E-03 0.  1.
         11   -1    0    0    0    0 -0.00000000000E+00 -0.00000000000E+00 -0.45593999997E+02  0.45594000000E+02  0.51100000000E-03 0. -1.
    9900012    2    1    2    0    0  0.14196664998E+02 -0.34130923317E+02  0.16932230086E+02  0.50528860323E+02  0.30000001438E+02 0.  0.
         12    1    1    2    0    0 -0.14196664998E+02  0.34130923317E+02 -0.16932230086E+02  0.40659139677E+02  0.00000000000E+00 0. -1.
         11    1    3    3    0    0  0.20444308686E+01 -0.21003753206E+01  0.10353891960E+02  0.10760778459E+02  0.51100000000E-03 0. -1.
        -11    1    3    3    0    0  0.51835631195E+01 -0.16215474427E+02  0.12906874777E+02  0.21363481792E+02  0.51100000000E-03 0.  1.
        -12    1    3    3    0    0  0.69686710102E+01 -0.15815073570E+02 -0.63285366506E+01  0.18404600072E+02  0.00000000000E+00 0.  1.
</event>
<event>
 7    1  0.1381607E-011  0.5052886E+02  0.7816164E-02  0.1300439E+00
        -11   -1    0    0    0    0  0.00000000000E+00  0.00000000000E+00  0.45593999997E+02  0.45594000000E+02  0.51100000000E-03 0.  1.
         11   -1    0    0    0    0 -0.00000000000E+00 -0.00000000000E+00 -0.45593999997E+02  0.45594000000E+02  0.51100000000E-03 0. -1.
    9900012    2    1    2    0    0 -0.10555678932E+02 -0.26248884653E+02  0.29201706288E+02  0.50528856461E+02  0.29999989698E+02 0.  0.
         12    1    1    2    0    0  0.10555678932E+02  0.26248884653E+02 -0.29201706288E+02  0.40659143539E+02  0.00000000000E+00 0. -1.
         11    1    3    3    0    0 -0.11952984102E+02 -0.81575739438E+01  0.66392781456E+01  0.15921678810E+02  0.51100000000E-03 0. -1.
        -11    1    3    3    0    0 -0.41897551917E+00 -0.41127144834E+01 -0.32085084134E+01  0.52330189573E+01  0.51100000000E-03 0.  1.
        -12    1    3    3    0    0  0.18162806886E+01 -0.13978596226E+02  0.25770936555E+02  0.29374158693E+02  0.00000000000E+00 0.  1.
</event>
<event>
 7    1  0.1381607E-011  0.5052886E+02  0.7816164E-02  0.1300439E+00
        -11   -1    0    0    0    0  0.00000000000E+00  0.00000000000E+00  0.45593999997E+02  0.45594000000E+02  0.51100000000E-03 0. -1.
         11   -1    0    0    0    0 -0.00000000000E+00 -0.00000000000E+00 -0.45593999997E+02  0.45594000000E+02  0.51100000000E-03 0.  1.
    9900012    2    1    2    0    0 -0.20086080806E+02  0.28352210133E+02 -0.21115561950E+02  0.50528863043E+02  0.30000009707E+02 0.  0.
         12    1    1    2    0    0  0.20086080806E+02 -0.28352210133E+02  0.21115561950E+02  0.40659136957E+02  0.00000000000E+00 0. -1.
         11    1    3    3    0    0 -0.97733846247E+01  0.79996183930E+01 -0.22222012723E+02  0.25560336289E+02  0.51100000000E-03 0. -1.
        -11    1    3    3    0    0 -0.65934271640E+01  0.46138181460E+01 -0.24455575168E+01  0.84107878038E+01  0.51100000000E-03 0.  1.
         12    1    3    3    0    0 -0.37192690176E+01  0.15738773594E+02  0.35520082902E+01  0.16557738951E+02  0.00000000000E+00 0. -1.
</event>
<event>
 7    1  0.1381607E-011  0.5052886E+02  0.7816164E-02  0.1300439E+00
        -11   -1    0    0    0    0  0.00000000000E+00  0.00000000000E+00  0.45593999997E+02  0.45594000000E+02  0.51100000000E-03 0.  1.
         11   -1    0    0    0    0 -0.00000000000E+00 -0.00000000000E+00 -0.45593999997E+02  0.45594000000E+02  0.51100000000E-03 0. -1.
    9900012    2    1    2    0    0  0.37312724697E+02  0.15235736985E+02  0.53664366649E+01  0.50528858982E+02  0.29999997363E+02 0.  0.
         12    1    1    2    0    0 -0.37312724697E+02 -0.15235736985E+02 -0.53664366649E+01  0.40659141018E+02  0.00000000000E+00 0. -1.
         11    1    3    3    0    0  0.16400553700E+02 -0.15175276517E+01 -0.20134872540E+01  0.16593227023E+02  0.51100000000E-03 0. -1.
        -11    1    3    3    0    0  0.27699233621E+01  0.59552327741E+01 -0.60367331773E+01  0.89207298211E+01  0.51100000000E-03 0.  1.
        -12    1    3    3    0    0  0.18142247635E+02  0.10798031863E+02  0.13416657096E+02  0.25014902138E+02  0.00000000000E+00 0.  1.
</event>
<event>
 7    1  0.1381607E-011  0.5052886E+02  0.7816164E-02  0.1300439E+00
        -11   -1    0    0    0    0  0.00000000000E+00  0.00000000000E+00  0.45593999997E+02  0.45594000000E+02  0.51100000000E-03 0.  1.
         11   -1    0    0    0    0 -0.00000000000E+00 -0.00000000000E+00 -0.45593999997E+02  0.45594000000E+02  0.51100000000E-03 0. -1.
    9900012    2    1    2    0    0 -0.25455194336E+01 -0.25838184667E+02  0.31290164144E+02  0.50528857999E+02  0.29999994375E+02 0.  0.
         12    1    1    2    0    0  0.25455194336E+01  0.25838184667E+02 -0.31290164144E+02  0.40659142001E+02  0.00000000000E+00 0. -1.
         11    1    3    3    0    0  0.16695942812E+01 -0.80916987205E+01  0.14414858819E+01  0.83869550527E+01  0.51100000000E-03 0.  1.
        -11    1    3    3    0    0 -0.85792486300E+01 -0.26838367283E+01  0.66771933213E+00  0.90140077661E+01  0.51100000000E-03 0. -1.
         12    1    3    3    0    0  0.43641349152E+01 -0.15062649219E+02  0.29180958930E+02  0.33127895181E+02  0.00000000000E+00 0. -1.
</event>
<event>
 7    1  0.1381607E-011  0.5052886E+02  0.7816164E-02  0.1300439E+00
        -11   -1    0    0    0    0  0.00000000000E+00  0.00000000000E+00  0.45593999997E+02  0.45594000000E+02  0.51100000000E-03 0. -1.
         11   -1    0    0    0    0 -0.00000000000E+00 -0.00000000000E+00 -0.45593999997E+02  0.45594000000E+02  0.51100000000E-03 0.  1.
    9900012    2    1    2    0    0  0.52120286515E-01 -0.31329664868E+02 -0.25915531244E+02  0.50528863549E+02  0.30000011244E+02 0.  0.
         12    1    1    2    0    0 -0.52120286515E-01  0.31329664868E+02  0.25915531244E+02  0.40659136451E+02  0.00000000000E+00 0. -1.
         11    1    3    3    0    0  0.79574487255E+00 -0.13752216415E+02 -0.11412373079E+02  0.17888513794E+02  0.51100000000E-03 0.  1.
        -11    1    3    3    0    0 -0.55675496454E+00 -0.18955231594E+02 -0.91946615404E+00  0.18985684058E+02  0.51100000000E-03 0. -1.
        -12    1    3    3    0    0 -0.18686962150E+00  0.13777831405E+01 -0.13583692011E+02  0.13654665697E+02  0.00000000000E+00 0.  1.
</event>
<event>
 7    1  0.1381607E-011  0.5052886E+02  0.7816164E-02  0.1300439E+00
        -11   -1    0    0    0    0  0.00000000000E+00  0.00000000000E+00  0.45593999997E+02  0.45594000000E+02  0.51100000000E-03 0.  1.
         11   -1    0    0    0    0 -0.00000000000E+00 -0.00000000000E+00 -0.45593999997E+02  0.45594000000E+02  0.51100000000E-03 0. -1.
    9900012    2    1    2    0    0  0.12179616859E+02 -0.26414028211E+02  0.28409890555E+02  0.50528857923E+02  0.29999994141E+02 0.  0.
         12    1    1    2    0    0 -0.12179616859E+02  0.26414028211E+02 -0.28409890555E+02  0.40659142077E+02  0.00000000000E+00 0. -1.
         11    1    3    3    0    0 -0.14163449690E+01  0.36823377882E+01  0.40287655713E+01  0.56388471293E+01  0.51100000000E-03 0. -1.
        -11    1    3    3    0    0  0.11109371309E+02 -0.14982583353E+02  0.22850931260E+02  0.29496796343E+02  0.51100000000E-03 0.  1.
        -12    1    3    3    0    0  0.24865905192E+01 -0.15113782646E+02  0.15301937237E+01  0.15393214450E+02  0.00000000000E+00 0.  1.
</event>
<event>
 7    1  0.1381607E-011  0.5052887E+02  0.7816164E-02  0.1300439E+00
        -11   -1    0    0    0    0  0.00000000000E+00  0.00000000000E+00  0.45593999997E+02  0.45594000000E+02  0.51100000000E-03 0. -1.
         11   -1    0    0    0    0 -0.00000000000E+00 -0.00000000000E+00 -0.45593999997E+02  0.45594000000E+02  0.51100000000E-03 0.  1.
    9900012    2    1    2    0    0  0.25469929723E+02 -0.16875511659E+02 -0.26826572772E+02  0.50528865472E+02  0.30000017089E+02 0.  0.
         12    1    1    2    0    0 -0.25469929723E+02  0.16875511659E+02  0.26826572772E+02  0.40659134528E+02  0.00000000000E+00 0. -1.
         11    1    3    3    0    0  0.13647841185E+02 -0.69880961237E+01 -0.21796174693E+01  0.15487020017E+02  0.51100000000E-03 0. -1.
        -11    1    3    3    0    0  0.11691486376E+02 -0.78382215458E+01 -0.44813499831E+01  0.14771969016E+02  0.51100000000E-03 0.  1.
        -12    1    3    3    0    0  0.13060216239E+00 -0.20491939892E+01 -0.20165605320E+02  0.20269876439E+02  0.00000000000E+00 0.  1.
</event>
<event>
 7    1  0.1381607E-011  0.5052886E+02  0.7816164E-02  0.1300439E+00
        -11   -1    0    0    0    0  0.00000000000E+00  0.00000000000E+00  0.45593999997E+02  0.45594000000E+02  0.51100000000E-03 0.  1.
         11   -1    0    0    0    0 -0.00000000000E+00 -0.00000000000E+00 -0.45593999997E+02  0.45594000000E+02  0.51100000000E-03 0. -1.
    9900012    2    1    2    0    0  0.34847626070E+02  0.18969773070E+02  0.88857188272E+01  0.50528864100E+02  0.30000012918E+02 0.  0.
         12    1    1    2    0    0 -0.34847626070E+02 -0.18969773070E+02 -0.88857188272E+01  0.40659135900E+02  0.00000000000E+00 0. -1.
         11    1    3    3    0    0  0.31421661813E+01  0.97674166971E+01  0.89284914872E+01  0.13601235155E+02  0.51100000000E-03 0. -1.
        -11    1    3    3    0    0  0.40199502499E+01  0.51738062930E+01 -0.53412596418E+01  0.84532435426E+01  0.51100000000E-03 0.  1.
        -12    1    3    3    0    0  0.27685509639E+02  0.40285500799E+01  0.52984869817E+01  0.28474385402E+02  0.00000000000E+00 0.  1.
</event>
<event>
 7    1  0.1381607E-011  0.5052885E+02  0.7816164E-02  0.1300439E+00
        -11   -1    0    0    0    0  0.00000000000E+00  0.00000000000E+00  0.45593999997E+02  0.45594000000E+02  0.51100000000E-03 0.  1.
         11   -1    0    0    0    0 -0.00000000000E+00 -0.00000000000E+00 -0.45593999997E+02  0.45594000000E+02  0.51100000000E-03 0. -1.
    9900012    2    1    2    0    0 -0.11082382908E+02  0.25368586523E+02  0.29778881884E+02  0.50528853436E+02  0.29999980503E+02 0.  0.
         12    1    1    2    0    0  0.11082382908E+02 -0.25368586523E+02 -0.29778881884E+02  0.40659146564E+02  0.00000000000E+00 0. -1.
         11    1    3    3    0    0  0.33613493348E+01 -0.36705062114E+01  0.31572256355E+01  0.58940104490E+01  0.51100000000E-03 0. -1.
        -11    1    3    3    0    0  0.17081638367E+01  0.11000889417E+02  0.11910333954E+02  0.16303172907E+02  0.51100000000E-03 0.  1.
         12    1    3    3    0    0 -0.16151896079E+02  0.18038203317E+02  0.14711322294E+02  0.28331670080E+02  0.00000000000E+00 0. -1.
</event>
<event>
 7    1  0.1381607E-011  0.5052887E+02  0.7816164E-02  0.1300439E+00
        -11   -1    0    0    0    0  0.00000000000E+00  0.00000000000E+00  0.45593999997E+02  0.45594000000E+02  0.51100000000E-03 0.  1.
         11   -1    0    0    0    0 -0.00000000000E+00 -0.00000000000E+00 -0.45593999997E+02  0.45594000000E+02  0.51100000000E-03 0. -1.
    9900012    2    1    2    0    0  0.28000647014E+02  0.29294797733E+02  0.33080929554E+01  0.50528869581E+02  0.30000029577E+02 0.  0.
         12    1    1    2    0    0 -0.28000647014E+02 -0.29294797733E+02 -0.33080929554E+01  0.40659130419E+02  0.00000000000E+00 0. -1.
         11    1    3    3    0    0 -0.62396110763E+00 -0.24132502369E+01  0.28938345254E+01  0.38193432277E+01  0.51100000000E-03 0. -1.
        -11    1    3    3    0    0  0.10438956177E+02  0.11866636857E+02  0.93341702125E+01  0.18355261104E+02  0.51100000000E-03 0.  1.
        -12    1    3    3    0    0  0.18185651945E+02  0.19841411113E+02 -0.89199117825E+01  0.28354265249E+02  0.00000000000E+00 0.  1.
</event>
<event>
 7    1  0.1381607E-011  0.5052886E+02  0.7816164E-02  0.1300439E+00
        -11   -1    0    0    0    0  0.00000000000E+00  0.00000000000E+00  0.45593999997E+02  0.45594000000E+02  0.51100000000E-03 0.  1.
         11   -1    0    0    0    0 -0.00000000000E+00 -0.00000000000E+00 -0.45593999997E+02  0.45594000000E+02  0.51100000000E-03 0. -1.
    9900012    2    1    2    0    0 -0.39685463004E+02  0.27178783710E+01  0.84168145272E+01  0.50528860764E+02  0.30000002777E+02 0.  0.
         12    1    1    2    0    0  0.39685463004E+02 -0.27178783710E+01 -0.84168145272E+01  0.40659139236E+02  0.00000000000E+00 0. -1.
         11    1    3    3    0    0 -0.44194703261E+01  0.50493744169E+01  0.15811505570E+01  0.68940508636E+01  0.51100000000E-03 0. -1.
        -11    1    3    3    0    0 -0.37297041219E+01 -0.99635634118E+01  0.21067194501E+01  0.10845347196E+02  0.51100000000E-03 0.  1.
         12    1    3    3    0    0 -0.31536288556E+02  0.76320673659E+01  0.47289445202E+01  0.32789462704E+02  0.00000000000E+00 0. -1.
</event>
<event>
 7    1  0.1381607E-011  0.5052887E+02  0.7816164E-02  0.1300439E+00
        -11   -1    0    0    0    0  0.00000000000E+00  0.00000000000E+00  0.45593999997E+02  0.45594000000E+02  0.51100000000E-03 0.  1.
         11   -1    0    0    0    0 -0.00000000000E+00 -0.00000000000E+00 -0.45593999997E+02  0.45594000000E+02  0.51100000000E-03 0. -1.
    9900012    2    1    2    0    0 -0.17635845568E+02 -0.34288811278E+02  0.12900360145E+02  0.50528869173E+02  0.30000028338E+02 0.  0.
         12    1    1    2    0    0  0.17635845568E+02  0.34288811278E+02 -0.12900360145E+02  0.40659130827E+02  0.00000000000E+00 0. -1.
         11    1    3    3    0    0 -0.11395742147E+02 -0.14495568485E+02 -0.12122470100E+01  0.18478473634E+02  0.51100000000E-03 0. -1.
        -11    1    3    3    0    0 -0.92097579851E+01 -0.21955948146E+02  0.15165248741E+02  0.28228851743E+02  0.51100000000E-03 0.  1.
         12    1    3    3    0    0  0.29696545642E+01  0.21627053525E+01 -0.10526415857E+01  0.38215437954E+01  0.00000000000E+00 0. -1.
</event>
<event>
 7    1  0.1381607E-011  0.5052887E+02  0.7816164E-02  0.1300439E+00
        -11   -1    0    0    0    0  0.00000000000E+00  0.00000000000E+00  0.45593999997E+02  0.45594000000E+02  0.51100000000E-03 0.  1.
         11   -1    0    0    0    0 -0.00000000000E+00 -0.00000000000E+00 -0.45593999997E+02  0.45594000000E+02  0.51100000000E-03 0. -1.
    9900012    2    1    2    0    0  0.12486474199E+01  0.33513996890E+02  0.22987346333E+02  0.50528865733E+02  0.30000017881E+02 0.  0.
         12    1    1    2    0    0 -0.12486474199E+01 -0.33513996890E+02 -0.22987346333E+02  0.40659134267E+02  0.00000000000E+00 0. -1.
         11    1    3    3    0    0 -0.69667323584E+01  0.81226602833E+00  0.16020306251E+01  0.71945561530E+01  0.51100000000E-03 0. -1.
        -11    1    3    3    0    0 -0.50336017146E+01  0.10684606028E+02  0.47904712956E+01  0.12745452824E+02  0.51100000000E-03 0.  1.
        -12    1    3    3    0    0  0.13248981493E+02  0.22017124834E+02  0.16594844412E+02  0.30588856756E+02  0.00000000000E+00 0.  1.
</event>
<event>
 7    1  0.1381607E-011  0.5052886E+02  0.7816164E-02  0.1300439E+00
        -11   -1    0    0    0    0  0.00000000000E+00  0.00000000000E+00  0.45593999997E+02  0.45594000000E+02  0.51100000000E-03 0.  1.
         11   -1    0    0    0    0 -0.00000000000E+00 -0.00000000000E+00 -0.45593999997E+02  0.45594000000E+02  0.51100000000E-03 0. -1.
    9900012    2    1    2    0    0  0.23855167698E+02 -0.91916519360E+01  0.31616612237E+02  0.50528860062E+02  0.30000000643E+02 0.  0.
         12    1    1    2    0    0 -0.23855167698E+02  0.91916519360E+01 -0.31616612237E+02  0.40659139938E+02  0.00000000000E+00 0. -1.
         11    1    3    3    0    0 -0.54689595041E+01 -0.42358563033E+01  0.23471662569E+01  0.73048741521E+01  0.51100000000E-03 0. -1.
        -11    1    3    3    0    0  0.39945187761E+00 -0.26557312379E+01  0.35399985191E+01  0.44434288547E+01  0.51100000000E-03 0.  1.
        -12    1    3    3    0    0  0.28924675324E+02 -0.23000643947E+01  0.25729447461E+02  0.38780557055E+02  0.00000000000E+00 0.  1.
</event>
<event>
 7    1  0.1381607E-011  0.5052885E+02  0.7816164E-02  0.1300439E+00
        -11   -1    0    0    0    0  0.00000000000E+00  0.00000000000E+00  0.45593999997E+02  0.45594000000E+02  0.51100000000E-03 0. -1.
         11   -1    0    0    0    0 -0.00000000000E+00 -0.00000000000E+00 -0.45593999997E+02  0.45594000000E+02  0.51100000000E-03 0.  1.
    9900012    2    1    2    0    0 -0.21090406943E+02  0.30519092806E+01 -0.34627256171E+02  0.50528852379E+02  0.29999977292E+02 0.  0.
         12    1    1    2    0    0  0.21090406943E+02 -0.30519092806E+01  0.34627256171E+02  0.40659147621E+02  0.00000000000E+00 0. -1.
         11    1    3    3    0    0 -0.19916446454E+02  0.27508770698E+00 -0.16735842016E+02  0.26015935901E+02  0.51100000000E-03 0. -1.
        -11    1    3    3    0    0 -0.87469295974E+00  0.76971780557E+01 -0.17985150860E+02  0.19582576172E+02  0.51100000000E-03 0.  1.
         12    1    3    3    0    0 -0.29926752943E+00 -0.49203564821E+01  0.93736704416E-01  0.49303403062E+01  0.00000000000E+00 0. -1.
</event>
<event>
 7    1  0.1381607E-011  0.5052886E+02  0.7816164E-02  0.1300439E+00
        -11   -1    0    0    0    0  0.00000000000E+00  0.00000000000E+00  0.45593999997E+02  0.45594000000E+02  0.51100000000E-03 0.  1.
         11   -1    0    0    0    0 -0.00000000000E+00 -0.00000000000E+00 -0.45593999997E+02  0.45594000000E+02  0.51100000000E-03 0. -1.
    9900012    2    1    2    0    0  0.37365888096E+02 -0.68130751890E+01  0.14509944137E+02  0.50528855081E+02  0.29999985503E+02 0.  0.
         12    1    1    2    0    0 -0.37365888096E+02  0.68130751890E+01 -0.14509944137E+02  0.40659144919E+02  0.00000000000E+00 0. -1.
         11    1    3    3    0    0  0.16275762774E+02 -0.76608853269E+01  0.58821622249E+01  0.18925893653E+02  0.51100000000E-03 0. -1.
        -11    1    3    3    0    0  0.81995822243E+01 -0.75109017096E+01 -0.38953255486E+01  0.11782204995E+02  0.51100000000E-03 0.  1.
        -12    1    3    3    0    0  0.12890543097E+02  0.83587118475E+01  0.12523107460E+02  0.19820756433E+02  0.00000000000E+00 0.  1.
</event>
<event>
 7    1  0.1381607E-011  0.5052886E+02  0.7816164E-02  0.1300439E+00
        -11   -1    0    0    0    0  0.00000000000E+00  0.00000000000E+00  0.45593999997E+02  0.45594000000E+02  0.51100000000E-03 0.  1.
         11   -1    0    0    0    0 -0.00000000000E+00 -0.00000000000E+00 -0.45593999997E+02  0.45594000000E+02  0.51100000000E-03 0. -1.
    9900012    2    1    2    0    0 -0.98447055627E+01 -0.16549444547E+02  0.35810100951E+02  0.50528859913E+02  0.30000000193E+02 0.  0.
         12    1    1    2    0    0  0.98447055627E+01  0.16549444547E+02 -0.35810100951E+02  0.40659140087E+02  0.00000000000E+00 0. -1.
         11    1    3    3    0    0  0.86567443901E+01 -0.59355645926E+01  0.57670463887E+01  0.11976183648E+02  0.51100000000E-03 0. -1.
        -11    1    3    3    0    0 -0.91526327118E+01 -0.22591216767E+01  0.53019138660E+01  0.10815942271E+02  0.51100000000E-03 0.  1.
        -12    1    3    3    0    0 -0.93488172410E+01 -0.83547582780E+01  0.24741140697E+02  0.27736733994E+02  0.00000000000E+00 0.  1.
</event>
<event>
 7    1  0.1381607E-011  0.5052887E+02  0.7816164E-02  0.1300439E+00
        -11   -1    0    0    0    0  0.00000000000E+00  0.00000000000E+00  0.45593999997E+02  0.45594000000E+02  0.51100000000E-03 0.  1.
         11   -1    0    0    0    0 -0.00000000000E+00 -0.00000000000E+00 -0.45593999997E+02  0.45594000000E+02  0.51100000000E-03 0. -1.
    9900012    2    1    2    0    0 -0.15927416165E+02  0.95425430609E+01  0.36172123057E+02  0.50528865722E+02  0.30000017849E+02 0.  0.
         12    1    1    2    0    0  0.15927416165E+02 -0.95425430609E+01 -0.36172123057E+02  0.40659134278E+02  0.00000000000E+00 0. -1.
         11    1    3    3    0    0  0.22612529305E+01 -0.79603634027E+01  0.15864062862E+02  0.17892711954E+02  0.51100000000E-03 0. -1.
        -11    1    3    3    0    0 -0.41256898739E+01  0.52899850452E+01  0.35947290543E+01  0.76110009821E+01  0.51100000000E-03 0.  1.
        -12    1    3    3    0    0 -0.14062979221E+02  0.12212921418E+02  0.16713331141E+02  0.25025152786E+02  0.00000000000E+00 0.  1.
</event>
<event>
 7    1  0.1381607E-011  0.5052886E+02  0.7816164E-02  0.1300439E+00
        -11   -1    0    0    0    0  0.00000000000E+00  0.00000000000E+00  0.45593999997E+02  0.45594000000E+02  0.51100000000E-03 0. -1.
         11   -1    0    0    0    0 -0.00000000000E+00 -0.00000000000E+00 -0.45593999997E+02  0.45594000000E+02  0.51100000000E-03 0.  1.
    9900012    2    1    2    0    0 -0.92158800196E+01  0.27546838934E+02 -0.28450038618E+02  0.50528862317E+02  0.30000007497E+02 0.  0.
         12    1    1    2    0    0  0.92158800196E+01 -0.27546838934E+02  0.28450038618E+02  0.40659137683E+02  0.00000000000E+00 0. -1.
         11    1    3    3    0    0 -0.66477073336E+01  0.13803994196E+01 -0.95662366746E-01  0.67901890180E+01  0.51100000000E-03 0. -1.
        -11    1    3    3    0    0 -0.29119311596E+01  0.49099505259E+01 -0.20163628277E+02  0.20956117551E+02  0.51100000000E-03 0.  1.
        -12    1    3    3    0    0  0.34375847368E+00  0.21256488988E+02 -0.81907479740E+01  0.22782555747E+02  0.00000000000E+00 0.  1.
</event>
<event>
 7    1  0.1381607E-011  0.5052886E+02  0.7816164E-02  0.1300439E+00
        -11   -1    0    0    0    0  0.00000000000E+00  0.00000000000E+00  0.45593999997E+02  0.45594000000E+02  0.51100000000E-03 0.  1.
         11   -1    0    0    0    0 -0.00000000000E+00 -0.00000000000E+00 -0.45593999997E+02  0.45594000000E+02  0.51100000000E-03 0. -1.
    9900012    2    1    2    0    0  0.62090706002E+01 -0.20963914121E+02  0.34280131373E+02  0.50528860069E+02  0.30000000666E+02 0.  0.
         12    1    1    2    0    0 -0.62090706002E+01  0.20963914121E+02 -0.34280131373E+02  0.40659139931E+02  0.00000000000E+00 0. -1.
         11    1    3    3    0    0 -0.29316728786E+01 -0.13222356682E+02  0.11012110356E+02  0.17455428864E+02  0.51100000000E-03 0. -1.
        -11    1    3    3    0    0  0.12151026979E+02 -0.10903867843E+02  0.10093439328E+02  0.19194251960E+02  0.51100000000E-03 0.  1.
        -12    1    3    3    0    0 -0.30102835001E+01  0.31623104034E+01  0.13174581688E+02  0.13879179245E+02  0.00000000000E+00 0.  1.
</event>
<event>
 7    1  0.1381607E-011  0.5052889E+02  0.7816164E-02  0.1300439E+00
        -11   -1    0    0    0    0  0.00000000000E+00  0.00000000000E+00  0.45593999997E+02  0.45594000000E+02  0.51100000000E-03 0.  1.
         11   -1    0    0    0    0 -0.00000000000E+00 -0.00000000000E+00 -0.45593999997E+02  0.45594000000E+02  0.51100000000E-03 0. -1.
    9900012    2    1    2    0    0  0.38771737300E+02 -0.11712695473E+02 -0.35677143908E+01  0.50528887436E+02  0.30000083851E+02 0.  0.
         12    1    1    2    0    0 -0.38771737300E+02  0.11712695473E+02  0.35677143908E+01  0.40659112564E+02  0.00000000000E+00 0. -1.
         11    1    3    3    0    0  0.49670784431E+00 -0.87829185868E+01  0.46478653061E+01  0.99493230799E+01  0.51100000000E-03 0. -1.
        -11    1    3    3    0    0  0.11591526762E+02  0.89456341765E+00 -0.70534867287E+01  0.13598360624E+02  0.51100000000E-03 0.  1.
        -12    1    3    3    0    0  0.26683502694E+02 -0.38243403040E+01 -0.11620929681E+01  0.26981203732E+02  0.00000000000E+00 0.  1.
</event>
<event>
 7    1  0.1381607E-011  0.5052886E+02  0.7816164E-02  0.1300439E+00
        -11   -1    0    0    0    0  0.00000000000E+00  0.00000000000E+00  0.45593999997E+02  0.45594000000E+02  0.51100000000E-03 0. -1.
         11   -1    0    0    0    0 -0.00000000000E+00 -0.00000000000E+00 -0.45593999997E+02  0.45594000000E+02  0.51100000000E-03 0.  1.
    9900012    2    1    2    0    0  0.11067772643E+02  0.29341178588E+02 -0.25879824516E+02  0.50528859955E+02  0.30000000320E+02 0.  0.
         12    1    1    2    0    0 -0.11067772643E+02 -0.29341178588E+02  0.25879824516E+02  0.40659140045E+02  0.00000000000E+00 0. -1.
         11    1    3    3    0    0  0.10482552792E+02  0.12799651517E+02 -0.27854930325E+01  0.16777185809E+02  0.51100000000E-03 0. -1.
        -11    1    3    3    0    0  0.52795873548E+01  0.50920411650E+01 -0.19548281858E+02  0.20879134314E+02  0.51100000000E-03 0.  1.
         12    1    3    3    0    0 -0.46943675041E+01  0.11449485906E+02 -0.35460496259E+01  0.12872539832E+02  0.00000000000E+00 0. -1.
</event>
<event>
 7    1  0.1381607E-011  0.5052885E+02  0.7816164E-02  0.1300439E+00
        -11   -1    0    0    0    0  0.00000000000E+00  0.00000000000E+00  0.45593999997E+02  0.45594000000E+02  0.51100000000E-03 0.  1.
         11   -1    0    0    0    0 -0.00000000000E+00 -0.00000000000E+00 -0.45593999997E+02  0.45594000000E+02  0.51100000000E-03 0. -1.
    9900012    2    1    2    0    0  0.39000813638E+02  0.63763081511E+01 -0.95627219376E+01  0.50528850711E+02  0.29999972222E+02 0.  0.
         12    1    1    2    0    0 -0.39000813638E+02 -0.63763081511E+01  0.95627219376E+01  0.40659149289E+02  0.00000000000E+00 0. -1.
         11    1    3    3    0    0  0.76259110711E+01  0.70710118580E+01 -0.64862761931E+01  0.12256651560E+02  0.51100000000E-03 0.  1.
        -11    1    3    3    0    0  0.10978495383E+02  0.29363591957E+01 -0.11259365589E+02  0.15997589816E+02  0.51100000000E-03 0. -1.
        -12    1    3    3    0    0  0.20396407184E+02 -0.36310629027E+01  0.81829198449E+01  0.22274609334E+02  0.00000000000E+00 0.  1.
</event>
<event>
 7    1  0.1381607E-011  0.5052886E+02  0.7816164E-02  0.1300439E+00
        -11   -1    0    0    0    0  0.00000000000E+00  0.00000000000E+00  0.45593999997E+02  0.45594000000E+02  0.51100000000E-03 0.  1.
         11   -1    0    0    0    0 -0.00000000000E+00 -0.00000000000E+00 -0.45593999997E+02  0.45594000000E+02  0.51100000000E-03 0. -1.
    9900012    2    1    2    0    0  0.34674687956E+02 -0.14195803606E+02  0.15789576764E+02  0.50528861307E+02  0.30000004428E+02 0.  0.
         12    1    1    2    0    0 -0.34674687956E+02  0.14195803606E+02 -0.15789576764E+02  0.40659138693E+02  0.00000000000E+00 0. -1.
         11    1    3    3    0    0  0.37350935334E+01  0.32801976280E+00 -0.32704023743E+01  0.49753444724E+01  0.51100000000E-03 0. -1.
        -11    1    3    3    0    0  0.90754694702E+01  0.77054694075E+00 -0.43166348106E+01  0.10079247246E+02  0.51100000000E-03 0.  1.
        -12    1    3    3    0    0  0.21864124953E+02 -0.15294370310E+02  0.23376613949E+02  0.35474269588E+02  0.00000000000E+00 0.  1.
</event>
<event>
 7    1  0.1381607E-011  0.5052886E+02  0.7816164E-02  0.1300439E+00
        -11   -1    0    0    0    0  0.00000000000E+00  0.00000000000E+00  0.45593999997E+02  0.45594000000E+02  0.51100000000E-03 0. -1.
         11   -1    0    0    0    0 -0.00000000000E+00 -0.00000000000E+00 -0.45593999997E+02  0.45594000000E+02  0.51100000000E-03 0.  1.
    9900012    2    1    2    0    0  0.37448403493E+02 -0.16980568560E+01 -0.15744826135E+02  0.50528857470E+02  0.29999992766E+02 0.  0.
         12    1    1    2    0    0 -0.37448403493E+02  0.16980568560E+01  0.15744826135E+02  0.40659142530E+02  0.00000000000E+00 0. -1.
         11    1    3    3    0    0  0.13824379477E+02  0.49811068959E+01  0.66983624025E+00  0.14709642235E+02  0.51100000000E-03 0. -1.
        -11    1    3    3    0    0  0.20370507780E+02  0.22205806663E+01 -0.16553940428E+02  0.26342389976E+02  0.51100000000E-03 0.  1.
         12    1    3    3    0    0  0.32535162361E+01 -0.88997444183E+01  0.13927805278E+00  0.94768252588E+01  0.00000000000E+00 0. -1.
</event>
<event>
 7    1  0.1381607E-011  0.5052886E+02  0.7816164E-02  0.1300439E+00
        -11   -1    0    0    0    0  0.00000000000E+00  0.00000000000E+00  0.45593999997E+02  0.45594000000E+02  0.51100000000E-03 0. -1.
         11   -1    0    0    0    0 -0.00000000000E+00 -0.00000000000E+00 -0.45593999997E+02  0.45594000000E+02  0.51100000000E-03 0.  1.
    9900012    2    1    2    0    0 -0.33907678762E+02  0.20335858000E+01  0.22345019096E+02  0.50528855535E+02  0.29999986883E+02 0.  0.
         12    1    1    2    0    0  0.33907678762E+02 -0.20335858000E+01 -0.22345019096E+02  0.40659144465E+02  0.00000000000E+00 0. -1.
         11    1    3    3    0    0 -0.22609996259E+02 -0.32923798891E+01  0.44692229223E+01  0.23281444327E+02  0.51100000000E-03 0.  1.
        -11    1    3    3    0    0  0.16534528633E+00 -0.18307851103E+01 -0.23122074559E+01  0.29538816436E+01  0.51100000000E-03 0. -1.
        -12    1    3    3    0    0 -0.11463027789E+02  0.71567507994E+01  0.20188003630E+02  0.24293529564E+02  0.00000000000E+00 0.  1.
</event>
<event>
 7    1  0.1381607E-011  0.5052886E+02  0.7816164E-02  0.1300439E+00
        -11   -1    0    0    0    0  0.00000000000E+00  0.00000000000E+00  0.45593999997E+02  0.45594000000E+02  0.51100000000E-03 0. -1.
         11   -1    0    0    0    0 -0.00000000000E+00 -0.00000000000E+00 -0.45593999997E+02  0.45594000000E+02  0.51100000000E-03 0.  1.
    9900012    2    1    2    0    0 -0.21608902927E+02  0.19197565712E+02 -0.28595003007E+02  0.50528863119E+02  0.30000009935E+02 0.  0.
         12    1    1    2    0    0  0.21608902927E+02 -0.19197565712E+02  0.28595003007E+02  0.40659136881E+02  0.00000000000E+00 0. -1.
         11    1    3    3    0    0 -0.74317307018E+01 -0.47983733899E+00 -0.47426171575E+01  0.88291156329E+01  0.51100000000E-03 0. -1.
        -11    1    3    3    0    0 -0.80767006920E+01  0.76314462459E+01  0.31155695642E+01  0.11540313680E+02  0.51100000000E-03 0.  1.
        -12    1    3    3    0    0 -0.61004715334E+01  0.12045956805E+02 -0.26967955413E+02  0.30159433805E+02  0.00000000000E+00 0.  1.
</event>
<event>
 7    1  0.1381607E-011  0.5052886E+02  0.7816164E-02  0.1300439E+00
        -11   -1    0    0    0    0  0.00000000000E+00  0.00000000000E+00  0.45593999997E+02  0.45594000000E+02  0.51100000000E-03 0.  1.
         11   -1    0    0    0    0 -0.00000000000E+00 -0.00000000000E+00 -0.45593999997E+02  0.45594000000E+02  0.51100000000E-03 0. -1.
    9900012    2    1    2    0    0  0.22095842083E+02  0.82563092059E+01  0.33117563739E+02  0.50528857030E+02  0.29999991429E+02 0.  0.
         12    1    1    2    0    0 -0.22095842083E+02 -0.82563092059E+01 -0.33117563739E+02  0.40659142970E+02  0.00000000000E+00 0. -1.
         11    1    3    3    0    0  0.15339623969E+01  0.40858513005E+01  0.53240786781E+01  0.68842599832E+01  0.51100000000E-03 0. -1.
        -11    1    3    3    0    0  0.18615045078E+02  0.12757238959E+02  0.26399198027E+02  0.34730169966E+02  0.51100000000E-03 0.  1.
         12    1    3    3    0    0  0.19468346085E+01 -0.85867810537E+01  0.13942870333E+01  0.89144270813E+01  0.00000000000E+00 0. -1.
</event>
<event>
 7    1  0.1381607E-011  0.5052886E+02  0.7816164E-02  0.1300439E+00
        -11   -1    0    0    0    0  0.00000000000E+00  0.00000000000E+00  0.45593999997E+02  0.45594000000E+02  0.51100000000E-03 0. -1.
         11   -1    0    0    0    0 -0.00000000000E+00 -0.00000000000E+00 -0.45593999997E+02  0.45594000000E+02  0.51100000000E-03 0.  1.
    9900012    2    1    2    0    0  0.30102840006E+02 -0.22166033060E+02  0.15989107991E+02  0.50528861146E+02  0.30000003938E+02 0.  0.
         12    1    1    2    0    0 -0.30102840006E+02  0.22166033060E+02 -0.15989107991E+02  0.40659138854E+02  0.00000000000E+00 0. -1.
         11    1    3    3    0    0  0.53086432502E+01 -0.39814581226E+01  0.12171548863E+02  0.13862911091E+02  0.51100000000E-03 0. -1.
        -11    1    3    3    0    0  0.39992690577E+01 -0.14407233807E+02 -0.10111167397E+01  0.14986156821E+02  0.51100000000E-03 0.  1.
         12    1    3    3    0    0  0.20794927698E+02 -0.37773411305E+01  0.48286758678E+01  0.21679793233E+02  0.00000000000E+00 0. -1.
</event>
<event>
 7    1  0.1381607E-011  0.5052886E+02  0.7816164E-02  0.1300439E+00
        -11   -1    0    0    0    0  0.00000000000E+00  0.00000000000E+00  0.45593999997E+02  0.45594000000E+02  0.51100000000E-03 0. -1.
         11   -1    0    0    0    0 -0.00000000000E+00 -0.00000000000E+00 -0.45593999997E+02  0.45594000000E+02  0.51100000000E-03 0.  1.
    9900012    2    1    2    0    0  0.11512842587E+02  0.31389768780E+02 -0.23136598577E+02  0.50528864222E+02  0.30000013288E+02 0.  0.
         12    1    1    2    0    0 -0.11512842587E+02 -0.31389768780E+02  0.23136598577E+02  0.40659135778E+02  0.00000000000E+00 0. -1.
         11    1    3    3    0    0  0.12292818694E+02  0.15094973411E+02 -0.35434113566E+01  0.19787050766E+02  0.51100000000E-03 0. -1.
        -11    1    3    3    0    0  0.33155074332E+01 -0.20359317081E+01 -0.43945758271E+00  0.39154476995E+01  0.51100000000E-03 0.  1.
        -12    1    3    3    0    0 -0.40954835407E+01  0.18330727078E+02 -0.19153729638E+02  0.26826365756E+02  0.00000000000E+00 0.  1.
</event>
<event>
 7    1  0.1381607E-011  0.5052886E+02  0.7816164E-02  0.1300439E+00
        -11   -1    0    0    0    0  0.00000000000E+00  0.00000000000E+00  0.45593999997E+02  0.45594000000E+02  0.51100000000E-03 0. -1.
         11   -1    0    0    0    0 -0.00000000000E+00 -0.00000000000E+00 -0.45593999997E+02  0.45594000000E+02  0.51100000000E-03 0.  1.
    9900012    2    1    2    0    0 -0.25260591635E+02 -0.31810367616E+02 -0.17801738203E+01  0.50528855931E+02  0.29999988089E+02 0.  0.
         12    1    1    2    0    0  0.25260591635E+02  0.31810367616E+02  0.17801738203E+01  0.40659144069E+02  0.00000000000E+00 0. -1.
         11    1    3    3    0    0 -0.80363686444E+01 -0.73341503892E+01 -0.57872861264E+01  0.12323378753E+02  0.51100000000E-03 0. -1.
        -11    1    3    3    0    0 -0.18956615325E+02 -0.25662302684E+02  0.86955537898E+01  0.33068409390E+02  0.51100000000E-03 0.  1.
         12    1    3    3    0    0  0.17323923345E+01  0.11860854577E+01 -0.46884414836E+01  0.51370677881E+01  0.00000000000E+00 0. -1.
</event>
<event>
 7    1  0.1381607E-011  0.5052885E+02  0.7816164E-02  0.1300439E+00
        -11   -1    0    0    0    0  0.00000000000E+00  0.00000000000E+00  0.45593999997E+02  0.45594000000E+02  0.51100000000E-03 0.  1.
         11   -1    0    0    0    0 -0.00000000000E+00 -0.00000000000E+00 -0.45593999997E+02  0.45594000000E+02  0.51100000000E-03 0. -1.
    9900012    2    1    2    0    0 -0.34283151886E+02  0.12806490658E+02  0.17715134911E+02  0.50528847142E+02  0.29999961373E+02 0.  0.
         12    1    1    2    0    0  0.34283151886E+02 -0.12806490658E+02 -0.17715134911E+02  0.40659152858E+02  0.00000000000E+00 0. -1.
         11    1    3    3    0    0 -0.17712662310E+00  0.26519387615E+00  0.10256165379E+02  0.10261122266E+02  0.51100000000E-03 0. -1.
        -11    1    3    3    0    0 -0.38211033628E+01  0.80783293046E+01  0.22545855625E+01  0.92164739235E+01  0.51100000000E-03 0.  1.
         12    1    3    3    0    0 -0.30284921900E+02  0.44629674776E+01  0.52043839696E+01  0.31051250952E+02  0.00000000000E+00 0. -1.
</event>
<event>
 7    1  0.1381607E-011  0.5052886E+02  0.7816164E-02  0.1300439E+00
        -11   -1    0    0    0    0  0.00000000000E+00  0.00000000000E+00  0.45593999997E+02  0.45594000000E+02  0.51100000000E-03 0. -1.
         11   -1    0    0    0    0 -0.00000000000E+00 -0.00000000000E+00 -0.45593999997E+02  0.45594000000E+02  0.51100000000E-03 0.  1.
    9900012    2    1    2    0    0  0.40367813598E+02 -0.44459239922E+01 -0.19594164767E+01  0.50528856775E+02  0.29999990654E+02 0.  0.
         12    1    1    2    0    0 -0.40367813598E+02  0.44459239922E+01  0.19594164767E+01  0.40659143225E+02  0.00000000000E+00 0. -1.
         11    1    3    3    0    0  0.79380282620E+01  0.76902043836E+01  0.65427093919E+01  0.12843620307E+02  0.51100000000E-03 0. -1.
        -11    1    3    3    0    0  0.38966555236E+01 -0.30257015443E+01 -0.57954329700E+01  0.76109025533E+01  0.51100000000E-03 0.  1.
        -12    1    3    3    0    0  0.28533129813E+02 -0.91104268315E+01 -0.27066928986E+01  0.30074333915E+02  0.00000000000E+00 0.  1.
</event>
<event>
 7    1  0.1381607E-011  0.5052886E+02  0.7816164E-02  0.1300439E+00
        -11   -1    0    0    0    0  0.00000000000E+00  0.00000000000E+00  0.45593999997E+02  0.45594000000E+02  0.51100000000E-03 0.  1.
         11   -1    0    0    0    0 -0.00000000000E+00 -0.00000000000E+00 -0.45593999997E+02  0.45594000000E+02  0.51100000000E-03 0. -1.
    9900012    2    1    2    0    0  0.14357630383E+02  0.38024670736E+02  0.10716805024E+01  0.50528860389E+02  0.30000001638E+02 0.  0.
         12    1    1    2    0    0 -0.14357630383E+02 -0.38024670736E+02 -0.10716805024E+01  0.40659139611E+02  0.00000000000E+00 0. -1.
         11    1    3    3    0    0 -0.33301889682E+01  0.45756134437E+01 -0.38907177633E+01  0.68676110784E+01  0.51100000000E-03 0. -1.
        -11    1    3    3    0    0  0.36248332201E+01  0.99565468565E+01  0.11369584111E+02  0.15541547037E+02  0.51100000000E-03 0.  1.
        -12    1    3    3    0    0  0.14062986131E+02  0.23492510436E+02 -0.64071858451E+01  0.28119702274E+02  0.00000000000E+00 0.  1.
</event>
<event>
 7    1  0.1381607E-011  0.5052888E+02  0.7816164E-02  0.1300439E+00
        -11   -1    0    0    0    0  0.00000000000E+00  0.00000000000E+00  0.45593999997E+02  0.45594000000E+02  0.51100000000E-03 0.  1.
         11   -1    0    0    0    0 -0.00000000000E+00 -0.00000000000E+00 -0.45593999997E+02  0.45594000000E+02  0.51100000000E-03 0. -1.
    9900012    2    1    2    0    0 -0.30088595365E+02 -0.48293707818E+01  0.26916867773E+02  0.50528878466E+02  0.30000056587E+02 0.  0.
         12    1    1    2    0    0  0.30088595365E+02  0.48293707818E+01 -0.26916867773E+02  0.40659121534E+02  0.00000000000E+00 0. -1.
         11    1    3    3    0    0 -0.19177824951E+02  0.24681657835E+01  0.18644084140E+02  0.26860429741E+02  0.51100000000E-03 0. -1.
        -11    1    3    3    0    0 -0.13605112502E+02 -0.12428931491E+01  0.80688783347E+00  0.13685574076E+02  0.51100000000E-03 0.  1.
         12    1    3    3    0    0  0.26943420874E+01 -0.60546434162E+01  0.74658957989E+01  0.99828746492E+01  0.00000000000E+00 0. -1.
</event>
<event>
 7    1  0.1381607E-011  0.5052884E+02  0.7816164E-02  0.1300439E+00
        -11   -1    0    0    0    0  0.00000000000E+00  0.00000000000E+00  0.45593999997E+02  0.45594000000E+02  0.51100000000E-03 0.  1.
         11   -1    0    0    0    0 -0.00000000000E+00 -0.00000000000E+00 -0.45593999997E+02  0.45594000000E+02  0.51100000000E-03 0. -1.
    9900012    2    1    2    0    0 -0.23759244132E+02  0.50299620759E+01  0.32609282416E+02  0.50528837443E+02  0.29999931891E+02 0.  0.
         12    1    1    2    0    0  0.23759244132E+02 -0.50299620759E+01 -0.32609282416E+02  0.40659162557E+02  0.00000000000E+00 0. -1.
         11    1    3    3    0    0 -0.92206783314E+01  0.65841117342E+01  0.77024842058E+01  0.13700353989E+02  0.51100000000E-03 0. -1.
        -11    1    3    3    0    0 -0.42782138681E+01  0.69282197792E+01  0.21639499360E+02  0.23120797478E+02  0.51100000000E-03 0.  1.
        -12    1    3    3    0    0 -0.10260351932E+02 -0.84823694375E+01  0.32672988499E+01  0.13707685976E+02  0.00000000000E+00 0.  1.
</event>
<event>
 7    1  0.1381607E-011  0.5052887E+02  0.7816164E-02  0.1300439E+00
        -11   -1    0    0    0    0  0.00000000000E+00  0.00000000000E+00  0.45593999997E+02  0.45594000000E+02  0.51100000000E-03 0. -1.
         11   -1    0    0    0    0 -0.00000000000E+00 -0.00000000000E+00 -0.45593999997E+02  0.45594000000E+02  0.51100000000E-03 0.  1.
    9900012    2    1    2    0    0  0.25424788776E+02 -0.15810899407E+02 -0.27509282625E+02  0.50528867509E+02  0.30000023281E+02 0.  0.
         12    1    1    2    0    0 -0.25424788776E+02  0.15810899407E+02  0.27509282625E+02  0.40659132491E+02  0.00000000000E+00 0. -1.
         11    1    3    3    0    0 -0.44990625700E+00 -0.48868684618E+01  0.43822946827E+01  0.65793925213E+01  0.51100000000E-03 0. -1.
        -11    1    3    3    0    0  0.68406670422E+01 -0.56994430556E+01 -0.39528702391E+01  0.97418458268E+01  0.51100000000E-03 0.  1.
        -12    1    3    3    0    0  0.19034027991E+02 -0.52245878896E+01 -0.27938707068E+02  0.34207629161E+02  0.00000000000E+00 0.  1.
</event>
<event>
 7    1  0.1381607E-011  0.5052884E+02  0.7816164E-02  0.1300439E+00
        -11   -1    0    0    0    0  0.00000000000E+00  0.00000000000E+00  0.45593999997E+02  0.45594000000E+02  0.51100000000E-03 0. -1.
         11   -1    0    0    0    0 -0.00000000000E+00 -0.00000000000E+00 -0.45593999997E+02  0.45594000000E+02  0.51100000000E-03 0.  1.
    9900012    2    1    2    0    0 -0.31680923207E+02 -0.24796272818E+02 -0.58848605271E+01  0.50528835912E+02  0.29999927238E+02 0.  0.
         12    1    1    2    0    0  0.31680923207E+02  0.24796272818E+02  0.58848605271E+01  0.40659164088E+02  0.00000000000E+00 0. -1.
         11    1    3    3    0    0 -0.26223923283E+02 -0.94848320776E+01  0.24591574325E+01  0.27994707489E+02  0.51100000000E-03 0. -1.
        -11    1    3    3    0    0 -0.88867198148E+00 -0.34552191531E+01  0.36195696872E+01  0.50822792395E+01  0.51100000000E-03 0.  1.
        -12    1    3    3    0    0 -0.45683279426E+01 -0.11856221588E+02 -0.11963587647E+02  0.17451849183E+02  0.00000000000E+00 0.  1.
</event>
<event>
 7    1  0.1381607E-011  0.5052878E+02  0.7816164E-02  0.1300439E+00
        -11   -1    0    0    0    0  0.00000000000E+00  0.00000000000E+00  0.45593999997E+02  0.45594000000E+02  0.51100000000E-03 0.  1.
         11   -1    0    0    0    0 -0.00000000000E+00 -0.00000000000E+00 -0.45593999997E+02  0.45594000000E+02  0.51100000000E-03 0. -1.
    9900012    2    1    2    0    0  0.18478189246E+02 -0.10872366779E+02  0.34547359216E+02  0.50528783751E+02  0.29999768688E+02 0.  0.
         12    1    1    2    0    0 -0.18478189246E+02  0.10872366779E+02 -0.34547359216E+02  0.40659216249E+02  0.00000000000E+00 0. -1.
         11    1    3    3    0    0  0.63206623581E+01 -0.66548715500E+01  0.37339792396E+01  0.99086169174E+01  0.51100000000E-03 0. -1.
        -11    1    3    3    0    0  0.18093026508E+02 -0.25846577013E+01  0.28862237844E+02  0.34162359949E+02  0.51100000000E-03 0.  1.
         12    1    3    3    0    0 -0.59354996203E+01 -0.16328375281E+01  0.19511421328E+01  0.64578068845E+01  0.00000000000E+00 0. -1.
</event>
<event>
 7    1  0.1381607E-011  0.5052887E+02  0.7816164E-02  0.1300439E+00
        -11   -1    0    0    0    0  0.00000000000E+00  0.00000000000E+00  0.45593999997E+02  0.45594000000E+02  0.51100000000E-03 0. -1.
         11   -1    0    0    0    0 -0.00000000000E+00 -0.00000000000E+00 -0.45593999997E+02  0.45594000000E+02  0.51100000000E-03 0.  1.
    9900012    2    1    2    0    0 -0.11539705893E+02 -0.37294762378E+02  0.11362255987E+02  0.50528868503E+02  0.30000026303E+02 0.  0.
         12    1    1    2    0    0  0.11539705893E+02  0.37294762378E+02 -0.11362255987E+02  0.40659131497E+02  0.00000000000E+00 0. -1.
         11    1    3    3    0    0 -0.10286499712E+01 -0.16177229205E+00  0.45809395128E+01  0.46977971560E+01  0.51100000000E-03 0. -1.
        -11    1    3    3    0    0 -0.44948378913E+00 -0.24608702852E+02  0.13891817383E+02  0.28262570339E+02  0.51100000000E-03 0.  1.
        -12    1    3    3    0    0 -0.10061572132E+02 -0.12524287234E+02 -0.71105009083E+01  0.17568501008E+02  0.00000000000E+00 0.  1.
</event>
<event>
 7    1  0.1381607E-011  0.5052887E+02  0.7816164E-02  0.1300439E+00
        -11   -1    0    0    0    0  0.00000000000E+00  0.00000000000E+00  0.45593999997E+02  0.45594000000E+02  0.51100000000E-03 0.  1.
         11   -1    0    0    0    0 -0.00000000000E+00 -0.00000000000E+00 -0.45593999997E+02  0.45594000000E+02  0.51100000000E-03 0. -1.
    9900012    2    1    2    0    0 -0.31271342722E+02  0.18513841955E+02  0.18234746896E+02  0.50528865553E+02  0.30000017336E+02 0.  0.
         12    1    1    2    0    0  0.31271342722E+02 -0.18513841955E+02 -0.18234746896E+02  0.40659134447E+02  0.00000000000E+00 0. -1.
         11    1    3    3    0    0 -0.14986781687E+02  0.20912980893E+02  0.46755748707E+01  0.26149902405E+02  0.51100000000E-03 0. -1.
        -11    1    3    3    0    0 -0.11144901735E+02  0.17040077655E+01  0.25565637649E+01  0.11560644260E+02  0.51100000000E-03 0.  1.
        -12    1    3    3    0    0 -0.51396593002E+01 -0.41031467036E+01  0.11002608261E+02  0.12818318889E+02  0.00000000000E+00 0.  1.
</event>
<event>
 7    1  0.1381607E-011  0.5052885E+02  0.7816164E-02  0.1300439E+00
        -11   -1    0    0    0    0  0.00000000000E+00  0.00000000000E+00  0.45593999997E+02  0.45594000000E+02  0.51100000000E-03 0.  1.
         11   -1    0    0    0    0 -0.00000000000E+00 -0.00000000000E+00 -0.45593999997E+02  0.45594000000E+02  0.51100000000E-03 0. -1.
    9900012    2    1    2    0    0 -0.15473346253E+02  0.32224876057E+02  0.19372637698E+02  0.50528853765E+02  0.29999981505E+02 0.  0.
         12    1    1    2    0    0  0.15473346253E+02 -0.32224876057E+02 -0.19372637698E+02  0.40659146235E+02  0.00000000000E+00 0. -1.
         11    1    3    3    0    0 -0.57812114622E+01  0.22415237619E+02  0.16550943188E+02  0.28456967586E+02  0.51100000000E-03 0. -1.
        -11    1    3    3    0    0  0.27073860463E+01 -0.20786057175E+01  0.34891760492E+01  0.48810747480E+01  0.51100000000E-03 0.  1.
        -12    1    3    3    0    0 -0.12399520837E+02  0.11888244155E+02 -0.66748153887E+00  0.17190811432E+02  0.00000000000E+00 0.  1.
</event>
<event>
 7    1  0.1381607E-011  0.5052888E+02  0.7816164E-02  0.1300439E+00
        -11   -1    0    0    0    0  0.00000000000E+00  0.00000000000E+00  0.45593999997E+02  0.45594000000E+02  0.51100000000E-03 0.  1.
         11   -1    0    0    0    0 -0.00000000000E+00 -0.00000000000E+00 -0.45593999997E+02  0.45594000000E+02  0.51100000000E-03 0. -1.
    9900012    2    1    2    0    0 -0.99082467420E+01  0.18006830399E+02  0.35081975966E+02  0.50528876397E+02  0.30000050296E+02 0.  0.
         12    1    1    2    0    0  0.99082467420E+01 -0.18006830399E+02 -0.35081975966E+02  0.40659123603E+02  0.00000000000E+00 0. -1.
         11    1    3    3    0    0 -0.32350192488E+01  0.77075348978E+01  0.18461986140E+02  0.20266138661E+02  0.51100000000E-03 0.  1.
        -11    1    3    3    0    0  0.89085499137E+00  0.15730307432E+02  0.12347795448E+02  0.20017598438E+02  0.51100000000E-03 0. -1.
         12    1    3    3    0    0 -0.75640824846E+01 -0.54310119311E+01  0.42721943780E+01  0.10245139298E+02  0.00000000000E+00 0. -1.
</event>
<event>
 7    1  0.1381607E-011  0.5052886E+02  0.7816164E-02  0.1300439E+00
        -11   -1    0    0    0    0  0.00000000000E+00  0.00000000000E+00  0.45593999997E+02  0.45594000000E+02  0.51100000000E-03 0.  1.
         11   -1    0    0    0    0 -0.00000000000E+00 -0.00000000000E+00 -0.45593999997E+02  0.45594000000E+02  0.51100000000E-03 0. -1.
    9900012    2    1    2    0    0 -0.10284421774E+02  0.24010319461E+02  0.31159289059E+02  0.50528855069E+02  0.29999985469E+02 0.  0.
         12    1    1    2    0    0  0.10284421774E+02 -0.24010319461E+02 -0.31159289059E+02  0.40659144931E+02  0.00000000000E+00 0. -1.
         11    1    3    3    0    0 -0.36311499947E+01  0.12318270233E+02  0.24171602624E+02  0.27371361046E+02  0.51100000000E-03 0. -1.
        -11    1    3    3    0    0 -0.36594437351E+01  0.67484222957E+01  0.12822485868E+02  0.14944861191E+02  0.51100000000E-03 0.  1.
         12    1    3    3    0    0 -0.29938280443E+01  0.49436269326E+01 -0.58347994336E+01  0.82126328323E+01  0.00000000000E+00 0. -1.
</event>
<event>
 7    1  0.1381607E-011  0.5052885E+02  0.7816164E-02  0.1300439E+00
        -11   -1    0    0    0    0  0.00000000000E+00  0.00000000000E+00  0.45593999997E+02  0.45594000000E+02  0.51100000000E-03 0.  1.
         11   -1    0    0    0    0 -0.00000000000E+00 -0.00000000000E+00 -0.45593999997E+02  0.45594000000E+02  0.51100000000E-03 0. -1.
    9900012    2    1    2    0    0  0.50059476044E+01 -0.19308377593E+02  0.35430119002E+02  0.50528852331E+02  0.29999977146E+02 0.  0.
         12    1    1    2    0    0 -0.50059476044E+01  0.19308377593E+02 -0.35430119002E+02  0.40659147669E+02  0.00000000000E+00 0. -1.
         11    1    3    3    0    0  0.90319774314E+01 -0.56718037137E+01  0.23907503500E+02  0.26178515954E+02  0.51100000000E-03 0. -1.
        -11    1    3    3    0    0 -0.44222541090E+01 -0.66027759193E+01  0.14631170707E+02  0.16650049182E+02  0.51100000000E-03 0.  1.
        -12    1    3    3    0    0  0.39622428205E+00 -0.70337979597E+01 -0.31085552056E+01  0.77002871950E+01  0.00000000000E+00 0.  1.
</event>
<event>
 7    1  0.1381607E-011  0.5052884E+02  0.7816164E-02  0.1300439E+00
        -11   -1    0    0    0    0  0.00000000000E+00  0.00000000000E+00  0.45593999997E+02  0.45594000000E+02  0.51100000000E-03 0.  1.
         11   -1    0    0    0    0 -0.00000000000E+00 -0.00000000000E+00 -0.45593999997E+02  0.45594000000E+02  0.51100000000E-03 0. -1.
    9900012    2    1    2    0    0 -0.34916986459E+02  0.20166718315E+02  0.52225050423E+01  0.50528843222E+02  0.29999949456E+02 0.  0.
         12    1    1    2    0    0  0.34916986459E+02 -0.20166718315E+02 -0.52225050423E+01  0.40659156778E+02  0.00000000000E+00 0. -1.
         11    1    3    3    0    0 -0.97774076549E+01 -0.47607432064E+00  0.35073643585E+01  0.10398362958E+02  0.51100000000E-03 0.  1.
        -11    1    3    3    0    0 -0.17996266720E+02  0.17456933555E+02  0.11516697318E+02  0.27590658970E+02  0.51100000000E-03 0. -1.
         12    1    3    3    0    0 -0.71433120847E+01  0.31858590808E+01 -0.98015566343E+01  0.12539821294E+02  0.00000000000E+00 0. -1.
</event>
<event>
 7    1  0.1381607E-011  0.5052886E+02  0.7816164E-02  0.1300439E+00
        -11   -1    0    0    0    0  0.00000000000E+00  0.00000000000E+00  0.45593999997E+02  0.45594000000E+02  0.51100000000E-03 0.  1.
         11   -1    0    0    0    0 -0.00000000000E+00 -0.00000000000E+00 -0.45593999997E+02  0.45594000000E+02  0.51100000000E-03 0. -1.
    9900012    2    1    2    0    0 -0.24476729925E+02 -0.84304035241E+01  0.31352573088E+02  0.50528857724E+02  0.29999993537E+02 0.  0.
         12    1    1    2    0    0  0.24476729925E+02  0.84304035241E+01 -0.31352573088E+02  0.40659142276E+02  0.00000000000E+00 0. -1.
         11    1    3    3    0    0 -0.85520717207E+01 -0.71154878704E+01 -0.26737577118E+01  0.11441900144E+02  0.51100000000E-03 0. -1.
        -11    1    3    3    0    0 -0.11350549699E+02 -0.16867689599E+01  0.12062653985E+02  0.16648957607E+02  0.51100000000E-03 0.  1.
        -12    1    3    3    0    0 -0.45741085057E+01  0.37185330616E+00  0.21963676816E+02  0.22437999972E+02  0.00000000000E+00 0.  1.
</event>
<event>
 7    1  0.1381607E-011  0.5052884E+02  0.7816164E-02  0.1300439E+00
        -11   -1    0    0    0    0  0.00000000000E+00  0.00000000000E+00  0.45593999997E+02  0.45594000000E+02  0.51100000000E-03 0.  1.
         11   -1    0    0    0    0 -0.00000000000E+00 -0.00000000000E+00 -0.45593999997E+02  0.45594000000E+02  0.51100000000E-03 0. -1.
    9900012    2    1    2    0    0  0.16602913531E+02 -0.13376842757E+01  0.37090712991E+02  0.50528842027E+02  0.29999945824E+02 0.  0.
         12    1    1    2    0    0 -0.16602913531E+02  0.13376842757E+01 -0.37090712991E+02  0.40659157973E+02  0.00000000000E+00 0. -1.
         11    1    3    3    0    0 -0.68392213467E+00  0.81927518774E+01  0.17925969507E+01  0.84144124513E+01  0.51100000000E-03 0. -1.
        -11    1    3    3    0    0  0.80251485131E+01 -0.21361012559E+00  0.60531112666E+01  0.10054292328E+02  0.51100000000E-03 0.  1.
        -12    1    3    3    0    0  0.92616871531E+01 -0.93168260275E+01  0.29245004773E+02  0.32060137248E+02  0.00000000000E+00 0.  1.
</event>
<event>
 7    1  0.1381607E-011  0.5052886E+02  0.7816164E-02  0.1300439E+00
        -11   -1    0    0    0    0  0.00000000000E+00  0.00000000000E+00  0.45593999997E+02  0.45594000000E+02  0.51100000000E-03 0.  1.
         11   -1    0    0    0    0 -0.00000000000E+00 -0.00000000000E+00 -0.45593999997E+02  0.45594000000E+02  0.51100000000E-03 0. -1.
    9900012    2    1    2    0    0  0.12999349350E+02  0.30297645002E+02  0.23795695652E+02  0.50528861940E+02  0.30000006354E+02 0.  0.
         12    1    1    2    0    0 -0.12999349350E+02 -0.30297645002E+02 -0.23795695652E+02  0.40659138060E+02  0.00000000000E+00 0. -1.
         11    1    3    3    0    0  0.17656877151E+00  0.38061658598E+01 -0.52900443174E+00  0.38468066020E+01  0.51100000000E-03 0. -1.
        -11    1    3    3    0    0 -0.37296774697E+01  0.78042801539E+00  0.13841680050E+02  0.14356589734E+02  0.51100000000E-03 0.  1.
        -12    1    3    3    0    0  0.16552458049E+02  0.25711051127E+02  0.10483020033E+02  0.32325465604E+02  0.00000000000E+00 0.  1.
</event>
<event>
 7    1  0.1381607E-011  0.5052886E+02  0.7816164E-02  0.1300439E+00
        -11   -1    0    0    0    0  0.00000000000E+00  0.00000000000E+00  0.45593999997E+02  0.45594000000E+02  0.51100000000E-03 0.  1.
         11   -1    0    0    0    0 -0.00000000000E+00 -0.00000000000E+00 -0.45593999997E+02  0.45594000000E+02  0.51100000000E-03 0. -1.
    9900012    2    1    2    0    0  0.40423949090E+02 -0.17334248065E+01  0.40081805124E+01  0.50528856716E+02  0.29999990474E+02 0.  0.
         12    1    1    2    0    0 -0.40423949090E+02  0.17334248065E+01 -0.40081805124E+01  0.40659143284E+02  0.00000000000E+00 0. -1.
         11    1    3    3    0    0  0.15486056630E+00 -0.31419693418E+01 -0.13841335522E+01  0.34368268929E+01  0.51100000000E-03 0. -1.
        -11    1    3    3    0    0  0.29527078984E+02 -0.33920467795E+01 -0.64340487442E+01  0.30409724730E+02  0.51100000000E-03 0.  1.
        -12    1    3    3    0    0  0.10742009540E+02  0.48005913149E+01  0.11826362809E+02  0.16682305093E+02  0.00000000000E+00 0.  1.
</event>
<event>
 7    1  0.1381607E-011  0.5052887E+02  0.7816164E-02  0.1300439E+00
        -11   -1    0    0    0    0  0.00000000000E+00  0.00000000000E+00  0.45593999997E+02  0.45594000000E+02  0.51100000000E-03 0. -1.
         11   -1    0    0    0    0 -0.00000000000E+00 -0.00000000000E+00 -0.45593999997E+02  0.45594000000E+02  0.51100000000E-03 0.  1.
    9900012    2    1    2    0    0 -0.39014412290E+02  0.29669035188E+01 -0.11056135235E+02  0.50528868072E+02  0.30000024990E+02 0.  0.
         12    1    1    2    0    0  0.39014412290E+02 -0.29669035188E+01  0.11056135235E+02  0.40659131928E+02  0.00000000000E+00 0. -1.
         11    1    3    3    0    0 -0.11595613256E+02  0.10543291001E+02 -0.29997410002E+01  0.15956743973E+02  0.51100000000E-03 0. -1.
        -11    1    3    3    0    0 -0.15522406982E+02 -0.35793390297E+00  0.41395067918E+01  0.16068875254E+02  0.51100000000E-03 0.  1.
        -12    1    3    3    0    0 -0.11896392053E+02 -0.72184535788E+01 -0.12195901027E+02  0.18503248844E+02  0.00000000000E+00 0.  1.
</event>
<event>
 7    1  0.1381607E-011  0.5052886E+02  0.7816164E-02  0.1300439E+00
        -11   -1    0    0    0    0  0.00000000000E+00  0.00000000000E+00  0.45593999997E+02  0.45594000000E+02  0.51100000000E-03 0.  1.
         11   -1    0    0    0    0 -0.00000000000E+00 -0.00000000000E+00 -0.45593999997E+02  0.45594000000E+02  0.51100000000E-03 0. -1.
    9900012    2    1    2    0    0 -0.18705048921E+02 -0.95594720352E+01  0.34812398633E+02  0.50528862536E+02  0.30000008164E+02 0.  0.
         12    1    1    2    0    0  0.18705048921E+02  0.95594720352E+01 -0.34812398633E+02  0.40659137464E+02  0.00000000000E+00 0. -1.
         11    1    3    3    0    0 -0.61670524019E+01 -0.13959123344E+02  0.26545685566E+02  0.30619651897E+02  0.51100000000E-03 0. -1.
        -11    1    3    3    0    0 -0.65953109434E+01 -0.40506406428E+01  0.42080738202E+01  0.88098638806E+01  0.51100000000E-03 0.  1.
         12    1    3    3    0    0 -0.59426855756E+01  0.84502919519E+01  0.40586392476E+01  0.11099346758E+02  0.00000000000E+00 0. -1.
</event>
<event>
 7    1  0.1381607E-011  0.5052888E+02  0.7816164E-02  0.1300439E+00
        -11   -1    0    0    0    0  0.00000000000E+00  0.00000000000E+00  0.45593999997E+02  0.45594000000E+02  0.51100000000E-03 0.  1.
         11   -1    0    0    0    0 -0.00000000000E+00 -0.00000000000E+00 -0.45593999997E+02  0.45594000000E+02  0.51100000000E-03 0. -1.
    9900012    2    1    2    0    0 -0.33720972259E+02  0.21851944648E+02  0.62090719725E+01  0.50528880116E+02  0.30000061601E+02 0.  0.
         12    1    1    2    0    0  0.33720972259E+02 -0.21851944648E+02 -0.62090719725E+01  0.40659119884E+02  0.00000000000E+00 0. -1.
         11    1    3    3    0    0 -0.15105410213E+02  0.14837799268E+02  0.70798296964E+01  0.22326166120E+02  0.51100000000E-03 0. -1.
        -11    1    3    3    0    0 -0.22772610012E+02  0.63309216487E+01  0.85117584230E+00  0.23651571539E+02  0.51100000000E-03 0.  1.
        -12    1    3    3    0    0  0.41570479665E+01  0.68322373217E+00 -0.17219335662E+01  0.45511424577E+01  0.00000000000E+00 0.  1.
</event>
<event>
 7    1  0.1381607E-011  0.5052886E+02  0.7816164E-02  0.1300439E+00
        -11   -1    0    0    0    0  0.00000000000E+00  0.00000000000E+00  0.45593999997E+02  0.45594000000E+02  0.51100000000E-03 0.  1.
         11   -1    0    0    0    0 -0.00000000000E+00 -0.00000000000E+00 -0.45593999997E+02  0.45594000000E+02  0.51100000000E-03 0. -1.
    9900012    2    1    2    0    0 -0.11257921177E+02  0.29165778773E+02  0.25995816215E+02  0.50528857100E+02  0.29999991641E+02 0.  0.
         12    1    1    2    0    0  0.11257921177E+02 -0.29165778773E+02 -0.25995816215E+02  0.40659142900E+02  0.00000000000E+00 0. -1.
         11    1    3    3    0    0 -0.13351918042E+02  0.61289749349E+01  0.31941688130E+01  0.15034652102E+02  0.51100000000E-03 0.  1.
        -11    1    3    3    0    0 -0.30407648516E+01  0.20811079766E+02  0.14750187510E+02  0.25688817095E+02  0.51100000000E-03 0. -1.
         12    1    3    3    0    0  0.51347617166E+01  0.22257240718E+01  0.80514598923E+01  0.98053879030E+01  0.00000000000E+00 0. -1.
</event>
<event>
 7    1  0.1381607E-011  0.5052885E+02  0.7816164E-02  0.1300439E+00
        -11   -1    0    0    0    0  0.00000000000E+00  0.00000000000E+00  0.45593999997E+02  0.45594000000E+02  0.51100000000E-03 0. -1.
         11   -1    0    0    0    0 -0.00000000000E+00 -0.00000000000E+00 -0.45593999997E+02  0.45594000000E+02  0.51100000000E-03 0.  1.
    9900012    2    1    2    0    0  0.19774655127E+02 -0.30402227907E+02  0.18380264833E+02  0.50528848725E+02  0.29999966184E+02 0.  0.
         12    1    1    2    0    0 -0.19774655127E+02  0.30402227907E+02 -0.18380264833E+02  0.40659151275E+02  0.00000000000E+00 0. -1.
         11    1    3    3    0    0  0.10844442041E+02 -0.14145443248E+02 -0.16416805358E+01  0.17899458179E+02  0.51100000000E-03 0. -1.
        -11    1    3    3    0    0 -0.82951124872E+00 -0.13011018465E+02  0.40863514881E+01  0.13662831301E+02  0.51100000000E-03 0.  1.
         12    1    3    3    0    0  0.97597243352E+01 -0.32457661936E+01  0.15935593880E+02  0.18966559245E+02  0.00000000000E+00 0. -1.
</event>
<event>
 7    1  0.1381607E-011  0.5052886E+02  0.7816164E-02  0.1300439E+00
        -11   -1    0    0    0    0  0.00000000000E+00  0.00000000000E+00  0.45593999997E+02  0.45594000000E+02  0.51100000000E-03 0. -1.
         11   -1    0    0    0    0 -0.00000000000E+00 -0.00000000000E+00 -0.45593999997E+02  0.45594000000E+02  0.51100000000E-03 0.  1.
    9900012    2    1    2    0    0 -0.32200167298E+02  0.20336302529E+02 -0.14239022207E+02  0.50528859232E+02  0.29999998122E+02 0.  0.
         12    1    1    2    0    0  0.32200167298E+02 -0.20336302529E+02  0.14239022207E+02  0.40659140768E+02  0.00000000000E+00 0. -1.
         11    1    3    3    0    0 -0.17903099267E+01 -0.32710920642E+01 -0.11555060439E+01  0.39039015619E+01  0.51100000000E-03 0. -1.
        -11    1    3    3    0    0 -0.31292459273E+02  0.13834241771E+02 -0.13553372421E+02  0.36800790168E+02  0.51100000000E-03 0.  1.
         12    1    3    3    0    0  0.88260190210E+00  0.97731528224E+01  0.46985625738E+00  0.98241675022E+01  0.00000000000E+00 0. -1.
</event>
<event>
 7    1  0.1381607E-011  0.5052886E+02  0.7816164E-02  0.1300439E+00
        -11   -1    0    0    0    0  0.00000000000E+00  0.00000000000E+00  0.45593999997E+02  0.45594000000E+02  0.51100000000E-03 0. -1.
         11   -1    0    0    0    0 -0.00000000000E+00 -0.00000000000E+00 -0.45593999997E+02  0.45594000000E+02  0.51100000000E-03 0.  1.
    9900012    2    1    2    0    0 -0.38793186253E+02 -0.12107991062E+02 -0.12849772802E+01  0.50528856946E+02  0.29999991174E+02 0.  0.
         12    1    1    2    0    0  0.38793186253E+02  0.12107991062E+02  0.12849772802E+01  0.40659143054E+02  0.00000000000E+00 0. -1.
         11    1    3    3    0    0 -0.82700578290E+01 -0.45244099834E+01 -0.11758978610E+02  0.15071088892E+02  0.51100000000E-03 0. -1.
        -11    1    3    3    0    0 -0.20416794879E+02 -0.62247458375E+01  0.73546771816E+00  0.21357291188E+02  0.51100000000E-03 0.  1.
        -12    1    3    3    0    0 -0.10106333546E+02 -0.13588352412E+01  0.97385336115E+01  0.14100476866E+02  0.00000000000E+00 0.  1.
</event>
<event>
 7    1  0.1381607E-011  0.5052887E+02  0.7816164E-02  0.1300439E+00
        -11   -1    0    0    0    0  0.00000000000E+00  0.00000000000E+00  0.45593999997E+02  0.45594000000E+02  0.51100000000E-03 0.  1.
         11   -1    0    0    0    0 -0.00000000000E+00 -0.00000000000E+00 -0.45593999997E+02  0.45594000000E+02  0.51100000000E-03 0. -1.
    9900012    2    1    2    0    0 -0.15801897714E+02  0.96691948513E+01  0.36193532734E+02  0.50528866805E+02  0.30000021140E+02 0.  0.
         12    1    1    2    0    0  0.15801897714E+02 -0.96691948513E+01 -0.36193532734E+02  0.40659133195E+02  0.00000000000E+00 0. -1.
         11    1    3    3    0    0 -0.94539311958E+01  0.12841752374E+02  0.24281509987E+02  0.29049598046E+02  0.51100000000E-03 0. -1.
        -11    1    3    3    0    0 -0.81767718773E+01  0.45875537854E+01  0.38338485532E+01  0.10129345638E+02  0.51100000000E-03 0.  1.
         12    1    3    3    0    0  0.18288053590E+01 -0.77601113082E+01  0.80781741933E+01  0.11349923121E+02  0.00000000000E+00 0. -1.
</event>
<event>
 7    1  0.1381607E-011  0.5052886E+02  0.7816164E-02  0.1300439E+00
        -11   -1    0    0    0    0  0.00000000000E+00  0.00000000000E+00  0.45593999997E+02  0.45594000000E+02  0.51100000000E-03 0.  1.
         11   -1    0    0    0    0 -0.00000000000E+00 -0.00000000000E+00 -0.45593999997E+02  0.45594000000E+02  0.51100000000E-03 0. -1.
    9900012    2    1    2    0    0  0.39632165085E+02  0.84510155252E+01 -0.33222283811E+01  0.50528863583E+02  0.30000011348E+02 0.  0.
         12    1    1    2    0    0 -0.39632165085E+02 -0.84510155252E+01  0.33222283811E+01  0.40659136417E+02  0.00000000000E+00 0. -1.
         11    1    3    3    0    0 -0.54362662320E+00 -0.40667762431E+01  0.94059463212E+00  0.42093844491E+01  0.51100000000E-03 0. -1.
        -11    1    3    3    0    0  0.91575780803E+01  0.11935248546E+01 -0.90777308928E+01  0.12949553517E+02  0.51100000000E-03 0.  1.
        -12    1    3    3    0    0  0.31018213628E+02  0.11324266914E+02  0.48149078796E+01  0.33369925617E+02  0.00000000000E+00 0.  1.
</event>
<event>
 7    1  0.1381607E-011  0.5052885E+02  0.7816164E-02  0.1300439E+00
        -11   -1    0    0    0    0  0.00000000000E+00  0.00000000000E+00  0.45593999997E+02  0.45594000000E+02  0.51100000000E-03 0.  1.
         11   -1    0    0    0    0 -0.00000000000E+00 -0.00000000000E+00 -0.45593999997E+02  0.45594000000E+02  0.51100000000E-03 0. -1.
    9900012    2    1    2    0    0 -0.56339848441E+01  0.45551904559E+01  0.40008432131E+02  0.50528853588E+02  0.29999980967E+02 0.  0.
         12    1    1    2    0    0  0.56339848441E+01 -0.45551904559E+01 -0.40008432131E+02  0.40659146412E+02  0.00000000000E+00 0. -1.
         11    1    3    3    0    0 -0.39870562111E+01 -0.66735317840E+00  0.16542751161E+02  0.17029521242E+02  0.51100000000E-03 0.  1.
        -11    1    3    3    0    0  0.68475419644E+01  0.81038408010E+01  0.28027157006E+01  0.10973435298E+02  0.51100000000E-03 0. -1.
         12    1    3    3    0    0 -0.84944705974E+01 -0.28812971667E+01  0.20662965270E+02  0.22525897048E+02  0.00000000000E+00 0. -1.
</event>
<event>
 7    1  0.1381607E-011  0.5052886E+02  0.7816164E-02  0.1300439E+00
        -11   -1    0    0    0    0  0.00000000000E+00  0.00000000000E+00  0.45593999997E+02  0.45594000000E+02  0.51100000000E-03 0. -1.
         11   -1    0    0    0    0 -0.00000000000E+00 -0.00000000000E+00 -0.45593999997E+02  0.45594000000E+02  0.51100000000E-03 0.  1.
    9900012    2    1    2    0    0  0.58159271779E+01 -0.38343125436E+02 -0.12212505589E+02  0.50528861176E+02  0.30000004029E+02 0.  0.
         12    1    1    2    0    0 -0.58159271779E+01  0.38343125436E+02  0.12212505589E+02  0.40659138824E+02  0.00000000000E+00 0. -1.
         11    1    3    3    0    0 -0.14529710975E-01 -0.32432994142E+02  0.27968224252E-01  0.32433009459E+02  0.51100000000E-03 0. -1.
        -11    1    3    3    0    0  0.55615454208E+01 -0.55934444078E+01 -0.23974999890E+01  0.82441139165E+01  0.51100000000E-03 0.  1.
        -12    1    3    3    0    0  0.26891146816E+00 -0.31668688692E+00 -0.98429738247E+01  0.98517377998E+01  0.00000000000E+00 0.  1.
</event>
<event>
 7    1  0.1381607E-011  0.5052886E+02  0.7816164E-02  0.1300439E+00
        -11   -1    0    0    0    0  0.00000000000E+00  0.00000000000E+00  0.45593999997E+02  0.45594000000E+02  0.51100000000E-03 0. -1.
         11   -1    0    0    0    0 -0.00000000000E+00 -0.00000000000E+00 -0.45593999997E+02  0.45594000000E+02  0.51100000000E-03 0.  1.
    9900012    2    1    2    0    0  0.27840928207E+02  0.13025816567E+02 -0.26615346761E+02  0.50528857561E+02  0.29999993042E+02 0.  0.
         12    1    1    2    0    0 -0.27840928207E+02 -0.13025816567E+02  0.26615346761E+02  0.40659142439E+02  0.00000000000E+00 0. -1.
         11    1    3    3    0    0 -0.39671423356E+01 -0.16480633037E+01 -0.17459978527E+01  0.46371154533E+01  0.51100000000E-03 0. -1.
        -11    1    3    3    0    0  0.96258825141E+01  0.64252848811E+01 -0.16501669443E-01  0.11573338868E+02  0.51100000000E-03 0.  1.
        -12    1    3    3    0    0  0.22182188029E+02  0.82485949894E+01 -0.24852847239E+02  0.34318403240E+02  0.00000000000E+00 0.  1.
</event>
<event>
 7    1  0.1381607E-011  0.5052887E+02  0.7816164E-02  0.1300439E+00
        -11   -1    0    0    0    0  0.00000000000E+00  0.00000000000E+00  0.45593999997E+02  0.45594000000E+02  0.51100000000E-03 0. -1.
         11   -1    0    0    0    0 -0.00000000000E+00 -0.00000000000E+00 -0.45593999997E+02  0.45594000000E+02  0.51100000000E-03 0.  1.
    9900012    2    1    2    0    0 -0.19796816028E+02  0.73124348315E+01 -0.34753119892E+02  0.50528868551E+02  0.30000026446E+02 0.  0.
         12    1    1    2    0    0  0.19796816028E+02 -0.73124348315E+01  0.34753119892E+02  0.40659131449E+02  0.00000000000E+00 0. -1.
         11    1    3    3    0    0 -0.97536236348E+01  0.61787692626E+01 -0.22660214043E+02  0.25432177735E+02  0.51100000000E-03 0.  1.
        -11    1    3    3    0    0  0.17736745894E+01  0.80766549701E+01 -0.40844861970E+01  0.92228685781E+01  0.51100000000E-03 0. -1.
         12    1    3    3    0    0 -0.11816866983E+02 -0.69429894012E+01 -0.80084196515E+01  0.15873822238E+02  0.00000000000E+00 0. -1.
</event>
<event>
 7    1  0.1381607E-011  0.5052886E+02  0.7816164E-02  0.1300439E+00
        -11   -1    0    0    0    0  0.00000000000E+00  0.00000000000E+00  0.45593999997E+02  0.45594000000E+02  0.51100000000E-03 0.  1.
         11   -1    0    0    0    0 -0.00000000000E+00 -0.00000000000E+00 -0.45593999997E+02  0.45594000000E+02  0.51100000000E-03 0. -1.
    9900012    2    1    2    0    0  0.37006571789E+02 -0.11501061214E+02 -0.12304667858E+02  0.50528860613E+02  0.30000002319E+02 0.  0.
         12    1    1    2    0    0 -0.37006571789E+02  0.11501061214E+02  0.12304667858E+02  0.40659139387E+02  0.00000000000E+00 0. -1.
         11    1    3    3    0    0  0.89256090970E+01 -0.42337224296E+01  0.34061770137E+01  0.10449542836E+02  0.51100000000E-03 0. -1.
        -11    1    3    3    0    0  0.24080637632E+02  0.23504085699E+01 -0.42032689021E+01  0.24557463202E+02  0.51100000000E-03 0.  1.
         12    1    3    3    0    0  0.40003250598E+01 -0.96177473545E+01 -0.11507575970E+02  0.15521854575E+02  0.00000000000E+00 0. -1.
</event>
<event>
 7    1  0.1381607E-011  0.5052887E+02  0.7816164E-02  0.1300439E+00
        -11   -1    0    0    0    0  0.00000000000E+00  0.00000000000E+00  0.45593999997E+02  0.45594000000E+02  0.51100000000E-03 0. -1.
         11   -1    0    0    0    0 -0.00000000000E+00 -0.00000000000E+00 -0.45593999997E+02  0.45594000000E+02  0.51100000000E-03 0.  1.
    9900012    2    1    2    0    0 -0.74575570883E+01  0.31868086352E+02  0.24124155545E+02  0.50528868599E+02  0.30000026594E+02 0.  0.
         12    1    1    2    0    0  0.74575570883E+01 -0.31868086352E+02 -0.24124155545E+02  0.40659131401E+02  0.00000000000E+00 0. -1.
         11    1    3    3    0    0 -0.33059800464E+01  0.22568277424E+01 -0.50288514411E+01  0.64274507080E+01  0.51100000000E-03 0. -1.
        -11    1    3    3    0    0 -0.89366390231E+01  0.17036357590E+02  0.13732890654E+02  0.23636693571E+02  0.51100000000E-03 0.  1.
        -12    1    3    3    0    0  0.47850619812E+01  0.12574901020E+02  0.15420116332E+02  0.20464724321E+02  0.00000000000E+00 0.  1.
</event>
<event>
 7    1  0.1381607E-011  0.5052882E+02  0.7816164E-02  0.1300439E+00
        -11   -1    0    0    0    0  0.00000000000E+00  0.00000000000E+00  0.45593999997E+02  0.45594000000E+02  0.51100000000E-03 0. -1.
         11   -1    0    0    0    0 -0.00000000000E+00 -0.00000000000E+00 -0.45593999997E+02  0.45594000000E+02  0.51100000000E-03 0.  1.
    9900012    2    1    2    0    0 -0.25159789332E+02  0.17856745382E+02 -0.26481887920E+02  0.50528822160E+02  0.29999885436E+02 0.  0.
         12    1    1    2    0    0  0.25159789332E+02 -0.17856745382E+02  0.26481887920E+02  0.40659177840E+02  0.00000000000E+00 0. -1.
         11    1    3    3    0    0 -0.69108854276E+01 -0.25156226293E+01 -0.78035704636E+01  0.10723078236E+02  0.51100000000E-03 0. -1.
        -11    1    3    3    0    0 -0.22913909914E+02  0.20042451685E+02 -0.15599346751E+02  0.34206530903E+02  0.51100000000E-03 0.  1.
         12    1    3    3    0    0  0.46650060098E+01  0.32991632686E+00 -0.30789707054E+01  0.55992130214E+01  0.00000000000E+00 0. -1.
</event>
<event>
 7    1  0.1381607E-011  0.5052886E+02  0.7816164E-02  0.1300439E+00
        -11   -1    0    0    0    0  0.00000000000E+00  0.00000000000E+00  0.45593999997E+02  0.45594000000E+02  0.51100000000E-03 0. -1.
         11   -1    0    0    0    0 -0.00000000000E+00 -0.00000000000E+00 -0.45593999997E+02  0.45594000000E+02  0.51100000000E-03 0.  1.
    9900012    2    1    2    0    0 -0.36326617496E+02  0.17935044362E+02 -0.34462210581E+01  0.50528863333E+02  0.30000010587E+02 0.  0.
         12    1    1    2    0    0  0.36326617496E+02 -0.17935044362E+02  0.34462210581E+01  0.40659136667E+02  0.00000000000E+00 0. -1.
         11    1    3    3    0    0 -0.18293286171E+02  0.49456815069E+01  0.97274594387E+01  0.21300881481E+02  0.51100000000E-03 0. -1.
        -11    1    3    3    0    0  0.49925144663E+00 -0.11094232329E+01 -0.40326579631E+01  0.42121731238E+01  0.51100000000E-03 0.  1.
        -12    1    3    3    0    0 -0.18532582772E+02  0.14098786088E+02 -0.91410225338E+01  0.25015808728E+02  0.00000000000E+00 0.  1.
</event>
<event>
 7    1  0.1381607E-011  0.5052884E+02  0.7816164E-02  0.1300439E+00
        -11   -1    0    0    0    0  0.00000000000E+00  0.00000000000E+00  0.45593999997E+02  0.45594000000E+02  0.51100000000E-03 0. -1.
         11   -1    0    0    0    0 -0.00000000000E+00 -0.00000000000E+00 -0.45593999997E+02  0.45594000000E+02  0.51100000000E-03 0.  1.
    9900012    2    1    2    0    0  0.37524859136E+02 -0.11013730402E+02  0.11124285451E+02  0.50528843130E+02  0.29999949179E+02 0.  0.
         12    1    1    2    0    0 -0.37524859136E+02  0.11013730402E+02 -0.11124285451E+02  0.40659156870E+02  0.00000000000E+00 0. -1.
         11    1    3    3    0    0  0.44974942430E+01  0.39230076061E+01  0.54446958980E+01  0.80784996643E+01  0.51100000000E-03 0. -1.
        -11    1    3    3    0    0  0.20502046135E+02  0.60536283471E+00 -0.29161615324E+01  0.20717247844E+02  0.51100000000E-03 0.  1.
        -12    1    3    3    0    0  0.12525318758E+02 -0.15542100843E+02  0.85957510850E+01  0.21733095622E+02  0.00000000000E+00 0.  1.
</event>
<event>
 7    1  0.1381607E-011  0.5052886E+02  0.7816164E-02  0.1300439E+00
        -11   -1    0    0    0    0  0.00000000000E+00  0.00000000000E+00  0.45593999997E+02  0.45594000000E+02  0.51100000000E-03 0. -1.
         11   -1    0    0    0    0 -0.00000000000E+00 -0.00000000000E+00 -0.45593999997E+02  0.45594000000E+02  0.51100000000E-03 0.  1.
    9900012    2    1    2    0    0 -0.17333888760E+02 -0.31929737730E+02 -0.18253604016E+02  0.50528856986E+02  0.29999991295E+02 0.  0.
         12    1    1    2    0    0  0.17333888760E+02  0.31929737730E+02  0.18253604016E+02  0.40659143014E+02  0.00000000000E+00 0. -1.
         11    1    3    3    0    0  0.66610727316E+01 -0.11136879990E+02 -0.20404076852E+01  0.13136333188E+02  0.51100000000E-03 0. -1.
        -11    1    3    3    0    0 -0.11741066007E+02 -0.16690180923E+02 -0.72080015549E+01  0.21641858906E+02  0.51100000000E-03 0.  1.
        -12    1    3    3    0    0 -0.12253895484E+02 -0.41026768176E+01 -0.90051947757E+01  0.15750664892E+02  0.00000000000E+00 0.  1.
</event>
<event>
 7    1  0.1381607E-011  0.5052886E+02  0.7816164E-02  0.1300439E+00
        -11   -1    0    0    0    0  0.00000000000E+00  0.00000000000E+00  0.45593999997E+02  0.45594000000E+02  0.51100000000E-03 0.  1.
         11   -1    0    0    0    0 -0.00000000000E+00 -0.00000000000E+00 -0.45593999997E+02  0.45594000000E+02  0.51100000000E-03 0. -1.
    9900012    2    1    2    0    0 -0.28039730875E+02  0.28970010682E+02  0.52609787325E+01  0.50528856826E+02  0.29999990808E+02 0.  0.
         12    1    1    2    0    0  0.28039730875E+02 -0.28970010682E+02 -0.52609787325E+01  0.40659143174E+02  0.00000000000E+00 0. -1.
         11    1    3    3    0    0  0.28939990007E+01  0.33708833047E+01 -0.31766008858E+01  0.54615819978E+01  0.51100000000E-03 0. -1.
        -11    1    3    3    0    0 -0.10417706410E+02  0.42720829455E+01  0.10508863605E+02  0.15401802299E+02  0.51100000000E-03 0.  1.
        -12    1    3    3    0    0 -0.20516023465E+02  0.21327044431E+02 -0.20712839863E+01  0.29665472529E+02  0.00000000000E+00 0.  1.
</event>
<event>
 7    1  0.1381607E-011  0.5052886E+02  0.7816164E-02  0.1300439E+00
        -11   -1    0    0    0    0  0.00000000000E+00  0.00000000000E+00  0.45593999997E+02  0.45594000000E+02  0.51100000000E-03 0.  1.
         11   -1    0    0    0    0 -0.00000000000E+00 -0.00000000000E+00 -0.45593999997E+02  0.45594000000E+02  0.51100000000E-03 0. -1.
    9900012    2    1    2    0    0 -0.13815791363E+02  0.14865163349E+02  0.35232318652E+02  0.50528862651E+02  0.30000008515E+02 0.  0.
         12    1    1    2    0    0  0.13815791363E+02 -0.14865163349E+02 -0.35232318652E+02  0.40659137349E+02  0.00000000000E+00 0. -1.
         11    1    3    3    0    0 -0.65487555299E+01 -0.32661204223E+01  0.10372344688E+02  0.12694064605E+02  0.51100000000E-03 0. -1.
        -11    1    3    3    0    0 -0.97200469267E+01  0.10761413428E+02  0.26206949995E+02  0.29951486767E+02  0.51100000000E-03 0.  1.
        -12    1    3    3    0    0  0.24530110939E+01  0.73698703433E+01 -0.13469760314E+01  0.78833112797E+01  0.00000000000E+00 0.  1.
</event>
<event>
 7    1  0.1381607E-011  0.5052889E+02  0.7816164E-02  0.1300439E+00
        -11   -1    0    0    0    0  0.00000000000E+00  0.00000000000E+00  0.45593999997E+02  0.45594000000E+02  0.51100000000E-03 0.  1.
         11   -1    0    0    0    0 -0.00000000000E+00 -0.00000000000E+00 -0.45593999997E+02  0.45594000000E+02  0.51100000000E-03 0. -1.
    9900012    2    1    2    0    0  0.25247992878E+01 -0.33186078452E+02  0.23355362063E+02  0.50528888456E+02  0.30000086950E+02 0.  0.
         12    1    1    2    0    0 -0.25247992878E+01  0.33186078452E+02 -0.23355362063E+02  0.40659111544E+02  0.00000000000E+00 0. -1.
         11    1    3    3    0    0  0.93707346671E+00  0.32473288665E+01  0.37136908725E+01  0.50214292395E+01  0.51100000000E-03 0. -1.
        -11    1    3    3    0    0  0.36490249294E+01 -0.15064925281E+02 -0.12515826476E+01  0.15551006914E+02  0.51100000000E-03 0.  1.
        -12    1    3    3    0    0 -0.20612991083E+01 -0.21368482037E+02  0.20893253838E+02  0.29956452303E+02  0.00000000000E+00 0.  1.
</event>
<event>
 7    1  0.1381607E-011  0.5052887E+02  0.7816164E-02  0.1300439E+00
        -11   -1    0    0    0    0  0.00000000000E+00  0.00000000000E+00  0.45593999997E+02  0.45594000000E+02  0.51100000000E-03 0. -1.
         11   -1    0    0    0    0 -0.00000000000E+00 -0.00000000000E+00 -0.45593999997E+02  0.45594000000E+02  0.51100000000E-03 0.  1.
    9900012    2    1    2    0    0  0.30606753094E+02  0.14078815627E+02 -0.22763540269E+02  0.50528866340E+02  0.30000019728E+02 0.  0.
         12    1    1    2    0    0 -0.30606753094E+02 -0.14078815627E+02  0.22763540269E+02  0.40659133660E+02  0.00000000000E+00 0. -1.
         11    1    3    3    0    0  0.17393516439E+01  0.10613722815E+02 -0.50985364740E+01  0.11902585038E+02  0.51100000000E-03 0. -1.
        -11    1    3    3    0    0  0.88685939629E+01  0.79690900418E+00 -0.16089182321E+02  0.18388822988E+02  0.51100000000E-03 0.  1.
         12    1    3    3    0    0  0.19998807487E+02  0.26681838072E+01 -0.15758214733E+01  0.20237458315E+02  0.00000000000E+00 0. -1.
</event>
<event>
 7    1  0.1381607E-011  0.5052886E+02  0.7816164E-02  0.1300439E+00
        -11   -1    0    0    0    0  0.00000000000E+00  0.00000000000E+00  0.45593999997E+02  0.45594000000E+02  0.51100000000E-03 0. -1.
         11   -1    0    0    0    0 -0.00000000000E+00 -0.00000000000E+00 -0.45593999997E+02  0.45594000000E+02  0.51100000000E-03 0.  1.
    9900012    2    1    2    0    0 -0.25421539833E+02 -0.28295905811E+02  0.14361489812E+02  0.50528863724E+02  0.30000011774E+02 0.  0.
         12    1    1    2    0    0  0.25421539833E+02  0.28295905811E+02 -0.14361489812E+02  0.40659136276E+02  0.00000000000E+00 0. -1.
         11    1    3    3    0    0 -0.13589329495E+02 -0.95022579329E+01  0.28393330392E+01  0.16823334815E+02  0.51100000000E-03 0. -1.
        -11    1    3    3    0    0 -0.87218673097E+01  0.18777590147E+01 -0.15433015564E+01  0.90542105255E+01  0.51100000000E-03 0.  1.
        -12    1    3    3    0    0 -0.31103430287E+01 -0.20671406892E+02  0.13065458329E+02  0.24651318383E+02  0.00000000000E+00 0.  1.
</event>
<event>
 7    1  0.1381607E-011  0.5052886E+02  0.7816164E-02  0.1300439E+00
        -11   -1    0    0    0    0  0.00000000000E+00  0.00000000000E+00  0.45593999997E+02  0.45594000000E+02  0.51100000000E-03 0. -1.
         11   -1    0    0    0    0 -0.00000000000E+00 -0.00000000000E+00 -0.45593999997E+02  0.45594000000E+02  0.51100000000E-03 0.  1.
    9900012    2    1    2    0    0 -0.11927186168E+02  0.27203609145E+02 -0.27764573218E+02  0.50528860235E+02  0.30000001171E+02 0.  0.
         12    1    1    2    0    0  0.11927186168E+02 -0.27203609145E+02  0.27764573218E+02  0.40659139765E+02  0.00000000000E+00 0. -1.
         11    1    3    3    0    0 -0.47995221188E+01  0.37733343188E+01 -0.10508874369E+02  0.12153596390E+02  0.51100000000E-03 0. -1.
        -11    1    3    3    0    0  0.40600113539E+01  0.22460832361E+02 -0.13581183673E+02  0.26559767182E+02  0.51100000000E-03 0.  1.
         12    1    3    3    0    0 -0.11187675403E+02  0.96944246584E+00 -0.36745151762E+01  0.11815496663E+02  0.00000000000E+00 0. -1.
</event>
<event>
 7    1  0.1381607E-011  0.5052886E+02  0.7816164E-02  0.1300439E+00
        -11   -1    0    0    0    0  0.00000000000E+00  0.00000000000E+00  0.45593999997E+02  0.45594000000E+02  0.51100000000E-03 0.  1.
         11   -1    0    0    0    0 -0.00000000000E+00 -0.00000000000E+00 -0.45593999997E+02  0.45594000000E+02  0.51100000000E-03 0. -1.
    9900012    2    1    2    0    0  0.10596236275E+02  0.73259357590E+01  0.38564441780E+02  0.50528859235E+02  0.29999998131E+02 0.  0.
         12    1    1    2    0    0 -0.10596236275E+02 -0.73259357590E+01 -0.38564441780E+02  0.40659140765E+02  0.00000000000E+00 0. -1.
         11    1    3    3    0    0  0.12629825176E+01  0.48728015656E+01  0.16515361448E+02  0.17265470858E+02  0.51100000000E-03 0. -1.
        -11    1    3    3    0    0 -0.16574504168E+01 -0.74932689782E+01  0.15000586242E+02  0.16849742127E+02  0.51100000000E-03 0.  1.
         12    1    3    3    0    0  0.10990704174E+02  0.99464031716E+01  0.70484940902E+01  0.16413646250E+02  0.00000000000E+00 0. -1.
</event>
<event>
 7    1  0.1381607E-011  0.5052884E+02  0.7816164E-02  0.1300439E+00
        -11   -1    0    0    0    0  0.00000000000E+00  0.00000000000E+00  0.45593999997E+02  0.45594000000E+02  0.51100000000E-03 0.  1.
         11   -1    0    0    0    0 -0.00000000000E+00 -0.00000000000E+00 -0.45593999997E+02  0.45594000000E+02  0.51100000000E-03 0. -1.
    9900012    2    1    2    0    0  0.25200257489E+02 -0.21531591894E+02  0.23547919722E+02  0.50528844202E+02  0.29999952435E+02 0.  0.
         12    1    1    2    0    0 -0.25200257489E+02  0.21531591894E+02 -0.23547919722E+02  0.40659155798E+02  0.00000000000E+00 0. -1.
         11    1    3    3    0    0 -0.23730320610E+01 -0.38674290791E+01  0.81686139257E+00  0.46103743492E+01  0.51100000000E-03 0. -1.
        -11    1    3    3    0    0  0.61560196708E+01  0.37449241636E+01  0.11597866793E+02  0.13653993906E+02  0.51100000000E-03 0.  1.
        -12    1    3    3    0    0  0.21417269879E+02 -0.21409086978E+02  0.11133191537E+02  0.32264475947E+02  0.00000000000E+00 0.  1.
</event>
<event>
 7    1  0.1381607E-011  0.5052886E+02  0.7816164E-02  0.1300439E+00
        -11   -1    0    0    0    0  0.00000000000E+00  0.00000000000E+00  0.45593999997E+02  0.45594000000E+02  0.51100000000E-03 0.  1.
         11   -1    0    0    0    0 -0.00000000000E+00 -0.00000000000E+00 -0.45593999997E+02  0.45594000000E+02  0.51100000000E-03 0. -1.
    9900012    2    1    2    0    0 -0.18782369888E+02  0.21710915281E+02  0.28792790906E+02  0.50528855037E+02  0.29999985370E+02 0.  0.
         12    1    1    2    0    0  0.18782369888E+02 -0.21710915281E+02 -0.28792790906E+02  0.40659144963E+02  0.00000000000E+00 0. -1.
         11    1    3    3    0    0 -0.22537995450E+01  0.29511254911E+01  0.77349074921E+01  0.85800669127E+01  0.51100000000E-03 0. -1.
        -11    1    3    3    0    0 -0.23308084865E+02  0.15432370851E+02  0.12759201292E+02  0.30728197279E+02  0.51100000000E-03 0.  1.
         12    1    3    3    0    0  0.67795145221E+01  0.33274189396E+01  0.82986821221E+01  0.11220590845E+02  0.00000000000E+00 0. -1.
</event>
<event>
 7    1  0.1381607E-011  0.5052886E+02  0.7816164E-02  0.1300439E+00
        -11   -1    0    0    0    0  0.00000000000E+00  0.00000000000E+00  0.45593999997E+02  0.45594000000E+02  0.51100000000E-03 0. -1.
         11   -1    0    0    0    0 -0.00000000000E+00 -0.00000000000E+00 -0.45593999997E+02  0.45594000000E+02  0.51100000000E-03 0.  1.
    9900012    2    1    2    0    0 -0.29051798598E+02  0.10259556588E+02 -0.26531113897E+02  0.50528861940E+02  0.30000006353E+02 0.  0.
         12    1    1    2    0    0  0.29051798598E+02 -0.10259556588E+02  0.26531113897E+02  0.40659138060E+02  0.00000000000E+00 0. -1.
         11    1    3    3    0    0 -0.14904640068E+02  0.67197613613E+01 -0.14925590318E+02  0.22137676818E+02  0.51100000000E-03 0.  1.
        -11    1    3    3    0    0  0.50259015893E+01  0.35786308137E+01 -0.39777509007E+00  0.61825973967E+01  0.51100000000E-03 0. -1.
         12    1    3    3    0    0 -0.19173060120E+02 -0.38835586596E-01 -0.11207748489E+02  0.22208587725E+02  0.00000000000E+00 0. -1.
</event>
<event>
 7    1  0.1381607E-011  0.5052888E+02  0.7816164E-02  0.1300439E+00
        -11   -1    0    0    0    0  0.00000000000E+00  0.00000000000E+00  0.45593999997E+02  0.45594000000E+02  0.51100000000E-03 0.  1.
         11   -1    0    0    0    0 -0.00000000000E+00 -0.00000000000E+00 -0.45593999997E+02  0.45594000000E+02  0.51100000000E-03 0. -1.
    9900012    2    1    2    0    0  0.33434419403E+02  0.72096119724E+01  0.21984665946E+02  0.50528875042E+02  0.30000046177E+02 0.  0.
         12    1    1    2    0    0 -0.33434419403E+02 -0.72096119724E+01 -0.21984665946E+02  0.40659124958E+02  0.00000000000E+00 0. -1.
         11    1    3    3    0    0  0.62307621698E+01 -0.26850973878E+01 -0.39807094059E+01  0.78662693085E+01  0.51100000000E-03 0.  1.
        -11    1    3    3    0    0 -0.12252593548E+01  0.47948813910E+01  0.43198187315E+01  0.65690929492E+01  0.51100000000E-03 0. -1.
        -12    1    3    3    0    0  0.28428916588E+02  0.50998279691E+01  0.21645556620E+02  0.36093512784E+02  0.00000000000E+00 0.  1.
</event>
<event>
 7    1  0.1381607E-011  0.5052886E+02  0.7816164E-02  0.1300439E+00
        -11   -1    0    0    0    0  0.00000000000E+00  0.00000000000E+00  0.45593999997E+02  0.45594000000E+02  0.51100000000E-03 0. -1.
         11   -1    0    0    0    0 -0.00000000000E+00 -0.00000000000E+00 -0.45593999997E+02  0.45594000000E+02  0.51100000000E-03 0.  1.
    9900012    2    1    2    0    0  0.71681368232E+01 -0.12715707519E+02 -0.37948572020E+02  0.50528861770E+02  0.30000005836E+02 0.  0.
         12    1    1    2    0    0 -0.71681368232E+01  0.12715707519E+02  0.37948572020E+02  0.40659138230E+02  0.00000000000E+00 0. -1.
         11    1    3    3    0    0 -0.47397577181E+01 -0.18544845754E+01  0.80021435876E+00  0.51521606679E+01  0.51100000000E-03 0. -1.
        -11    1    3    3    0    0 -0.34036440753E+01  0.16981240494E+01 -0.58807939962E+01  0.70037244782E+01  0.51100000000E-03 0.  1.
        -12    1    3    3    0    0  0.15311538617E+02 -0.12559346993E+02 -0.32867992383E+02  0.38372976624E+02  0.00000000000E+00 0.  1.
</event>
<event>
 7    1  0.1381607E-011  0.5052886E+02  0.7816164E-02  0.1300439E+00
        -11   -1    0    0    0    0  0.00000000000E+00  0.00000000000E+00  0.45593999997E+02  0.45594000000E+02  0.51100000000E-03 0.  1.
         11   -1    0    0    0    0 -0.00000000000E+00 -0.00000000000E+00 -0.45593999997E+02  0.45594000000E+02  0.51100000000E-03 0. -1.
    9900012    2    1    2    0    0 -0.11052577271E+02 -0.46467577137E+01  0.38851176300E+02  0.50528859313E+02  0.29999998367E+02 0.  0.
         12    1    1    2    0    0  0.11052577271E+02  0.46467577137E+01 -0.38851176300E+02  0.40659140687E+02  0.00000000000E+00 0. -1.
         11    1    3    3    0    0 -0.30521762478E+00  0.29914300693E+01 -0.85733633221E+00  0.31267934863E+01  0.51100000000E-03 0.  1.
        -11    1    3    3    0    0 -0.16306520681E+01 -0.11986109568E+02  0.90062645230E+01  0.15081069248E+02  0.51100000000E-03 0. -1.
        -12    1    3    3    0    0 -0.91167075776E+01  0.43479217846E+01  0.30702248109E+02  0.32320996579E+02  0.00000000000E+00 0.  1.
</event>
<event>
 7    1  0.1381607E-011  0.5052888E+02  0.7816164E-02  0.1300439E+00
        -11   -1    0    0    0    0  0.00000000000E+00  0.00000000000E+00  0.45593999997E+02  0.45594000000E+02  0.51100000000E-03 0.  1.
         11   -1    0    0    0    0 -0.00000000000E+00 -0.00000000000E+00 -0.45593999997E+02  0.45594000000E+02  0.51100000000E-03 0. -1.
    9900012    2    1    2    0    0 -0.22247807345E+02  0.33951785560E+02 -0.23400283441E+01  0.50528875477E+02  0.30000047500E+02 0.  0.
         12    1    1    2    0    0  0.22247807345E+02 -0.33951785560E+02  0.23400283441E+01  0.40659124523E+02  0.00000000000E+00 0. -1.
         11    1    3    3    0    0  0.21004706589E+01  0.38065271042E+01 -0.17132263211E+01  0.46729830165E+01  0.51100000000E-03 0. -1.
        -11    1    3    3    0    0 -0.15842118673E+02  0.48509790948E+01  0.71713550475E+01  0.18053616140E+02  0.51100000000E-03 0.  1.
         12    1    3    3    0    0 -0.85061593301E+01  0.25294279361E+02 -0.77981570705E+01  0.27802276321E+02  0.00000000000E+00 0. -1.
</event>
<event>
 7    1  0.1381607E-011  0.5052887E+02  0.7816164E-02  0.1300439E+00
        -11   -1    0    0    0    0  0.00000000000E+00  0.00000000000E+00  0.45593999997E+02  0.45594000000E+02  0.51100000000E-03 0.  1.
         11   -1    0    0    0    0 -0.00000000000E+00 -0.00000000000E+00 -0.45593999997E+02  0.45594000000E+02  0.51100000000E-03 0. -1.
    9900012    2    1    2    0    0 -0.33628971672E+02  0.19900783759E+02  0.11234599759E+02  0.50528866195E+02  0.30000019288E+02 0.  0.
         12    1    1    2    0    0  0.33628971672E+02 -0.19900783759E+02 -0.11234599759E+02  0.40659133805E+02  0.00000000000E+00 0. -1.
         11    1    3    3    0    0 -0.28254894018E+01  0.38359362146E+01  0.41001208635E+01  0.62856016704E+01  0.51100000000E-03 0. -1.
        -11    1    3    3    0    0 -0.21013168784E+02 -0.38350155483E+01  0.51808983383E+01  0.21979588587E+02  0.51100000000E-03 0.  1.
         12    1    3    3    0    0 -0.97903134870E+01  0.19899863093E+02  0.19535805577E+01  0.22263675938E+02  0.00000000000E+00 0. -1.
</event>
<event>
 7    1  0.1381607E-011  0.5052886E+02  0.7816164E-02  0.1300439E+00
        -11   -1    0    0    0    0  0.00000000000E+00  0.00000000000E+00  0.45593999997E+02  0.45594000000E+02  0.51100000000E-03 0. -1.
         11   -1    0    0    0    0 -0.00000000000E+00 -0.00000000000E+00 -0.45593999997E+02  0.45594000000E+02  0.51100000000E-03 0.  1.
    9900012    2    1    2    0    0 -0.19938368389E+02  0.11338107040E+02 -0.33571928953E+02  0.50528860573E+02  0.30000002199E+02 0.  0.
         12    1    1    2    0    0  0.19938368389E+02 -0.11338107040E+02  0.33571928953E+02  0.40659139427E+02  0.00000000000E+00 0. -1.
         11    1    3    3    0    0  0.16136397562E+01  0.33511826088E+01  0.35301137233E+00  0.37361578434E+01  0.51100000000E-03 0. -1.
        -11    1    3    3    0    0  0.61975474864E+00 -0.28058653147E+01  0.17948027958E+01  0.33879630236E+01  0.51100000000E-03 0.  1.
        -12    1    3    3    0    0 -0.22171762894E+02  0.10792789746E+02 -0.35719743122E+02  0.43404739706E+02  0.00000000000E+00 0.  1.
</event>
<event>
 7    1  0.1381607E-011  0.5052886E+02  0.7816164E-02  0.1300439E+00
        -11   -1    0    0    0    0  0.00000000000E+00  0.00000000000E+00  0.45593999997E+02  0.45594000000E+02  0.51100000000E-03 0.  1.
         11   -1    0    0    0    0 -0.00000000000E+00 -0.00000000000E+00 -0.45593999997E+02  0.45594000000E+02  0.51100000000E-03 0. -1.
    9900012    2    1    2    0    0 -0.24494655018E+02  0.94538784526E+01  0.31045154226E+02  0.50528861505E+02  0.30000005030E+02 0.  0.
         12    1    1    2    0    0  0.24494655018E+02 -0.94538784526E+01 -0.31045154226E+02  0.40659138495E+02  0.00000000000E+00 0. -1.
         11    1    3    3    0    0  0.76880516245E-01  0.55444297365E+01 -0.10672182529E+01  0.56467306273E+01  0.51100000000E-03 0. -1.
        -11    1    3    3    0    0 -0.12479713870E+02 -0.51182992575E+01  0.24530412344E+02  0.27994309700E+02  0.51100000000E-03 0.  1.
         12    1    3    3    0    0 -0.12091821664E+02  0.90277479736E+01  0.75819601349E+01  0.16887821177E+02  0.00000000000E+00 0. -1.
</event>
<event>
 7    1  0.1381607E-011  0.5052885E+02  0.7816164E-02  0.1300439E+00
        -11   -1    0    0    0    0  0.00000000000E+00  0.00000000000E+00  0.45593999997E+02  0.45594000000E+02  0.51100000000E-03 0. -1.
         11   -1    0    0    0    0 -0.00000000000E+00 -0.00000000000E+00 -0.45593999997E+02  0.45594000000E+02  0.51100000000E-03 0.  1.
    9900012    2    1    2    0    0  0.30184850228E+02 -0.21204047622E+02 -0.17100581195E+02  0.50528847327E+02  0.29999961936E+02 0.  0.
         12    1    1    2    0    0 -0.30184850228E+02  0.21204047622E+02  0.17100581195E+02  0.40659152673E+02  0.00000000000E+00 0. -1.
         11    1    3    3    0    0  0.88719421483E+01 -0.33396759032E+01 -0.10386793852E+02  0.14062371045E+02  0.51100000000E-03 0. -1.
        -11    1    3    3    0    0  0.25742016444E+02 -0.12330572736E+02 -0.69415240837E+01  0.29374805386E+02  0.51100000000E-03 0.  1.
        -12    1    3    3    0    0 -0.44291083638E+01 -0.55337989827E+01  0.22773674056E+00  0.70916708963E+01  0.00000000000E+00 0.  1.
</event>
<event>
 7    1  0.1381607E-011  0.5052885E+02  0.7816164E-02  0.1300439E+00
        -11   -1    0    0    0    0  0.00000000000E+00  0.00000000000E+00  0.45593999997E+02  0.45594000000E+02  0.51100000000E-03 0.  1.
         11   -1    0    0    0    0 -0.00000000000E+00 -0.00000000000E+00 -0.45593999997E+02  0.45594000000E+02  0.51100000000E-03 0. -1.
    9900012    2    1    2    0    0  0.35731884747E+02  0.19321247808E+02  0.17573037817E+01  0.50528851939E+02  0.29999975954E+02 0.  0.
         12    1    1    2    0    0 -0.35731884747E+02 -0.19321247808E+02 -0.17573037817E+01  0.40659148061E+02  0.00000000000E+00 0. -1.
         11    1    3    3    0    0  0.21023276420E+01  0.11387793667E+02 -0.15092487807E+01  0.11678161596E+02  0.51100000000E-03 0. -1.
        -11    1    3    3    0    0  0.29428498156E+02  0.11819552893E+02  0.63607043827E+01  0.32344967070E+02  0.51100000000E-03 0.  1.
         12    1    3    3    0    0  0.42010589496E+01 -0.38860987519E+01 -0.30941518203E+01  0.65057232722E+01  0.00000000000E+00 0. -1.
</event>
<event>
 7    1  0.1381607E-011  0.5052890E+02  0.7816164E-02  0.1300439E+00
        -11   -1    0    0    0    0  0.00000000000E+00  0.00000000000E+00  0.45593999997E+02  0.45594000000E+02  0.51100000000E-03 0.  1.
         11   -1    0    0    0    0 -0.00000000000E+00 -0.00000000000E+00 -0.45593999997E+02  0.45594000000E+02  0.51100000000E-03 0. -1.
    9900012    2    1    2    0    0 -0.19659579721E+02  0.33533458083E+02  0.11923517017E+02  0.50528903308E+02  0.30000132094E+02 0.  0.
         12    1    1    2    0    0  0.19659579721E+02 -0.33533458083E+02 -0.11923517017E+02  0.40659096692E+02  0.00000000000E+00 0. -1.
         11    1    3    3    0    0 -0.57817820179E+01  0.27362245661E+01  0.62146939186E+00  0.64266750847E+01  0.51100000000E-03 0. -1.
        -11    1    3    3    0    0 -0.99072340109E+01  0.30201547964E+02 -0.34049308898E+00  0.31786832509E+02  0.51100000000E-03 0.  1.
         12    1    3    3    0    0 -0.39705636917E+01  0.59568555260E+00  0.11642540714E+02  0.12315395714E+02  0.00000000000E+00 0. -1.
</event>
<event>
 7    1  0.1381607E-011  0.5052886E+02  0.7816164E-02  0.1300439E+00
        -11   -1    0    0    0    0  0.00000000000E+00  0.00000000000E+00  0.45593999997E+02  0.45594000000E+02  0.51100000000E-03 0. -1.
         11   -1    0    0    0    0 -0.00000000000E+00 -0.00000000000E+00 -0.45593999997E+02  0.45594000000E+02  0.51100000000E-03 0.  1.
    9900012    2    1    2    0    0  0.57081000018E+01  0.36850484111E+02 -0.16205702928E+02  0.50528863361E+02  0.30000010671E+02 0.  0.
         12    1    1    2    0    0 -0.57081000018E+01 -0.36850484111E+02  0.16205702928E+02  0.40659136639E+02  0.00000000000E+00 0. -1.
         11    1    3    3    0    0  0.60107464302E+01  0.17997733973E+02 -0.13045768564E+02  0.23026931591E+02  0.51100000000E-03 0. -1.
        -11    1    3    3    0    0 -0.86790754599E+01  0.11773918235E+02 -0.65447233822E+01  0.16024509536E+02  0.51100000000E-03 0.  1.
         12    1    3    3    0    0  0.83764290315E+01  0.70788319027E+01  0.33847890189E+01  0.11477422234E+02  0.00000000000E+00 0. -1.
</event>
<event>
 7    1  0.1381607E-011  0.5052886E+02  0.7816164E-02  0.1300439E+00
        -11   -1    0    0    0    0  0.00000000000E+00  0.00000000000E+00  0.45593999997E+02  0.45594000000E+02  0.51100000000E-03 0.  1.
         11   -1    0    0    0    0 -0.00000000000E+00 -0.00000000000E+00 -0.45593999997E+02  0.45594000000E+02  0.51100000000E-03 0. -1.
    9900012    2    1    2    0    0 -0.83946134374E+01 -0.24362819468E+02  0.31450737575E+02  0.50528863251E+02  0.30000010337E+02 0.  0.
         12    1    1    2    0    0  0.83946134374E+01  0.24362819468E+02 -0.31450737575E+02  0.40659136749E+02  0.00000000000E+00 0. -1.
         11    1    3    3    0    0  0.17404693414E+01 -0.64456294537E+01  0.27602084374E+01  0.72245500525E+01  0.51100000000E-03 0. -1.
        -11    1    3    3    0    0  0.49985526578E+01 -0.16463773189E+02  0.14344783469E+02  0.22401209104E+02  0.51100000000E-03 0.  1.
        -12    1    3    3    0    0 -0.15133635437E+02 -0.14534168254E+01  0.14345745668E+02  0.20903104094E+02  0.00000000000E+00 0.  1.
</event>
<event>
 7    1  0.1381607E-011  0.5052885E+02  0.7816164E-02  0.1300439E+00
        -11   -1    0    0    0    0  0.00000000000E+00  0.00000000000E+00  0.45593999997E+02  0.45594000000E+02  0.51100000000E-03 0. -1.
         11   -1    0    0    0    0 -0.00000000000E+00 -0.00000000000E+00 -0.45593999997E+02  0.45594000000E+02  0.51100000000E-03 0.  1.
    9900012    2    1    2    0    0 -0.37607830800E+02 -0.49310038693E+01 -0.14645899051E+02  0.50528854711E+02  0.29999984380E+02 0.  0.
         12    1    1    2    0    0  0.37607830800E+02  0.49310038693E+01  0.14645899051E+02  0.40659145289E+02  0.00000000000E+00 0. -1.
         11    1    3    3    0    0 -0.24924794225E+02 -0.10548017105E+02 -0.22534767041E+01  0.27158501239E+02  0.51100000000E-03 0. -1.
        -11    1    3    3    0    0 -0.15226253838E+02  0.19490179250E+01 -0.95508853905E+01  0.18079183854E+02  0.51100000000E-03 0.  1.
         12    1    3    3    0    0  0.25432172638E+01  0.36679953112E+01 -0.28415369566E+01  0.52911696183E+01  0.00000000000E+00 0. -1.
</event>
<event>
 7    1  0.1381607E-011  0.5052886E+02  0.7816164E-02  0.1300439E+00
        -11   -1    0    0    0    0  0.00000000000E+00  0.00000000000E+00  0.45593999997E+02  0.45594000000E+02  0.51100000000E-03 0.  1.
         11   -1    0    0    0    0 -0.00000000000E+00 -0.00000000000E+00 -0.45593999997E+02  0.45594000000E+02  0.51100000000E-03 0. -1.
    9900012    2    1    2    0    0 -0.35946299895E+02 -0.16225487473E+02  0.98874856417E+01  0.50528864592E+02  0.30000014413E+02 0.  0.
         12    1    1    2    0    0  0.35946299895E+02  0.16225487473E+02 -0.98874856417E+01  0.40659135408E+02  0.00000000000E+00 0. -1.
         11    1    3    3    0    0  0.43407773933E+01 -0.11355425332E+01 -0.15109225917E+01  0.47344157572E+01  0.51100000000E-03 0. -1.
        -11    1    3    3    0    0 -0.18828737355E+02 -0.11563171631E+02  0.92095444062E+01  0.23938337390E+02  0.51100000000E-03 0.  1.
        -12    1    3    3    0    0 -0.21458339932E+02 -0.35267733088E+01  0.21888638272E+01  0.21856111445E+02  0.00000000000E+00 0.  1.
</event>
<event>
 7    1  0.1381607E-011  0.5052886E+02  0.7816164E-02  0.1300439E+00
        -11   -1    0    0    0    0  0.00000000000E+00  0.00000000000E+00  0.45593999997E+02  0.45594000000E+02  0.51100000000E-03 0.  1.
         11   -1    0    0    0    0 -0.00000000000E+00 -0.00000000000E+00 -0.45593999997E+02  0.45594000000E+02  0.51100000000E-03 0. -1.
    9900012    2    1    2    0    0  0.51941660852E+01 -0.23413498378E+01  0.40257972140E+02  0.50528860791E+02  0.30000002861E+02 0.  0.
         12    1    1    2    0    0 -0.51941660852E+01  0.23413498378E+01 -0.40257972140E+02  0.40659139209E+02  0.00000000000E+00 0. -1.
         11    1    3    3    0    0 -0.34466587618E+01 -0.35160140856E+01  0.18592698918E+02  0.19233571301E+02  0.51100000000E-03 0. -1.
        -11    1    3    3    0    0  0.89988097483E+01 -0.87415857338E+01  0.13651124840E+02  0.18540418218E+02  0.51100000000E-03 0.  1.
         12    1    3    3    0    0 -0.35798490132E+00  0.99162499816E+01  0.80141483815E+01  0.12754871272E+02  0.00000000000E+00 0. -1.
</event>
<event>
 7    1  0.1381607E-011  0.5052885E+02  0.7816164E-02  0.1300439E+00
        -11   -1    0    0    0    0  0.00000000000E+00  0.00000000000E+00  0.45593999997E+02  0.45594000000E+02  0.51100000000E-03 0.  1.
         11   -1    0    0    0    0 -0.00000000000E+00 -0.00000000000E+00 -0.45593999997E+02  0.45594000000E+02  0.51100000000E-03 0. -1.
    9900012    2    1    2    0    0 -0.33268963071E+02 -0.19228242870E+02  0.13289730251E+02  0.50528853946E+02  0.29999982055E+02 0.  0.
         12    1    1    2    0    0  0.33268963071E+02  0.19228242870E+02 -0.13289730251E+02  0.40659146054E+02  0.00000000000E+00 0. -1.
         11    1    3    3    0    0 -0.22761870093E+02 -0.57082049881E+01  0.68802723768E+01  0.24454539099E+02  0.51100000000E-03 0. -1.
        -11    1    3    3    0    0 -0.14126270733E+02 -0.15532189089E+02  0.43159246243E+01  0.21434262953E+02  0.51100000000E-03 0.  1.
        -12    1    3    3    0    0  0.36191777551E+01  0.20121512073E+01  0.20935332504E+01  0.46400518935E+01  0.00000000000E+00 0.  1.
</event>
<event>
 7    1  0.1381607E-011  0.5052890E+02  0.7816164E-02  0.1300439E+00
        -11   -1    0    0    0    0  0.00000000000E+00  0.00000000000E+00  0.45593999997E+02  0.45594000000E+02  0.51100000000E-03 0.  1.
         11   -1    0    0    0    0 -0.00000000000E+00 -0.00000000000E+00 -0.45593999997E+02  0.45594000000E+02  0.51100000000E-03 0. -1.
    9900012    2    1    2    0    0 -0.39337514824E+02 -0.61582460006E+01 -0.82339722704E+01  0.50528900579E+02  0.30000123801E+02 0.  0.
         12    1    1    2    0    0  0.39337514824E+02  0.61582460006E+01  0.82339722704E+01  0.40659099421E+02  0.00000000000E+00 0. -1.
         11    1    3    3    0    0 -0.64302039834E+01 -0.86654165595E+00 -0.83510174262E+01  0.10575344440E+02  0.51100000000E-03 0.  1.
        -11    1    3    3    0    0  0.19533391874E+01 -0.46803043824E+01 -0.35946032847E+00  0.50842890439E+01  0.51100000000E-03 0. -1.
        -12    1    3    3    0    0 -0.34860650028E+02 -0.61139996218E+00  0.47650548426E+00  0.34869267096E+02  0.00000000000E+00 0.  1.
</event>
<event>
 7    1  0.1381607E-011  0.5052886E+02  0.7816164E-02  0.1300439E+00
        -11   -1    0    0    0    0  0.00000000000E+00  0.00000000000E+00  0.45593999997E+02  0.45594000000E+02  0.51100000000E-03 0.  1.
         11   -1    0    0    0    0 -0.00000000000E+00 -0.00000000000E+00 -0.45593999997E+02  0.45594000000E+02  0.51100000000E-03 0. -1.
    9900012    2    1    2    0    0  0.23857146567E+02  0.31345283093E+02 -0.10073500383E+02  0.50528860505E+02  0.30000001990E+02 0.  0.
         12    1    1    2    0    0 -0.23857146567E+02 -0.31345283093E+02  0.10073500383E+02  0.40659139495E+02  0.00000000000E+00 0. -1.
         11    1    3    3    0    0  0.22807778017E+01  0.75261936634E+00  0.56435876092E+01  0.61333893286E+01  0.51100000000E-03 0. -1.
        -11    1    3    3    0    0  0.74121187951E+01  0.70657839089E+00 -0.69385603099E+01  0.10177542802E+02  0.51100000000E-03 0.  1.
         12    1    3    3    0    0  0.14164249970E+02  0.29886085336E+02 -0.87785276829E+01  0.34217928374E+02  0.00000000000E+00 0. -1.
</event>
<event>
 7    1  0.1381607E-011  0.5052888E+02  0.7816164E-02  0.1300439E+00
        -11   -1    0    0    0    0  0.00000000000E+00  0.00000000000E+00  0.45593999997E+02  0.45594000000E+02  0.51100000000E-03 0. -1.
         11   -1    0    0    0    0 -0.00000000000E+00 -0.00000000000E+00 -0.45593999997E+02  0.45594000000E+02  0.51100000000E-03 0.  1.
    9900012    2    1    2    0    0 -0.37505662977E+02 -0.15163504670E+02 -0.40690930037E+01  0.50528878673E+02  0.30000057215E+02 0.  0.
         12    1    1    2    0    0  0.37505662977E+02  0.15163504670E+02  0.40690930037E+01  0.40659121327E+02  0.00000000000E+00 0. -1.
         11    1    3    3    0    0 -0.20220014416E+02 -0.30355151845E+01  0.11794370438E+02  0.23604459530E+02  0.51100000000E-03 0. -1.
        -11    1    3    3    0    0 -0.42510651275E+01 -0.33186171496E+01 -0.14423289779E+01  0.55825699857E+01  0.51100000000E-03 0.  1.
         12    1    3    3    0    0 -0.13034583433E+02 -0.88093723362E+01 -0.14421134464E+02  0.21341849157E+02  0.00000000000E+00 0. -1.
</event>
<event>
 7    1  0.1381607E-011  0.5052886E+02  0.7816164E-02  0.1300439E+00
        -11   -1    0    0    0    0  0.00000000000E+00  0.00000000000E+00  0.45593999997E+02  0.45594000000E+02  0.51100000000E-03 0.  1.
         11   -1    0    0    0    0 -0.00000000000E+00 -0.00000000000E+00 -0.45593999997E+02  0.45594000000E+02  0.51100000000E-03 0. -1.
    9900012    2    1    2    0    0  0.21185179791E+02  0.20019587610E+02  0.28347310612E+02  0.50528858964E+02  0.29999997307E+02 0.  0.
         12    1    1    2    0    0 -0.21185179791E+02 -0.20019587610E+02 -0.28347310612E+02  0.40659141036E+02  0.00000000000E+00 0. -1.
         11    1    3    3    0    0  0.41350827880E+01 -0.58644766057E-01 -0.16101982140E+01  0.44379147605E+01  0.51100000000E-03 0. -1.
        -11    1    3    3    0    0  0.27592887615E+01  0.19377616604E+02  0.11375368329E+02  0.22638566752E+02  0.51100000000E-03 0.  1.
         12    1    3    3    0    0  0.14290808242E+02  0.70061577174E+00  0.18582140497E+02  0.23452377451E+02  0.00000000000E+00 0. -1.
</event>
<event>
 7    1  0.1381607E-011  0.5052889E+02  0.7816164E-02  0.1300439E+00
        -11   -1    0    0    0    0  0.00000000000E+00  0.00000000000E+00  0.45593999997E+02  0.45594000000E+02  0.51100000000E-03 0. -1.
         11   -1    0    0    0    0 -0.00000000000E+00 -0.00000000000E+00 -0.45593999997E+02  0.45594000000E+02  0.51100000000E-03 0.  1.
    9900012    2    1    2    0    0  0.20934724586E+02  0.10037637750E+00 -0.34855280612E+02  0.50528888408E+02  0.30000086805E+02 0.  0.
         12    1    1    2    0    0 -0.20934724586E+02 -0.10037637750E+00  0.34855280612E+02  0.40659111592E+02  0.00000000000E+00 0. -1.
         11    1    3    3    0    0  0.26577483642E+01  0.98306850737E+01 -0.78714476465E+01  0.12871118199E+02  0.51100000000E-03 0. -1.
        -11    1    3    3    0    0  0.14796790356E+02  0.80109417362E+00 -0.18444648196E+02  0.23659919782E+02  0.51100000000E-03 0.  1.
        -12    1    3    3    0    0  0.34801858658E+01 -0.10531402870E+02 -0.85391847691E+01  0.13997850427E+02  0.00000000000E+00 0.  1.
</event>
<event>
 7    1  0.1381607E-011  0.5052885E+02  0.7816164E-02  0.1300439E+00
        -11   -1    0    0    0    0  0.00000000000E+00  0.00000000000E+00  0.45593999997E+02  0.45594000000E+02  0.51100000000E-03 0. -1.
         11   -1    0    0    0    0 -0.00000000000E+00 -0.00000000000E+00 -0.45593999997E+02  0.45594000000E+02  0.51100000000E-03 0.  1.
    9900012    2    1    2    0    0 -0.23811777682E+01 -0.37462420132E+02 -0.15622529588E+02  0.50528851455E+02  0.29999974483E+02 0.  0.
         12    1    1    2    0    0  0.23811777682E+01  0.37462420132E+02  0.15622529588E+02  0.40659148545E+02  0.00000000000E+00 0. -1.
         11    1    3    3    0    0  0.24126363075E+01 -0.18267410431E+00  0.48493871585E+01  0.54194778212E+01  0.51100000000E-03 0. -1.
        -11    1    3    3    0    0  0.11566662445E+01 -0.18006502046E+02 -0.27358490010E+01  0.18249845555E+02  0.51100000000E-03 0.  1.
         12    1    3    3    0    0 -0.59504803201E+01 -0.19273243981E+02 -0.17736067745E+02  0.26859528079E+02  0.00000000000E+00 0. -1.
</event>
<event>
 7    1  0.1381607E-011  0.5052884E+02  0.7816164E-02  0.1300439E+00
        -11   -1    0    0    0    0  0.00000000000E+00  0.00000000000E+00  0.45593999997E+02  0.45594000000E+02  0.51100000000E-03 0.  1.
         11   -1    0    0    0    0 -0.00000000000E+00 -0.00000000000E+00 -0.45593999997E+02  0.45594000000E+02  0.51100000000E-03 0. -1.
    9900012    2    1    2    0    0  0.41555579382E+00 -0.21076783071E+02  0.34767283171E+02  0.50528838052E+02  0.29999933743E+02 0.  0.
         12    1    1    2    0    0 -0.41555579382E+00  0.21076783071E+02 -0.34767283171E+02  0.40659161948E+02  0.00000000000E+00 0. -1.
         11    1    3    3    0    0  0.72661324282E+01 -0.21681149033E+01  0.88684155588E+01  0.11668170271E+02  0.51100000000E-03 0.  1.
        -11    1    3    3    0    0 -0.10686440016E+02 -0.13718524683E+01  0.73167549049E+01  0.13023704619E+02  0.51100000000E-03 0. -1.
         12    1    3    3    0    0  0.38358633816E+01 -0.17536815699E+02  0.18582112707E+02  0.25836963161E+02  0.00000000000E+00 0. -1.
</event>
<event>
 7    1  0.1381607E-011  0.5052885E+02  0.7816164E-02  0.1300439E+00
        -11   -1    0    0    0    0  0.00000000000E+00  0.00000000000E+00  0.45593999997E+02  0.45594000000E+02  0.51100000000E-03 0.  1.
         11   -1    0    0    0    0 -0.00000000000E+00 -0.00000000000E+00 -0.45593999997E+02  0.45594000000E+02  0.51100000000E-03 0. -1.
    9900012    2    1    2    0    0  0.24735165870E+02 -0.26829551441E+02  0.17930797311E+02  0.50528846623E+02  0.29999959794E+02 0.  0.
         12    1    1    2    0    0 -0.24735165870E+02  0.26829551441E+02 -0.17930797311E+02  0.40659153377E+02  0.00000000000E+00 0. -1.
         11    1    3    3    0    0  0.14466069781E+02 -0.84831269221E+01 -0.24873347163E+01  0.16953390561E+02  0.51100000000E-03 0. -1.
        -11    1    3    3    0    0  0.86695901862E+01 -0.16859790397E+02  0.73612288991E+01  0.20337207709E+02  0.51100000000E-03 0.  1.
         12    1    3    3    0    0  0.15995059034E+01 -0.14866341218E+01  0.13056903128E+02  0.13238248352E+02  0.00000000000E+00 0. -1.
</event>
<event>
 7    1  0.1381607E-011  0.5052889E+02  0.7816164E-02  0.1300439E+00
        -11   -1    0    0    0    0  0.00000000000E+00  0.00000000000E+00  0.45593999997E+02  0.45594000000E+02  0.51100000000E-03 0. -1.
         11   -1    0    0    0    0 -0.00000000000E+00 -0.00000000000E+00 -0.45593999997E+02  0.45594000000E+02  0.51100000000E-03 0.  1.
    9900012    2    1    2    0    0  0.26910053018E+02  0.24533999664E+02 -0.18085773790E+02  0.50528889010E+02  0.30000088635E+02 0.  0.
         12    1    1    2    0    0 -0.26910053018E+02 -0.24533999664E+02  0.18085773790E+02  0.40659110990E+02  0.00000000000E+00 0. -1.
         11    1    3    3    0    0  0.81309224936E+01  0.29816624977E+01  0.10178274793E+00  0.86609798427E+01  0.51100000000E-03 0. -1.
        -11    1    3    3    0    0 -0.11205339227E+01  0.98613106644E+01  0.31736995077E+01  0.10419856675E+02  0.51100000000E-03 0.  1.
        -12    1    3    3    0    0  0.19899664447E+02  0.11691026502E+02 -0.21361256046E+02  0.31448052493E+02  0.00000000000E+00 0.  1.
</event>
<event>
 7    1  0.1381607E-011  0.5052886E+02  0.7816164E-02  0.1300439E+00
        -11   -1    0    0    0    0  0.00000000000E+00  0.00000000000E+00  0.45593999997E+02  0.45594000000E+02  0.51100000000E-03 0.  1.
         11   -1    0    0    0    0 -0.00000000000E+00 -0.00000000000E+00 -0.45593999997E+02  0.45594000000E+02  0.51100000000E-03 0. -1.
    9900012    2    1    2    0    0 -0.78327885044E+01  0.77337821767E+01  0.39140789199E+02  0.50528863983E+02  0.30000012562E+02 0.  0.
         12    1    1    2    0    0  0.78327885044E+01 -0.77337821767E+01 -0.39140789199E+02  0.40659136017E+02  0.00000000000E+00 0. -1.
         11    1    3    3    0    0 -0.12068550844E+01 -0.64637542250E+01  0.18492100885E+02  0.19626370354E+02  0.51100000000E-03 0. -1.
        -11    1    3    3    0    0 -0.34522114722E+01  0.12606243048E+02  0.23132441043E+02  0.26569624700E+02  0.51100000000E-03 0.  1.
        -12    1    3    3    0    0 -0.31737219478E+01  0.15912933542E+01 -0.24837527284E+01  0.43328689292E+01  0.00000000000E+00 0.  1.
</event>
<event>
 7    1  0.1381607E-011  0.5052887E+02  0.7816164E-02  0.1300439E+00
        -11   -1    0    0    0    0  0.00000000000E+00  0.00000000000E+00  0.45593999997E+02  0.45594000000E+02  0.51100000000E-03 0. -1.
         11   -1    0    0    0    0 -0.00000000000E+00 -0.00000000000E+00 -0.45593999997E+02  0.45594000000E+02  0.51100000000E-03 0.  1.
    9900012    2    1    2    0    0  0.24789511456E+02 -0.30305481240E+02  0.10964631558E+02  0.50528865521E+02  0.30000017238E+02 0.  0.
         12    1    1    2    0    0 -0.24789511456E+02  0.30305481240E+02 -0.10964631558E+02  0.40659134479E+02  0.00000000000E+00 0. -1.
         11    1    3    3    0    0  0.25702606528E+02 -0.16034051945E+02  0.54897987652E+01  0.30787216420E+02  0.51100000000E-03 0. -1.
        -11    1    3    3    0    0  0.34778419013E+01 -0.11370844428E+02 -0.34441079396E+00  0.11895802047E+02  0.51100000000E-03 0.  1.
        -12    1    3    3    0    0 -0.43909369740E+01 -0.29005848675E+01  0.58192435864E+01  0.78458470544E+01  0.00000000000E+00 0.  1.
</event>
<event>
 7    1  0.1381607E-011  0.5052886E+02  0.7816164E-02  0.1300439E+00
        -11   -1    0    0    0    0  0.00000000000E+00  0.00000000000E+00  0.45593999997E+02  0.45594000000E+02  0.51100000000E-03 0.  1.
         11   -1    0    0    0    0 -0.00000000000E+00 -0.00000000000E+00 -0.45593999997E+02  0.45594000000E+02  0.51100000000E-03 0. -1.
    9900012    2    1    2    0    0 -0.24620123497E+02  0.91169106541E+01  0.31046690799E+02  0.50528861416E+02  0.30000004759E+02 0.  0.
         12    1    1    2    0    0  0.24620123497E+02 -0.91169106541E+01 -0.31046690799E+02  0.40659138584E+02  0.00000000000E+00 0. -1.
         11    1    3    3    0    0 -0.21641834901E+01  0.11423020386E+02  0.57447598263E+01  0.12968089707E+02  0.51100000000E-03 0. -1.
        -11    1    3    3    0    0 -0.40273141523E+01  0.60725044987E+01  0.89266534808E+01  0.11523007975E+02  0.51100000000E-03 0.  1.
         12    1    3    3    0    0 -0.18428625854E+02 -0.83786142310E+01  0.16375277492E+02  0.26037763733E+02  0.00000000000E+00 0. -1.
</event>
<event>
 7    1  0.1381607E-011  0.5052884E+02  0.7816164E-02  0.1300439E+00
        -11   -1    0    0    0    0  0.00000000000E+00  0.00000000000E+00  0.45593999997E+02  0.45594000000E+02  0.51100000000E-03 0. -1.
         11   -1    0    0    0    0 -0.00000000000E+00 -0.00000000000E+00 -0.45593999997E+02  0.45594000000E+02  0.51100000000E-03 0.  1.
    9900012    2    1    2    0    0 -0.26618743123E+02 -0.80840245897E+01 -0.29652292355E+02  0.50528838905E+02  0.29999936337E+02 0.  0.
         12    1    1    2    0    0  0.26618743123E+02  0.80840245897E+01  0.29652292355E+02  0.40659161095E+02  0.00000000000E+00 0. -1.
         11    1    3    3    0    0 -0.16036169621E+02 -0.11581493808E+02 -0.15909512567E+02  0.25385080763E+02  0.51100000000E-03 0. -1.
        -11    1    3    3    0    0 -0.13287370082E+02 -0.22178238311E+01 -0.13096064176E+02  0.18787757807E+02  0.51100000000E-03 0.  1.
         12    1    3    3    0    0  0.27047965804E+01  0.57152930491E+01 -0.64671561076E+00  0.63560003351E+01  0.00000000000E+00 0. -1.
</event>
<event>
 7    1  0.1381607E-011  0.5052886E+02  0.7816164E-02  0.1300439E+00
        -11   -1    0    0    0    0  0.00000000000E+00  0.00000000000E+00  0.45593999997E+02  0.45594000000E+02  0.51100000000E-03 0.  1.
         11   -1    0    0    0    0 -0.00000000000E+00 -0.00000000000E+00 -0.45593999997E+02  0.45594000000E+02  0.51100000000E-03 0. -1.
    9900012    2    1    2    0    0  0.22606265918E+02 -0.19090446345E+02  0.27886871911E+02  0.50528855575E+02  0.29999987006E+02 0.  0.
         12    1    1    2    0    0 -0.22606265918E+02  0.19090446345E+02 -0.27886871911E+02  0.40659144425E+02  0.00000000000E+00 0. -1.
         11    1    3    3    0    0  0.84882153050E+01  0.29084004631E+01  0.53690216555E+01  0.10456337127E+02  0.51100000000E-03 0. -1.
        -11    1    3    3    0    0  0.75955673996E+01 -0.56376991444E+00  0.14310489236E+02  0.16211125287E+02  0.51100000000E-03 0.  1.
        -12    1    3    3    0    0  0.65224832134E+01 -0.21435076893E+02  0.82073610194E+01  0.23861393161E+02  0.00000000000E+00 0.  1.
</event>
<event>
 7    1  0.1381607E-011  0.5052887E+02  0.7816164E-02  0.1300439E+00
        -11   -1    0    0    0    0  0.00000000000E+00  0.00000000000E+00  0.45593999997E+02  0.45594000000E+02  0.51100000000E-03 0.  1.
         11   -1    0    0    0    0 -0.00000000000E+00 -0.00000000000E+00 -0.45593999997E+02  0.45594000000E+02  0.51100000000E-03 0. -1.
    9900012    2    1    2    0    0  0.56139916704E+01 -0.40199541149E+02  0.23758873217E+01  0.50528870009E+02  0.30000030878E+02 0.  0.
         12    1    1    2    0    0 -0.56139916704E+01  0.40199541149E+02 -0.23758873217E+01  0.40659129991E+02  0.00000000000E+00 0. -1.
         11    1    3    3    0    0  0.64000428032E+01 -0.66969120046E+01 -0.13226414731E+00  0.92642685813E+01  0.51100000000E-03 0. -1.
        -11    1    3    3    0    0 -0.12272150888E+00 -0.24344462795E+02  0.12773051405E+02  0.27492158369E+02  0.51100000000E-03 0.  1.
         12    1    3    3    0    0 -0.66332962386E+00 -0.91581663501E+01 -0.10264899936E+02  0.13772443058E+02  0.00000000000E+00 0. -1.
</event>
<event>
 7    1  0.1381607E-011  0.5052884E+02  0.7816164E-02  0.1300439E+00
        -11   -1    0    0    0    0  0.00000000000E+00  0.00000000000E+00  0.45593999997E+02  0.45594000000E+02  0.51100000000E-03 0.  1.
         11   -1    0    0    0    0 -0.00000000000E+00 -0.00000000000E+00 -0.45593999997E+02  0.45594000000E+02  0.51100000000E-03 0. -1.
    9900012    2    1    2    0    0 -0.38636121402E+02  0.97572268587E+01 -0.80755065836E+01  0.50528841627E+02  0.29999944611E+02 0.  0.
         12    1    1    2    0    0  0.38636121402E+02 -0.97572268587E+01  0.80755065836E+01  0.40659158373E+02  0.00000000000E+00 0. -1.
         11    1    3    3    0    0 -0.84066883085E+01  0.33018274054E+01 -0.10590103485E+02  0.13918504395E+02  0.51100000000E-03 0. -1.
        -11    1    3    3    0    0 -0.27122060047E+02  0.86842492392E+01 -0.42949535747E+01  0.28800502643E+02  0.51100000000E-03 0.  1.
        -12    1    3    3    0    0 -0.31073730470E+01 -0.22288497860E+01  0.68095504757E+01  0.78098345887E+01  0.00000000000E+00 0.  1.
</event>
<event>
 7    1  0.1381607E-011  0.5052886E+02  0.7816164E-02  0.1300439E+00
        -11   -1    0    0    0    0  0.00000000000E+00  0.00000000000E+00  0.45593999997E+02  0.45594000000E+02  0.51100000000E-03 0. -1.
         11   -1    0    0    0    0 -0.00000000000E+00 -0.00000000000E+00 -0.45593999997E+02  0.45594000000E+02  0.51100000000E-03 0.  1.
    9900012    2    1    2    0    0 -0.83920482568E+01 -0.38158278557E+02  0.11255433459E+02  0.50528862297E+02  0.30000007438E+02 0.  0.
         12    1    1    2    0    0  0.83920482568E+01  0.38158278557E+02 -0.11255433459E+02  0.40659137703E+02  0.00000000000E+00 0. -1.
         11    1    3    3    0    0  0.33146949970E+01 -0.39187585899E+00 -0.47279732405E+00  0.33710988094E+01  0.51100000000E-03 0. -1.
        -11    1    3    3    0    0  0.18654882669E+01 -0.24724830225E+02  0.13534871508E+02  0.28248717194E+02  0.51100000000E-03 0.  1.
        -12    1    3    3    0    0 -0.13572231521E+02 -0.13041572473E+02 -0.18066407249E+01  0.18909046294E+02  0.00000000000E+00 0.  1.
</event>
<event>
 7    1  0.1381607E-011  0.5052886E+02  0.7816164E-02  0.1300439E+00
        -11   -1    0    0    0    0  0.00000000000E+00  0.00000000000E+00  0.45593999997E+02  0.45594000000E+02  0.51100000000E-03 0.  1.
         11   -1    0    0    0    0 -0.00000000000E+00 -0.00000000000E+00 -0.45593999997E+02  0.45594000000E+02  0.51100000000E-03 0. -1.
    9900012    2    1    2    0    0 -0.70255226560E+01  0.26382418113E+02  0.30129319348E+02  0.50528857874E+02  0.29999993993E+02 0.  0.
         12    1    1    2    0    0  0.70255226560E+01 -0.26382418113E+02 -0.30129319348E+02  0.40659142126E+02  0.00000000000E+00 0. -1.
         11    1    3    3    0    0  0.43541469355E+01  0.78157365873E+01  0.85459584131E+01  0.12372458907E+02  0.51100000000E-03 0. -1.
        -11    1    3    3    0    0  0.15650543963E+01  0.68343065149E+01 -0.33028173578E+01  0.77502092593E+01  0.51100000000E-03 0.  1.
        -12    1    3    3    0    0 -0.12944723988E+02  0.11732375011E+02  0.24886178293E+02  0.30406189708E+02  0.00000000000E+00 0.  1.
</event>
<event>
 7    1  0.1381607E-011  0.5052886E+02  0.7816164E-02  0.1300439E+00
        -11   -1    0    0    0    0  0.00000000000E+00  0.00000000000E+00  0.45593999997E+02  0.45594000000E+02  0.51100000000E-03 0. -1.
         11   -1    0    0    0    0 -0.00000000000E+00 -0.00000000000E+00 -0.45593999997E+02  0.45594000000E+02  0.51100000000E-03 0.  1.
    9900012    2    1    2    0    0 -0.28909571004E+02 -0.17051058656E+02 -0.22949152687E+02  0.50528861962E+02  0.30000006420E+02 0.  0.
         12    1    1    2    0    0  0.28909571004E+02  0.17051058656E+02  0.22949152687E+02  0.40659138038E+02  0.00000000000E+00 0. -1.
         11    1    3    3    0    0  0.32744948210E+01 -0.22719952640E+01 -0.60830736011E+01  0.72724179961E+01  0.51100000000E-03 0. -1.
        -11    1    3    3    0    0 -0.11318729974E+02 -0.56192224303E+01 -0.16085590004E+02  0.20455696394E+02  0.51100000000E-03 0.  1.
         12    1    3    3    0    0 -0.20865335851E+02 -0.91598409616E+01 -0.78048908216E+00  0.22800747572E+02  0.00000000000E+00 0. -1.
</event>
<event>
 7    1  0.1381607E-011  0.5052887E+02  0.7816164E-02  0.1300439E+00
        -11   -1    0    0    0    0  0.00000000000E+00  0.00000000000E+00  0.45593999997E+02  0.45594000000E+02  0.51100000000E-03 0.  1.
         11   -1    0    0    0    0 -0.00000000000E+00 -0.00000000000E+00 -0.45593999997E+02  0.45594000000E+02  0.51100000000E-03 0. -1.
    9900012    2    1    2    0    0 -0.24831672328E+02 -0.31929538620E+02  0.41301036450E+01  0.50528866423E+02  0.30000019981E+02 0.  0.
         12    1    1    2    0    0  0.24831672328E+02  0.31929538620E+02 -0.41301036450E+01  0.40659133577E+02  0.00000000000E+00 0. -1.
         11    1    3    3    0    0 -0.16240406201E+02 -0.27811835073E+02  0.18135035972E+01  0.32257367520E+02  0.51100000000E-03 0. -1.
        -11    1    3    3    0    0 -0.95104716704E+01 -0.32691135378E+01  0.77497059940E+01  0.12696224556E+02  0.51100000000E-03 0.  1.
        -12    1    3    3    0    0  0.91920554361E+00 -0.84859000851E+00 -0.54331059461E+01  0.55752743480E+01  0.00000000000E+00 0.  1.
</event>
<event>
 7    1  0.1381607E-011  0.5052891E+02  0.7816164E-02  0.1300439E+00
        -11   -1    0    0    0    0  0.00000000000E+00  0.00000000000E+00  0.45593999997E+02  0.45594000000E+02  0.51100000000E-03 0.  1.
         11   -1    0    0    0    0 -0.00000000000E+00 -0.00000000000E+00 -0.45593999997E+02  0.45594000000E+02  0.51100000000E-03 0. -1.
    9900012    2    1    2    0    0 -0.72603702029E+01 -0.46751165809E+01  0.39731493392E+02  0.50528914205E+02  0.30000165217E+02 0.  0.
         12    1    1    2    0    0  0.72603702029E+01  0.46751165809E+01 -0.39731493392E+02  0.40659085795E+02  0.00000000000E+00 0. -1.
         11    1    3    3    0    0 -0.76724433994E+01 -0.44706485584E+01  0.13346777067E+02  0.16030893443E+02  0.51100000000E-03 0.  1.
        -11    1    3    3    0    0  0.43488641771E+01 -0.10306763353E+02  0.15681972379E+02  0.19263079931E+02  0.51100000000E-03 0. -1.
        -12    1    3    3    0    0 -0.39367909805E+01  0.10102295330E+02  0.10702743946E+02  0.15234940831E+02  0.00000000000E+00 0.  1.
</event>
<event>
 7    1  0.1381607E-011  0.5052887E+02  0.7816164E-02  0.1300439E+00
        -11   -1    0    0    0    0  0.00000000000E+00  0.00000000000E+00  0.45593999997E+02  0.45594000000E+02  0.51100000000E-03 0.  1.
         11   -1    0    0    0    0 -0.00000000000E+00 -0.00000000000E+00 -0.45593999997E+02  0.45594000000E+02  0.51100000000E-03 0. -1.
    9900012    2    1    2    0    0 -0.13491915436E+02 -0.33045220930E+01  0.38212740605E+02  0.50528865811E+02  0.30000018121E+02 0.  0.
         12    1    1    2    0    0  0.13491915436E+02  0.33045220930E+01 -0.38212740605E+02  0.40659134189E+02  0.00000000000E+00 0. -1.
         11    1    3    3    0    0 -0.57892030108E+01  0.16869791576E+01 -0.14783507913E+01  0.62085659779E+01  0.51100000000E-03 0. -1.
        -11    1    3    3    0    0 -0.64335770120E+01  0.56016058891E+01  0.12718475592E+02  0.15314324123E+02  0.51100000000E-03 0.  1.
         12    1    3    3    0    0 -0.12691354129E+01 -0.10593107140E+02  0.26972615805E+02  0.29005975710E+02  0.00000000000E+00 0. -1.
</event>
<event>
 7    1  0.1381607E-011  0.5052885E+02  0.7816164E-02  0.1300439E+00
        -11   -1    0    0    0    0  0.00000000000E+00  0.00000000000E+00  0.45593999997E+02  0.45594000000E+02  0.51100000000E-03 0.  1.
         11   -1    0    0    0    0 -0.00000000000E+00 -0.00000000000E+00 -0.45593999997E+02  0.45594000000E+02  0.51100000000E-03 0. -1.
    9900012    2    1    2    0    0 -0.19327821514E+02 -0.24036192493E+02  0.26492698358E+02  0.50528852194E+02  0.29999976729E+02 0.  0.
         12    1    1    2    0    0  0.19327821514E+02  0.24036192493E+02 -0.26492698358E+02  0.40659147806E+02  0.00000000000E+00 0. -1.
         11    1    3    3    0    0  0.24517604068E+01 -0.30531689181E+01 -0.36291363403E+01  0.53388763212E+01  0.51100000000E-03 0. -1.
        -11    1    3    3    0    0 -0.39837611351E+01 -0.89059736919E+01  0.18072294662E+02  0.20537637517E+02  0.51100000000E-03 0.  1.
         12    1    3    3    0    0 -0.17795820786E+02 -0.12077049883E+02  0.12049540036E+02  0.24652338356E+02  0.00000000000E+00 0. -1.
</event>
<event>
 7    1  0.1381607E-011  0.5052886E+02  0.7816164E-02  0.1300439E+00
        -11   -1    0    0    0    0  0.00000000000E+00  0.00000000000E+00  0.45593999997E+02  0.45594000000E+02  0.51100000000E-03 0. -1.
         11   -1    0    0    0    0 -0.00000000000E+00 -0.00000000000E+00 -0.45593999997E+02  0.45594000000E+02  0.51100000000E-03 0.  1.
    9900012    2    1    2    0    0  0.18197430281E+02  0.10153054687E+02 -0.34913246468E+02  0.50528858750E+02  0.29999996656E+02 0.  0.
         12    1    1    2    0    0 -0.18197430281E+02 -0.10153054687E+02  0.34913246468E+02  0.40659141250E+02  0.00000000000E+00 0. -1.
         11    1    3    3    0    0  0.59528020118E+01 -0.23746343206E+01  0.14217933329E+01  0.65647723869E+01  0.51100000000E-03 0. -1.
        -11    1    3    3    0    0 -0.42162458784E+01  0.45732019774E+01 -0.66891206797E+01  0.91342893189E+01  0.51100000000E-03 0.  1.
        -12    1    3    3    0    0  0.16460874147E+02  0.79544870298E+01 -0.29645919121E+02  0.34829797044E+02  0.00000000000E+00 0.  1.
</event>
<event>
 7    1  0.1381607E-011  0.5052887E+02  0.7816164E-02  0.1300439E+00
        -11   -1    0    0    0    0  0.00000000000E+00  0.00000000000E+00  0.45593999997E+02  0.45594000000E+02  0.51100000000E-03 0.  1.
         11   -1    0    0    0    0 -0.00000000000E+00 -0.00000000000E+00 -0.45593999997E+02  0.45594000000E+02  0.51100000000E-03 0. -1.
    9900012    2    1    2    0    0 -0.15723777720E+02 -0.33282957691E+02  0.17267670434E+02  0.50528869406E+02  0.30000029046E+02 0.  0.
         12    1    1    2    0    0  0.15723777720E+02  0.33282957691E+02 -0.17267670434E+02  0.40659130594E+02  0.00000000000E+00 0. -1.
         11    1    3    3    0    0 -0.75353712104E+01 -0.40168565789E+01  0.10487716795E+02  0.13524391294E+02  0.51100000000E-03 0. -1.
        -11    1    3    3    0    0 -0.66065208655E+01 -0.28557715680E+02  0.11872482781E+02  0.31625070600E+02  0.51100000000E-03 0.  1.
         12    1    3    3    0    0 -0.15818856444E+01 -0.70838543198E+00 -0.50925291419E+01  0.53794075113E+01  0.00000000000E+00 0. -1.
</event>
<event>
 7    1  0.1381607E-011  0.5052886E+02  0.7816164E-02  0.1300439E+00
        -11   -1    0    0    0    0  0.00000000000E+00  0.00000000000E+00  0.45593999997E+02  0.45594000000E+02  0.51100000000E-03 0.  1.
         11   -1    0    0    0    0 -0.00000000000E+00 -0.00000000000E+00 -0.45593999997E+02  0.45594000000E+02  0.51100000000E-03 0. -1.
    9900012    2    1    2    0    0 -0.30445675677E+02 -0.16364696751E+02  0.21410810478E+02  0.50528864834E+02  0.30000015148E+02 0.  0.
         12    1    1    2    0    0  0.30445675677E+02  0.16364696751E+02 -0.21410810478E+02  0.40659135166E+02  0.00000000000E+00 0. -1.
         11    1    3    3    0    0  0.11376769259E+01 -0.11668138816E+01  0.25777844990E+00  0.16499131530E+01  0.51100000000E-03 0.  1.
        -11    1    3    3    0    0 -0.28380074260E+02 -0.38499274728E+01  0.53076686774E+01  0.29127682771E+02  0.51100000000E-03 0. -1.
         12    1    3    3    0    0 -0.32032783422E+01 -0.11347955396E+02  0.15845363351E+02  0.19751268909E+02  0.00000000000E+00 0. -1.
</event>
<event>
 7    1  0.1381607E-011  0.5052886E+02  0.7816164E-02  0.1300439E+00
        -11   -1    0    0    0    0  0.00000000000E+00  0.00000000000E+00  0.45593999997E+02  0.45594000000E+02  0.51100000000E-03 0.  1.
         11   -1    0    0    0    0 -0.00000000000E+00 -0.00000000000E+00 -0.45593999997E+02  0.45594000000E+02  0.51100000000E-03 0. -1.
    9900012    2    1    2    0    0 -0.20162339630E+02 -0.29959559952E+02  0.18683431900E+02  0.50528858354E+02  0.29999995453E+02 0.  0.
         12    1    1    2    0    0  0.20162339630E+02  0.29959559952E+02 -0.18683431900E+02  0.40659141646E+02  0.00000000000E+00 0. -1.
         11    1    3    3    0    0 -0.11650678172E+02 -0.13231893449E+02 -0.37191827458E+01  0.18018147149E+02  0.51100000000E-03 0. -1.
        -11    1    3    3    0    0 -0.11226786077E+02 -0.15451104649E+02  0.22494591681E+02  0.29509049724E+02  0.51100000000E-03 0.  1.
         12    1    3    3    0    0  0.27151246201E+01 -0.12765618543E+01 -0.91977035275E-01  0.30016614808E+01  0.00000000000E+00 0. -1.
</event>
<event>
 7    1  0.1381607E-011  0.5052886E+02  0.7816164E-02  0.1300439E+00
        -11   -1    0    0    0    0  0.00000000000E+00  0.00000000000E+00  0.45593999997E+02  0.45594000000E+02  0.51100000000E-03 0. -1.
         11   -1    0    0    0    0 -0.00000000000E+00 -0.00000000000E+00 -0.45593999997E+02  0.45594000000E+02  0.51100000000E-03 0.  1.
    9900012    2    1    2    0    0 -0.71536104983E+01  0.11278107109E+02 -0.38403065452E+02  0.50528864751E+02  0.30000014897E+02 0.  0.
         12    1    1    2    0    0  0.71536104983E+01 -0.11278107109E+02  0.38403065452E+02  0.40659135249E+02  0.00000000000E+00 0. -1.
         11    1    3    3    0    0  0.65294126890E+01  0.10356910893E+02 -0.71289332268E+01  0.14167587039E+02  0.51100000000E-03 0. -1.
        -11    1    3    3    0    0 -0.94532896267E+00  0.44215422704E+01 -0.13352498530E+02  0.14097265698E+02  0.51100000000E-03 0.  1.
         12    1    3    3    0    0 -0.12737694225E+02 -0.35003460542E+01 -0.17921633695E+02  0.22264012014E+02  0.00000000000E+00 0. -1.
</event>
<event>
 7    1  0.1381607E-011  0.5052886E+02  0.7816164E-02  0.1300439E+00
        -11   -1    0    0    0    0  0.00000000000E+00  0.00000000000E+00  0.45593999997E+02  0.45594000000E+02  0.51100000000E-03 0. -1.
         11   -1    0    0    0    0 -0.00000000000E+00 -0.00000000000E+00 -0.45593999997E+02  0.45594000000E+02  0.51100000000E-03 0.  1.
    9900012    2    1    2    0    0  0.30547491100E+02 -0.18156059808E+02 -0.19757886260E+02  0.50528858473E+02  0.29999995814E+02 0.  0.
         12    1    1    2    0    0 -0.30547491100E+02  0.18156059808E+02  0.19757886260E+02  0.40659141527E+02  0.00000000000E+00 0. -1.
         11    1    3    3    0    0  0.22069068542E+01 -0.18701201227E+01 -0.17329592362E+02  0.17569364213E+02  0.51100000000E-03 0. -1.
        -11    1    3    3    0    0  0.14102389680E+01 -0.15202903169E+00 -0.51076729035E+00  0.15075709799E+01  0.51100000000E-03 0.  1.
         12    1    3    3    0    0  0.26930345277E+02 -0.16133910654E+02 -0.19175266079E+01  0.31451923280E+02  0.00000000000E+00 0. -1.
</event>
<event>
 7    1  0.1381607E-011  0.5052886E+02  0.7816164E-02  0.1300439E+00
        -11   -1    0    0    0    0  0.00000000000E+00  0.00000000000E+00  0.45593999997E+02  0.45594000000E+02  0.51100000000E-03 0.  1.
         11   -1    0    0    0    0 -0.00000000000E+00 -0.00000000000E+00 -0.45593999997E+02  0.45594000000E+02  0.51100000000E-03 0. -1.
    9900012    2    1    2    0    0  0.23377791518E+02 -0.18385876267E+02  0.27723711669E+02  0.50528858702E+02  0.29999996511E+02 0.  0.
         12    1    1    2    0    0 -0.23377791518E+02  0.18385876267E+02 -0.27723711669E+02  0.40659141298E+02  0.00000000000E+00 0. -1.
         11    1    3    3    0    0 -0.19060695792E+01  0.21028206262E+01  0.67812029326E+00  0.29180135743E+01  0.51100000000E-03 0. -1.
        -11    1    3    3    0    0  0.19707578979E+02 -0.10105579356E+02  0.51402110410E+01  0.22736164433E+02  0.51100000000E-03 0.  1.
         12    1    3    3    0    0  0.55762821183E+01 -0.10383117537E+02  0.21905380335E+02  0.24874680695E+02  0.00000000000E+00 0. -1.
</event>
<event>
 7    1  0.1381607E-011  0.5052885E+02  0.7816164E-02  0.1300439E+00
        -11   -1    0    0    0    0  0.00000000000E+00  0.00000000000E+00  0.45593999997E+02  0.45594000000E+02  0.51100000000E-03 0.  1.
         11   -1    0    0    0    0 -0.00000000000E+00 -0.00000000000E+00 -0.45593999997E+02  0.45594000000E+02  0.51100000000E-03 0. -1.
    9900012    2    1    2    0    0 -0.15725099183E+02  0.19364315354E+02  0.32107804643E+02  0.50528848847E+02  0.29999966556E+02 0.  0.
         12    1    1    2    0    0  0.15725099183E+02 -0.19364315354E+02 -0.32107804643E+02  0.40659151153E+02  0.00000000000E+00 0. -1.
         11    1    3    3    0    0 -0.77376967516E+01  0.12307263247E+02  0.72465370271E+01  0.16243551915E+02  0.51100000000E-03 0. -1.
        -11    1    3    3    0    0 -0.14550198913E+02  0.58677684332E+01  0.22015907062E+02  0.27034037043E+02  0.51100000000E-03 0.  1.
         12    1    3    3    0    0  0.65627964813E+01  0.11892836736E+01  0.28453605538E+01  0.72512598900E+01  0.00000000000E+00 0. -1.
</event>
<event>
 7    1  0.1381607E-011  0.5052886E+02  0.7816164E-02  0.1300439E+00
        -11   -1    0    0    0    0  0.00000000000E+00  0.00000000000E+00  0.45593999997E+02  0.45594000000E+02  0.51100000000E-03 0.  1.
         11   -1    0    0    0    0 -0.00000000000E+00 -0.00000000000E+00 -0.45593999997E+02  0.45594000000E+02  0.51100000000E-03 0. -1.
    9900012    2    1    2    0    0  0.17060145850E+02  0.16081271466E+02  0.33219116190E+02  0.50528861435E+02  0.30000004817E+02 0.  0.
         12    1    1    2    0    0 -0.17060145850E+02 -0.16081271466E+02 -0.33219116190E+02  0.40659138565E+02  0.00000000000E+00 0. -1.
         11    1    3    3    0    0  0.47811144334E+01  0.61744733836E+01 -0.25163967772E+01  0.82045980884E+01  0.51100000000E-03 0. -1.
        -11    1    3    3    0    0  0.15466335069E+02  0.83850537781E+01  0.22147775078E+02  0.28284988748E+02  0.51100000000E-03 0.  1.
        -12    1    3    3    0    0 -0.31873036518E+01  0.15217443045E+01  0.13587737889E+02  0.14039274598E+02  0.00000000000E+00 0.  1.
</event>
<event>
 7    1  0.1381607E-011  0.5052877E+02  0.7816164E-02  0.1300439E+00
        -11   -1    0    0    0    0  0.00000000000E+00  0.00000000000E+00  0.45593999997E+02  0.45594000000E+02  0.51100000000E-03 0.  1.
         11   -1    0    0    0    0 -0.00000000000E+00 -0.00000000000E+00 -0.45593999997E+02  0.45594000000E+02  0.51100000000E-03 0. -1.
    9900012    2    1    2    0    0  0.72434173241E+01 -0.24393958635E+02  0.31711838381E+02  0.50528769733E+02  0.29999726079E+02 0.  0.
         12    1    1    2    0    0 -0.72434173241E+01  0.24393958635E+02 -0.31711838381E+02  0.40659230267E+02  0.00000000000E+00 0. -1.
         11    1    3    3    0    0 -0.40468369840E+01 -0.34415988766E+01 -0.28795816392E+01  0.60426387514E+01  0.51100000000E-03 0. -1.
        -11    1    3    3    0    0  0.73775881677E+01 -0.62725843677E+01  0.42939094933E+01  0.10593006222E+02  0.51100000000E-03 0.  1.
         12    1    3    3    0    0  0.39126661404E+01 -0.14679775391E+02  0.30297510527E+02  0.33893124759E+02  0.00000000000E+00 0. -1.
</event>
<event>
 7    1  0.1381607E-011  0.5052891E+02  0.7816164E-02  0.1300439E+00
        -11   -1    0    0    0    0  0.00000000000E+00  0.00000000000E+00  0.45593999997E+02  0.45594000000E+02  0.51100000000E-03 0. -1.
         11   -1    0    0    0    0 -0.00000000000E+00 -0.00000000000E+00 -0.45593999997E+02  0.45594000000E+02  0.51100000000E-03 0.  1.
    9900012    2    1    2    0    0 -0.27268284322E+02  0.37703713867E+01 -0.29923008104E+02  0.50528911910E+02  0.30000158242E+02 0.  0.
         12    1    1    2    0    0  0.27268284322E+02 -0.37703713867E+01  0.29923008104E+02  0.40659088090E+02  0.00000000000E+00 0. -1.
         11    1    3    3    0    0 -0.27830223177E+02  0.19482184897E+01 -0.23570543134E+02  0.36522422993E+02  0.51100000000E-03 0. -1.
        -11    1    3    3    0    0 -0.29657525601E+01 -0.42041003763E+01 -0.43628503543E+01  0.67457106147E+01  0.51100000000E-03 0.  1.
         12    1    3    3    0    0  0.35276914155E+01  0.60262532734E+01 -0.19896146157E+01  0.72607783024E+01  0.00000000000E+00 0. -1.
</event>
<event>
 7    1  0.1381607E-011  0.5052886E+02  0.7816164E-02  0.1300439E+00
        -11   -1    0    0    0    0  0.00000000000E+00  0.00000000000E+00  0.45593999997E+02  0.45594000000E+02  0.51100000000E-03 0. -1.
         11   -1    0    0    0    0 -0.00000000000E+00 -0.00000000000E+00 -0.45593999997E+02  0.45594000000E+02  0.51100000000E-03 0.  1.
    9900012    2    1    2    0    0  0.20147488413E+02 -0.31456442500E+02 -0.16054175466E+02  0.50528860633E+02  0.30000002381E+02 0.  0.
         12    1    1    2    0    0 -0.20147488413E+02  0.31456442500E+02  0.16054175466E+02  0.40659139367E+02  0.00000000000E+00 0. -1.
         11    1    3    3    0    0  0.12233986827E+02 -0.66236265318E+01 -0.86183118833E+01  0.16365150842E+02  0.51100000000E-03 0.  1.
        -11    1    3    3    0    0  0.42656937309E+01 -0.14366956338E+02  0.65187301028E+01  0.16343176553E+02  0.51100000000E-03 0. -1.
         12    1    3    3    0    0  0.36478078552E+01 -0.10465859631E+02 -0.13954593686E+02  0.17820533238E+02  0.00000000000E+00 0. -1.
</event>
<event>
 7    1  0.1381607E-011  0.5052885E+02  0.7816164E-02  0.1300439E+00
        -11   -1    0    0    0    0  0.00000000000E+00  0.00000000000E+00  0.45593999997E+02  0.45594000000E+02  0.51100000000E-03 0.  1.
         11   -1    0    0    0    0 -0.00000000000E+00 -0.00000000000E+00 -0.45593999997E+02  0.45594000000E+02  0.51100000000E-03 0. -1.
    9900012    2    1    2    0    0  0.89446354982E+01  0.33076034436E+02  0.21889164830E+02  0.50528854717E+02  0.29999984398E+02 0.  0.
         12    1    1    2    0    0 -0.89446354982E+01 -0.33076034436E+02 -0.21889164830E+02  0.40659145283E+02  0.00000000000E+00 0. -1.
         11    1    3    3    0    0  0.82021592242E+00 -0.20614805005E+01  0.21529132484E+01  0.30915193238E+01  0.51100000000E-03 0. -1.
        -11    1    3    3    0    0  0.62207567906E+01  0.34487786718E+02  0.24168370407E+02  0.42570123045E+02  0.51100000000E-03 0.  1.
         12    1    3    3    0    0  0.19036627852E+01  0.64972821856E+00 -0.44321188252E+01  0.48672123477E+01  0.00000000000E+00 0. -1.
</event>
<event>
 7    1  0.1381607E-011  0.5052887E+02  0.7816164E-02  0.1300439E+00
        -11   -1    0    0    0    0  0.00000000000E+00  0.00000000000E+00  0.45593999997E+02  0.45594000000E+02  0.51100000000E-03 0. -1.
         11   -1    0    0    0    0 -0.00000000000E+00 -0.00000000000E+00 -0.45593999997E+02  0.45594000000E+02  0.51100000000E-03 0.  1.
    9900012    2    1    2    0    0  0.13066466325E+02 -0.37885789345E+02 -0.68629104766E+01  0.50528866749E+02  0.30000020970E+02 0.  0.
         12    1    1    2    0    0 -0.13066466325E+02  0.37885789345E+02  0.68629104766E+01  0.40659133251E+02  0.00000000000E+00 0. -1.
         11    1    3    3    0    0  0.44907449071E+01 -0.82749432797E+01  0.18170829438E+01  0.95887051675E+01  0.51100000000E-03 0. -1.
        -11    1    3    3    0    0  0.17592230768E+02 -0.20065236812E+02 -0.39113504822E+01  0.26970335085E+02  0.51100000000E-03 0.  1.
        -12    1    3    3    0    0 -0.90165093502E+01 -0.95456092530E+01 -0.47686429383E+01  0.13969826497E+02  0.00000000000E+00 0.  1.
</event>
<event>
 7    1  0.1381607E-011  0.5052887E+02  0.7816164E-02  0.1300439E+00
        -11   -1    0    0    0    0  0.00000000000E+00  0.00000000000E+00  0.45593999997E+02  0.45594000000E+02  0.51100000000E-03 0. -1.
         11   -1    0    0    0    0 -0.00000000000E+00 -0.00000000000E+00 -0.45593999997E+02  0.45594000000E+02  0.51100000000E-03 0.  1.
    9900012    2    1    2    0    0 -0.19055722086E+02 -0.35665325837E+02 -0.42460645103E+01  0.50528867260E+02  0.30000022525E+02 0.  0.
         12    1    1    2    0    0  0.19055722086E+02  0.35665325837E+02  0.42460645103E+01  0.40659132740E+02  0.00000000000E+00 0. -1.
         11    1    3    3    0    0  0.67697462348E+00 -0.17851717654E+02  0.71015753210E+01  0.19224320278E+02  0.51100000000E-03 0. -1.
        -11    1    3    3    0    0 -0.11931009217E+02 -0.15316597130E+02 -0.30653714452E+01  0.19655625936E+02  0.51100000000E-03 0.  1.
        -12    1    3    3    0    0 -0.78016874928E+01 -0.24970110535E+01 -0.82822683861E+01  0.11648921047E+02  0.00000000000E+00 0.  1.
</event>
<event>
 7    1  0.1381607E-011  0.5052886E+02  0.7816164E-02  0.1300439E+00
        -11   -1    0    0    0    0  0.00000000000E+00  0.00000000000E+00  0.45593999997E+02  0.45594000000E+02  0.51100000000E-03 0.  1.
         11   -1    0    0    0    0 -0.00000000000E+00 -0.00000000000E+00 -0.45593999997E+02  0.45594000000E+02  0.51100000000E-03 0. -1.
    9900012    2    1    2    0    0  0.29935707316E+02 -0.27506251775E+02  0.65223051998E+00  0.50528857561E+02  0.29999993044E+02 0.  0.
         12    1    1    2    0    0 -0.29935707316E+02  0.27506251775E+02 -0.65223051998E+00  0.40659142439E+02  0.00000000000E+00 0. -1.
         11    1    3    3    0    0  0.18223810701E+02 -0.15146793727E+02 -0.97724971767E+01  0.25632681053E+02  0.51100000000E-03 0. -1.
        -11    1    3    3    0    0  0.11265790631E+02 -0.19811731259E+01  0.22041919379E+01  0.11649100732E+02  0.51100000000E-03 0.  1.
        -12    1    3    3    0    0  0.44610598440E+00 -0.10378284922E+02  0.82205357587E+01  0.13247075776E+02  0.00000000000E+00 0.  1.
</event>
<event>
 7    1  0.1381607E-011  0.5052886E+02  0.7816164E-02  0.1300439E+00
        -11   -1    0    0    0    0  0.00000000000E+00  0.00000000000E+00  0.45593999997E+02  0.45594000000E+02  0.51100000000E-03 0.  1.
         11   -1    0    0    0    0 -0.00000000000E+00 -0.00000000000E+00 -0.45593999997E+02  0.45594000000E+02  0.51100000000E-03 0. -1.
    9900012    2    1    2    0    0 -0.13289101437E+02 -0.18412591909E+02  0.33727465169E+02  0.50528860012E+02  0.30000000493E+02 0.  0.
         12    1    1    2    0    0  0.13289101437E+02  0.18412591909E+02 -0.33727465169E+02  0.40659139988E+02  0.00000000000E+00 0. -1.
         11    1    3    3    0    0 -0.11779469068E+02 -0.10079740857E+02  0.18034495984E+02  0.23782348768E+02  0.51100000000E-03 0.  1.
        -11    1    3    3    0    0 -0.19883404906E+01  0.36203205781E+01  0.14082635190E+02  0.14675858856E+02  0.51100000000E-03 0. -1.
         12    1    3    3    0    0  0.47870812195E+00 -0.11953171630E+02  0.16103339948E+01  0.12070652388E+02  0.00000000000E+00 0. -1.
</event>
<event>
 7    1  0.1381607E-011  0.5052886E+02  0.7816164E-02  0.1300439E+00
        -11   -1    0    0    0    0  0.00000000000E+00  0.00000000000E+00  0.45593999997E+02  0.45594000000E+02  0.51100000000E-03 0.  1.
         11   -1    0    0    0    0 -0.00000000000E+00 -0.00000000000E+00 -0.45593999997E+02  0.45594000000E+02  0.51100000000E-03 0. -1.
    9900012    2    1    2    0    0 -0.17154352157E+02 -0.72695878130E+01  0.36139270528E+02  0.50528861062E+02  0.30000003683E+02 0.  0.
         12    1    1    2    0    0  0.17154352157E+02  0.72695878130E+01 -0.36139270528E+02  0.40659138938E+02  0.00000000000E+00 0. -1.
         11    1    3    3    0    0 -0.20808154762E+01 -0.15071702481E+02  0.12899872494E+02  0.19947248415E+02  0.51100000000E-03 0. -1.
        -11    1    3    3    0    0 -0.12259868134E+02  0.35176597463E+01  0.94603496885E+01  0.15880066538E+02  0.51100000000E-03 0.  1.
        -12    1    3    3    0    0 -0.28136685467E+01  0.42844549214E+01  0.13779048346E+02  0.14701546109E+02  0.00000000000E+00 0.  1.
</event>
<event>
 7    1  0.1381607E-011  0.5052885E+02  0.7816164E-02  0.1300439E+00
        -11   -1    0    0    0    0  0.00000000000E+00  0.00000000000E+00  0.45593999997E+02  0.45594000000E+02  0.51100000000E-03 0.  1.
         11   -1    0    0    0    0 -0.00000000000E+00 -0.00000000000E+00 -0.45593999997E+02  0.45594000000E+02  0.51100000000E-03 0. -1.
    9900012    2    1    2    0    0 -0.24440079237E+02  0.18692432310E+02  0.26578969537E+02  0.50528854406E+02  0.29999983453E+02 0.  0.
         12    1    1    2    0    0  0.24440079237E+02 -0.18692432310E+02 -0.26578969537E+02  0.40659145594E+02  0.00000000000E+00 0. -1.
         11    1    3    3    0    0 -0.66513799624E+01  0.16854631783E+02  0.96017472744E+01  0.20506414092E+02  0.51100000000E-03 0. -1.
        -11    1    3    3    0    0  0.26815136273E+01 -0.15040072380E+01 -0.21544688030E+00  0.30820400264E+01  0.51100000000E-03 0.  1.
        -12    1    3    3    0    0 -0.20470212902E+02  0.33418077653E+01  0.17192669143E+02  0.26940400287E+02  0.00000000000E+00 0.  1.
</event>
<event>
 7    1  0.1381607E-011  0.5052886E+02  0.7816164E-02  0.1300439E+00
        -11   -1    0    0    0    0  0.00000000000E+00  0.00000000000E+00  0.45593999997E+02  0.45594000000E+02  0.51100000000E-03 0.  1.
         11   -1    0    0    0    0 -0.00000000000E+00 -0.00000000000E+00 -0.45593999997E+02  0.45594000000E+02  0.51100000000E-03 0. -1.
    9900012    2    1    2    0    0  0.12288989415E+02 -0.10781678429E+02  0.37227703050E+02  0.50528859269E+02  0.29999998235E+02 0.  0.
         12    1    1    2    0    0 -0.12288989415E+02  0.10781678429E+02 -0.37227703050E+02  0.40659140731E+02  0.00000000000E+00 0. -1.
         11    1    3    3    0    0  0.88220059881E+01 -0.11495087026E+02  0.47738364586E+01  0.15256288218E+02  0.51100000000E-03 0. -1.
        -11    1    3    3    0    0  0.18380311871E+01  0.27281810399E+01  0.63737047263E+00  0.33507569013E+01  0.51100000000E-03 0.  1.
         12    1    3    3    0    0  0.16289522403E+01 -0.20147724430E+01  0.31816496118E+02  0.31921814150E+02  0.00000000000E+00 0. -1.
</event>
<event>
 7    1  0.1381607E-011  0.5052886E+02  0.7816164E-02  0.1300439E+00
        -11   -1    0    0    0    0  0.00000000000E+00  0.00000000000E+00  0.45593999997E+02  0.45594000000E+02  0.51100000000E-03 0.  1.
         11   -1    0    0    0    0 -0.00000000000E+00 -0.00000000000E+00 -0.45593999997E+02  0.45594000000E+02  0.51100000000E-03 0. -1.
    9900012    2    1    2    0    0 -0.11473881438E+02  0.20794664808E+02  0.33001477366E+02  0.50528861445E+02  0.30000004848E+02 0.  0.
         12    1    1    2    0    0  0.11473881438E+02 -0.20794664808E+02 -0.33001477366E+02  0.40659138555E+02  0.00000000000E+00 0. -1.
         11    1    3    3    0    0 -0.87330631424E+01  0.24898436492E+01 -0.28954812316E+00  0.90856783799E+01  0.51100000000E-03 0. -1.
        -11    1    3    3    0    0 -0.89956101352E+01  0.65237084148E+01  0.17982198130E+02  0.21138571925E+02  0.51100000000E-03 0.  1.
        -12    1    3    3    0    0  0.62547918392E+01  0.11781112744E+02  0.15308827358E+02  0.20304611140E+02  0.00000000000E+00 0.  1.
</event>
<event>
 7    1  0.1381607E-011  0.5052887E+02  0.7816164E-02  0.1300439E+00
        -11   -1    0    0    0    0  0.00000000000E+00  0.00000000000E+00  0.45593999997E+02  0.45594000000E+02  0.51100000000E-03 0.  1.
         11   -1    0    0    0    0 -0.00000000000E+00 -0.00000000000E+00 -0.45593999997E+02  0.45594000000E+02  0.51100000000E-03 0. -1.
    9900012    2    1    2    0    0  0.24122068501E+02 -0.25068200629E+02  0.21044620982E+02  0.50528868875E+02  0.30000027433E+02 0.  0.
         12    1    1    2    0    0 -0.24122068501E+02  0.25068200629E+02 -0.21044620982E+02  0.40659131125E+02  0.00000000000E+00 0. -1.
         11    1    3    3    0    0  0.76779243639E+01  0.14737924121E+01  0.61870938462E+01  0.99700911297E+01  0.51100000000E-03 0.  1.
        -11    1    3    3    0    0 -0.44347981742E+01 -0.63607589922E+01  0.70727461507E+01  0.10495257413E+02  0.51100000000E-03 0. -1.
        -12    1    3    3    0    0  0.20878942312E+02 -0.20181234049E+02  0.77847809851E+01  0.30063520332E+02  0.00000000000E+00 0.  1.
</event>
<event>
 7    1  0.1381607E-011  0.5052885E+02  0.7816164E-02  0.1300439E+00
        -11   -1    0    0    0    0  0.00000000000E+00  0.00000000000E+00  0.45593999997E+02  0.45594000000E+02  0.51100000000E-03 0.  1.
         11   -1    0    0    0    0 -0.00000000000E+00 -0.00000000000E+00 -0.45593999997E+02  0.45594000000E+02  0.51100000000E-03 0. -1.
    9900012    2    1    2    0    0 -0.33599534088E+02 -0.22456425229E+02  0.44661928053E+01  0.50528848470E+02  0.29999965408E+02 0.  0.
         12    1    1    2    0    0  0.33599534088E+02  0.22456425229E+02 -0.44661928053E+01  0.40659151530E+02  0.00000000000E+00 0. -1.
         11    1    3    3    0    0 -0.89347938088E+01  0.61213559439E+01  0.37851907993E+01  0.11472977323E+02  0.51100000000E-03 0. -1.
        -11    1    3    3    0    0 -0.17830568996E+02 -0.13085431587E+02  0.31634923792E+00  0.22119172400E+02  0.51100000000E-03 0.  1.
        -12    1    3    3    0    0 -0.68341712832E+01 -0.15492349586E+02  0.36465276808E+00  0.16936698747E+02  0.00000000000E+00 0.  1.
</event>
<event>
 7    1  0.1381607E-011  0.5052886E+02  0.7816164E-02  0.1300439E+00
        -11   -1    0    0    0    0  0.00000000000E+00  0.00000000000E+00  0.45593999997E+02  0.45594000000E+02  0.51100000000E-03 0.  1.
         11   -1    0    0    0    0 -0.00000000000E+00 -0.00000000000E+00 -0.45593999997E+02  0.45594000000E+02  0.51100000000E-03 0. -1.
    9900012    2    1    2    0    0  0.14676975837E+02  0.29181130938E+02  0.24211845943E+02  0.50528861956E+02  0.30000006400E+02 0.  0.
         12    1    1    2    0    0 -0.14676975837E+02 -0.29181130938E+02 -0.24211845943E+02  0.40659138044E+02  0.00000000000E+00 0. -1.
         11    1    3    3    0    0  0.55166811505E+00  0.36659274449E+01  0.83400583713E+01  0.91268798414E+01  0.51100000000E-03 0.  1.
        -11    1    3    3    0    0  0.95343815179E+00  0.12364372009E+02 -0.50581501094E+01  0.13392969136E+02  0.51100000000E-03 0. -1.
         12    1    3    3    0    0  0.13171869570E+02  0.13150831484E+02  0.20929937681E+02  0.28009012978E+02  0.00000000000E+00 0. -1.
</event>
<event>
 7    1  0.1381607E-011  0.5052886E+02  0.7816164E-02  0.1300439E+00
        -11   -1    0    0    0    0  0.00000000000E+00  0.00000000000E+00  0.45593999997E+02  0.45594000000E+02  0.51100000000E-03 0.  1.
         11   -1    0    0    0    0 -0.00000000000E+00 -0.00000000000E+00 -0.45593999997E+02  0.45594000000E+02  0.51100000000E-03 0. -1.
    9900012    2    1    2    0    0  0.25661958820E+02 -0.25831966258E+02  0.18092522555E+02  0.50528856088E+02  0.29999988564E+02 0.  0.
         12    1    1    2    0    0 -0.25661958820E+02  0.25831966258E+02 -0.18092522555E+02  0.40659143912E+02  0.00000000000E+00 0. -1.
         11    1    3    3    0    0 -0.55184553911E+00  0.28796273257E+01  0.24844598632E+00  0.29425350810E+01  0.51100000000E-03 0. -1.
        -11    1    3    3    0    0  0.82185932766E+01 -0.46019390010E+01  0.14534660488E+02  0.17319915524E+02  0.51100000000E-03 0.  1.
        -12    1    3    3    0    0  0.17995211083E+02 -0.24109654583E+02  0.33094160810E+01  0.30266405482E+02  0.00000000000E+00 0.  1.
</event>
<event>
 7    1  0.1381607E-011  0.5052885E+02  0.7816164E-02  0.1300439E+00
        -11   -1    0    0    0    0  0.00000000000E+00  0.00000000000E+00  0.45593999997E+02  0.45594000000E+02  0.51100000000E-03 0. -1.
         11   -1    0    0    0    0 -0.00000000000E+00 -0.00000000000E+00 -0.45593999997E+02  0.45594000000E+02  0.51100000000E-03 0.  1.
    9900012    2    1    2    0    0 -0.15534356483E+02 -0.37518595350E+02 -0.20505962797E+01  0.50528853754E+02  0.29999981470E+02 0.  0.
         12    1    1    2    0    0  0.15534356483E+02  0.37518595350E+02  0.20505962797E+01  0.40659146246E+02  0.00000000000E+00 0. -1.
         11    1    3    3    0    0  0.47384174612E+01 -0.25388885976E+01  0.27236637279E+01  0.60263504472E+01  0.51100000000E-03 0. -1.
        -11    1    3    3    0    0 -0.14738657882E+02 -0.13475413213E+02  0.44460972613E+01  0.20459290763E+02  0.51100000000E-03 0.  1.
         12    1    3    3    0    0 -0.55341160614E+01 -0.21504293540E+02 -0.92203572689E+01  0.24043212543E+02  0.00000000000E+00 0. -1.
</event>
<event>
 7    1  0.1381607E-011  0.5052886E+02  0.7816164E-02  0.1300439E+00
        -11   -1    0    0    0    0  0.00000000000E+00  0.00000000000E+00  0.45593999997E+02  0.45594000000E+02  0.51100000000E-03 0. -1.
         11   -1    0    0    0    0 -0.00000000000E+00 -0.00000000000E+00 -0.45593999997E+02  0.45594000000E+02  0.51100000000E-03 0.  1.
    9900012    2    1    2    0    0  0.23225803031E+02 -0.32831271167E+02  0.59862866235E+01  0.50528856866E+02  0.29999990930E+02 0.  0.
         12    1    1    2    0    0 -0.23225803031E+02  0.32831271167E+02 -0.59862866235E+01  0.40659143134E+02  0.00000000000E+00 0. -1.
         11    1    3    3    0    0  0.58918089471E+01 -0.67845262670E+01 -0.73712428904E+01  0.11622324696E+02  0.51100000000E-03 0. -1.
        -11    1    3    3    0    0  0.30521689343E+01 -0.21239911704E+02  0.73056178864E+01  0.22667634136E+02  0.51100000000E-03 0.  1.
         12    1    3    3    0    0  0.14281825150E+02 -0.48068331960E+01  0.60519116275E+01  0.16238898033E+02  0.00000000000E+00 0. -1.
</event>
<event>
 7    1  0.1381607E-011  0.5052886E+02  0.7816164E-02  0.1300439E+00
        -11   -1    0    0    0    0  0.00000000000E+00  0.00000000000E+00  0.45593999997E+02  0.45594000000E+02  0.51100000000E-03 0. -1.
         11   -1    0    0    0    0 -0.00000000000E+00 -0.00000000000E+00 -0.45593999997E+02  0.45594000000E+02  0.51100000000E-03 0.  1.
    9900012    2    1    2    0    0  0.25897529905E+02 -0.31289904361E+02  0.18508388921E+01  0.50528858658E+02  0.29999996376E+02 0.  0.
         12    1    1    2    0    0 -0.25897529905E+02  0.31289904361E+02 -0.18508388921E+01  0.40659141342E+02  0.00000000000E+00 0. -1.
         11    1    3    3    0    0  0.96308968102E+00 -0.17922313345E+02 -0.12315438404E+01  0.17990374033E+02  0.51100000000E-03 0. -1.
        -11    1    3    3    0    0  0.96586762414E+01 -0.67380086969E+01 -0.63713873315E+01  0.13389748494E+02  0.51100000000E-03 0.  1.
        -12    1    3    3    0    0  0.15275763983E+02 -0.66295823192E+01  0.94537700640E+01  0.19148736131E+02  0.00000000000E+00 0.  1.
</event>
<event>
 7    1  0.1381607E-011  0.5052885E+02  0.7816164E-02  0.1300439E+00
        -11   -1    0    0    0    0  0.00000000000E+00  0.00000000000E+00  0.45593999997E+02  0.45594000000E+02  0.51100000000E-03 0.  1.
         11   -1    0    0    0    0 -0.00000000000E+00 -0.00000000000E+00 -0.45593999997E+02  0.45594000000E+02  0.51100000000E-03 0. -1.
    9900012    2    1    2    0    0  0.21308156400E+02  0.80912600138E+01  0.33669869140E+02  0.50528854588E+02  0.29999984005E+02 0.  0.
         12    1    1    2    0    0 -0.21308156400E+02 -0.80912600138E+01 -0.33669869140E+02  0.40659145412E+02  0.00000000000E+00 0. -1.
         11    1    3    3    0    0  0.25818339248E+01 -0.51008947568E+01  0.49510716166E+00  0.57384775941E+01  0.51100000000E-03 0. -1.
        -11    1    3    3    0    0  0.11061657411E+02  0.10995651093E+02  0.64091475541E+01  0.16862436961E+02  0.51100000000E-03 0.  1.
        -12    1    3    3    0    0  0.76646650644E+01  0.21965036771E+01  0.26765614424E+02  0.27927940032E+02  0.00000000000E+00 0.  1.
</event>
<event>
 7    1  0.1381607E-011  0.5052885E+02  0.7816164E-02  0.1300439E+00
        -11   -1    0    0    0    0  0.00000000000E+00  0.00000000000E+00  0.45593999997E+02  0.45594000000E+02  0.51100000000E-03 0. -1.
         11   -1    0    0    0    0 -0.00000000000E+00 -0.00000000000E+00 -0.45593999997E+02  0.45594000000E+02  0.51100000000E-03 0.  1.
    9900012    2    1    2    0    0  0.10305909246E+02 -0.39196443754E+02  0.32547084891E+01  0.50528854710E+02  0.29999984376E+02 0.  0.
         12    1    1    2    0    0 -0.10305909246E+02  0.39196443754E+02 -0.32547084891E+01  0.40659145290E+02  0.00000000000E+00 0. -1.
         11    1    3    3    0    0  0.44098988321E+01 -0.14037730012E+02  0.11995565941E+02  0.18984169039E+02  0.51100000000E-03 0. -1.
        -11    1    3    3    0    0  0.91057858012E+01 -0.60597165741E+01 -0.28843998229E+01  0.11311731194E+02  0.51100000000E-03 0.  1.
         12    1    3    3    0    0 -0.32097753873E+01 -0.19098997168E+02 -0.58564576292E+01  0.20232954476E+02  0.00000000000E+00 0. -1.
</event>
<event>
 7    1  0.1381607E-011  0.5052887E+02  0.7816164E-02  0.1300439E+00
        -11   -1    0    0    0    0  0.00000000000E+00  0.00000000000E+00  0.45593999997E+02  0.45594000000E+02  0.51100000000E-03 0.  1.
         11   -1    0    0    0    0 -0.00000000000E+00 -0.00000000000E+00 -0.45593999997E+02  0.45594000000E+02  0.51100000000E-03 0. -1.
    9900012    2    1    2    0    0  0.89630528117E+01  0.24318230660E+02  0.31328143128E+02  0.50528865603E+02  0.30000017486E+02 0.  0.
         12    1    1    2    0    0 -0.89630528117E+01 -0.24318230660E+02 -0.31328143128E+02  0.40659134397E+02  0.00000000000E+00 0. -1.
         11    1    3    3    0    0  0.66196344633E+01  0.59279849571E+01 -0.18283885819E+01  0.90721315658E+01  0.51100000000E-03 0. -1.
        -11    1    3    3    0    0  0.68113539000E+00 -0.25777858067E+01  0.91910408643E+01  0.95699612076E+01  0.51100000000E-03 0.  1.
        -12    1    3    3    0    0  0.16622829584E+01  0.20968031509E+02  0.23965490845E+02  0.31886772829E+02  0.00000000000E+00 0.  1.
</event>
<event>
 7    1  0.1381607E-011  0.5052886E+02  0.7816164E-02  0.1300439E+00
        -11   -1    0    0    0    0  0.00000000000E+00  0.00000000000E+00  0.45593999997E+02  0.45594000000E+02  0.51100000000E-03 0.  1.
         11   -1    0    0    0    0 -0.00000000000E+00 -0.00000000000E+00 -0.45593999997E+02  0.45594000000E+02  0.51100000000E-03 0. -1.
    9900012    2    1    2    0    0  0.25056837345E+02  0.26360679473E+00  0.32019537759E+02  0.50528863455E+02  0.30000010958E+02 0.  0.
         12    1    1    2    0    0 -0.25056837345E+02 -0.26360679473E+00 -0.32019537759E+02  0.40659136545E+02  0.00000000000E+00 0. -1.
         11    1    3    3    0    0 -0.16855056856E+01 -0.12526228237E+01  0.18966798714E+01  0.28297328761E+01  0.51100000000E-03 0. -1.
        -11    1    3    3    0    0  0.10801661765E+02  0.10896903399E+02  0.42979950490E+01  0.15933962542E+02  0.51100000000E-03 0.  1.
        -12    1    3    3    0    0  0.15940681266E+02 -0.93806737809E+01  0.25824862839E+02  0.31765168037E+02  0.00000000000E+00 0.  1.
</event>
<event>
 7    1  0.1381607E-011  0.5052886E+02  0.7816164E-02  0.1300439E+00
        -11   -1    0    0    0    0  0.00000000000E+00  0.00000000000E+00  0.45593999997E+02  0.45594000000E+02  0.51100000000E-03 0. -1.
         11   -1    0    0    0    0 -0.00000000000E+00 -0.00000000000E+00 -0.45593999997E+02  0.45594000000E+02  0.51100000000E-03 0.  1.
    9900012    2    1    2    0    0  0.21544345928E+02 -0.19976413319E+02 -0.28106046715E+02  0.50528858439E+02  0.29999995711E+02 0.  0.
         12    1    1    2    0    0 -0.21544345928E+02  0.19976413319E+02  0.28106046715E+02  0.40659141561E+02  0.00000000000E+00 0. -1.
         11    1    3    3    0    0  0.66928005208E+00 -0.55819021225E+01  0.19775649175E+01  0.59595578995E+01  0.51100000000E-03 0. -1.
        -11    1    3    3    0    0  0.10179403971E+01  0.94675825498E+00 -0.15467473162E+02  0.15529819062E+02  0.51100000000E-03 0.  1.
        -12    1    3    3    0    0  0.19857125479E+02 -0.15341269451E+02 -0.14616138471E+02  0.29039481477E+02  0.00000000000E+00 0.  1.
</event>
<event>
 7    1  0.1381607E-011  0.5052888E+02  0.7816164E-02  0.1300439E+00
        -11   -1    0    0    0    0  0.00000000000E+00  0.00000000000E+00  0.45593999997E+02  0.45594000000E+02  0.51100000000E-03 0.  1.
         11   -1    0    0    0    0 -0.00000000000E+00 -0.00000000000E+00 -0.45593999997E+02  0.45594000000E+02  0.51100000000E-03 0. -1.
    9900012    2    1    2    0    0 -0.83106567178E+01  0.36485107877E+02  0.15903907921E+02  0.50528875574E+02  0.30000047796E+02 0.  0.
         12    1    1    2    0    0  0.83106567178E+01 -0.36485107877E+02 -0.15903907921E+02  0.40659124426E+02  0.00000000000E+00 0. -1.
         11    1    3    3    0    0 -0.10873610122E+01  0.17202188592E+02  0.12059763039E+02  0.21036528495E+02  0.51100000000E-03 0. -1.
        -11    1    3    3    0    0  0.49909356630E+01  0.15301715548E+02  0.43157811796E-01  0.16095148348E+02  0.51100000000E-03 0.  1.
         12    1    3    3    0    0 -0.12214231369E+02  0.39812037379E+01  0.38009870705E+01  0.13397198731E+02  0.00000000000E+00 0. -1.
</event>
<event>
 7    1  0.1381607E-011  0.5052889E+02  0.7816164E-02  0.1300439E+00
        -11   -1    0    0    0    0  0.00000000000E+00  0.00000000000E+00  0.45593999997E+02  0.45594000000E+02  0.51100000000E-03 0. -1.
         11   -1    0    0    0    0 -0.00000000000E+00 -0.00000000000E+00 -0.45593999997E+02  0.45594000000E+02  0.51100000000E-03 0.  1.
    9900012    2    1    2    0    0  0.29161882941E+02 -0.21239627426E+02  0.18751685869E+02  0.50528893852E+02  0.30000103351E+02 0.  0.
         12    1    1    2    0    0 -0.29161882941E+02  0.21239627426E+02 -0.18751685869E+02  0.40659106148E+02  0.00000000000E+00 0. -1.
         11    1    3    3    0    0  0.91045786193E+01 -0.13833475972E+02  0.12570565351E+02  0.20791284780E+02  0.51100000000E-03 0. -1.
        -11    1    3    3    0    0  0.90835654986E+01 -0.18480921224E+01  0.12772639502E+02  0.15781854352E+02  0.51100000000E-03 0.  1.
        -12    1    3    3    0    0  0.10973738823E+02 -0.55580593314E+01 -0.65915189841E+01  0.13955754720E+02  0.00000000000E+00 0.  1.
</event>
<event>
 7    1  0.1381607E-011  0.5052886E+02  0.7816164E-02  0.1300439E+00
        -11   -1    0    0    0    0  0.00000000000E+00  0.00000000000E+00  0.45593999997E+02  0.45594000000E+02  0.51100000000E-03 0.  1.
         11   -1    0    0    0    0 -0.00000000000E+00 -0.00000000000E+00 -0.45593999997E+02  0.45594000000E+02  0.51100000000E-03 0. -1.
    9900012    2    1    2    0    0  0.66222176142E+01  0.65366325811E+01  0.39580098456E+02  0.50528861723E+02  0.30000005693E+02 0.  0.
         12    1    1    2    0    0 -0.66222176142E+01 -0.65366325811E+01 -0.39580098456E+02  0.40659138277E+02  0.00000000000E+00 0. -1.
         11    1    3    3    0    0 -0.53614827419E+01 -0.18488998692E+01  0.83597551703E+01  0.10101952024E+02  0.51100000000E-03 0. -1.
        -11    1    3    3    0    0 -0.19812901653E+01  0.60440106413E+01  0.23403995338E+02  0.24252887940E+02  0.51100000000E-03 0.  1.
        -12    1    3    3    0    0  0.13964990521E+02  0.23415218090E+01  0.78163479477E+01  0.16174021760E+02  0.00000000000E+00 0.  1.
</event>
<event>
 7    1  0.1381607E-011  0.5052887E+02  0.7816164E-02  0.1300439E+00
        -11   -1    0    0    0    0  0.00000000000E+00  0.00000000000E+00  0.45593999997E+02  0.45594000000E+02  0.51100000000E-03 0. -1.
         11   -1    0    0    0    0 -0.00000000000E+00 -0.00000000000E+00 -0.45593999997E+02  0.45594000000E+02  0.51100000000E-03 0.  1.
    9900012    2    1    2    0    0 -0.14149406900E+02 -0.37980024615E+02  0.32368327269E+01  0.50528867306E+02  0.30000022662E+02 0.  0.
         12    1    1    2    0    0  0.14149406900E+02  0.37980024615E+02 -0.32368327269E+01  0.40659132694E+02  0.00000000000E+00 0. -1.
         11    1    3    3    0    0 -0.18026732682E+00 -0.37445411671E+01 -0.75050535736E+01  0.83892737627E+01  0.51100000000E-03 0. -1.
        -11    1    3    3    0    0  0.23686267782E+01 -0.15137993368E+02  0.16395071120E+01  0.15409646973E+02  0.51100000000E-03 0.  1.
        -12    1    3    3    0    0 -0.16337766352E+02 -0.19097490080E+02  0.91023791885E+01  0.26729946569E+02  0.00000000000E+00 0.  1.
</event>
<event>
 7    1  0.1381607E-011  0.5052887E+02  0.7816164E-02  0.1300439E+00
        -11   -1    0    0    0    0  0.00000000000E+00  0.00000000000E+00  0.45593999997E+02  0.45594000000E+02  0.51100000000E-03 0. -1.
         11   -1    0    0    0    0 -0.00000000000E+00 -0.00000000000E+00 -0.45593999997E+02  0.45594000000E+02  0.51100000000E-03 0.  1.
    9900012    2    1    2    0    0  0.31622076134E+02 -0.22571295616E+02  0.11989417983E+02  0.50528865376E+02  0.30000016798E+02 0.  0.
         12    1    1    2    0    0 -0.31622076134E+02  0.22571295616E+02 -0.11989417983E+02  0.40659134624E+02  0.00000000000E+00 0. -1.
         11    1    3    3    0    0  0.11711649944E+02 -0.17222242806E+02  0.72336763479E+01  0.22047550101E+02  0.51100000000E-03 0. -1.
        -11    1    3    3    0    0  0.16666795978E+02 -0.42040624854E+01  0.11658060550E+02  0.20769367000E+02  0.51100000000E-03 0.  1.
        -12    1    3    3    0    0  0.32436302120E+01 -0.11449903242E+01 -0.69023189152E+01  0.77119482753E+01  0.00000000000E+00 0.  1.
</event>
<event>
 7    1  0.1381607E-011  0.5052887E+02  0.7816164E-02  0.1300439E+00
        -11   -1    0    0    0    0  0.00000000000E+00  0.00000000000E+00  0.45593999997E+02  0.45594000000E+02  0.51100000000E-03 0.  1.
         11   -1    0    0    0    0 -0.00000000000E+00 -0.00000000000E+00 -0.45593999997E+02  0.45594000000E+02  0.51100000000E-03 0. -1.
    9900012    2    1    2    0    0 -0.21840162458E+02  0.24909938764E+02  0.23572598824E+02  0.50528866208E+02  0.30000019327E+02 0.  0.
         12    1    1    2    0    0  0.21840162458E+02 -0.24909938764E+02 -0.23572598824E+02  0.40659133792E+02  0.00000000000E+00 0. -1.
         11    1    3    3    0    0 -0.83397398376E+01  0.55809029866E+01 -0.19607993037E+01  0.10224601355E+02  0.51100000000E-03 0. -1.
        -11    1    3    3    0    0 -0.17906534525E+02  0.18982464466E+02  0.18464546266E+02  0.31967442891E+02  0.51100000000E-03 0.  1.
         12    1    3    3    0    0  0.44061119054E+01  0.34657131161E+00  0.70688518611E+01  0.83368219623E+01  0.00000000000E+00 0. -1.
</event>
<event>
 7    1  0.1381607E-011  0.5052886E+02  0.7816164E-02  0.1300439E+00
        -11   -1    0    0    0    0  0.00000000000E+00  0.00000000000E+00  0.45593999997E+02  0.45594000000E+02  0.51100000000E-03 0. -1.
         11   -1    0    0    0    0 -0.00000000000E+00 -0.00000000000E+00 -0.45593999997E+02  0.45594000000E+02  0.51100000000E-03 0.  1.
    9900012    2    1    2    0    0  0.16195289534E+02 -0.33755851833E+02 -0.15856242554E+02  0.50528863708E+02  0.30000011728E+02 0.  0.
         12    1    1    2    0    0 -0.16195289534E+02  0.33755851833E+02  0.15856242554E+02  0.40659136292E+02  0.00000000000E+00 0. -1.
         11    1    3    3    0    0  0.21107994684E+02 -0.17856059000E+02 -0.87963465043E+01  0.29013134864E+02  0.51100000000E-03 0. -1.
        -11    1    3    3    0    0  0.12072180585E+01  0.60283059562E+00 -0.32334936120E+01  0.35037496155E+01  0.51100000000E-03 0.  1.
        -12    1    3    3    0    0 -0.61199232087E+01 -0.16502623429E+02 -0.38264024373E+01  0.18011979229E+02  0.00000000000E+00 0.  1.
</event>
<event>
 7    1  0.1381607E-011  0.5052886E+02  0.7816164E-02  0.1300439E+00
        -11   -1    0    0    0    0  0.00000000000E+00  0.00000000000E+00  0.45593999997E+02  0.45594000000E+02  0.51100000000E-03 0. -1.
         11   -1    0    0    0    0 -0.00000000000E+00 -0.00000000000E+00 -0.45593999997E+02  0.45594000000E+02  0.51100000000E-03 0.  1.
    9900012    2    1    2    0    0 -0.18664352151E+01  0.40164157110E+02 -0.60434236570E+01  0.50528855072E+02  0.29999985477E+02 0.  0.
         12    1    1    2    0    0  0.18664352151E+01 -0.40164157110E+02  0.60434236570E+01  0.40659144928E+02  0.00000000000E+00 0. -1.
         11    1    3    3    0    0  0.21111781202E+01  0.26271810584E+02  0.55270855568E+01  0.26929793527E+02  0.51100000000E-03 0. -1.
        -11    1    3    3    0    0 -0.37690159148E+00  0.15371057133E+02 -0.53863664569E+01  0.16291850602E+02  0.51100000000E-03 0.  1.
         12    1    3    3    0    0 -0.36007117438E+01 -0.14787106064E+01 -0.61841427569E+01  0.73072109424E+01  0.00000000000E+00 0. -1.
</event>
<event>
 7    1  0.1381607E-011  0.5052885E+02  0.7816164E-02  0.1300439E+00
        -11   -1    0    0    0    0  0.00000000000E+00  0.00000000000E+00  0.45593999997E+02  0.45594000000E+02  0.51100000000E-03 0. -1.
         11   -1    0    0    0    0 -0.00000000000E+00 -0.00000000000E+00 -0.45593999997E+02  0.45594000000E+02  0.51100000000E-03 0.  1.
    9900012    2    1    2    0    0  0.30662885663E+02  0.15756124173E+02 -0.21556857007E+02  0.50528854779E+02  0.29999984585E+02 0.  0.
         12    1    1    2    0    0 -0.30662885663E+02 -0.15756124173E+02  0.21556857007E+02  0.40659145221E+02  0.00000000000E+00 0. -1.
         11    1    3    3    0    0  0.15283155129E+02  0.15538686135E+02 -0.13536416627E+02  0.25656581472E+02  0.51100000000E-03 0. -1.
        -11    1    3    3    0    0  0.35624974162E+01  0.66683607446E+01  0.23066356398E+01  0.79043653190E+01  0.51100000000E-03 0.  1.
        -12    1    3    3    0    0  0.11817233118E+02 -0.64509227072E+01 -0.10327076020E+02  0.16967907987E+02  0.00000000000E+00 0.  1.
</event>
<event>
 7    1  0.1381607E-011  0.5052886E+02  0.7816164E-02  0.1300439E+00
        -11   -1    0    0    0    0  0.00000000000E+00  0.00000000000E+00  0.45593999997E+02  0.45594000000E+02  0.51100000000E-03 0. -1.
         11   -1    0    0    0    0 -0.00000000000E+00 -0.00000000000E+00 -0.45593999997E+02  0.45594000000E+02  0.51100000000E-03 0.  1.
    9900012    2    1    2    0    0  0.17689076887E+02  0.36325076278E+02 -0.45553154194E+01  0.50528861959E+02  0.30000006409E+02 0.  0.
         12    1    1    2    0    0 -0.17689076887E+02 -0.36325076278E+02  0.45553154194E+01  0.40659138041E+02  0.00000000000E+00 0. -1.
         11    1    3    3    0    0  0.16614699233E+02  0.13550059167E+02 -0.12492395342E+02  0.24813550243E+02  0.51100000000E-03 0. -1.
        -11    1    3    3    0    0  0.19211037757E+01  0.26279520704E+01  0.40213623132E+01  0.51737923148E+01  0.51100000000E-03 0.  1.
        -12    1    3    3    0    0 -0.84672612157E+00  0.20147065041E+02  0.39157176099E+01  0.20541519400E+02  0.00000000000E+00 0.  1.
</event>
<event>
 7    1  0.1381607E-011  0.5052887E+02  0.7816164E-02  0.1300439E+00
        -11   -1    0    0    0    0  0.00000000000E+00  0.00000000000E+00  0.45593999997E+02  0.45594000000E+02  0.51100000000E-03 0. -1.
         11   -1    0    0    0    0 -0.00000000000E+00 -0.00000000000E+00 -0.45593999997E+02  0.45594000000E+02  0.51100000000E-03 0.  1.
    9900012    2    1    2    0    0  0.26157222426E+02  0.20727175397E+02 -0.23223882147E+02  0.50528870804E+02  0.30000033296E+02 0.  0.
         12    1    1    2    0    0 -0.26157222426E+02 -0.20727175397E+02  0.23223882147E+02  0.40659129196E+02  0.00000000000E+00 0. -1.
         11    1    3    3    0    0  0.54110245258E+01  0.14802893160E+02 -0.46721961666E+01  0.16438803168E+02  0.51100000000E-03 0. -1.
        -11    1    3    3    0    0  0.66662951124E+01  0.41191029870E+01  0.29096096102E+01  0.83589669391E+01  0.51100000000E-03 0.  1.
        -12    1    3    3    0    0  0.14079902788E+02  0.18051792505E+01 -0.21461295591E+02  0.25731100697E+02  0.00000000000E+00 0.  1.
</event>
<event>
 7    1  0.1381607E-011  0.5052886E+02  0.7816164E-02  0.1300439E+00
        -11   -1    0    0    0    0  0.00000000000E+00  0.00000000000E+00  0.45593999997E+02  0.45594000000E+02  0.51100000000E-03 0. -1.
         11   -1    0    0    0    0 -0.00000000000E+00 -0.00000000000E+00 -0.45593999997E+02  0.45594000000E+02  0.51100000000E-03 0.  1.
    9900012    2    1    2    0    0  0.19836013377E+02 -0.41800502152E+01 -0.35245221984E+02  0.50528856881E+02  0.29999990975E+02 0.  0.
         12    1    1    2    0    0 -0.19836013377E+02  0.41800502152E+01  0.35245221984E+02  0.40659143119E+02  0.00000000000E+00 0. -1.
         11    1    3    3    0    0  0.62711420641E+01 -0.42101121446E+01  0.32350185393E+01  0.82169101412E+01  0.51100000000E-03 0. -1.
        -11    1    3    3    0    0  0.29375470885E+01 -0.45843000911E+01 -0.77602290576E+01  0.94797756044E+01  0.51100000000E-03 0.  1.
        -12    1    3    3    0    0  0.10627324224E+02  0.46143620205E+01 -0.30720011465E+02  0.32832171135E+02  0.00000000000E+00 0.  1.
</event>
<event>
 7    1  0.1381607E-011  0.5052887E+02  0.7816164E-02  0.1300439E+00
        -11   -1    0    0    0    0  0.00000000000E+00  0.00000000000E+00  0.45593999997E+02  0.45594000000E+02  0.51100000000E-03 0.  1.
         11   -1    0    0    0    0 -0.00000000000E+00 -0.00000000000E+00 -0.45593999997E+02  0.45594000000E+02  0.51100000000E-03 0. -1.
    9900012    2    1    2    0    0  0.84080781317E+00  0.28458564388E+02  0.29027018199E+02  0.50528872731E+02  0.30000039152E+02 0.  0.
         12    1    1    2    0    0 -0.84080781317E+00 -0.28458564388E+02 -0.29027018199E+02  0.40659127269E+02  0.00000000000E+00 0. -1.
         11    1    3    3    0    0  0.59953938756E+01  0.31456165862E+01 -0.32959749433E+01  0.75301462481E+01  0.51100000000E-03 0. -1.
        -11    1    3    3    0    0 -0.50355479391E+01  0.34567128807E+01  0.43455534906E+01  0.74959617387E+01  0.51100000000E-03 0.  1.
        -12    1    3    3    0    0 -0.11903812330E+00  0.21856234921E+02  0.27977439652E+02  0.35502764744E+02  0.00000000000E+00 0.  1.
</event>
<event>
 7    1  0.1381607E-011  0.5052886E+02  0.7816164E-02  0.1300439E+00
        -11   -1    0    0    0    0  0.00000000000E+00  0.00000000000E+00  0.45593999997E+02  0.45594000000E+02  0.51100000000E-03 0. -1.
         11   -1    0    0    0    0 -0.00000000000E+00 -0.00000000000E+00 -0.45593999997E+02  0.45594000000E+02  0.51100000000E-03 0.  1.
    9900012    2    1    2    0    0 -0.10353594070E+02 -0.29501608447E+02 -0.25992771740E+02  0.50528855963E+02  0.29999988185E+02 0.  0.
         12    1    1    2    0    0  0.10353594070E+02  0.29501608447E+02  0.25992771740E+02  0.40659144037E+02  0.00000000000E+00 0. -1.
         11    1    3    3    0    0 -0.13990031873E+02 -0.19089488635E+02 -0.13596415036E+02  0.27294542865E+02  0.51100000000E-03 0. -1.
        -11    1    3    3    0    0  0.18033050548E+01 -0.14695331194E+02 -0.10735510408E+02  0.18288134185E+02  0.51100000000E-03 0.  1.
         12    1    3    3    0    0  0.18331327486E+01  0.42832113815E+01 -0.16608462965E+01  0.49461789124E+01  0.00000000000E+00 0. -1.
</event>
<event>
 7    1  0.1381607E-011  0.5052886E+02  0.7816164E-02  0.1300439E+00
        -11   -1    0    0    0    0  0.00000000000E+00  0.00000000000E+00  0.45593999997E+02  0.45594000000E+02  0.51100000000E-03 0.  1.
         11   -1    0    0    0    0 -0.00000000000E+00 -0.00000000000E+00 -0.45593999997E+02  0.45594000000E+02  0.51100000000E-03 0. -1.
    9900012    2    1    2    0    0  0.20573342313E+02  0.21106480765E+02  0.28007499337E+02  0.50528856339E+02  0.29999989327E+02 0.  0.
         12    1    1    2    0    0 -0.20573342313E+02 -0.21106480765E+02 -0.28007499337E+02  0.40659143661E+02  0.00000000000E+00 0. -1.
         11    1    3    3    0    0  0.17948913529E+02  0.56612136737E+01  0.45564633406E+01  0.19364250452E+02  0.51100000000E-03 0.  1.
        -11    1    3    3    0    0  0.63886892253E+01  0.10794813565E+02  0.87535680016E+01  0.15296022455E+02  0.51100000000E-03 0. -1.
         12    1    3    3    0    0 -0.37642604420E+01  0.46504535264E+01  0.14697467994E+02  0.15868583432E+02  0.00000000000E+00 0. -1.
</event>
<event>
 7    1  0.1381607E-011  0.5052887E+02  0.7816164E-02  0.1300439E+00
        -11   -1    0    0    0    0  0.00000000000E+00  0.00000000000E+00  0.45593999997E+02  0.45594000000E+02  0.51100000000E-03 0.  1.
         11   -1    0    0    0    0 -0.00000000000E+00 -0.00000000000E+00 -0.45593999997E+02  0.45594000000E+02  0.51100000000E-03 0. -1.
    9900012    2    1    2    0    0 -0.32732281608E+02 -0.14607784932E+02  0.19193112744E+02  0.50528865519E+02  0.30000017232E+02 0.  0.
         12    1    1    2    0    0  0.32732281608E+02  0.14607784932E+02 -0.19193112744E+02  0.40659134481E+02  0.00000000000E+00 0. -1.
         11    1    3    3    0    0 -0.23477548274E+01  0.15721096445E+01  0.10020941962E+02  0.10411664590E+02  0.51100000000E-03 0. -1.
        -11    1    3    3    0    0 -0.21801378251E+02 -0.11243377953E+02  0.14878161132E+02  0.28689254441E+02  0.51100000000E-03 0.  1.
        -12    1    3    3    0    0 -0.85831485299E+01 -0.49365166238E+01 -0.57059903499E+01  0.11427946488E+02  0.00000000000E+00 0.  1.
</event>
<event>
 7    1  0.1381607E-011  0.5052887E+02  0.7816164E-02  0.1300439E+00
        -11   -1    0    0    0    0  0.00000000000E+00  0.00000000000E+00  0.45593999997E+02  0.45594000000E+02  0.51100000000E-03 0.  1.
         11   -1    0    0    0    0 -0.00000000000E+00 -0.00000000000E+00 -0.45593999997E+02  0.45594000000E+02  0.51100000000E-03 0. -1.
    9900012    2    1    2    0    0 -0.21851482631E+02 -0.33672625635E+02  0.64677529419E+01  0.50528870171E+02  0.30000031373E+02 0.  0.
         12    1    1    2    0    0  0.21851482631E+02  0.33672625635E+02 -0.64677529419E+01  0.40659129829E+02  0.00000000000E+00 0. -1.
         11    1    3    3    0    0 -0.96862991418E+01 -0.84632269114E+01 -0.71050667784E+01  0.14694644433E+02  0.51100000000E-03 0. -1.
        -11    1    3    3    0    0 -0.13782484463E+02 -0.87091643835E+01  0.90595391894E+01  0.18651586335E+02  0.51100000000E-03 0.  1.
         12    1    3    3    0    0  0.16173009740E+01 -0.16500234340E+02  0.45132805310E+01  0.17182639403E+02  0.00000000000E+00 0. -1.
</event>
<event>
 7    1  0.1381607E-011  0.5052889E+02  0.7816164E-02  0.1300439E+00
        -11   -1    0    0    0    0  0.00000000000E+00  0.00000000000E+00  0.45593999997E+02  0.45594000000E+02  0.51100000000E-03 0.  1.
         11   -1    0    0    0    0 -0.00000000000E+00 -0.00000000000E+00 -0.45593999997E+02  0.45594000000E+02  0.51100000000E-03 0. -1.
    9900012    2    1    2    0    0  0.31573503160E+02 -0.54798696561E+01  0.25024956785E+02  0.50528886196E+02  0.30000080080E+02 0.  0.
         12    1    1    2    0    0 -0.31573503160E+02  0.54798696561E+01 -0.25024956785E+02  0.40659113804E+02  0.00000000000E+00 0. -1.
         11    1    3    3    0    0  0.26789886992E+01 -0.48190087415E+01  0.11494890187E+00  0.55148018289E+01  0.51100000000E-03 0. -1.
        -11    1    3    3    0    0  0.68758555515E+01  0.93598620063E+01  0.21748818122E+01  0.11815858729E+02  0.51100000000E-03 0.  1.
        -12    1    3    3    0    0  0.22018658909E+02 -0.10020722921E+02  0.22735126071E+02  0.33198225638E+02  0.00000000000E+00 0.  1.
</event>
<event>
 7    1  0.1381607E-011  0.5052886E+02  0.7816164E-02  0.1300439E+00
        -11   -1    0    0    0    0  0.00000000000E+00  0.00000000000E+00  0.45593999997E+02  0.45594000000E+02  0.51100000000E-03 0.  1.
         11   -1    0    0    0    0 -0.00000000000E+00 -0.00000000000E+00 -0.45593999997E+02  0.45594000000E+02  0.51100000000E-03 0. -1.
    9900012    2    1    2    0    0 -0.28070378854E+02 -0.26226221771E+02  0.13319350173E+02  0.50528856300E+02  0.29999989210E+02 0.  0.
         12    1    1    2    0    0  0.28070378854E+02  0.26226221771E+02 -0.13319350173E+02  0.40659143700E+02  0.00000000000E+00 0. -1.
         11    1    3    3    0    0 -0.15559887513E+02 -0.82276158969E+01  0.12530740649E+02  0.21606092294E+02  0.51100000000E-03 0. -1.
        -11    1    3    3    0    0 -0.12857021228E+02 -0.21216552543E+01  0.42889840867E+00  0.13037958812E+02  0.51100000000E-03 0.  1.
         12    1    3    3    0    0  0.34652988716E+00 -0.15876950620E+02  0.35971111512E+00  0.15884805194E+02  0.00000000000E+00 0. -1.
</event>
<event>
 7    1  0.1381607E-011  0.5052886E+02  0.7816164E-02  0.1300439E+00
        -11   -1    0    0    0    0  0.00000000000E+00  0.00000000000E+00  0.45593999997E+02  0.45594000000E+02  0.51100000000E-03 0.  1.
         11   -1    0    0    0    0 -0.00000000000E+00 -0.00000000000E+00 -0.45593999997E+02  0.45594000000E+02  0.51100000000E-03 0. -1.
    9900012    2    1    2    0    0 -0.24133587091E+02  0.35845872472E+01  0.32525170192E+02  0.50528856039E+02  0.29999988417E+02 0.  0.
         12    1    1    2    0    0  0.24133587091E+02 -0.35845872472E+01 -0.32525170192E+02  0.40659143961E+02  0.00000000000E+00 0. -1.
         11    1    3    3    0    0 -0.13201383373E+02 -0.38787856061E+01  0.12893912262E+02  0.18856682487E+02  0.51100000000E-03 0. -1.
        -11    1    3    3    0    0  0.57748126770E+01  0.30269890888E+01  0.98448579316E+01  0.11808147711E+02  0.51100000000E-03 0.  1.
         12    1    3    3    0    0 -0.16707016395E+02  0.44363837645E+01  0.97863999987E+01  0.19864025842E+02  0.00000000000E+00 0. -1.
</event>
<event>
 7    1  0.1381607E-011  0.5052886E+02  0.7816164E-02  0.1300439E+00
        -11   -1    0    0    0    0  0.00000000000E+00  0.00000000000E+00  0.45593999997E+02  0.45594000000E+02  0.51100000000E-03 0. -1.
         11   -1    0    0    0    0 -0.00000000000E+00 -0.00000000000E+00 -0.45593999997E+02  0.45594000000E+02  0.51100000000E-03 0.  1.
    9900012    2    1    2    0    0  0.19238715290E+02  0.35639908105E+02  0.35825397321E+01  0.50528858264E+02  0.29999995180E+02 0.  0.
         12    1    1    2    0    0 -0.19238715290E+02 -0.35639908105E+02 -0.35825397321E+01  0.40659141736E+02  0.00000000000E+00 0. -1.
         11    1    3    3    0    0  0.39038277690E+01 -0.30778175128E+01  0.54635333418E+00  0.50011332835E+01  0.51100000000E-03 0. -1.
        -11    1    3    3    0    0  0.51086366533E+01  0.26457976011E+01 -0.44758184953E+01  0.72891264816E+01  0.51100000000E-03 0.  1.
        -12    1    3    3    0    0  0.10226250868E+02  0.36071928017E+02  0.75120048932E+01  0.38238598499E+02  0.00000000000E+00 0.  1.
</event>
<event>
 7    1  0.1381607E-011  0.5052886E+02  0.7816164E-02  0.1300439E+00
        -11   -1    0    0    0    0  0.00000000000E+00  0.00000000000E+00  0.45593999997E+02  0.45594000000E+02  0.51100000000E-03 0.  1.
         11   -1    0    0    0    0 -0.00000000000E+00 -0.00000000000E+00 -0.45593999997E+02  0.45594000000E+02  0.51100000000E-03 0. -1.
    9900012    2    1    2    0    0  0.70659922547E+01 -0.40040258056E+02  0.12188375314E+00  0.50528863667E+02  0.30000011601E+02 0.  0.
         12    1    1    2    0    0 -0.70659922547E+01  0.40040258056E+02 -0.12188375314E+00  0.40659136333E+02  0.00000000000E+00 0. -1.
         11    1    3    3    0    0  0.10998897245E+01 -0.98853468586E+01 -0.56669340147E+01  0.11447444313E+02  0.51100000000E-03 0. -1.
        -11    1    3    3    0    0  0.13091195817E+02 -0.27105111658E+02  0.13087699091E+01  0.30129377106E+02  0.51100000000E-03 0.  1.
         12    1    3    3    0    0 -0.71250932865E+01 -0.30497995396E+01  0.44800478587E+01  0.89520422468E+01  0.00000000000E+00 0. -1.
</event>
<event>
 7    1  0.1381607E-011  0.5052886E+02  0.7816164E-02  0.1300439E+00
        -11   -1    0    0    0    0  0.00000000000E+00  0.00000000000E+00  0.45593999997E+02  0.45594000000E+02  0.51100000000E-03 0.  1.
         11   -1    0    0    0    0 -0.00000000000E+00 -0.00000000000E+00 -0.45593999997E+02  0.45594000000E+02  0.51100000000E-03 0. -1.
    9900012    2    1    2    0    0  0.77776439783E+01 -0.10582807415E+02  0.38479582683E+02  0.50528857828E+02  0.29999993855E+02 0.  0.
         12    1    1    2    0    0 -0.77776439783E+01  0.10582807415E+02 -0.38479582683E+02  0.40659142172E+02  0.00000000000E+00 0. -1.
         11    1    3    3    0    0  0.38511328954E+01  0.30185084067E+01  0.13599837738E+01  0.50785995811E+01  0.51100000000E-03 0. -1.
        -11    1    3    3    0    0  0.11072800041E+02 -0.14551863074E+02  0.21345641998E+02  0.28106939574E+02  0.51100000000E-03 0.  1.
         12    1    3    3    0    0 -0.71462889577E+01  0.95054725184E+00  0.15773956912E+02  0.17343318673E+02  0.00000000000E+00 0. -1.
</event>
<event>
 7    1  0.1381607E-011  0.5052886E+02  0.7816164E-02  0.1300439E+00
        -11   -1    0    0    0    0  0.00000000000E+00  0.00000000000E+00  0.45593999997E+02  0.45594000000E+02  0.51100000000E-03 0.  1.
         11   -1    0    0    0    0 -0.00000000000E+00 -0.00000000000E+00 -0.45593999997E+02  0.45594000000E+02  0.51100000000E-03 0. -1.
    9900012    2    1    2    0    0 -0.67741646040E+01 -0.11001861069E+02  0.38551724989E+02  0.50528858929E+02  0.29999997199E+02 0.  0.
         12    1    1    2    0    0  0.67741646040E+01  0.11001861069E+02 -0.38551724989E+02  0.40659141071E+02  0.00000000000E+00 0. -1.
         11    1    3    3    0    0 -0.26183586000E+01  0.29849442046E+01 -0.27369974264E+01  0.48225355194E+01  0.51100000000E-03 0. -1.
        -11    1    3    3    0    0  0.40780009741E+01 -0.29095156027E+01  0.17506285846E+02  0.18208937843E+02  0.51100000000E-03 0.  1.
        -12    1    3    3    0    0 -0.82338069781E+01 -0.11077289671E+02  0.23782436569E+02  0.27497385566E+02  0.00000000000E+00 0.  1.
</event>
<event>
 7    1  0.1381607E-011  0.5052885E+02  0.7816164E-02  0.1300439E+00
        -11   -1    0    0    0    0  0.00000000000E+00  0.00000000000E+00  0.45593999997E+02  0.45594000000E+02  0.51100000000E-03 0. -1.
         11   -1    0    0    0    0 -0.00000000000E+00 -0.00000000000E+00 -0.45593999997E+02  0.45594000000E+02  0.51100000000E-03 0.  1.
    9900012    2    1    2    0    0 -0.32287136262E+02 -0.38201844561E+01 -0.24415428228E+02  0.50528854499E+02  0.29999983736E+02 0.  0.
         12    1    1    2    0    0  0.32287136262E+02  0.38201844561E+01  0.24415428228E+02  0.40659145501E+02  0.00000000000E+00 0. -1.
         11    1    3    3    0    0 -0.10479022248E+02 -0.54952918392E+01 -0.15045801719E+02  0.19141167397E+02  0.51100000000E-03 0. -1.
        -11    1    3    3    0    0 -0.64290974857E+01 -0.65170523839E+01 -0.10494906746E+02  0.13926533457E+02  0.51100000000E-03 0.  1.
         12    1    3    3    0    0 -0.15379016529E+02  0.81921597669E+01  0.11252802369E+01  0.17461153646E+02  0.00000000000E+00 0. -1.
</event>
<event>
 7    1  0.1381607E-011  0.5052890E+02  0.7816164E-02  0.1300439E+00
        -11   -1    0    0    0    0  0.00000000000E+00  0.00000000000E+00  0.45593999997E+02  0.45594000000E+02  0.51100000000E-03 0.  1.
         11   -1    0    0    0    0 -0.00000000000E+00 -0.00000000000E+00 -0.45593999997E+02  0.45594000000E+02  0.51100000000E-03 0. -1.
    9900012    2    1    2    0    0  0.11597533578E+02 -0.22905274483E+02  0.31527892293E+02  0.50528900444E+02  0.30000123390E+02 0.  0.
         12    1    1    2    0    0 -0.11597533578E+02  0.22905274483E+02 -0.31527892293E+02  0.40659099556E+02  0.00000000000E+00 0. -1.
         11    1    3    3    0    0  0.11013331038E+02 -0.14529128583E+02  0.23073350594E+02  0.29406947237E+02  0.51100000000E-03 0. -1.
        -11    1    3    3    0    0 -0.10300917470E+01 -0.12824838536E+02  0.98323025489E+01  0.16192953596E+02  0.51100000000E-03 0.  1.
        -12    1    3    3    0    0  0.16142942867E+01  0.44486926355E+01 -0.13777608496E+01  0.49289996112E+01  0.00000000000E+00 0.  1.
</event>
<event>
 7    1  0.1381607E-011  0.5052886E+02  0.7816164E-02  0.1300439E+00
        -11   -1    0    0    0    0  0.00000000000E+00  0.00000000000E+00  0.45593999997E+02  0.45594000000E+02  0.51100000000E-03 0.  1.
         11   -1    0    0    0    0 -0.00000000000E+00 -0.00000000000E+00 -0.45593999997E+02  0.45594000000E+02  0.51100000000E-03 0. -1.
    9900012    2    1    2    0    0  0.28491108933E+02 -0.69313770701E+01  0.28166969125E+02  0.50528862946E+02  0.30000009411E+02 0.  0.
         12    1    1    2    0    0 -0.28491108933E+02  0.69313770701E+01 -0.28166969125E+02  0.40659137054E+02  0.00000000000E+00 0. -1.
         11    1    3    3    0    0  0.16670002812E+01 -0.75072702312E+01  0.51986872886E+01  0.92824752112E+01  0.51100000000E-03 0. -1.
        -11    1    3    3    0    0  0.80764145166E+01  0.10339279097E+02  0.90236606916E+01  0.15923429788E+02  0.51100000000E-03 0.  1.
         12    1    3    3    0    0  0.18747694135E+02 -0.97633859355E+01  0.13944621145E+02  0.25322957947E+02  0.00000000000E+00 0. -1.
</event>
<event>
 7    1  0.1381607E-011  0.5052888E+02  0.7816164E-02  0.1300439E+00
        -11   -1    0    0    0    0  0.00000000000E+00  0.00000000000E+00  0.45593999997E+02  0.45594000000E+02  0.51100000000E-03 0.  1.
         11   -1    0    0    0    0 -0.00000000000E+00 -0.00000000000E+00 -0.45593999997E+02  0.45594000000E+02  0.51100000000E-03 0. -1.
    9900012    2    1    2    0    0  0.16807543109E+02 -0.18339457894E+02  0.32161079526E+02  0.50528877316E+02  0.30000053089E+02 0.  0.
         12    1    1    2    0    0 -0.16807543109E+02  0.18339457894E+02 -0.32161079526E+02  0.40659122684E+02  0.00000000000E+00 0. -1.
         11    1    3    3    0    0 -0.41209190656E+01 -0.23961682932E+01  0.14135053222E+01  0.49720814546E+01  0.51100000000E-03 0. -1.
        -11    1    3    3    0    0  0.13907614288E+02 -0.20811667333E+02  0.21924154389E+02  0.33274852041E+02  0.51100000000E-03 0.  1.
         12    1    3    3    0    0  0.70208478866E+01  0.48683777327E+01  0.88234198139E+01  0.12281943820E+02  0.00000000000E+00 0. -1.
</event>
<event>
 7    1  0.1381607E-011  0.5052886E+02  0.7816164E-02  0.1300439E+00
        -11   -1    0    0    0    0  0.00000000000E+00  0.00000000000E+00  0.45593999997E+02  0.45594000000E+02  0.51100000000E-03 0. -1.
         11   -1    0    0    0    0 -0.00000000000E+00 -0.00000000000E+00 -0.45593999997E+02  0.45594000000E+02  0.51100000000E-03 0.  1.
    9900012    2    1    2    0    0 -0.40306131932E+01 -0.40096561393E+02 -0.54023555386E+01  0.50528861745E+02  0.30000005760E+02 0.  0.
         12    1    1    2    0    0  0.40306131932E+01  0.40096561393E+02  0.54023555386E+01  0.40659138255E+02  0.00000000000E+00 0. -1.
         11    1    3    3    0    0 -0.24870930008E+01 -0.12707740125E+02  0.81282127165E+01  0.15288562159E+02  0.51100000000E-03 0. -1.
        -11    1    3    3    0    0 -0.18662673030E+01 -0.20804957391E+02 -0.79933585088E+00  0.20903783001E+02  0.51100000000E-03 0.  1.
        -12    1    3    3    0    0  0.32274711064E+00 -0.65838638780E+01 -0.12731232404E+02  0.14336516585E+02  0.00000000000E+00 0.  1.
</event>
<event>
 7    1  0.1381607E-011  0.5052885E+02  0.7816164E-02  0.1300439E+00
        -11   -1    0    0    0    0  0.00000000000E+00  0.00000000000E+00  0.45593999997E+02  0.45594000000E+02  0.51100000000E-03 0. -1.
         11   -1    0    0    0    0 -0.00000000000E+00 -0.00000000000E+00 -0.45593999997E+02  0.45594000000E+02  0.51100000000E-03 0.  1.
    9900012    2    1    2    0    0  0.17780419046E+02  0.70658815242E+01 -0.35876129179E+02  0.50528848164E+02  0.29999964479E+02 0.  0.
         12    1    1    2    0    0 -0.17780419046E+02 -0.70658815242E+01  0.35876129179E+02  0.40659151836E+02  0.00000000000E+00 0. -1.
         11    1    3    3    0    0  0.43175254780E+01  0.14823390891E+01 -0.42876558074E+01  0.62627747854E+01  0.51100000000E-03 0. -1.
        -11    1    3    3    0    0 -0.15617172774E+01  0.40757025241E+01 -0.28526743634E+02  0.28858714707E+02  0.51100000000E-03 0.  1.
        -12    1    3    3    0    0  0.15024610845E+02  0.15078399110E+01 -0.30617297374E+01  0.15407358671E+02  0.00000000000E+00 0.  1.
</event>
<event>
 7    1  0.1381607E-011  0.5052885E+02  0.7816164E-02  0.1300439E+00
        -11   -1    0    0    0    0  0.00000000000E+00  0.00000000000E+00  0.45593999997E+02  0.45594000000E+02  0.51100000000E-03 0.  1.
         11   -1    0    0    0    0 -0.00000000000E+00 -0.00000000000E+00 -0.45593999997E+02  0.45594000000E+02  0.51100000000E-03 0. -1.
    9900012    2    1    2    0    0  0.15903782815E+02  0.19036009533E+02  0.32215934686E+02  0.50528850790E+02  0.29999972461E+02 0.  0.
         12    1    1    2    0    0 -0.15903782815E+02 -0.19036009533E+02 -0.32215934686E+02  0.40659149210E+02  0.00000000000E+00 0. -1.
         11    1    3    3    0    0  0.74267417300E+01  0.99361798242E+01  0.17102826563E+02  0.21127963436E+02  0.51100000000E-03 0. -1.
        -11    1    3    3    0    0 -0.16795470061E+01  0.29176050279E+01  0.17027923956E+02  0.17357519746E+02  0.51100000000E-03 0.  1.
         12    1    3    3    0    0  0.10156588091E+02  0.61822246812E+01 -0.19148158327E+01  0.12043367608E+02  0.00000000000E+00 0. -1.
</event>
<event>
 7    1  0.1381607E-011  0.5052886E+02  0.7816164E-02  0.1300439E+00
        -11   -1    0    0    0    0  0.00000000000E+00  0.00000000000E+00  0.45593999997E+02  0.45594000000E+02  0.51100000000E-03 0.  1.
         11   -1    0    0    0    0 -0.00000000000E+00 -0.00000000000E+00 -0.45593999997E+02  0.45594000000E+02  0.51100000000E-03 0. -1.
    9900012    2    1    2    0    0  0.28430635540E+02  0.11403664366E+02  0.26736133790E+02  0.50528862672E+02  0.30000008579E+02 0.  0.
         12    1    1    2    0    0 -0.28430635540E+02 -0.11403664366E+02 -0.26736133790E+02  0.40659137328E+02  0.00000000000E+00 0. -1.
         11    1    3    3    0    0 -0.29307346859E+01  0.21119118411E+01  0.56266678731E+01  0.66864616232E+01  0.51100000000E-03 0. -1.
        -11    1    3    3    0    0  0.66308227929E+01 -0.62937679251E+01  0.40748294584E+01  0.10009173841E+02  0.51100000000E-03 0.  1.
        -12    1    3    3    0    0  0.24730547433E+02  0.15585520450E+02  0.17034636458E+02  0.33833227208E+02  0.00000000000E+00 0.  1.
</event>
<event>
 7    1  0.1381607E-011  0.5052886E+02  0.7816164E-02  0.1300439E+00
        -11   -1    0    0    0    0  0.00000000000E+00  0.00000000000E+00  0.45593999997E+02  0.45594000000E+02  0.51100000000E-03 0. -1.
         11   -1    0    0    0    0 -0.00000000000E+00 -0.00000000000E+00 -0.45593999997E+02  0.45594000000E+02  0.51100000000E-03 0.  1.
    9900012    2    1    2    0    0  0.20057188456E+01  0.19873298764E+02  0.35414609292E+02  0.50528862489E+02  0.30000008021E+02 0.  0.
         12    1    1    2    0    0 -0.20057188456E+01 -0.19873298764E+02 -0.35414609292E+02  0.40659137511E+02  0.00000000000E+00 0. -1.
         11    1    3    3    0    0  0.37979118781E+01 -0.15608056971E+00 -0.25083842090E+00  0.38093852461E+01  0.51100000000E-03 0.  1.
        -11    1    3    3    0    0  0.93871819712E+00 -0.46562252461E+01  0.96304586823E+01  0.10738126470E+02  0.51100000000E-03 0. -1.
         12    1    3    3    0    0 -0.27309112297E+01  0.24685604580E+02  0.26034989030E+02  0.35981350773E+02  0.00000000000E+00 0. -1.
</event>
<event>
 7    1  0.1381607E-011  0.5052883E+02  0.7816164E-02  0.1300439E+00
        -11   -1    0    0    0    0  0.00000000000E+00  0.00000000000E+00  0.45593999997E+02  0.45594000000E+02  0.51100000000E-03 0.  1.
         11   -1    0    0    0    0 -0.00000000000E+00 -0.00000000000E+00 -0.45593999997E+02  0.45594000000E+02  0.51100000000E-03 0. -1.
    9900012    2    1    2    0    0 -0.56696550431E+01 -0.35129935985E+02  0.19670037702E+02  0.50528834074E+02  0.29999921651E+02 0.  0.
         12    1    1    2    0    0  0.56696550431E+01  0.35129935985E+02 -0.19670037702E+02  0.40659165926E+02  0.00000000000E+00 0. -1.
         11    1    3    3    0    0 -0.38881491377E+01 -0.27355724941E+02  0.23917433833E+02  0.36544452824E+02  0.51100000000E-03 0.  1.
        -11    1    3    3    0    0 -0.42115892347E+01  0.72045934178E+00 -0.23127088437E+00  0.42790223215E+01  0.51100000000E-03 0. -1.
        -12    1    3    3    0    0  0.24300833292E+01 -0.84946703854E+01 -0.40161252461E+01  0.97053589287E+01  0.00000000000E+00 0.  1.
</event>
<event>
 7    1  0.1381607E-011  0.5052886E+02  0.7816164E-02  0.1300439E+00
        -11   -1    0    0    0    0  0.00000000000E+00  0.00000000000E+00  0.45593999997E+02  0.45594000000E+02  0.51100000000E-03 0.  1.
         11   -1    0    0    0    0 -0.00000000000E+00 -0.00000000000E+00 -0.45593999997E+02  0.45594000000E+02  0.51100000000E-03 0. -1.
    9900012    2    1    2    0    0  0.58742306724E+01  0.36981032072E+02 -0.15844941876E+02  0.50528862009E+02  0.30000006563E+02 0.  0.
         12    1    1    2    0    0 -0.58742306724E+01 -0.36981032072E+02  0.15844941876E+02  0.40659137991E+02  0.00000000000E+00 0. -1.
         11    1    3    3    0    0  0.25902261793E+00  0.21785141665E+02 -0.15830865300E+02  0.26930944776E+02  0.51100000000E-03 0. -1.
        -11    1    3    3    0    0  0.31420915398E+01  0.18067377383E+02  0.32160325863E+01  0.18618424493E+02  0.51100000000E-03 0.  1.
         12    1    3    3    0    0  0.24731165146E+01 -0.28714869766E+01 -0.32301091622E+01  0.49794927403E+01  0.00000000000E+00 0. -1.
</event>
<event>
 7    1  0.1381607E-011  0.5052886E+02  0.7816164E-02  0.1300439E+00
        -11   -1    0    0    0    0  0.00000000000E+00  0.00000000000E+00  0.45593999997E+02  0.45594000000E+02  0.51100000000E-03 0.  1.
         11   -1    0    0    0    0 -0.00000000000E+00 -0.00000000000E+00 -0.45593999997E+02  0.45594000000E+02  0.51100000000E-03 0. -1.
    9900012    2    1    2    0    0  0.98593061954E+01  0.86522009366E+01  0.38485055598E+02  0.50528855837E+02  0.29999987802E+02 0.  0.
         12    1    1    2    0    0 -0.98593061954E+01 -0.86522009366E+01 -0.38485055598E+02  0.40659144163E+02  0.00000000000E+00 0. -1.
         11    1    3    3    0    0 -0.69373544877E+01  0.39248684550E+01  0.18774722841E+02  0.20396609956E+02  0.51100000000E-03 0. -1.
        -11    1    3    3    0    0  0.83588297812E+01  0.24119411361E+01  0.19530615838E+02  0.21380655992E+02  0.51100000000E-03 0.  1.
         12    1    3    3    0    0  0.84378309020E+01  0.23153913456E+01  0.17971691850E+00  0.87515898890E+01  0.00000000000E+00 0. -1.
</event>
<event>
 7    1  0.1381607E-011  0.5052886E+02  0.7816164E-02  0.1300439E+00
        -11   -1    0    0    0    0  0.00000000000E+00  0.00000000000E+00  0.45593999997E+02  0.45594000000E+02  0.51100000000E-03 0.  1.
         11   -1    0    0    0    0 -0.00000000000E+00 -0.00000000000E+00 -0.45593999997E+02  0.45594000000E+02  0.51100000000E-03 0. -1.
    9900012    2    1    2    0    0 -0.15367636914E+02  0.37457829591E+02  0.37298934267E+01  0.50528863672E+02  0.30000011618E+02 0.  0.
         12    1    1    2    0    0  0.15367636914E+02 -0.37457829591E+02 -0.37298934267E+01  0.40659136328E+02  0.00000000000E+00 0. -1.
         11    1    3    3    0    0 -0.76971605566E-01  0.14461138689E+02 -0.81200050328E+01  0.16585081815E+02  0.51100000000E-03 0. -1.
        -11    1    3    3    0    0 -0.15784134777E+02  0.20060153322E+02  0.43750775496E+01  0.25897682634E+02  0.51100000000E-03 0.  1.
        -12    1    3    3    0    0  0.49346946911E+00  0.29365375789E+01  0.74748209100E+01  0.80460992230E+01  0.00000000000E+00 0.  1.
</event>
<event>
 7    1  0.1381607E-011  0.5052886E+02  0.7816164E-02  0.1300439E+00
        -11   -1    0    0    0    0  0.00000000000E+00  0.00000000000E+00  0.45593999997E+02  0.45594000000E+02  0.51100000000E-03 0.  1.
         11   -1    0    0    0    0 -0.00000000000E+00 -0.00000000000E+00 -0.45593999997E+02  0.45594000000E+02  0.51100000000E-03 0. -1.
    9900012    2    1    2    0    0 -0.40086764231E+02 -0.31955001330E+01  0.60004874717E+01  0.50528859115E+02  0.29999997766E+02 0.  0.
         12    1    1    2    0    0  0.40086764231E+02  0.31955001330E+01 -0.60004874717E+01  0.40659140885E+02  0.00000000000E+00 0. -1.
         11    1    3    3    0    0 -0.89770849062E+01  0.39818230753E+01  0.98304233692E+01  0.13895329874E+02  0.51100000000E-03 0. -1.
        -11    1    3    3    0    0 -0.14966850649E+02 -0.72948883889E+01  0.60404900303E+01  0.17711847307E+02  0.51100000000E-03 0.  1.
         12    1    3    3    0    0 -0.16142828676E+02  0.11756518067E+00 -0.98704259278E+01  0.18921681934E+02  0.00000000000E+00 0. -1.
</event>
<event>
 7    1  0.1381607E-011  0.5052884E+02  0.7816164E-02  0.1300439E+00
        -11   -1    0    0    0    0  0.00000000000E+00  0.00000000000E+00  0.45593999997E+02  0.45594000000E+02  0.51100000000E-03 0.  1.
         11   -1    0    0    0    0 -0.00000000000E+00 -0.00000000000E+00 -0.45593999997E+02  0.45594000000E+02  0.51100000000E-03 0. -1.
    9900012    2    1    2    0    0  0.17759685248E+02  0.24085632449E+02  0.27525315398E+02  0.50528842380E+02  0.29999946898E+02 0.  0.
         12    1    1    2    0    0 -0.17759685248E+02 -0.24085632449E+02 -0.27525315398E+02  0.40659157620E+02  0.00000000000E+00 0. -1.
         11    1    3    3    0    0  0.15444683172E+01  0.91422761394E+01 -0.37503971313E+01  0.10001603586E+02  0.51100000000E-03 0. -1.
        -11    1    3    3    0    0  0.65185738124E+01  0.37729289214E+00  0.27994423245E+01  0.71042967325E+01  0.51100000000E-03 0.  1.
        -12    1    3    3    0    0  0.96966431186E+01  0.14566063418E+02  0.28476270205E+02  0.33422942061E+02  0.00000000000E+00 0.  1.
</event>
<event>
 7    1  0.1381607E-011  0.5052886E+02  0.7816164E-02  0.1300439E+00
        -11   -1    0    0    0    0  0.00000000000E+00  0.00000000000E+00  0.45593999997E+02  0.45594000000E+02  0.51100000000E-03 0.  1.
         11   -1    0    0    0    0 -0.00000000000E+00 -0.00000000000E+00 -0.45593999997E+02  0.45594000000E+02  0.51100000000E-03 0. -1.
    9900012    2    1    2    0    0  0.16146136482E+01  0.30267384910E+02  0.27100633367E+02  0.50528857173E+02  0.29999991863E+02 0.  0.
         12    1    1    2    0    0 -0.16146136482E+01 -0.30267384910E+02 -0.27100633367E+02  0.40659142827E+02  0.00000000000E+00 0. -1.
         11    1    3    3    0    0  0.57542875252E+01  0.65894598439E+01  0.24464151739E+01  0.90839283033E+01  0.51100000000E-03 0. -1.
        -11    1    3    3    0    0  0.55532064278E+01  0.19606697443E+02  0.23122727467E+02  0.30820791879E+02  0.51100000000E-03 0.  1.
         12    1    3    3    0    0 -0.96928803047E+01  0.40712276228E+01  0.15314907262E+01  0.10624136991E+02  0.00000000000E+00 0. -1.
</event>
<event>
 7    1  0.1381607E-011  0.5052885E+02  0.7816164E-02  0.1300439E+00
        -11   -1    0    0    0    0  0.00000000000E+00  0.00000000000E+00  0.45593999997E+02  0.45594000000E+02  0.51100000000E-03 0. -1.
         11   -1    0    0    0    0 -0.00000000000E+00 -0.00000000000E+00 -0.45593999997E+02  0.45594000000E+02  0.51100000000E-03 0.  1.
    9900012    2    1    2    0    0 -0.19121578499E+02  0.28519391325E+02 -0.21775581656E+02  0.50528850939E+02  0.29999972915E+02 0.  0.
         12    1    1    2    0    0  0.19121578499E+02 -0.28519391325E+02  0.21775581656E+02  0.40659149061E+02  0.00000000000E+00 0. -1.
         11    1    3    3    0    0 -0.91559585341E+01  0.72617243382E+01 -0.30337973809E+01  0.12073447886E+02  0.51100000000E-03 0.  1.
        -11    1    3    3    0    0 -0.63181683050E-01 -0.24824355586E+01  0.36077172362E+01  0.43797376799E+01  0.51100000000E-03 0. -1.
        -12    1    3    3    0    0 -0.99024382823E+01  0.23740102546E+02 -0.22349501512E+02  0.34075665373E+02  0.00000000000E+00 0.  1.
</event>
<event>
 7    1  0.1381607E-011  0.5052887E+02  0.7816164E-02  0.1300439E+00
        -11   -1    0    0    0    0  0.00000000000E+00  0.00000000000E+00  0.45593999997E+02  0.45594000000E+02  0.51100000000E-03 0.  1.
         11   -1    0    0    0    0 -0.00000000000E+00 -0.00000000000E+00 -0.45593999997E+02  0.45594000000E+02  0.51100000000E-03 0. -1.
    9900012    2    1    2    0    0 -0.34735449964E+02  0.12950193814E+02  0.16700485715E+02  0.50528865391E+02  0.30000016843E+02 0.  0.
         12    1    1    2    0    0  0.34735449964E+02 -0.12950193814E+02 -0.16700485715E+02  0.40659134609E+02  0.00000000000E+00 0. -1.
         11    1    3    3    0    0 -0.32495257069E+01  0.12459631864E+02  0.83568924106E+00  0.12903496436E+02  0.51100000000E-03 0. -1.
        -11    1    3    3    0    0 -0.11672259311E+02  0.31016888962E+01 -0.50515210437E-01  0.12077444410E+02  0.51100000000E-03 0.  1.
        -12    1    3    3    0    0 -0.19813664946E+02 -0.26111269462E+01  0.15915311684E+02  0.25547924544E+02  0.00000000000E+00 0.  1.
</event>
<event>
 7    1  0.1381607E-011  0.5052886E+02  0.7816164E-02  0.1300439E+00
        -11   -1    0    0    0    0  0.00000000000E+00  0.00000000000E+00  0.45593999997E+02  0.45594000000E+02  0.51100000000E-03 0. -1.
         11   -1    0    0    0    0 -0.00000000000E+00 -0.00000000000E+00 -0.45593999997E+02  0.45594000000E+02  0.51100000000E-03 0.  1.
    9900012    2    1    2    0    0 -0.31675575762E+02  0.24509661172E+02  0.70071200767E+01  0.50528864220E+02  0.30000013282E+02 0.  0.
         12    1    1    2    0    0  0.31675575762E+02 -0.24509661172E+02 -0.70071200767E+01  0.40659135780E+02  0.00000000000E+00 0. -1.
         11    1    3    3    0    0 -0.25040636233E+00 -0.14572635122E+01 -0.44128593717E+01  0.46539927359E+01  0.51100000000E-03 0. -1.
        -11    1    3    3    0    0 -0.33846467322E+01  0.77673614408E+01  0.89964993291E+01  0.12358185049E+02  0.51100000000E-03 0.  1.
         12    1    3    3    0    0 -0.28040522667E+02  0.18199563244E+02  0.24234801193E+01  0.33516686435E+02  0.00000000000E+00 0. -1.
</event>
<event>
 7    1  0.1381607E-011  0.5052886E+02  0.7816164E-02  0.1300439E+00
        -11   -1    0    0    0    0  0.00000000000E+00  0.00000000000E+00  0.45593999997E+02  0.45594000000E+02  0.51100000000E-03 0.  1.
         11   -1    0    0    0    0 -0.00000000000E+00 -0.00000000000E+00 -0.45593999997E+02  0.45594000000E+02  0.51100000000E-03 0. -1.
    9900012    2    1    2    0    0 -0.13585408104E+02  0.18284477326E+02  0.33679078884E+02  0.50528858606E+02  0.29999996218E+02 0.  0.
         12    1    1    2    0    0  0.13585408104E+02 -0.18284477326E+02 -0.33679078884E+02  0.40659141394E+02  0.00000000000E+00 0. -1.
         11    1    3    3    0    0 -0.60305056583E+00 -0.24943214430E+01  0.21819647723E+01  0.33684239600E+01  0.51100000000E-03 0. -1.
        -11    1    3    3    0    0 -0.80254640301E+01 -0.28636821574E+01  0.15101384462E+01  0.86538584912E+01  0.51100000000E-03 0.  1.
        -12    1    3    3    0    0 -0.49568935081E+01  0.23642480926E+02  0.29986975666E+02  0.38506576155E+02  0.00000000000E+00 0.  1.
</event>
<event>
 7    1  0.1381607E-011  0.5052886E+02  0.7816164E-02  0.1300439E+00
        -11   -1    0    0    0    0  0.00000000000E+00  0.00000000000E+00  0.45593999997E+02  0.45594000000E+02  0.51100000000E-03 0. -1.
         11   -1    0    0    0    0 -0.00000000000E+00 -0.00000000000E+00 -0.45593999997E+02  0.45594000000E+02  0.51100000000E-03 0.  1.
    9900012    2    1    2    0    0 -0.73388691517E+01 -0.23299120164E+02 -0.32503188648E+02  0.50528864825E+02  0.30000015123E+02 0.  0.
         12    1    1    2    0    0  0.73388691517E+01  0.23299120164E+02  0.32503188648E+02  0.40659135175E+02  0.00000000000E+00 0. -1.
         11    1    3    3    0    0  0.57024796745E+00 -0.37184645546E+01 -0.76289785928E+01  0.85060846468E+01  0.51100000000E-03 0. -1.
        -11    1    3    3    0    0 -0.90638212841E+01  0.35657871124E+01 -0.30951270100E+01  0.10219956236E+02  0.51100000000E-03 0.  1.
         12    1    3    3    0    0  0.11547041649E+01 -0.23146442722E+02 -0.21779083045E+02  0.31802823942E+02  0.00000000000E+00 0. -1.
</event>
<event>
 7    1  0.1381607E-011  0.5052883E+02  0.7816164E-02  0.1300439E+00
        -11   -1    0    0    0    0  0.00000000000E+00  0.00000000000E+00  0.45593999997E+02  0.45594000000E+02  0.51100000000E-03 0.  1.
         11   -1    0    0    0    0 -0.00000000000E+00 -0.00000000000E+00 -0.45593999997E+02  0.45594000000E+02  0.51100000000E-03 0. -1.
    9900012    2    1    2    0    0 -0.16422318173E+02  0.22447380034E+02  0.29657891934E+02  0.50528831802E+02  0.29999914746E+02 0.  0.
         12    1    1    2    0    0  0.16422318173E+02 -0.22447380034E+02 -0.29657891934E+02  0.40659168198E+02  0.00000000000E+00 0. -1.
         11    1    3    3    0    0 -0.15963805606E+02  0.12399181171E+02  0.21113165236E+02  0.29229241005E+02  0.51100000000E-03 0.  1.
        -11    1    3    3    0    0 -0.76457711945E+01  0.77865824756E+01  0.15567806806E+01  0.11023259507E+02  0.51100000000E-03 0. -1.
        -12    1    3    3    0    0  0.71872586279E+01  0.22616163880E+01  0.69879460166E+01  0.10276331291E+02  0.00000000000E+00 0.  1.
</event>
<event>
 7    1  0.1381607E-011  0.5052886E+02  0.7816164E-02  0.1300439E+00
        -11   -1    0    0    0    0  0.00000000000E+00  0.00000000000E+00  0.45593999997E+02  0.45594000000E+02  0.51100000000E-03 0.  1.
         11   -1    0    0    0    0 -0.00000000000E+00 -0.00000000000E+00 -0.45593999997E+02  0.45594000000E+02  0.51100000000E-03 0. -1.
    9900012    2    1    2    0    0  0.69571892779E+01  0.60397222908E+01  0.39601578193E+02  0.50528859289E+02  0.29999998295E+02 0.  0.
         12    1    1    2    0    0 -0.69571892779E+01 -0.60397222908E+01 -0.39601578193E+02  0.40659140711E+02  0.00000000000E+00 0. -1.
         11    1    3    3    0    0  0.38724282596E+01  0.12581783326E+01  0.78992194339E+01  0.88868656605E+01  0.51100000000E-03 0. -1.
        -11    1    3    3    0    0  0.10919687213E+02  0.51200365931E+01  0.31573691748E+02  0.33798703443E+02  0.51100000000E-03 0.  1.
         12    1    3    3    0    0 -0.78349261947E+01 -0.33849263484E+00  0.12866701099E+00  0.78432901858E+01  0.00000000000E+00 0. -1.
</event>
<event>
 7    1  0.1381607E-011  0.5052884E+02  0.7816164E-02  0.1300439E+00
        -11   -1    0    0    0    0  0.00000000000E+00  0.00000000000E+00  0.45593999997E+02  0.45594000000E+02  0.51100000000E-03 0.  1.
         11   -1    0    0    0    0 -0.00000000000E+00 -0.00000000000E+00 -0.45593999997E+02  0.45594000000E+02  0.51100000000E-03 0. -1.
    9900012    2    1    2    0    0 -0.13432233839E+01 -0.19151870192E+02  0.35840888377E+02  0.50528835466E+02  0.29999925883E+02 0.  0.
         12    1    1    2    0    0  0.13432233839E+01  0.19151870192E+02 -0.35840888377E+02  0.40659164534E+02  0.00000000000E+00 0. -1.
         11    1    3    3    0    0 -0.34621029483E+01  0.49036090897E+01  0.12914573275E+02  0.14241409413E+02  0.51100000000E-03 0. -1.
        -11    1    3    3    0    0  0.65203544273E+01 -0.78170127903E+01  0.39297084866E+01  0.10911613990E+02  0.51100000000E-03 0.  1.
        -12    1    3    3    0    0 -0.44014748629E+01 -0.16238466491E+02  0.18996606615E+02  0.25375812063E+02  0.00000000000E+00 0.  1.
</event>
<event>
 7    1  0.1381607E-011  0.5052887E+02  0.7816164E-02  0.1300439E+00
        -11   -1    0    0    0    0  0.00000000000E+00  0.00000000000E+00  0.45593999997E+02  0.45594000000E+02  0.51100000000E-03 0. -1.
         11   -1    0    0    0    0 -0.00000000000E+00 -0.00000000000E+00 -0.45593999997E+02  0.45594000000E+02  0.51100000000E-03 0.  1.
    9900012    2    1    2    0    0 -0.15697241120E+02 -0.32172927243E+02 -0.19278603534E+02  0.50528865966E+02  0.30000018591E+02 0.  0.
         12    1    1    2    0    0  0.15697241120E+02  0.32172927243E+02  0.19278603534E+02  0.40659134034E+02  0.00000000000E+00 0. -1.
         11    1    3    3    0    0  0.28599978880E+01 -0.10481134107E+02 -0.14256768352E+00  0.10865269711E+02  0.51100000000E-03 0. -1.
        -11    1    3    3    0    0 -0.95938508188E+01 -0.91968313223E+01  0.20893608037E+01  0.13453219270E+02  0.51100000000E-03 0.  1.
        -12    1    3    3    0    0 -0.89633881888E+01 -0.12494961814E+02 -0.21225396654E+02  0.26210376985E+02  0.00000000000E+00 0.  1.
</event>
<event>
 7    1  0.1381607E-011  0.5052887E+02  0.7816164E-02  0.1300439E+00
        -11   -1    0    0    0    0  0.00000000000E+00  0.00000000000E+00  0.45593999997E+02  0.45594000000E+02  0.51100000000E-03 0.  1.
         11   -1    0    0    0    0 -0.00000000000E+00 -0.00000000000E+00 -0.45593999997E+02  0.45594000000E+02  0.51100000000E-03 0. -1.
    9900012    2    1    2    0    0  0.22426992227E+02  0.18637542584E+02  0.28334382169E+02  0.50528865887E+02  0.30000018350E+02 0.  0.
         12    1    1    2    0    0 -0.22426992227E+02 -0.18637542584E+02 -0.28334382169E+02  0.40659134113E+02  0.00000000000E+00 0. -1.
         11    1    3    3    0    0 -0.36894270355E+01  0.74718915244E+01  0.15534402143E+01  0.84766863551E+01  0.51100000000E-03 0. -1.
        -11    1    3    3    0    0  0.45177071963E+01  0.11653475693E+01  0.14574783767E+02  0.15303334126E+02  0.51100000000E-03 0.  1.
         12    1    3    3    0    0  0.21598712066E+02  0.10000303491E+02  0.12206158188E+02  0.26748845405E+02  0.00000000000E+00 0. -1.
</event>
<event>
 7    1  0.1381607E-011  0.5052886E+02  0.7816164E-02  0.1300439E+00
        -11   -1    0    0    0    0  0.00000000000E+00  0.00000000000E+00  0.45593999997E+02  0.45594000000E+02  0.51100000000E-03 0. -1.
         11   -1    0    0    0    0 -0.00000000000E+00 -0.00000000000E+00 -0.45593999997E+02  0.45594000000E+02  0.51100000000E-03 0.  1.
    9900012    2    1    2    0    0 -0.52512311617E+00 -0.36447746786E+02  0.18012549976E+02  0.50528856419E+02  0.29999989572E+02 0.  0.
         12    1    1    2    0    0  0.52512311617E+00  0.36447746786E+02 -0.18012549976E+02  0.40659143581E+02  0.00000000000E+00 0. -1.
         11    1    3    3    0    0  0.36745644243E+01 -0.26691264886E+01  0.40447343795E+01  0.60816557270E+01  0.51100000000E-03 0. -1.
        -11    1    3    3    0    0 -0.34428225144E+00 -0.32573993271E+02  0.19218671564E+02  0.37822492049E+02  0.51100000000E-03 0.  1.
        -12    1    3    3    0    0 -0.38554052890E+01 -0.12046270267E+01 -0.52508559670E+01  0.66247086428E+01  0.00000000000E+00 0.  1.
</event>
<event>
 7    1  0.1381607E-011  0.5052882E+02  0.7816164E-02  0.1300439E+00
        -11   -1    0    0    0    0  0.00000000000E+00  0.00000000000E+00  0.45593999997E+02  0.45594000000E+02  0.51100000000E-03 0.  1.
         11   -1    0    0    0    0 -0.00000000000E+00 -0.00000000000E+00 -0.45593999997E+02  0.45594000000E+02  0.51100000000E-03 0. -1.
    9900012    2    1    2    0    0  0.17886830714E+02  0.29774494799E+02  0.21135509210E+02  0.50528818957E+02  0.29999875700E+02 0.  0.
         12    1    1    2    0    0 -0.17886830714E+02 -0.29774494799E+02 -0.21135509210E+02  0.40659181043E+02  0.00000000000E+00 0. -1.
         11    1    3    3    0    0  0.21280190036E+01 -0.54581435407E+00 -0.22119969644E+01  0.31175806357E+01  0.51100000000E-03 0. -1.
        -11    1    3    3    0    0  0.20825536929E+02  0.17205530317E+02  0.13158740430E+02  0.30048056707E+02  0.51100000000E-03 0.  1.
         12    1    3    3    0    0 -0.50667252188E+01  0.13114778836E+02  0.10188765745E+02  0.17363181614E+02  0.00000000000E+00 0. -1.
</event>
<event>
 7    1  0.1381607E-011  0.5052893E+02  0.7816164E-02  0.1300439E+00
        -11   -1    0    0    0    0  0.00000000000E+00  0.00000000000E+00  0.45593999997E+02  0.45594000000E+02  0.51100000000E-03 0.  1.
         11   -1    0    0    0    0 -0.00000000000E+00 -0.00000000000E+00 -0.45593999997E+02  0.45594000000E+02  0.51100000000E-03 0. -1.
    9900012    2    1    2    0    0  0.25731875695E+02 -0.35704151768E+01  0.31277515157E+02  0.50528926650E+02  0.30000203044E+02 0.  0.
         12    1    1    2    0    0 -0.25731875695E+02  0.35704151768E+01 -0.31277515157E+02  0.40659073350E+02  0.00000000000E+00 0. -1.
         11    1    3    3    0    0 -0.10255669505E+01  0.53559562894E+00 -0.24736097181E+00  0.11831474799E+01  0.51100000000E-03 0. -1.
        -11    1    3    3    0    0  0.25721272541E+02 -0.11394377502E+02  0.16498831123E+02  0.32613296805E+02  0.51100000000E-03 0.  1.
        -12    1    3    3    0    0  0.10361701045E+01  0.72883666962E+01  0.15026045006E+02  0.16732482365E+02  0.00000000000E+00 0.  1.
</event>
<event>
 7    1  0.1381607E-011  0.5052886E+02  0.7816164E-02  0.1300439E+00
        -11   -1    0    0    0    0  0.00000000000E+00  0.00000000000E+00  0.45593999997E+02  0.45594000000E+02  0.51100000000E-03 0.  1.
         11   -1    0    0    0    0 -0.00000000000E+00 -0.00000000000E+00 -0.45593999997E+02  0.45594000000E+02  0.51100000000E-03 0. -1.
    9900012    2    1    2    0    0 -0.18866320560E+02 -0.25051504303E+02  0.25877592339E+02  0.50528859520E+02  0.29999998996E+02 0.  0.
         12    1    1    2    0    0  0.18866320560E+02  0.25051504303E+02 -0.25877592339E+02  0.40659140480E+02  0.00000000000E+00 0. -1.
         11    1    3    3    0    0 -0.85470210874E+01 -0.17846741343E+02  0.65798226751E+01  0.20853100794E+02  0.51100000000E-03 0. -1.
        -11    1    3    3    0    0 -0.35467472054E+01 -0.13064332056E+02  0.10623359947E+02  0.17207904133E+02  0.51100000000E-03 0.  1.
        -12    1    3    3    0    0 -0.67725522675E+01  0.58595690962E+01  0.86744097169E+01  0.12467854593E+02  0.00000000000E+00 0.  1.
</event>
<event>
 7    1  0.1381607E-011  0.5052886E+02  0.7816164E-02  0.1300439E+00
        -11   -1    0    0    0    0  0.00000000000E+00  0.00000000000E+00  0.45593999997E+02  0.45594000000E+02  0.51100000000E-03 0. -1.
         11   -1    0    0    0    0 -0.00000000000E+00 -0.00000000000E+00 -0.45593999997E+02  0.45594000000E+02  0.51100000000E-03 0.  1.
    9900012    2    1    2    0    0 -0.24077024054E+02  0.24653456515E+02 -0.21579384728E+02  0.50528857723E+02  0.29999993536E+02 0.  0.
         12    1    1    2    0    0  0.24077024054E+02 -0.24653456515E+02  0.21579384728E+02  0.40659142277E+02  0.00000000000E+00 0. -1.
         11    1    3    3    0    0 -0.85547242361E+01  0.12980335832E+02 -0.16456367132E+02  0.22638119279E+02  0.51100000000E-03 0. -1.
        -11    1    3    3    0    0 -0.17770589557E+02  0.11365204803E+02 -0.93652938275E+01  0.23079654724E+02  0.51100000000E-03 0.  1.
         12    1    3    3    0    0  0.22482897391E+01  0.30791588009E+00  0.42422762314E+01  0.48110837203E+01  0.00000000000E+00 0. -1.
</event>
<event>
 7    1  0.1381607E-011  0.5052885E+02  0.7816164E-02  0.1300439E+00
        -11   -1    0    0    0    0  0.00000000000E+00  0.00000000000E+00  0.45593999997E+02  0.45594000000E+02  0.51100000000E-03 0.  1.
         11   -1    0    0    0    0 -0.00000000000E+00 -0.00000000000E+00 -0.45593999997E+02  0.45594000000E+02  0.51100000000E-03 0. -1.
    9900012    2    1    2    0    0 -0.18384501409E+02  0.23270294916E+02  0.27814917869E+02  0.50528853752E+02  0.29999981465E+02 0.  0.
         12    1    1    2    0    0  0.18384501409E+02 -0.23270294916E+02 -0.27814917869E+02  0.40659146248E+02  0.00000000000E+00 0. -1.
         11    1    3    3    0    0 -0.50005106309E+01 -0.25016931072E+01  0.16341009381E+02  0.17271136698E+02  0.51100000000E-03 0. -1.
        -11    1    3    3    0    0 -0.73905152549E+01  0.36298009154E+01  0.38076552676E+01  0.90715714910E+01  0.51100000000E-03 0.  1.
         12    1    3    3    0    0 -0.59934755230E+01  0.22142187108E+02  0.76662532202E+01  0.24186145563E+02  0.00000000000E+00 0. -1.
</event>
<event>
 7    1  0.1381607E-011  0.5052887E+02  0.7816164E-02  0.1300439E+00
        -11   -1    0    0    0    0  0.00000000000E+00  0.00000000000E+00  0.45593999997E+02  0.45594000000E+02  0.51100000000E-03 0. -1.
         11   -1    0    0    0    0 -0.00000000000E+00 -0.00000000000E+00 -0.45593999997E+02  0.45594000000E+02  0.51100000000E-03 0.  1.
    9900012    2    1    2    0    0  0.86891052322E+01 -0.39688355822E+02  0.15806193737E+01  0.50528874392E+02  0.30000044203E+02 0.  0.
         12    1    1    2    0    0 -0.86891052322E+01  0.39688355822E+02 -0.15806193737E+01  0.40659125608E+02  0.00000000000E+00 0. -1.
         11    1    3    3    0    0 -0.32237177202E+01 -0.90871683775E+01 -0.16659512917E+00  0.96434816979E+01  0.51100000000E-03 0. -1.
        -11    1    3    3    0    0  0.85340621232E+01 -0.31062029256E+02 -0.56825759349E+01  0.32710419553E+02  0.51100000000E-03 0.  1.
         12    1    3    3    0    0  0.33787608293E+01  0.46084181121E+00  0.74297904378E+01  0.81749731416E+01  0.00000000000E+00 0. -1.
</event>
<event>
 7    1  0.1381607E-011  0.5052886E+02  0.7816164E-02  0.1300439E+00
        -11   -1    0    0    0    0  0.00000000000E+00  0.00000000000E+00  0.45593999997E+02  0.45594000000E+02  0.51100000000E-03 0.  1.
         11   -1    0    0    0    0 -0.00000000000E+00 -0.00000000000E+00 -0.45593999997E+02  0.45594000000E+02  0.51100000000E-03 0. -1.
    9900012    2    1    2    0    0 -0.17786267995E+02 -0.23853957282E+02  0.27709257885E+02  0.50528861055E+02  0.30000003664E+02 0.  0.
         12    1    1    2    0    0  0.17786267995E+02  0.23853957282E+02 -0.27709257885E+02  0.40659138945E+02  0.00000000000E+00 0. -1.
         11    1    3    3    0    0 -0.10781295212E+02 -0.17070599199E+01  0.14913167345E+02  0.18481150952E+02  0.51100000000E-03 0. -1.
        -11    1    3    3    0    0 -0.11704156435E+02 -0.20178719986E+02  0.13424479528E+02  0.26914395200E+02  0.51100000000E-03 0.  1.
        -12    1    3    3    0    0  0.46991836518E+01 -0.19681773760E+01 -0.62838898732E+00  0.51333149033E+01  0.00000000000E+00 0.  1.
</event>
<event>
 7    1  0.1381607E-011  0.5052885E+02  0.7816164E-02  0.1300439E+00
        -11   -1    0    0    0    0  0.00000000000E+00  0.00000000000E+00  0.45593999997E+02  0.45594000000E+02  0.51100000000E-03 0. -1.
         11   -1    0    0    0    0 -0.00000000000E+00 -0.00000000000E+00 -0.45593999997E+02  0.45594000000E+02  0.51100000000E-03 0.  1.
    9900012    2    1    2    0    0  0.28646183527E+02 -0.28250390651E+02 -0.58717881625E+01  0.50528852212E+02  0.29999976784E+02 0.  0.
         12    1    1    2    0    0 -0.28646183527E+02  0.28250390651E+02  0.58717881625E+01  0.40659147788E+02  0.00000000000E+00 0. -1.
         11    1    3    3    0    0  0.66802753871E+01 -0.16402178002E+02 -0.43496409486E+01  0.18236691013E+02  0.51100000000E-03 0. -1.
        -11    1    3    3    0    0 -0.27703961564E+01 -0.27345322069E+01 -0.42812808659E+01  0.57863742851E+01  0.51100000000E-03 0.  1.
         12    1    3    3    0    0  0.24736304296E+02 -0.91136804423E+01  0.27591336520E+01  0.26505786914E+02  0.00000000000E+00 0. -1.
</event>
<event>
 7    1  0.1381607E-011  0.5052886E+02  0.7816164E-02  0.1300439E+00
        -11   -1    0    0    0    0  0.00000000000E+00  0.00000000000E+00  0.45593999997E+02  0.45594000000E+02  0.51100000000E-03 0.  1.
         11   -1    0    0    0    0 -0.00000000000E+00 -0.00000000000E+00 -0.45593999997E+02  0.45594000000E+02  0.51100000000E-03 0. -1.
    9900012    2    1    2    0    0 -0.15309578530E+02  0.36451546301E+02 -0.94903850912E+01  0.50528857957E+02  0.29999994245E+02 0.  0.
         12    1    1    2    0    0  0.15309578530E+02 -0.36451546301E+02  0.94903850912E+01  0.40659142043E+02  0.00000000000E+00 0. -1.
         11    1    3    3    0    0  0.35403380938E+01  0.95919798004E+01 -0.49868766313E+01  0.11375808064E+02  0.51100000000E-03 0. -1.
        -11    1    3    3    0    0 -0.14068543067E+02  0.29227410709E+02 -0.71217364253E+01  0.33209705972E+02  0.51100000000E-03 0.  1.
        -12    1    3    3    0    0 -0.47813735566E+01 -0.23678442078E+01  0.26182279654E+01  0.59433439207E+01  0.00000000000E+00 0.  1.
</event>
<event>
 7    1  0.1381607E-011  0.5052887E+02  0.7816164E-02  0.1300439E+00
        -11   -1    0    0    0    0  0.00000000000E+00  0.00000000000E+00  0.45593999997E+02  0.45594000000E+02  0.51100000000E-03 0. -1.
         11   -1    0    0    0    0 -0.00000000000E+00 -0.00000000000E+00 -0.45593999997E+02  0.45594000000E+02  0.51100000000E-03 0.  1.
    9900012    2    1    2    0    0  0.35399531813E+02  0.19976800808E+02 -0.98267231096E+00  0.50528867349E+02  0.30000022793E+02 0.  0.
         12    1    1    2    0    0 -0.35399531813E+02 -0.19976800808E+02  0.98267231096E+00  0.40659132651E+02  0.00000000000E+00 0. -1.
         11    1    3    3    0    0 -0.34573631296E-01  0.78018225592E+01 -0.37707236794E+01  0.86653325331E+01  0.51100000000E-03 0. -1.
        -11    1    3    3    0    0  0.11708123961E+01  0.67478383044E+01  0.21104963641E+01  0.71664718386E+01  0.51100000000E-03 0.  1.
         12    1    3    3    0    0  0.34263293048E+02  0.54271399445E+01  0.67755500436E+00  0.34697062977E+02  0.00000000000E+00 0. -1.
</event>
<event>
 7    1  0.1381607E-011  0.5052887E+02  0.7816164E-02  0.1300439E+00
        -11   -1    0    0    0    0  0.00000000000E+00  0.00000000000E+00  0.45593999997E+02  0.45594000000E+02  0.51100000000E-03 0. -1.
         11   -1    0    0    0    0 -0.00000000000E+00 -0.00000000000E+00 -0.45593999997E+02  0.45594000000E+02  0.51100000000E-03 0.  1.
    9900012    2    1    2    0    0  0.18908909371E+02  0.10762918315E+02 -0.34347885041E+02  0.50528874689E+02  0.30000045105E+02 0.  0.
         12    1    1    2    0    0 -0.18908909371E+02 -0.10762918315E+02  0.34347885041E+02  0.40659125311E+02  0.00000000000E+00 0. -1.
         11    1    3    3    0    0  0.10781887344E+02  0.16609375190E+00 -0.16032987267E+02  0.19321836424E+02  0.51100000000E-03 0. -1.
        -11    1    3    3    0    0  0.13415931350E+02  0.11065866620E+02 -0.70726655572E+01  0.18774003739E+02  0.51100000000E-03 0.  1.
        -12    1    3    3    0    0 -0.52889093240E+01 -0.46904205748E+00 -0.11242232217E+02  0.12433034526E+02  0.00000000000E+00 0.  1.
</event>
<event>
 7    1  0.1381607E-011  0.5052886E+02  0.7816164E-02  0.1300439E+00
        -11   -1    0    0    0    0  0.00000000000E+00  0.00000000000E+00  0.45593999997E+02  0.45594000000E+02  0.51100000000E-03 0. -1.
         11   -1    0    0    0    0 -0.00000000000E+00 -0.00000000000E+00 -0.45593999997E+02  0.45594000000E+02  0.51100000000E-03 0.  1.
    9900012    2    1    2    0    0  0.31509441490E+02 -0.20502682829E+02 -0.15490673223E+02  0.50528857570E+02  0.29999993071E+02 0.  0.
         12    1    1    2    0    0 -0.31509441490E+02  0.20502682829E+02  0.15490673223E+02  0.40659142430E+02  0.00000000000E+00 0. -1.
         11    1    3    3    0    0  0.30199781957E+01  0.48539582938E+01 -0.16073375319E+01  0.59384100249E+01  0.51100000000E-03 0.  1.
        -11    1    3    3    0    0  0.46354761025E+01 -0.79573784649E+01  0.40339365911E+01  0.10053862711E+02  0.51100000000E-03 0. -1.
        -12    1    3    3    0    0  0.23853987192E+02 -0.17399262658E+02 -0.17917272282E+02  0.34536584834E+02  0.00000000000E+00 0.  1.
</event>
<event>
 7    1  0.1381607E-011  0.5052886E+02  0.7816164E-02  0.1300439E+00
        -11   -1    0    0    0    0  0.00000000000E+00  0.00000000000E+00  0.45593999997E+02  0.45594000000E+02  0.51100000000E-03 0.  1.
         11   -1    0    0    0    0 -0.00000000000E+00 -0.00000000000E+00 -0.45593999997E+02  0.45594000000E+02  0.51100000000E-03 0. -1.
    9900012    2    1    2    0    0  0.18332474809E+02  0.29148438213E+02 -0.21620689055E+02  0.50528864764E+02  0.30000014937E+02 0.  0.
         12    1    1    2    0    0 -0.18332474809E+02 -0.29148438213E+02  0.21620689055E+02  0.40659135236E+02  0.00000000000E+00 0. -1.
         11    1    3    3    0    0 -0.65568940923E+01  0.41520275954E+01 -0.98627884134E+01  0.12550170869E+02  0.51100000000E-03 0. -1.
        -11    1    3    3    0    0  0.24363176277E+01  0.34714635758E+01  0.10040580634E+01  0.43583065286E+01  0.51100000000E-03 0.  1.
        -12    1    3    3    0    0  0.22453051274E+02  0.21524947042E+02 -0.12761958705E+02  0.33620387366E+02  0.00000000000E+00 0.  1.
</event>
<event>
 7    1  0.1381607E-011  0.5052886E+02  0.7816164E-02  0.1300439E+00
        -11   -1    0    0    0    0  0.00000000000E+00  0.00000000000E+00  0.45593999997E+02  0.45594000000E+02  0.51100000000E-03 0.  1.
         11   -1    0    0    0    0 -0.00000000000E+00 -0.00000000000E+00 -0.45593999997E+02  0.45594000000E+02  0.51100000000E-03 0. -1.
    9900012    2    1    2    0    0 -0.38395808859E+02  0.13251584981E+02  0.18228639228E+01  0.50528862339E+02  0.30000007566E+02 0.  0.
         12    1    1    2    0    0  0.38395808859E+02 -0.13251584981E+02 -0.18228639228E+01  0.40659137661E+02  0.00000000000E+00 0. -1.
         11    1    3    3    0    0  0.36580166074E+01  0.32871160677E+01 -0.12286696855E+01  0.50691071205E+01  0.51100000000E-03 0. -1.
        -11    1    3    3    0    0 -0.11330410962E+02  0.77516632775E+01  0.49620900212E+01  0.14597562597E+02  0.51100000000E-03 0.  1.
         12    1    3    3    0    0 -0.30723414505E+02  0.22128056362E+01 -0.19105564129E+01  0.30862192622E+02  0.00000000000E+00 0. -1.
</event>
<event>
 7    1  0.1381607E-011  0.5052885E+02  0.7816164E-02  0.1300439E+00
        -11   -1    0    0    0    0  0.00000000000E+00  0.00000000000E+00  0.45593999997E+02  0.45594000000E+02  0.51100000000E-03 0.  1.
         11   -1    0    0    0    0 -0.00000000000E+00 -0.00000000000E+00 -0.45593999997E+02  0.45594000000E+02  0.51100000000E-03 0. -1.
    9900012    2    1    2    0    0 -0.40628354583E+02  0.21005305056E+00  0.15681350323E+01  0.50528851387E+02  0.29999974277E+02 0.  0.
         12    1    1    2    0    0  0.40628354583E+02 -0.21005305056E+00 -0.15681350323E+01  0.40659148613E+02  0.00000000000E+00 0. -1.
         11    1    3    3    0    0 -0.14202885420E+02  0.73009440489E+01 -0.76003700785E+01  0.17685908624E+02  0.51100000000E-03 0. -1.
        -11    1    3    3    0    0 -0.62160025356E+01  0.54666565348E-01  0.95606379173E+01  0.11403835916E+02  0.51100000000E-03 0.  1.
         12    1    3    3    0    0 -0.20209466627E+02 -0.71455575637E+01 -0.39213280654E+00  0.21439106847E+02  0.00000000000E+00 0. -1.
</event>
<event>
 7    1  0.1381607E-011  0.5052886E+02  0.7816164E-02  0.1300439E+00
        -11   -1    0    0    0    0  0.00000000000E+00  0.00000000000E+00  0.45593999997E+02  0.45594000000E+02  0.51100000000E-03 0.  1.
         11   -1    0    0    0    0 -0.00000000000E+00 -0.00000000000E+00 -0.45593999997E+02  0.45594000000E+02  0.51100000000E-03 0. -1.
    9900012    2    1    2    0    0  0.25638484641E+02 -0.68078214306E+01  0.30813757409E+02  0.50528856219E+02  0.29999988963E+02 0.  0.
         12    1    1    2    0    0 -0.25638484641E+02  0.68078214306E+01 -0.30813757409E+02  0.40659143781E+02  0.00000000000E+00 0. -1.
         11    1    3    3    0    0  0.15826370263E+02 -0.11593294530E+02  0.13447486942E+02  0.23784729956E+02  0.51100000000E-03 0. -1.
        -11    1    3    3    0    0  0.10127023257E+02 -0.24436225621E+01  0.33034643485E+01  0.10928896021E+02  0.51100000000E-03 0.  1.
        -12    1    3    3    0    0 -0.31490887832E+00  0.72290956616E+01  0.14062806118E+02  0.15815230242E+02  0.00000000000E+00 0.  1.
</event>
<event>
 7    1  0.1381607E-011  0.5052886E+02  0.7816164E-02  0.1300439E+00
        -11   -1    0    0    0    0  0.00000000000E+00  0.00000000000E+00  0.45593999997E+02  0.45594000000E+02  0.51100000000E-03 0. -1.
         11   -1    0    0    0    0 -0.00000000000E+00 -0.00000000000E+00 -0.45593999997E+02  0.45594000000E+02  0.51100000000E-03 0.  1.
    9900012    2    1    2    0    0  0.10467287124E+02  0.15552552817E+01 -0.39257900191E+02  0.50528860239E+02  0.30000001182E+02 0.  0.
         12    1    1    2    0    0 -0.10467287124E+02 -0.15552552817E+01  0.39257900191E+02  0.40659139761E+02  0.00000000000E+00 0. -1.
         11    1    3    3    0    0  0.99169107402E+01 -0.58100458630E+01 -0.22815877237E+02  0.25547328743E+02  0.51100000000E-03 0. -1.
        -11    1    3    3    0    0  0.34902426155E+01  0.11492122369E+02 -0.15840670360E+02  0.19879072106E+02  0.51100000000E-03 0.  1.
         12    1    3    3    0    0 -0.29398662320E+01 -0.41268212244E+01 -0.60135259351E+00  0.51024593895E+01  0.00000000000E+00 0. -1.
</event>
<event>
 7    1  0.1381607E-011  0.5052883E+02  0.7816164E-02  0.1300439E+00
        -11   -1    0    0    0    0  0.00000000000E+00  0.00000000000E+00  0.45593999997E+02  0.45594000000E+02  0.51100000000E-03 0.  1.
         11   -1    0    0    0    0 -0.00000000000E+00 -0.00000000000E+00 -0.45593999997E+02  0.45594000000E+02  0.51100000000E-03 0. -1.
    9900012    2    1    2    0    0 -0.12946290714E+02  0.16285990780E+02  0.34933199824E+02  0.50528826510E+02  0.29999898659E+02 0.  0.
         12    1    1    2    0    0  0.12946290714E+02 -0.16285990780E+02 -0.34933199824E+02  0.40659173490E+02  0.00000000000E+00 0. -1.
         11    1    3    3    0    0  0.41956014296E+01  0.14234432742E+02  0.14402510978E+02  0.20679808258E+02  0.51100000000E-03 0.  1.
        -11    1    3    3    0    0 -0.66798938568E+01  0.48049665052E+01  0.21234290537E+01  0.84980960374E+01  0.51100000000E-03 0. -1.
        -12    1    3    3    0    0 -0.10461998287E+02 -0.27534084670E+01  0.18407259793E+02  0.21350922215E+02  0.00000000000E+00 0.  1.
</event>
<event>
 7    1  0.1381607E-011  0.5052887E+02  0.7816164E-02  0.1300439E+00
        -11   -1    0    0    0    0  0.00000000000E+00  0.00000000000E+00  0.45593999997E+02  0.45594000000E+02  0.51100000000E-03 0.  1.
         11   -1    0    0    0    0 -0.00000000000E+00 -0.00000000000E+00 -0.45593999997E+02  0.45594000000E+02  0.51100000000E-03 0. -1.
    9900012    2    1    2    0    0  0.35791754122E+02  0.11208739260E+02  0.15699656050E+02  0.50528871886E+02  0.30000036584E+02 0.  0.
         12    1    1    2    0    0 -0.35791754122E+02 -0.11208739260E+02 -0.15699656050E+02  0.40659128114E+02  0.00000000000E+00 0. -1.
         11    1    3    3    0    0  0.67215985906E+01  0.63498869344E+01  0.10007407981E+02  0.13625313444E+02  0.51100000000E-03 0. -1.
        -11    1    3    3    0    0  0.61123203081E+01 -0.50573080957E+01  0.86316280131E+01  0.11723558638E+02  0.51100000000E-03 0.  1.
        -12    1    3    3    0    0  0.22957835223E+02  0.99161604217E+01 -0.29393799441E+01  0.25179999804E+02  0.00000000000E+00 0.  1.
</event>
<event>
 7    1  0.1381607E-011  0.5052887E+02  0.7816164E-02  0.1300439E+00
        -11   -1    0    0    0    0  0.00000000000E+00  0.00000000000E+00  0.45593999997E+02  0.45594000000E+02  0.51100000000E-03 0.  1.
         11   -1    0    0    0    0 -0.00000000000E+00 -0.00000000000E+00 -0.45593999997E+02  0.45594000000E+02  0.51100000000E-03 0. -1.
    9900012    2    1    2    0    0 -0.12884089766E+02 -0.24815363949E+02  0.29518858138E+02  0.50528867658E+02  0.30000023733E+02 0.  0.
         12    1    1    2    0    0  0.12884089766E+02  0.24815363949E+02 -0.29518858138E+02  0.40659132342E+02  0.00000000000E+00 0. -1.
         11    1    3    3    0    0  0.53482424259E+00  0.98396958851E+00  0.48037646483E+01  0.49325843306E+01  0.51100000000E-03 0. -1.
        -11    1    3    3    0    0 -0.18340547600E+02 -0.83994456762E+01  0.14324302423E+02  0.24740897601E+02  0.51100000000E-03 0.  1.
        -12    1    3    3    0    0  0.49216335913E+01 -0.17399887861E+02  0.10390791067E+02  0.20855385726E+02  0.00000000000E+00 0.  1.
</event>
<event>
 7    1  0.1381607E-011  0.5052887E+02  0.7816164E-02  0.1300439E+00
        -11   -1    0    0    0    0  0.00000000000E+00  0.00000000000E+00  0.45593999997E+02  0.45594000000E+02  0.51100000000E-03 0.  1.
         11   -1    0    0    0    0 -0.00000000000E+00 -0.00000000000E+00 -0.45593999997E+02  0.45594000000E+02  0.51100000000E-03 0. -1.
    9900012    2    1    2    0    0  0.12066038178E+02  0.31564161097E+02  0.22611488080E+02  0.50528868968E+02  0.30000027715E+02 0.  0.
         12    1    1    2    0    0 -0.12066038178E+02 -0.31564161097E+02 -0.22611488080E+02  0.40659131032E+02  0.00000000000E+00 0. -1.
         11    1    3    3    0    0  0.10443588804E+02  0.15356198261E+02  0.12908164508E+02  0.22616411814E+02  0.51100000000E-03 0. -1.
        -11    1    3    3    0    0  0.19299567311E+01  0.21130281645E+02  0.74264933716E+01  0.22480354523E+02  0.51100000000E-03 0.  1.
        -12    1    3    3    0    0 -0.30750735662E+00 -0.49223188090E+01  0.22768302003E+01  0.54321026309E+01  0.00000000000E+00 0.  1.
</event>
<event>
 7    1  0.1381607E-011  0.5052887E+02  0.7816164E-02  0.1300439E+00
        -11   -1    0    0    0    0  0.00000000000E+00  0.00000000000E+00  0.45593999997E+02  0.45594000000E+02  0.51100000000E-03 0.  1.
         11   -1    0    0    0    0 -0.00000000000E+00 -0.00000000000E+00 -0.45593999997E+02  0.45594000000E+02  0.51100000000E-03 0. -1.
    9900012    2    1    2    0    0 -0.38483708232E+02  0.93065468825E+01 -0.92497108969E+01  0.50528871064E+02  0.30000034086E+02 0.  0.
         12    1    1    2    0    0  0.38483708232E+02 -0.93065468825E+01  0.92497108969E+01  0.40659128936E+02  0.00000000000E+00 0. -1.
         11    1    3    3    0    0 -0.16923848402E+01 -0.19920640972E+00 -0.75384277183E+01  0.77286313385E+01  0.51100000000E-03 0. -1.
        -11    1    3    3    0    0 -0.83172362389E+00  0.56393845714E+01  0.28038424740E+01  0.63526337381E+01  0.51100000000E-03 0.  1.
        -12    1    3    3    0    0 -0.35959599768E+02  0.38663687209E+01 -0.45151256526E+01  0.36447605987E+02  0.00000000000E+00 0.  1.
</event>
<event>
 7    1  0.1381607E-011  0.5052885E+02  0.7816164E-02  0.1300439E+00
        -11   -1    0    0    0    0  0.00000000000E+00  0.00000000000E+00  0.45593999997E+02  0.45594000000E+02  0.51100000000E-03 0.  1.
         11   -1    0    0    0    0 -0.00000000000E+00 -0.00000000000E+00 -0.45593999997E+02  0.45594000000E+02  0.51100000000E-03 0. -1.
    9900012    2    1    2    0    0 -0.33616103253E+02 -0.22871858810E+02 -0.42705548472E-01  0.50528854078E+02  0.29999982457E+02 0.  0.
         12    1    1    2    0    0  0.33616103253E+02  0.22871858810E+02  0.42705548472E-01  0.40659145922E+02  0.00000000000E+00 0. -1.
         11    1    3    3    0    0 -0.81491778342E+01 -0.85835597615E+00  0.61238806003E+01  0.10229750154E+02  0.51100000000E-03 0. -1.
        -11    1    3    3    0    0  0.34998925225E+01 -0.47104885403E+01  0.55606747176E+00  0.58946722769E+01  0.51100000000E-03 0.  1.
         12    1    3    3    0    0 -0.28966817941E+02 -0.17303014293E+02 -0.67226536205E+01  0.34404431647E+02  0.00000000000E+00 0. -1.
</event>
<event>
 7    1  0.1381607E-011  0.5052886E+02  0.7816164E-02  0.1300439E+00
        -11   -1    0    0    0    0  0.00000000000E+00  0.00000000000E+00  0.45593999997E+02  0.45594000000E+02  0.51100000000E-03 0. -1.
         11   -1    0    0    0    0 -0.00000000000E+00 -0.00000000000E+00 -0.45593999997E+02  0.45594000000E+02  0.51100000000E-03 0.  1.
    9900012    2    1    2    0    0 -0.36972434603E+02 -0.14820853086E+02 -0.81576566066E+01  0.50528856280E+02  0.29999989150E+02 0.  0.
         12    1    1    2    0    0  0.36972434603E+02  0.14820853086E+02  0.81576566066E+01  0.40659143720E+02  0.00000000000E+00 0. -1.
         11    1    3    3    0    0 -0.15048159295E+02  0.23314720140E+00  0.37115916176E+01  0.15500882826E+02  0.51100000000E-03 0. -1.
        -11    1    3    3    0    0 -0.24131114388E+02 -0.12207810964E+02 -0.53315051508E+01  0.27563858177E+02  0.51100000000E-03 0.  1.
        -12    1    3    3    0    0  0.22068390798E+01 -0.28461893240E+01 -0.65377430734E+01  0.74641152782E+01  0.00000000000E+00 0.  1.
</event>
<event>
 7    1  0.1381607E-011  0.5052885E+02  0.7816164E-02  0.1300439E+00
        -11   -1    0    0    0    0  0.00000000000E+00  0.00000000000E+00  0.45593999997E+02  0.45594000000E+02  0.51100000000E-03 0.  1.
         11   -1    0    0    0    0 -0.00000000000E+00 -0.00000000000E+00 -0.45593999997E+02  0.45594000000E+02  0.51100000000E-03 0. -1.
    9900012    2    1    2    0    0  0.59615360903E+01 -0.26653210059E+02  0.30120305487E+02  0.50528851932E+02  0.29999975932E+02 0.  0.
         12    1    1    2    0    0 -0.59615360903E+01  0.26653210059E+02 -0.30120305487E+02  0.40659148068E+02  0.00000000000E+00 0. -1.
         11    1    3    3    0    0 -0.14897919101E+01 -0.27140893691E+01  0.18738464928E+01  0.36189863193E+01  0.51100000000E-03 0. -1.
        -11    1    3    3    0    0  0.35785786188E+01 -0.29897190927E+02  0.24816306618E+02  0.39019191748E+02  0.51100000000E-03 0.  1.
         12    1    3    3    0    0  0.38727493816E+01  0.59580702365E+01  0.34301523756E+01  0.78906738645E+01  0.00000000000E+00 0. -1.
</event>
<event>
 7    1  0.1381607E-011  0.5052886E+02  0.7816164E-02  0.1300439E+00
        -11   -1    0    0    0    0  0.00000000000E+00  0.00000000000E+00  0.45593999997E+02  0.45594000000E+02  0.51100000000E-03 0.  1.
         11   -1    0    0    0    0 -0.00000000000E+00 -0.00000000000E+00 -0.45593999997E+02  0.45594000000E+02  0.51100000000E-03 0. -1.
    9900012    2    1    2    0    0  0.30219406263E+02 -0.82110577515E+01  0.25933218828E+02  0.50528858063E+02  0.29999994568E+02 0.  0.
         12    1    1    2    0    0 -0.30219406263E+02  0.82110577515E+01 -0.25933218828E+02  0.40659141937E+02  0.00000000000E+00 0. -1.
         11    1    3    3    0    0 -0.40267097599E+01 -0.90228528415E+00  0.18627343507E+01  0.45275036992E+01  0.51100000000E-03 0. -1.
        -11    1    3    3    0    0  0.15762448502E+02 -0.21479106858E+01  0.92517959479E+00  0.15935001119E+02  0.51100000000E-03 0.  1.
        -12    1    3    3    0    0  0.18483667520E+02 -0.51608617816E+01  0.23145304883E+02  0.30066353245E+02  0.00000000000E+00 0.  1.
</event>
<event>
 7    1  0.1381607E-011  0.5052886E+02  0.7816164E-02  0.1300439E+00
        -11   -1    0    0    0    0  0.00000000000E+00  0.00000000000E+00  0.45593999997E+02  0.45594000000E+02  0.51100000000E-03 0.  1.
         11   -1    0    0    0    0 -0.00000000000E+00 -0.00000000000E+00 -0.45593999997E+02  0.45594000000E+02  0.51100000000E-03 0. -1.
    9900012    2    1    2    0    0 -0.25706082065E+01 -0.37396418658E+02  0.15750101277E+02  0.50528857791E+02  0.29999993741E+02 0.  0.
         12    1    1    2    0    0  0.25706082065E+01  0.37396418658E+02 -0.15750101277E+02  0.40659142209E+02  0.00000000000E+00 0. -1.
         11    1    3    3    0    0  0.64144121123E+01 -0.14629413594E+02  0.12933482811E+02  0.20553330697E+02  0.51100000000E-03 0.  1.
        -11    1    3    3    0    0  0.27559751489E+01  0.43530743472E+00 -0.21239029111E+01  0.35065446555E+01  0.51100000000E-03 0. -1.
        -12    1    3    3    0    0 -0.11740995468E+02 -0.23202312499E+02  0.49405213763E+01  0.26468982438E+02  0.00000000000E+00 0.  1.
</event>
<event>
 7    1  0.1381607E-011  0.5052885E+02  0.7816164E-02  0.1300439E+00
        -11   -1    0    0    0    0  0.00000000000E+00  0.00000000000E+00  0.45593999997E+02  0.45594000000E+02  0.51100000000E-03 0.  1.
         11   -1    0    0    0    0 -0.00000000000E+00 -0.00000000000E+00 -0.45593999997E+02  0.45594000000E+02  0.51100000000E-03 0. -1.
    9900012    2    1    2    0    0  0.61888036977E+01  0.18515787134E+02  0.35665538611E+02  0.50528852089E+02  0.29999976410E+02 0.  0.
         12    1    1    2    0    0 -0.61888036977E+01 -0.18515787134E+02 -0.35665538611E+02  0.40659147911E+02  0.00000000000E+00 0. -1.
         11    1    3    3    0    0 -0.70631545844E+01  0.78186195842E+01  0.84590280301E+01  0.13511999125E+02  0.51100000000E-03 0. -1.
        -11    1    3    3    0    0  0.39886363351E+01  0.12869617365E+01  0.22670853899E+02  0.23055001780E+02  0.51100000000E-03 0.  1.
        -12    1    3    3    0    0  0.92633219470E+01  0.94102058130E+01  0.45356566828E+01  0.13961851184E+02  0.00000000000E+00 0.  1.
</event>
<event>
 7    1  0.1381607E-011  0.5052887E+02  0.7816164E-02  0.1300439E+00
        -11   -1    0    0    0    0  0.00000000000E+00  0.00000000000E+00  0.45593999997E+02  0.45594000000E+02  0.51100000000E-03 0.  1.
         11   -1    0    0    0    0 -0.00000000000E+00 -0.00000000000E+00 -0.45593999997E+02  0.45594000000E+02  0.51100000000E-03 0. -1.
    9900012    2    1    2    0    0 -0.51570378099E+01  0.34021536753E+02  0.21658832350E+02  0.50528867929E+02  0.30000024556E+02 0.  0.
         12    1    1    2    0    0  0.51570378099E+01 -0.34021536753E+02 -0.21658832350E+02  0.40659132071E+02  0.00000000000E+00 0. -1.
         11    1    3    3    0    0 -0.33124049907E+01  0.21039054781E+02 -0.36477942079E+00  0.21301336042E+02  0.51100000000E-03 0. -1.
        -11    1    3    3    0    0  0.35789728364E+01  0.12395196531E+01  0.11962923333E+00  0.37894283142E+01  0.51100000000E-03 0.  1.
        -12    1    3    3    0    0 -0.54236056555E+01  0.11742962319E+02  0.21903982538E+02  0.25438103572E+02  0.00000000000E+00 0.  1.
</event>
<event>
 7    1  0.1381607E-011  0.5052885E+02  0.7816164E-02  0.1300439E+00
        -11   -1    0    0    0    0  0.00000000000E+00  0.00000000000E+00  0.45593999997E+02  0.45594000000E+02  0.51100000000E-03 0.  1.
         11   -1    0    0    0    0 -0.00000000000E+00 -0.00000000000E+00 -0.45593999997E+02  0.45594000000E+02  0.51100000000E-03 0. -1.
    9900012    2    1    2    0    0  0.39739442366E+01  0.40068111464E+02  0.56498236665E+01  0.50528852241E+02  0.29999976871E+02 0.  0.
         12    1    1    2    0    0 -0.39739442366E+01 -0.40068111464E+02 -0.56498236665E+01  0.40659147759E+02  0.00000000000E+00 0. -1.
         11    1    3    3    0    0  0.63625308362E+01  0.23557368157E+02 -0.33918277103E+01  0.24636068854E+02  0.51100000000E-03 0. -1.
        -11    1    3    3    0    0  0.27980317888E+01  0.18444497265E+02  0.77961509490E+01  0.20219011626E+02  0.51100000000E-03 0.  1.
         12    1    3    3    0    0 -0.51866183885E+01 -0.19337539579E+01  0.12455004278E+01  0.56737717608E+01  0.00000000000E+00 0. -1.
</event>
<event>
 7    1  0.1381607E-011  0.5052887E+02  0.7816164E-02  0.1300439E+00
        -11   -1    0    0    0    0  0.00000000000E+00  0.00000000000E+00  0.45593999997E+02  0.45594000000E+02  0.51100000000E-03 0. -1.
         11   -1    0    0    0    0 -0.00000000000E+00 -0.00000000000E+00 -0.45593999997E+02  0.45594000000E+02  0.51100000000E-03 0.  1.
    9900012    2    1    2    0    0 -0.29869455167E+02  0.13555310991E+02 -0.24025703609E+02  0.50528865209E+02  0.30000016289E+02 0.  0.
         12    1    1    2    0    0  0.29869455167E+02 -0.13555310991E+02  0.24025703609E+02  0.40659134791E+02  0.00000000000E+00 0. -1.
         11    1    3    3    0    0 -0.11153012193E+02  0.67281467937E+01  0.41436034789E+01  0.13668470665E+02  0.51100000000E-03 0. -1.
        -11    1    3    3    0    0 -0.23378859648E+01  0.22915407638E+00  0.11646392523E+01  0.26219472200E+01  0.51100000000E-03 0.  1.
        -12    1    3    3    0    0 -0.16378557010E+02  0.65980101205E+01 -0.29333946341E+02  0.34238447324E+02  0.00000000000E+00 0.  1.
</event>
<event>
 7    1  0.1381607E-011  0.5052885E+02  0.7816164E-02  0.1300439E+00
        -11   -1    0    0    0    0  0.00000000000E+00  0.00000000000E+00  0.45593999997E+02  0.45594000000E+02  0.51100000000E-03 0.  1.
         11   -1    0    0    0    0 -0.00000000000E+00 -0.00000000000E+00 -0.45593999997E+02  0.45594000000E+02  0.51100000000E-03 0. -1.
    9900012    2    1    2    0    0 -0.31313093903E+01 -0.37463793837E+02  0.15486310970E+02  0.50528846361E+02  0.29999958999E+02 0.  0.
         12    1    1    2    0    0  0.31313093903E+01  0.37463793837E+02 -0.15486310970E+02  0.40659153639E+02  0.00000000000E+00 0. -1.
         11    1    3    3    0    0  0.54257010847E+01 -0.20065939620E+01 -0.95632078827E+00  0.58633779769E+01  0.51100000000E-03 0. -1.
        -11    1    3    3    0    0  0.49022441505E+01 -0.20649811229E+02  0.58044772300E+01  0.22003151085E+02  0.51100000000E-03 0.  1.
        -12    1    3    3    0    0 -0.13459254626E+02 -0.14807388646E+02  0.10638154529E+02  0.22662317299E+02  0.00000000000E+00 0.  1.
</event>
<event>
 7    1  0.1381607E-011  0.5052885E+02  0.7816164E-02  0.1300439E+00
        -11   -1    0    0    0    0  0.00000000000E+00  0.00000000000E+00  0.45593999997E+02  0.45594000000E+02  0.51100000000E-03 0.  1.
         11   -1    0    0    0    0 -0.00000000000E+00 -0.00000000000E+00 -0.45593999997E+02  0.45594000000E+02  0.51100000000E-03 0. -1.
    9900012    2    1    2    0    0 -0.10208100702E+02  0.63823308340E+01  0.38835897305E+02  0.50528851137E+02  0.29999973516E+02 0.  0.
         12    1    1    2    0    0  0.10208100702E+02 -0.63823308340E+01 -0.38835897305E+02  0.40659148863E+02  0.00000000000E+00 0. -1.
         11    1    3    3    0    0  0.65424614040E+01 -0.18164530295E+01  0.73639678381E+01  0.10016552571E+02  0.51100000000E-03 0. -1.
        -11    1    3    3    0    0 -0.75745746520E+01 -0.46743541028E+01  0.16455126974E+02  0.18708152539E+02  0.51100000000E-03 0.  1.
         12    1    3    3    0    0 -0.91759874536E+01  0.12873137966E+02  0.15016802492E+02  0.21804146026E+02  0.00000000000E+00 0. -1.
</event>
<event>
 7    1  0.1381607E-011  0.5052888E+02  0.7816164E-02  0.1300439E+00
        -11   -1    0    0    0    0  0.00000000000E+00  0.00000000000E+00  0.45593999997E+02  0.45594000000E+02  0.51100000000E-03 0. -1.
         11   -1    0    0    0    0 -0.00000000000E+00 -0.00000000000E+00 -0.45593999997E+02  0.45594000000E+02  0.51100000000E-03 0.  1.
    9900012    2    1    2    0    0  0.13718623516E+02 -0.38238660749E+02 -0.16638816444E+01  0.50528876680E+02  0.30000051155E+02 0.  0.
         12    1    1    2    0    0 -0.13718623516E+02  0.38238660749E+02  0.16638816444E+01  0.40659123320E+02  0.00000000000E+00 0. -1.
         11    1    3    3    0    0  0.17400800921E+01 -0.16511348841E+02  0.10618859065E+02  0.19708188333E+02  0.51100000000E-03 0. -1.
        -11    1    3    3    0    0 -0.25057146558E+00 -0.12121242044E+02 -0.85287293803E+01  0.14823175093E+02  0.51100000000E-03 0.  1.
        -12    1    3    3    0    0  0.12229114890E+02 -0.96060698645E+01 -0.37540113292E+01  0.15997513253E+02  0.00000000000E+00 0.  1.
</event>
<event>
 7    1  0.1381607E-011  0.5052885E+02  0.7816164E-02  0.1300439E+00
        -11   -1    0    0    0    0  0.00000000000E+00  0.00000000000E+00  0.45593999997E+02  0.45594000000E+02  0.51100000000E-03 0.  1.
         11   -1    0    0    0    0 -0.00000000000E+00 -0.00000000000E+00 -0.45593999997E+02  0.45594000000E+02  0.51100000000E-03 0. -1.
    9900012    2    1    2    0    0 -0.34796830706E+02 -0.19443612898E+02 -0.80182842907E+01  0.50528851058E+02  0.29999973276E+02 0.  0.
         12    1    1    2    0    0  0.34796830706E+02  0.19443612898E+02  0.80182842907E+01  0.40659148942E+02  0.00000000000E+00 0. -1.
         11    1    3    3    0    0 -0.13290117937E+02 -0.26372628477E+01  0.80080571596E+01  0.15738849064E+02  0.51100000000E-03 0. -1.
        -11    1    3    3    0    0 -0.11063640448E+02 -0.35453609636E+01 -0.15207495187E+00  0.11618814542E+02  0.51100000000E-03 0.  1.
         12    1    3    3    0    0 -0.10443072321E+02 -0.13260989087E+02 -0.15874266498E+02  0.23171187452E+02  0.00000000000E+00 0. -1.
</event>
<event>
 7    1  0.1381607E-011  0.5052885E+02  0.7816164E-02  0.1300439E+00
        -11   -1    0    0    0    0  0.00000000000E+00  0.00000000000E+00  0.45593999997E+02  0.45594000000E+02  0.51100000000E-03 0.  1.
         11   -1    0    0    0    0 -0.00000000000E+00 -0.00000000000E+00 -0.45593999997E+02  0.45594000000E+02  0.51100000000E-03 0. -1.
    9900012    2    1    2    0    0 -0.23770688502E+02  0.29931769554E+02 -0.13863975892E+02  0.50528852345E+02  0.29999977188E+02 0.  0.
         12    1    1    2    0    0  0.23770688502E+02 -0.29931769554E+02  0.13863975892E+02  0.40659147655E+02  0.00000000000E+00 0. -1.
         11    1    3    3    0    0 -0.80490209266E+01  0.21957444828E+01 -0.11274085671E+02  0.14025442584E+02  0.51100000000E-03 0. -1.
        -11    1    3    3    0    0 -0.88143473254E+01  0.12713399072E+01  0.80691575586E+00  0.89420432358E+01  0.51100000000E-03 0.  1.
         12    1    3    3    0    0 -0.69073202502E+01  0.26464685164E+02 -0.33968059765E+01  0.27561366525E+02  0.00000000000E+00 0. -1.
</event>
<event>
 7    1  0.1381607E-011  0.5052887E+02  0.7816164E-02  0.1300439E+00
        -11   -1    0    0    0    0  0.00000000000E+00  0.00000000000E+00  0.45593999997E+02  0.45594000000E+02  0.51100000000E-03 0.  1.
         11   -1    0    0    0    0 -0.00000000000E+00 -0.00000000000E+00 -0.45593999997E+02  0.45594000000E+02  0.51100000000E-03 0. -1.
    9900012    2    1    2    0    0 -0.15127125418E+02 -0.27046817574E+02  0.26321180165E+02  0.50528870772E+02  0.30000033199E+02 0.  0.
         12    1    1    2    0    0  0.15127125418E+02  0.27046817574E+02 -0.26321180165E+02  0.40659129228E+02  0.00000000000E+00 0. -1.
         11    1    3    3    0    0  0.39247879480E+01  0.25215665249E+00  0.14300814595E+01  0.41848150086E+01  0.51100000000E-03 0. -1.
        -11    1    3    3    0    0 -0.32766954520E+01 -0.11444186503E+02 -0.12166648402E+01  0.11966052457E+02  0.51100000000E-03 0.  1.
         12    1    3    3    0    0 -0.15775217914E+02 -0.15854787723E+02  0.26107763545E+02  0.34378003306E+02  0.00000000000E+00 0. -1.
</event>
<event>
 7    1  0.1381607E-011  0.5052885E+02  0.7816164E-02  0.1300439E+00
        -11   -1    0    0    0    0  0.00000000000E+00  0.00000000000E+00  0.45593999997E+02  0.45594000000E+02  0.51100000000E-03 0. -1.
         11   -1    0    0    0    0 -0.00000000000E+00 -0.00000000000E+00 -0.45593999997E+02  0.45594000000E+02  0.51100000000E-03 0.  1.
    9900012    2    1    2    0    0  0.15165265267E+02  0.50977560048E+01 -0.37379058137E+02  0.50528851286E+02  0.29999973970E+02 0.  0.
         12    1    1    2    0    0 -0.15165265267E+02 -0.50977560048E+01  0.37379058137E+02  0.40659148714E+02  0.00000000000E+00 0. -1.
         11    1    3    3    0    0  0.43510418019E+01 -0.10220790420E+02 -0.12972511688E+02  0.17078705493E+02  0.51100000000E-03 0. -1.
        -11    1    3    3    0    0 -0.30285684490E+01  0.23807403544E+01 -0.51892055931E+01  0.64628172211E+01  0.51100000000E-03 0.  1.
         12    1    3    3    0    0  0.13842791914E+02  0.12937806070E+02 -0.19217340856E+02  0.26987328572E+02  0.00000000000E+00 0. -1.
</event>
<event>
 7    1  0.1381607E-011  0.5052886E+02  0.7816164E-02  0.1300439E+00
        -11   -1    0    0    0    0  0.00000000000E+00  0.00000000000E+00  0.45593999997E+02  0.45594000000E+02  0.51100000000E-03 0.  1.
         11   -1    0    0    0    0 -0.00000000000E+00 -0.00000000000E+00 -0.45593999997E+02  0.45594000000E+02  0.51100000000E-03 0. -1.
    9900012    2    1    2    0    0  0.74974506967E+01 -0.34616428927E+02 -0.19966394909E+02  0.50528857802E+02  0.29999993776E+02 0.  0.
         12    1    1    2    0    0 -0.74974506967E+01  0.34616428927E+02  0.19966394909E+02  0.40659142198E+02  0.00000000000E+00 0. -1.
         11    1    3    3    0    0 -0.25636561497E+01  0.13342336752E+01  0.13190718666E+01  0.31768637372E+01  0.51100000000E-03 0. -1.
        -11    1    3    3    0    0 -0.53300875592E+01 -0.15569678033E+02 -0.56161586417E+01  0.17388672911E+02  0.51100000000E-03 0.  1.
        -12    1    3    3    0    0  0.15391194406E+02 -0.20380984569E+02 -0.15669308133E+02  0.29963321155E+02  0.00000000000E+00 0.  1.
</event>
<event>
 7    1  0.1381607E-011  0.5052888E+02  0.7816164E-02  0.1300439E+00
        -11   -1    0    0    0    0  0.00000000000E+00  0.00000000000E+00  0.45593999997E+02  0.45594000000E+02  0.51100000000E-03 0.  1.
         11   -1    0    0    0    0 -0.00000000000E+00 -0.00000000000E+00 -0.45593999997E+02  0.45594000000E+02  0.51100000000E-03 0. -1.
    9900012    2    1    2    0    0  0.10751999314E+02 -0.27385051103E+02  0.28064524617E+02  0.50528879803E+02  0.30000060649E+02 0.  0.
         12    1    1    2    0    0 -0.10751999314E+02  0.27385051103E+02 -0.28064524617E+02  0.40659120197E+02  0.00000000000E+00 0. -1.
         11    1    3    3    0    0 -0.33660827495E+01 -0.17773685148E+02  0.10014353696E+02  0.20676597327E+02  0.51100000000E-03 0. -1.
        -11    1    3    3    0    0  0.82474000069E+01 -0.12974396747E+02  0.17141601746E+02  0.23025835240E+02  0.51100000000E-03 0.  1.
        -12    1    3    3    0    0  0.58706820571E+01  0.33630307919E+01  0.90856917615E+00  0.68264472363E+01  0.00000000000E+00 0.  1.
</event>
<event>
 7    1  0.1381607E-011  0.5052887E+02  0.7816164E-02  0.1300439E+00
        -11   -1    0    0    0    0  0.00000000000E+00  0.00000000000E+00  0.45593999997E+02  0.45594000000E+02  0.51100000000E-03 0.  1.
         11   -1    0    0    0    0 -0.00000000000E+00 -0.00000000000E+00 -0.45593999997E+02  0.45594000000E+02  0.51100000000E-03 0. -1.
    9900012    2    1    2    0    0  0.69958588181E+00  0.12809562179E+02  0.38582255162E+02  0.50528871665E+02  0.30000035912E+02 0.  0.
         12    1    1    2    0    0 -0.69958588181E+00 -0.12809562179E+02 -0.38582255162E+02  0.40659128335E+02  0.00000000000E+00 0. -1.
         11    1    3    3    0    0 -0.63733339196E+01  0.55986777575E+01  0.47494251056E+01  0.97222228414E+01  0.51100000000E-03 0. -1.
        -11    1    3    3    0    0  0.22790395845E+00  0.73833093402E+01  0.33107038700E+02  0.33921102706E+02  0.51100000000E-03 0.  1.
         12    1    3    3    0    0  0.68450158429E+01 -0.17242491840E+00  0.72579135559E+00  0.68855461174E+01  0.00000000000E+00 0. -1.
</event>
<event>
 7    1  0.1381607E-011  0.5052887E+02  0.7816164E-02  0.1300439E+00
        -11   -1    0    0    0    0  0.00000000000E+00  0.00000000000E+00  0.45593999997E+02  0.45594000000E+02  0.51100000000E-03 0.  1.
         11   -1    0    0    0    0 -0.00000000000E+00 -0.00000000000E+00 -0.45593999997E+02  0.45594000000E+02  0.51100000000E-03 0. -1.
    9900012    2    1    2    0    0 -0.18597630137E+02  0.28373978012E+02  0.22410056118E+02  0.50528867076E+02  0.30000021965E+02 0.  0.
         12    1    1    2    0    0  0.18597630137E+02 -0.28373978012E+02 -0.22410056118E+02  0.40659132924E+02  0.00000000000E+00 0. -1.
         11    1    3    3    0    0 -0.70314944677E+01  0.18166955589E+01  0.84062337552E+01  0.11108873184E+02  0.51100000000E-03 0. -1.
        -11    1    3    3    0    0  0.34373473705E+01  0.12343107002E+02  0.13689304763E+02  0.18750059001E+02  0.51100000000E-03 0.  1.
         12    1    3    3    0    0 -0.15003483040E+02  0.14214175451E+02  0.31451759957E+00  0.20669934891E+02  0.00000000000E+00 0. -1.
</event>
<event>
 7    1  0.1381607E-011  0.5052886E+02  0.7816164E-02  0.1300439E+00
        -11   -1    0    0    0    0  0.00000000000E+00  0.00000000000E+00  0.45593999997E+02  0.45594000000E+02  0.51100000000E-03 0. -1.
         11   -1    0    0    0    0 -0.00000000000E+00 -0.00000000000E+00 -0.45593999997E+02  0.45594000000E+02  0.51100000000E-03 0.  1.
    9900012    2    1    2    0    0 -0.11747761948E+02  0.24093962740E+02 -0.30571833789E+02  0.50528856225E+02  0.29999988981E+02 0.  0.
         12    1    1    2    0    0  0.11747761948E+02 -0.24093962740E+02  0.30571833789E+02  0.40659143775E+02  0.00000000000E+00 0. -1.
         11    1    3    3    0    0 -0.53757608194E+01  0.12171881514E+02 -0.11702025201E+02  0.17719788318E+02  0.51100000000E-03 0.  1.
        -11    1    3    3    0    0  0.55071980296E+01  0.75707363894E+00 -0.15079766467E+02  0.16071768651E+02  0.51100000000E-03 0. -1.
         12    1    3    3    0    0 -0.11879199159E+02  0.11165007587E+02 -0.37900421212E+01  0.16737299255E+02  0.00000000000E+00 0. -1.
</event>
<event>
 7    1  0.1381607E-011  0.5052886E+02  0.7816164E-02  0.1300439E+00
        -11   -1    0    0    0    0  0.00000000000E+00  0.00000000000E+00  0.45593999997E+02  0.45594000000E+02  0.51100000000E-03 0. -1.
         11   -1    0    0    0    0 -0.00000000000E+00 -0.00000000000E+00 -0.45593999997E+02  0.45594000000E+02  0.51100000000E-03 0.  1.
    9900012    2    1    2    0    0 -0.34159881203E+02  0.68176345987E+01  0.20971124154E+02  0.50528859901E+02  0.30000000155E+02 0.  0.
         12    1    1    2    0    0  0.34159881203E+02 -0.68176345987E+01 -0.20971124154E+02  0.40659140099E+02  0.00000000000E+00 0. -1.
         11    1    3    3    0    0 -0.10217552262E+02  0.88659391877E+01  0.86457425409E+01  0.16054660266E+02  0.51100000000E-03 0. -1.
        -11    1    3    3    0    0 -0.21641882081E+01  0.26048056445E+01 -0.51519019603E+01  0.61652913245E+01  0.51100000000E-03 0.  1.
         12    1    3    3    0    0 -0.21778140733E+02 -0.46531102335E+01  0.17477283574E+02  0.28308908311E+02  0.00000000000E+00 0. -1.
</event>
<event>
 7    1  0.1381607E-011  0.5052887E+02  0.7816164E-02  0.1300439E+00
        -11   -1    0    0    0    0  0.00000000000E+00  0.00000000000E+00  0.45593999997E+02  0.45594000000E+02  0.51100000000E-03 0.  1.
         11   -1    0    0    0    0 -0.00000000000E+00 -0.00000000000E+00 -0.45593999997E+02  0.45594000000E+02  0.51100000000E-03 0. -1.
    9900012    2    1    2    0    0  0.32783411633E+00  0.21219229588E+02 -0.34681435502E+02  0.50528866364E+02  0.30000019801E+02 0.  0.
         12    1    1    2    0    0 -0.32783411633E+00 -0.21219229588E+02  0.34681435502E+02  0.40659133636E+02  0.00000000000E+00 0. -1.
         11    1    3    3    0    0  0.98635271756E+01  0.51946659060E+01 -0.94240734107E+01  0.14597495749E+02  0.51100000000E-03 0. -1.
        -11    1    3    3    0    0 -0.37973186163E+01  0.10381011380E+01  0.19122179426E+01  0.43765123520E+01  0.51100000000E-03 0.  1.
         12    1    3    3    0    0 -0.57383744430E+01  0.14986462544E+02 -0.27169580034E+02  0.31554858264E+02  0.00000000000E+00 0. -1.
</event>
<event>
 7    1  0.1381607E-011  0.5052886E+02  0.7816164E-02  0.1300439E+00
        -11   -1    0    0    0    0  0.00000000000E+00  0.00000000000E+00  0.45593999997E+02  0.45594000000E+02  0.51100000000E-03 0. -1.
         11   -1    0    0    0    0 -0.00000000000E+00 -0.00000000000E+00 -0.45593999997E+02  0.45594000000E+02  0.51100000000E-03 0.  1.
    9900012    2    1    2    0    0 -0.11770327872E+02 -0.33379468523E+02 -0.20010896198E+02  0.50528861990E+02  0.30000006504E+02 0.  0.
         12    1    1    2    0    0  0.11770327872E+02  0.33379468523E+02  0.20010896198E+02  0.40659138010E+02  0.00000000000E+00 0. -1.
         11    1    3    3    0    0 -0.14608969499E+02 -0.15974712137E+02 -0.73211715719E+01  0.22851979589E+02  0.51100000000E-03 0. -1.
        -11    1    3    3    0    0 -0.24530102578E+01 -0.14296319236E+02 -0.15232338008E+02  0.21033927938E+02  0.51100000000E-03 0.  1.
         12    1    3    3    0    0  0.52916518853E+01 -0.31084371497E+01  0.25426133820E+01  0.66429544631E+01  0.00000000000E+00 0. -1.
</event>
<event>
 7    1  0.1381607E-011  0.5052886E+02  0.7816164E-02  0.1300439E+00
        -11   -1    0    0    0    0  0.00000000000E+00  0.00000000000E+00  0.45593999997E+02  0.45594000000E+02  0.51100000000E-03 0. -1.
         11   -1    0    0    0    0 -0.00000000000E+00 -0.00000000000E+00 -0.45593999997E+02  0.45594000000E+02  0.51100000000E-03 0.  1.
    9900012    2    1    2    0    0 -0.13516453499E+02  0.25396371364E+02  0.28731437118E+02  0.50528859914E+02  0.30000000196E+02 0.  0.
         12    1    1    2    0    0  0.13516453499E+02 -0.25396371364E+02 -0.28731437118E+02  0.40659140086E+02  0.00000000000E+00 0. -1.
         11    1    3    3    0    0 -0.40822429966E+01 -0.22153178938E+01  0.12466226505E+02  0.13303350886E+02  0.51100000000E-03 0. -1.
        -11    1    3    3    0    0 -0.43188766339E+01  0.12150190241E+01 -0.17983023033E+01  0.48335140470E+01  0.51100000000E-03 0.  1.
         12    1    3    3    0    0 -0.51153338684E+01  0.26396670234E+02  0.18063512916E+02  0.32391994981E+02  0.00000000000E+00 0. -1.
</event>
<event>
 7    1  0.1381607E-011  0.5052886E+02  0.7816164E-02  0.1300439E+00
        -11   -1    0    0    0    0  0.00000000000E+00  0.00000000000E+00  0.45593999997E+02  0.45594000000E+02  0.51100000000E-03 0. -1.
         11   -1    0    0    0    0 -0.00000000000E+00 -0.00000000000E+00 -0.45593999997E+02  0.45594000000E+02  0.51100000000E-03 0.  1.
    9900012    2    1    2    0    0  0.28415269705E+02  0.28194914244E+02  0.71263488320E+01  0.50528860938E+02  0.30000003306E+02 0.  0.
         12    1    1    2    0    0 -0.28415269705E+02 -0.28194914244E+02 -0.71263488320E+01  0.40659139062E+02  0.00000000000E+00 0. -1.
         11    1    3    3    0    0  0.13465379017E+01  0.87206107864E+00 -0.34792920026E+01  0.38313350083E+01  0.51100000000E-03 0. -1.
        -11    1    3    3    0    0  0.30787240364E+02  0.23929985133E+02  0.52463510741E+01  0.39344917812E+02  0.51100000000E-03 0.  1.
         12    1    3    3    0    0 -0.37185085609E+01  0.33928680316E+01  0.53592897604E+01  0.73526081178E+01  0.00000000000E+00 0. -1.
</event>
<event>
 7    1  0.1381607E-011  0.5052887E+02  0.7816164E-02  0.1300439E+00
        -11   -1    0    0    0    0  0.00000000000E+00  0.00000000000E+00  0.45593999997E+02  0.45594000000E+02  0.51100000000E-03 0.  1.
         11   -1    0    0    0    0 -0.00000000000E+00 -0.00000000000E+00 -0.45593999997E+02  0.45594000000E+02  0.51100000000E-03 0. -1.
    9900012    2    1    2    0    0 -0.20978457825E+02 -0.31182411709E+02  0.15515364004E+02  0.50528868026E+02  0.30000024852E+02 0.  0.
         12    1    1    2    0    0  0.20978457825E+02  0.31182411709E+02 -0.15515364004E+02  0.40659131974E+02  0.00000000000E+00 0. -1.
         11    1    3    3    0    0 -0.19551808144E+01 -0.88872514310E+01  0.30578832572E+00  0.91049149790E+01  0.51100000000E-03 0. -1.
        -11    1    3    3    0    0 -0.72330761547E+01  0.51914186983E+00  0.13938147934E+02  0.15711742966E+02  0.51100000000E-03 0.  1.
         12    1    3    3    0    0 -0.11790200856E+02 -0.22814302148E+02  0.12714277435E+01  0.25712210081E+02  0.00000000000E+00 0. -1.
</event>
<event>
 7    1  0.1381607E-011  0.5052886E+02  0.7816164E-02  0.1300439E+00
        -11   -1    0    0    0    0  0.00000000000E+00  0.00000000000E+00  0.45593999997E+02  0.45594000000E+02  0.51100000000E-03 0.  1.
         11   -1    0    0    0    0 -0.00000000000E+00 -0.00000000000E+00 -0.45593999997E+02  0.45594000000E+02  0.51100000000E-03 0. -1.
    9900012    2    1    2    0    0  0.25624811997E+01  0.39008589131E+02  0.11177196944E+02  0.50528855058E+02  0.29999985435E+02 0.  0.
         12    1    1    2    0    0 -0.25624811997E+01 -0.39008589131E+02 -0.11177196944E+02  0.40659144942E+02  0.00000000000E+00 0. -1.
         11    1    3    3    0    0  0.33064410776E+01  0.10431706439E+02  0.59282098632E+01  0.12445751254E+02  0.51100000000E-03 0.  1.
        -11    1    3    3    0    0  0.83606614229E+01  0.17046884431E+02 -0.56282120581E+01  0.19803375961E+02  0.51100000000E-03 0. -1.
         12    1    3    3    0    0 -0.91046213008E+01  0.11529998261E+02  0.10877199139E+02  0.18279727843E+02  0.00000000000E+00 0. -1.
</event>
<event>
 7    1  0.1381607E-011  0.5052887E+02  0.7816164E-02  0.1300439E+00
        -11   -1    0    0    0    0  0.00000000000E+00  0.00000000000E+00  0.45593999997E+02  0.45594000000E+02  0.51100000000E-03 0. -1.
         11   -1    0    0    0    0 -0.00000000000E+00 -0.00000000000E+00 -0.45593999997E+02  0.45594000000E+02  0.51100000000E-03 0.  1.
    9900012    2    1    2    0    0  0.12975755318E+02  0.17621267614E+01 -0.38492722198E+02  0.50528868442E+02  0.30000026118E+02 0.  0.
         12    1    1    2    0    0 -0.12975755318E+02 -0.17621267614E+01  0.38492722198E+02  0.40659131558E+02  0.00000000000E+00 0. -1.
         11    1    3    3    0    0 -0.83863291487E-01 -0.60193097403E+01 -0.15497487328E+02  0.16625619884E+02  0.51100000000E-03 0. -1.
        -11    1    3    3    0    0  0.14314225971E+02  0.84829441299E+00 -0.60721092862E+01  0.15571999872E+02  0.51100000000E-03 0.  1.
         12    1    3    3    0    0 -0.12546073619E+01  0.69331420888E+01 -0.16923125584E+02  0.18331248686E+02  0.00000000000E+00 0. -1.
</event>
<event>
 7    1  0.1381607E-011  0.5052884E+02  0.7816164E-02  0.1300439E+00
        -11   -1    0    0    0    0  0.00000000000E+00  0.00000000000E+00  0.45593999997E+02  0.45594000000E+02  0.51100000000E-03 0. -1.
         11   -1    0    0    0    0 -0.00000000000E+00 -0.00000000000E+00 -0.45593999997E+02  0.45594000000E+02  0.51100000000E-03 0.  1.
    9900012    2    1    2    0    0  0.33615068454E+02  0.55664895060E+01  0.22185770454E+02  0.50528843058E+02  0.29999948959E+02 0.  0.
         12    1    1    2    0    0 -0.33615068454E+02 -0.55664895060E+01 -0.22185770454E+02  0.40659156942E+02  0.00000000000E+00 0. -1.
         11    1    3    3    0    0  0.46112994589E+01  0.59822543510E+01 -0.12427501485E+01  0.76547944461E+01  0.51100000000E-03 0. -1.
        -11    1    3    3    0    0 -0.12985781068E+00  0.14611454561E+01 -0.30985132647E+01  0.34282056251E+01  0.51100000000E-03 0.  1.
         12    1    3    3    0    0  0.29133626806E+02 -0.18769103011E+01  0.26527033867E+02  0.39445842987E+02  0.00000000000E+00 0. -1.
</event>
<event>
 7    1  0.1381607E-011  0.5052886E+02  0.7816164E-02  0.1300439E+00
        -11   -1    0    0    0    0  0.00000000000E+00  0.00000000000E+00  0.45593999997E+02  0.45594000000E+02  0.51100000000E-03 0. -1.
         11   -1    0    0    0    0 -0.00000000000E+00 -0.00000000000E+00 -0.45593999997E+02  0.45594000000E+02  0.51100000000E-03 0.  1.
    9900012    2    1    2    0    0 -0.22817660828E+02  0.26341665224E+02 -0.20943653484E+02  0.50528860883E+02  0.30000003140E+02 0.  0.
         12    1    1    2    0    0  0.22817660828E+02 -0.26341665224E+02  0.20943653484E+02  0.40659139117E+02  0.00000000000E+00 0. -1.
         11    1    3    3    0    0 -0.14537702978E+02  0.68924940607E+01 -0.61814941599E+01  0.17235491074E+02  0.51100000000E-03 0. -1.
        -11    1    3    3    0    0 -0.12344854416E+02  0.19955186070E+02 -0.69502837160E+01  0.24472664866E+02  0.51100000000E-03 0.  1.
        -12    1    3    3    0    0  0.40648965660E+01 -0.50601490633E+00 -0.78118756084E+01  0.88207049435E+01  0.00000000000E+00 0.  1.
</event>
<event>
 7    1  0.1381607E-011  0.5052886E+02  0.7816164E-02  0.1300439E+00
        -11   -1    0    0    0    0  0.00000000000E+00  0.00000000000E+00  0.45593999997E+02  0.45594000000E+02  0.51100000000E-03 0. -1.
         11   -1    0    0    0    0 -0.00000000000E+00 -0.00000000000E+00 -0.45593999997E+02  0.45594000000E+02  0.51100000000E-03 0.  1.
    9900012    2    1    2    0    0 -0.70407946049E+01  0.38017844468E+02  0.12579205678E+02  0.50528859550E+02  0.29999999089E+02 0.  0.
         12    1    1    2    0    0  0.70407946049E+01 -0.38017844468E+02 -0.12579205678E+02  0.40659140450E+02  0.00000000000E+00 0. -1.
         11    1    3    3    0    0 -0.59065461408E+01  0.18708679377E+02  0.19737409535E+02  0.27829252716E+02  0.51100000000E-03 0. -1.
        -11    1    3    3    0    0 -0.14812068499E+01  0.10922835311E+02  0.90592453250E+00  0.11059973078E+02  0.51100000000E-03 0.  1.
        -12    1    3    3    0    0  0.34695838583E+00  0.83863297795E+01 -0.80641283894E+01  0.11639633756E+02  0.00000000000E+00 0.  1.
</event>
<event>
 7    1  0.1381607E-011  0.5052886E+02  0.7816164E-02  0.1300439E+00
        -11   -1    0    0    0    0  0.00000000000E+00  0.00000000000E+00  0.45593999997E+02  0.45594000000E+02  0.51100000000E-03 0.  1.
         11   -1    0    0    0    0 -0.00000000000E+00 -0.00000000000E+00 -0.45593999997E+02  0.45594000000E+02  0.51100000000E-03 0. -1.
    9900012    2    1    2    0    0 -0.25507292578E+02 -0.44816682163E+01  0.31344191179E+02  0.50528860249E+02  0.30000001212E+02 0.  0.
         12    1    1    2    0    0  0.25507292578E+02  0.44816682163E+01 -0.31344191179E+02  0.40659139751E+02  0.00000000000E+00 0. -1.
         11    1    3    3    0    0 -0.19502767546E+02  0.26044263909E+01  0.75988265673E+01  0.21092253180E+02  0.51100000000E-03 0. -1.
        -11    1    3    3    0    0 -0.10704741926E+02 -0.57680226885E+01  0.14047107741E+02  0.18579096361E+02  0.51100000000E-03 0.  1.
         12    1    3    3    0    0  0.47002168938E+01 -0.13180719187E+01  0.96982568705E+01  0.10857510707E+02  0.00000000000E+00 0. -1.
</event>
<event>
 7    1  0.1381607E-011  0.5052886E+02  0.7816164E-02  0.1300439E+00
        -11   -1    0    0    0    0  0.00000000000E+00  0.00000000000E+00  0.45593999997E+02  0.45594000000E+02  0.51100000000E-03 0. -1.
         11   -1    0    0    0    0 -0.00000000000E+00 -0.00000000000E+00 -0.45593999997E+02  0.45594000000E+02  0.51100000000E-03 0.  1.
    9900012    2    1    2    0    0 -0.23410991270E+02  0.25132550498E+02 -0.21758811578E+02  0.50528862182E+02  0.30000007089E+02 0.  0.
         12    1    1    2    0    0  0.23410991270E+02 -0.25132550498E+02  0.21758811578E+02  0.40659137818E+02  0.00000000000E+00 0. -1.
         11    1    3    3    0    0 -0.18344153837E+02  0.75958104633E+01 -0.15178813226E+02  0.24992012480E+02  0.51100000000E-03 0. -1.
        -11    1    3    3    0    0 -0.91443647237E+01  0.18287823157E+02 -0.62362516859E+01  0.21376499184E+02  0.51100000000E-03 0.  1.
         12    1    3    3    0    0  0.40775272906E+01 -0.75108312171E+00 -0.34374666610E+00  0.41603505179E+01  0.00000000000E+00 0. -1.
</event>
<event>
 7    1  0.1381607E-011  0.5052886E+02  0.7816164E-02  0.1300439E+00
        -11   -1    0    0    0    0  0.00000000000E+00  0.00000000000E+00  0.45593999997E+02  0.45594000000E+02  0.51100000000E-03 0.  1.
         11   -1    0    0    0    0 -0.00000000000E+00 -0.00000000000E+00 -0.45593999997E+02  0.45594000000E+02  0.51100000000E-03 0. -1.
    9900012    2    1    2    0    0  0.18500639430E+02  0.24068728838E+02 -0.27047892638E+02  0.50528857567E+02  0.29999993060E+02 0.  0.
         12    1    1    2    0    0 -0.18500639430E+02 -0.24068728838E+02  0.27047892638E+02  0.40659142433E+02  0.00000000000E+00 0. -1.
         11    1    3    3    0    0  0.53146291403E+01 -0.45465979517E+01 -0.28532939951E+01  0.75536827255E+01  0.51100000000E-03 0. -1.
        -11    1    3    3    0    0  0.54208372057E+01  0.75560153706E+01  0.85753693092E+00  0.93388550765E+01  0.51100000000E-03 0.  1.
         12    1    3    3    0    0  0.77651730843E+01  0.21059311420E+02 -0.25052135574E+02  0.33636319765E+02  0.00000000000E+00 0. -1.
</event>
<event>
 7    1  0.1381607E-011  0.5052887E+02  0.7816164E-02  0.1300439E+00
        -11   -1    0    0    0    0  0.00000000000E+00  0.00000000000E+00  0.45593999997E+02  0.45594000000E+02  0.51100000000E-03 0.  1.
         11   -1    0    0    0    0 -0.00000000000E+00 -0.00000000000E+00 -0.45593999997E+02  0.45594000000E+02  0.51100000000E-03 0. -1.
    9900012    2    1    2    0    0  0.31206800474E+02  0.26002555291E+02  0.17798169977E+01  0.50528867864E+02  0.30000024361E+02 0.  0.
         12    1    1    2    0    0 -0.31206800474E+02 -0.26002555291E+02 -0.17798169977E+01  0.40659132136E+02  0.00000000000E+00 0. -1.
         11    1    3    3    0    0  0.15892662922E+02  0.12652456623E+02 -0.13538026490E+01  0.20359130021E+02  0.51100000000E-03 0.  1.
        -11    1    3    3    0    0  0.10630560735E+02 -0.44743284359E+01  0.41910246029E+00  0.11541407351E+02  0.51100000000E-03 0. -1.
         12    1    3    3    0    0  0.46835768164E+01  0.17824427104E+02  0.27145171864E+01  0.18628330492E+02  0.00000000000E+00 0. -1.
</event>
<event>
 7    1  0.1381607E-011  0.5052886E+02  0.7816164E-02  0.1300439E+00
        -11   -1    0    0    0    0  0.00000000000E+00  0.00000000000E+00  0.45593999997E+02  0.45594000000E+02  0.51100000000E-03 0.  1.
         11   -1    0    0    0    0 -0.00000000000E+00 -0.00000000000E+00 -0.45593999997E+02  0.45594000000E+02  0.51100000000E-03 0. -1.
    9900012    2    1    2    0    0 -0.17687319722E+02  0.96083184739E+01  0.35327106773E+02  0.50528861596E+02  0.30000005307E+02 0.  0.
         12    1    1    2    0    0  0.17687319722E+02 -0.96083184739E+01 -0.35327106773E+02  0.40659138404E+02  0.00000000000E+00 0. -1.
         11    1    3    3    0    0 -0.16567211072E+02  0.30454794713E+01  0.17860342736E+02  0.24550748885E+02  0.51100000000E-03 0. -1.
        -11    1    3    3    0    0 -0.41536232661E+01  0.37040721273E+01  0.20227055690E+02  0.20978715850E+02  0.51100000000E-03 0.  1.
         12    1    3    3    0    0  0.30335146160E+01  0.28587668753E+01 -0.27602916525E+01  0.49993968616E+01  0.00000000000E+00 0. -1.
</event>
<event>
 7    1  0.1381607E-011  0.5052887E+02  0.7816164E-02  0.1300439E+00
        -11   -1    0    0    0    0  0.00000000000E+00  0.00000000000E+00  0.45593999997E+02  0.45594000000E+02  0.51100000000E-03 0.  1.
         11   -1    0    0    0    0 -0.00000000000E+00 -0.00000000000E+00 -0.45593999997E+02  0.45594000000E+02  0.51100000000E-03 0. -1.
    9900012    2    1    2    0    0 -0.11158571534E+02 -0.36086209960E+02  0.15047804221E+02  0.50528872122E+02  0.30000037301E+02 0.  0.
         12    1    1    2    0    0  0.11158571534E+02  0.36086209960E+02 -0.15047804221E+02  0.40659127878E+02  0.00000000000E+00 0. -1.
         11    1    3    3    0    0 -0.14462900113E+01 -0.27576120205E+01  0.89943688572E+01  0.95181327083E+01  0.51100000000E-03 0. -1.
        -11    1    3    3    0    0 -0.36334796897E+01 -0.20738217538E+02  0.13657237763E+02  0.25095736389E+02  0.51100000000E-03 0.  1.
         12    1    3    3    0    0 -0.60788018326E+01 -0.12590380401E+02 -0.76038023985E+01  0.15915003025E+02  0.00000000000E+00 0. -1.
</event>
<event>
 7    1  0.1381607E-011  0.5052885E+02  0.7816164E-02  0.1300439E+00
        -11   -1    0    0    0    0  0.00000000000E+00  0.00000000000E+00  0.45593999997E+02  0.45594000000E+02  0.51100000000E-03 0.  1.
         11   -1    0    0    0    0 -0.00000000000E+00 -0.00000000000E+00 -0.45593999997E+02  0.45594000000E+02  0.51100000000E-03 0. -1.
    9900012    2    1    2    0    0 -0.25556864365E+02 -0.20051358696E+02  0.24453137195E+02  0.50528853177E+02  0.29999979717E+02 0.  0.
         12    1    1    2    0    0  0.25556864365E+02  0.20051358696E+02 -0.24453137195E+02  0.40659146823E+02  0.00000000000E+00 0. -1.
         11    1    3    3    0    0 -0.33052354454E+01 -0.79953023152E+01  0.13616072979E+02  0.16132169231E+02  0.51100000000E-03 0.  1.
        -11    1    3    3    0    0 -0.24040181787E+02 -0.13806241112E+02  0.13420316004E+02  0.30800122011E+02  0.51100000000E-03 0. -1.
         12    1    3    3    0    0  0.17885528670E+01  0.17501847319E+01 -0.25832517882E+01  0.35965619354E+01  0.00000000000E+00 0. -1.
</event>
<event>
 7    1  0.1381607E-011  0.5052883E+02  0.7816164E-02  0.1300439E+00
        -11   -1    0    0    0    0  0.00000000000E+00  0.00000000000E+00  0.45593999997E+02  0.45594000000E+02  0.51100000000E-03 0. -1.
         11   -1    0    0    0    0 -0.00000000000E+00 -0.00000000000E+00 -0.45593999997E+02  0.45594000000E+02  0.51100000000E-03 0.  1.
    9900012    2    1    2    0    0 -0.10062572060E+02 -0.35178046563E+02  0.17731837807E+02  0.50528826515E+02  0.29999898676E+02 0.  0.
         12    1    1    2    0    0  0.10062572060E+02  0.35178046563E+02 -0.17731837807E+02  0.40659173485E+02  0.00000000000E+00 0. -1.
         11    1    3    3    0    0 -0.11442927516E+02 -0.14010104915E+02  0.14327406714E+02  0.23075922805E+02  0.51100000000E-03 0. -1.
        -11    1    3    3    0    0  0.22444933704E+01 -0.10498854761E+02  0.10171426597E+02  0.14789240043E+02  0.51100000000E-03 0.  1.
         12    1    3    3    0    0 -0.86413791414E+00 -0.10669086887E+02 -0.67669955041E+01  0.12663663668E+02  0.00000000000E+00 0. -1.
</event>
<event>
 7    1  0.1381607E-011  0.5052886E+02  0.7816164E-02  0.1300439E+00
        -11   -1    0    0    0    0  0.00000000000E+00  0.00000000000E+00  0.45593999997E+02  0.45594000000E+02  0.51100000000E-03 0.  1.
         11   -1    0    0    0    0 -0.00000000000E+00 -0.00000000000E+00 -0.45593999997E+02  0.45594000000E+02  0.51100000000E-03 0. -1.
    9900012    2    1    2    0    0  0.75785453986E+01 -0.12338585783E+02  0.37993295656E+02  0.50528861245E+02  0.30000004239E+02 0.  0.
         12    1    1    2    0    0 -0.75785453986E+01  0.12338585783E+02 -0.37993295656E+02  0.40659138755E+02  0.00000000000E+00 0. -1.
         11    1    3    3    0    0 -0.23823627147E+00 -0.98219714197E+01  0.51017401344E+01  0.11070484712E+02  0.51100000000E-03 0. -1.
        -11    1    3    3    0    0 -0.60562487095E+01  0.29691472292E+01  0.12340359738E+02  0.14063373081E+02  0.51100000000E-03 0.  1.
         12    1    3    3    0    0  0.13873030380E+02 -0.54857615924E+01  0.20551195784E+02  0.25395003452E+02  0.00000000000E+00 0. -1.
</event>
<event>
 7    1  0.1381607E-011  0.5052887E+02  0.7816164E-02  0.1300439E+00
        -11   -1    0    0    0    0  0.00000000000E+00  0.00000000000E+00  0.45593999997E+02  0.45594000000E+02  0.51100000000E-03 0.  1.
         11   -1    0    0    0    0 -0.00000000000E+00 -0.00000000000E+00 -0.45593999997E+02  0.45594000000E+02  0.51100000000E-03 0. -1.
    9900012    2    1    2    0    0  0.34299498433E+02  0.16882679906E+02  0.13845013987E+02  0.50528869588E+02  0.30000029600E+02 0.  0.
         12    1    1    2    0    0 -0.34299498433E+02 -0.16882679906E+02 -0.13845013987E+02  0.40659130412E+02  0.00000000000E+00 0. -1.
         11    1    3    3    0    0  0.75683833567E+01  0.11692308850E+02  0.25593859822E+01  0.14161248876E+02  0.51100000000E-03 0. -1.
        -11    1    3    3    0    0 -0.21108264835E+01  0.12127383159E+01 -0.30600731188E+01  0.39102903242E+01  0.51100000000E-03 0.  1.
        -12    1    3    3    0    0  0.28841941560E+02  0.39776327400E+01  0.14345701123E+02  0.32457330387E+02  0.00000000000E+00 0.  1.
</event>
<event>
 7    1  0.1381607E-011  0.5052886E+02  0.7816164E-02  0.1300439E+00
        -11   -1    0    0    0    0  0.00000000000E+00  0.00000000000E+00  0.45593999997E+02  0.45594000000E+02  0.51100000000E-03 0. -1.
         11   -1    0    0    0    0 -0.00000000000E+00 -0.00000000000E+00 -0.45593999997E+02  0.45594000000E+02  0.51100000000E-03 0.  1.
    9900012    2    1    2    0    0  0.32944369192E+02 -0.23751460102E+02  0.19240947882E+01  0.50528862538E+02  0.30000008169E+02 0.  0.
         12    1    1    2    0    0 -0.32944369192E+02  0.23751460102E+02 -0.19240947882E+01  0.40659137462E+02  0.00000000000E+00 0. -1.
         11    1    3    3    0    0  0.40341394914E+01 -0.15207204170E+02 -0.55539153521E+01  0.16684703057E+02  0.51100000000E-03 0. -1.
        -11    1    3    3    0    0  0.11913469689E+02 -0.10174955446E+02  0.14400361113E+01  0.15733219080E+02  0.51100000000E-03 0.  1.
        -12    1    3    3    0    0  0.16996760011E+02  0.16306995144E+01  0.60379740290E+01  0.18110940400E+02  0.00000000000E+00 0.  1.
</event>
<event>
 7    1  0.1381607E-011  0.5052886E+02  0.7816164E-02  0.1300439E+00
        -11   -1    0    0    0    0  0.00000000000E+00  0.00000000000E+00  0.45593999997E+02  0.45594000000E+02  0.51100000000E-03 0.  1.
         11   -1    0    0    0    0 -0.00000000000E+00 -0.00000000000E+00 -0.45593999997E+02  0.45594000000E+02  0.51100000000E-03 0. -1.
    9900012    2    1    2    0    0 -0.39460922951E+02  0.84958254622E+01  0.48808014818E+01  0.50528859410E+02  0.29999998662E+02 0.  0.
         12    1    1    2    0    0  0.39460922951E+02 -0.84958254622E+01 -0.48808014818E+01  0.40659140590E+02  0.00000000000E+00 0. -1.
         11    1    3    3    0    0  0.41712117532E+00  0.67964339700E+01  0.14366604627E+01  0.69591305729E+01  0.51100000000E-03 0. -1.
        -11    1    3    3    0    0 -0.13418576256E+02  0.13920713676E+01  0.94050305286E+01  0.16445383879E+02  0.51100000000E-03 0.  1.
         12    1    3    3    0    0 -0.26459467870E+02  0.30732012456E+00 -0.59608895095E+01  0.27124344958E+02  0.00000000000E+00 0. -1.
</event>
<event>
 7    1  0.1381607E-011  0.5052886E+02  0.7816164E-02  0.1300439E+00
        -11   -1    0    0    0    0  0.00000000000E+00  0.00000000000E+00  0.45593999997E+02  0.45594000000E+02  0.51100000000E-03 0.  1.
         11   -1    0    0    0    0 -0.00000000000E+00 -0.00000000000E+00 -0.45593999997E+02  0.45594000000E+02  0.51100000000E-03 0. -1.
    9900012    2    1    2    0    0 -0.13479930806E+02  0.81699143284E+01  0.37479457255E+02  0.50528858951E+02  0.29999997269E+02 0.  0.
         12    1    1    2    0    0  0.13479930806E+02 -0.81699143284E+01 -0.37479457255E+02  0.40659141049E+02  0.00000000000E+00 0. -1.
         11    1    3    3    0    0  0.16271491071E+01 -0.36506282569E+01  0.34767301258E+01  0.52973911990E+01  0.51100000000E-03 0. -1.
        -11    1    3    3    0    0 -0.13240484134E+02 -0.13440391985E+01  0.27233189630E+02  0.30311111480E+02  0.51100000000E-03 0.  1.
         12    1    3    3    0    0 -0.18665957793E+01  0.13164581784E+02  0.67695374998E+01  0.14920356273E+02  0.00000000000E+00 0. -1.
</event>
<event>
 7    1  0.1381607E-011  0.5052886E+02  0.7816164E-02  0.1300439E+00
        -11   -1    0    0    0    0  0.00000000000E+00  0.00000000000E+00  0.45593999997E+02  0.45594000000E+02  0.51100000000E-03 0.  1.
         11   -1    0    0    0    0 -0.00000000000E+00 -0.00000000000E+00 -0.45593999997E+02  0.45594000000E+02  0.51100000000E-03 0. -1.
    9900012    2    1    2    0    0  0.24566385002E+02  0.20550828441E+02  0.25046397888E+02  0.50528857500E+02  0.29999992857E+02 0.  0.
         12    1    1    2    0    0 -0.24566385002E+02 -0.20550828441E+02 -0.25046397888E+02  0.40659142500E+02  0.00000000000E+00 0. -1.
         11    1    3    3    0    0  0.13861747529E+02  0.62233594984E+01  0.44640848147E+01  0.15836865267E+02  0.51100000000E-03 0. -1.
        -11    1    3    3    0    0  0.10730225258E+02  0.11655064828E+02  0.24959912476E+02  0.29563076655E+02  0.51100000000E-03 0.  1.
         12    1    3    3    0    0 -0.25587784540E-01  0.26724041142E+01 -0.43775994020E+01  0.51289155782E+01  0.00000000000E+00 0. -1.
</event>
<event>
 7    1  0.1381607E-011  0.5052886E+02  0.7816164E-02  0.1300439E+00
        -11   -1    0    0    0    0  0.00000000000E+00  0.00000000000E+00  0.45593999997E+02  0.45594000000E+02  0.51100000000E-03 0. -1.
         11   -1    0    0    0    0 -0.00000000000E+00 -0.00000000000E+00 -0.45593999997E+02  0.45594000000E+02  0.51100000000E-03 0.  1.
    9900012    2    1    2    0    0  0.33616268068E+02  0.21335150470E+02  0.82415868712E+01  0.50528857381E+02  0.29999992494E+02 0.  0.
         12    1    1    2    0    0 -0.33616268068E+02 -0.21335150470E+02 -0.82415868712E+01  0.40659142619E+02  0.00000000000E+00 0. -1.
         11    1    3    3    0    0  0.13735492532E+02  0.63020210226E+01  0.12165034012E+02  0.19400187546E+02  0.51100000000E-03 0. -1.
        -11    1    3    3    0    0  0.64325660994E+01  0.16147837079E+02 -0.19542074362E+01  0.17491411490E+02  0.51100000000E-03 0.  1.
         12    1    3    3    0    0  0.13448209436E+02 -0.11147076311E+01 -0.19692397041E+01  0.13637258344E+02  0.00000000000E+00 0. -1.
</event>
<event>
 7    1  0.1381607E-011  0.5052888E+02  0.7816164E-02  0.1300439E+00
        -11   -1    0    0    0    0  0.00000000000E+00  0.00000000000E+00  0.45593999997E+02  0.45594000000E+02  0.51100000000E-03 0. -1.
         11   -1    0    0    0    0 -0.00000000000E+00 -0.00000000000E+00 -0.45593999997E+02  0.45594000000E+02  0.51100000000E-03 0.  1.
    9900012    2    1    2    0    0  0.32975180123E+02  0.22988033367E+02  0.61116449934E+01  0.50528875726E+02  0.30000048257E+02 0.  0.
         12    1    1    2    0    0 -0.32975180123E+02 -0.22988033367E+02 -0.61116449934E+01  0.40659124274E+02  0.00000000000E+00 0. -1.
         11    1    3    3    0    0  0.68753023708E+01  0.10031627527E+02  0.45235386011E+01  0.12975582271E+02  0.51100000000E-03 0. -1.
        -11    1    3    3    0    0  0.63700834464E+01  0.24854623634E+01 -0.10213426950E+02  0.12291036433E+02  0.51100000000E-03 0.  1.
         12    1    3    3    0    0  0.19729794306E+02  0.10470943476E+02  0.11801533342E+02  0.25262257022E+02  0.00000000000E+00 0. -1.
</event>
<event>
 7    1  0.1381607E-011  0.5052888E+02  0.7816164E-02  0.1300439E+00
        -11   -1    0    0    0    0  0.00000000000E+00  0.00000000000E+00  0.45593999997E+02  0.45594000000E+02  0.51100000000E-03 0. -1.
         11   -1    0    0    0    0 -0.00000000000E+00 -0.00000000000E+00 -0.45593999997E+02  0.45594000000E+02  0.51100000000E-03 0.  1.
    9900012    2    1    2    0    0  0.13947645486E+02 -0.28350293085E+02 -0.25590783102E+02  0.50528879100E+02  0.30000058512E+02 0.  0.
         12    1    1    2    0    0 -0.13947645486E+02  0.28350293085E+02  0.25590783102E+02  0.40659120900E+02  0.00000000000E+00 0. -1.
         11    1    3    3    0    0  0.95377722876E+00 -0.34862339769E-01  0.14014253390E+01  0.16955528971E+01  0.51100000000E-03 0. -1.
        -11    1    3    3    0    0  0.74170561211E+01 -0.32208310188E+02 -0.18243408813E+02  0.37751952692E+02  0.51100000000E-03 0.  1.
         12    1    3    3    0    0  0.55768121359E+01  0.38928794429E+01 -0.87487996281E+01  0.11081373511E+02  0.00000000000E+00 0. -1.
</event>
<event>
 7    1  0.1381607E-011  0.5052887E+02  0.7816164E-02  0.1300439E+00
        -11   -1    0    0    0    0  0.00000000000E+00  0.00000000000E+00  0.45593999997E+02  0.45594000000E+02  0.51100000000E-03 0.  1.
         11   -1    0    0    0    0 -0.00000000000E+00 -0.00000000000E+00 -0.45593999997E+02  0.45594000000E+02  0.51100000000E-03 0. -1.
    9900012    2    1    2    0    0  0.27035708371E+02  0.26915508921E+02  0.14063821462E+02  0.50528865458E+02  0.30000017045E+02 0.  0.
         12    1    1    2    0    0 -0.27035708371E+02 -0.26915508921E+02 -0.14063821462E+02  0.40659134542E+02  0.00000000000E+00 0. -1.
         11    1    3    3    0    0  0.12290748332E+01  0.74240154685E+01  0.97398031961E+01  0.12308143531E+02  0.51100000000E-03 0. -1.
        -11    1    3    3    0    0  0.13177999276E+02  0.58128448673E+00  0.76357603272E+01  0.15241469503E+02  0.51100000000E-03 0.  1.
         12    1    3    3    0    0  0.12628634262E+02  0.18910208966E+02 -0.33117420609E+01  0.22979252423E+02  0.00000000000E+00 0. -1.
</event>
<event>
 7    1  0.1381607E-011  0.5052886E+02  0.7816164E-02  0.1300439E+00
        -11   -1    0    0    0    0  0.00000000000E+00  0.00000000000E+00  0.45593999997E+02  0.45594000000E+02  0.51100000000E-03 0. -1.
         11   -1    0    0    0    0 -0.00000000000E+00 -0.00000000000E+00 -0.45593999997E+02  0.45594000000E+02  0.51100000000E-03 0.  1.
    9900012    2    1    2    0    0 -0.19996892475E+02  0.35367189378E+02 -0.15658441923E+01  0.50528860054E+02  0.30000000619E+02 0.  0.
         12    1    1    2    0    0  0.19996892475E+02 -0.35367189378E+02  0.15658441923E+01  0.40659139946E+02  0.00000000000E+00 0. -1.
         11    1    3    3    0    0 -0.72721381088E+00 -0.25649487607E+01 -0.31513053708E+01  0.41277751723E+01  0.51100000000E-03 0. -1.
        -11    1    3    3    0    0 -0.17042221481E+02  0.34647063607E+02 -0.47730341939E+01  0.38905503278E+02  0.51100000000E-03 0.  1.
         12    1    3    3    0    0 -0.22274571830E+01  0.32850745315E+01  0.63584953724E+01  0.74955816038E+01  0.00000000000E+00 0. -1.
</event>
<event>
 7    1  0.1381607E-011  0.5052886E+02  0.7816164E-02  0.1300439E+00
        -11   -1    0    0    0    0  0.00000000000E+00  0.00000000000E+00  0.45593999997E+02  0.45594000000E+02  0.51100000000E-03 0. -1.
         11   -1    0    0    0    0 -0.00000000000E+00 -0.00000000000E+00 -0.45593999997E+02  0.45594000000E+02  0.51100000000E-03 0.  1.
    9900012    2    1    2    0    0  0.24401033890E+02 -0.27477917375E+02 -0.17398822086E+02  0.50528863165E+02  0.30000010077E+02 0.  0.
         12    1    1    2    0    0 -0.24401033890E+02  0.27477917375E+02  0.17398822086E+02  0.40659136835E+02  0.00000000000E+00 0. -1.
         11    1    3    3    0    0  0.25942135620E+01  0.19018308596E+01 -0.17387179188E+01  0.36565071976E+01  0.51100000000E-03 0.  1.
        -11    1    3    3    0    0  0.16254415353E+02 -0.33320524854E+02 -0.15132599904E+02  0.40043213846E+02  0.51100000000E-03 0. -1.
         12    1    3    3    0    0  0.55524049751E+01  0.39407766193E+01 -0.52750426340E+00  0.68291421217E+01  0.00000000000E+00 0. -1.
</event>
<event>
 7    1  0.1381607E-011  0.5052883E+02  0.7816164E-02  0.1300439E+00
        -11   -1    0    0    0    0  0.00000000000E+00  0.00000000000E+00  0.45593999997E+02  0.45594000000E+02  0.51100000000E-03 0.  1.
         11   -1    0    0    0    0 -0.00000000000E+00 -0.00000000000E+00 -0.45593999997E+02  0.45594000000E+02  0.51100000000E-03 0. -1.
    9900012    2    1    2    0    0  0.29870443007E+01 -0.29124543771E+02  0.28213592902E+02  0.50528827505E+02  0.29999901683E+02 0.  0.
         12    1    1    2    0    0 -0.29870443007E+01  0.29124543771E+02 -0.28213592902E+02  0.40659172495E+02  0.00000000000E+00 0. -1.
         11    1    3    3    0    0 -0.45826429781E+01 -0.14477395884E+01  0.12238931814E+02  0.13148688862E+02  0.51100000000E-03 0. -1.
        -11    1    3    3    0    0 -0.56880317519E+01 -0.11306069265E+02  0.48174137469E+01  0.13542096696E+02  0.51100000000E-03 0.  1.
         12    1    3    3    0    0  0.13257719031E+02 -0.16370734918E+02  0.11157247342E+02  0.23838041947E+02  0.00000000000E+00 0. -1.
</event>
<event>
 7    1  0.1381607E-011  0.5052888E+02  0.7816164E-02  0.1300439E+00
        -11   -1    0    0    0    0  0.00000000000E+00  0.00000000000E+00  0.45593999997E+02  0.45594000000E+02  0.51100000000E-03 0. -1.
         11   -1    0    0    0    0 -0.00000000000E+00 -0.00000000000E+00 -0.45593999997E+02  0.45594000000E+02  0.51100000000E-03 0.  1.
    9900012    2    1    2    0    0 -0.25968354917E+02  0.23599280818E+02 -0.20539785152E+02  0.50528876960E+02  0.30000052009E+02 0.  0.
         12    1    1    2    0    0  0.25968354917E+02 -0.23599280818E+02  0.20539785152E+02  0.40659123040E+02  0.00000000000E+00 0. -1.
         11    1    3    3    0    0 -0.47809922155E+01 -0.25227891389E+01 -0.13581638962E+02  0.14617909179E+02  0.51100000000E-03 0. -1.
        -11    1    3    3    0    0 -0.47829753765E+01  0.24967604646E+01  0.20491431263E+01  0.57714516444E+01  0.51100000000E-03 0.  1.
        -12    1    3    3    0    0 -0.16404387325E+02  0.23625309493E+02 -0.90072893165E+01  0.30139516137E+02  0.00000000000E+00 0.  1.
</event>
<event>
 7    1  0.1381607E-011  0.5052885E+02  0.7816164E-02  0.1300439E+00
        -11   -1    0    0    0    0  0.00000000000E+00  0.00000000000E+00  0.45593999997E+02  0.45594000000E+02  0.51100000000E-03 0.  1.
         11   -1    0    0    0    0 -0.00000000000E+00 -0.00000000000E+00 -0.45593999997E+02  0.45594000000E+02  0.51100000000E-03 0. -1.
    9900012    2    1    2    0    0 -0.82155313237E+01 -0.35472645957E+02  0.18093166903E+02  0.50528852755E+02  0.29999978433E+02 0.  0.
         12    1    1    2    0    0  0.82155313237E+01  0.35472645957E+02 -0.18093166903E+02  0.40659147245E+02  0.00000000000E+00 0. -1.
         11    1    3    3    0    0  0.73551993405E+01 -0.38446357605E+01  0.21833579277E+01  0.85817966400E+01  0.51100000000E-03 0. -1.
        -11    1    3    3    0    0 -0.73399088090E+01 -0.24320981095E+02  0.39777065432E+01  0.25713936539E+02  0.51100000000E-03 0.  1.
         12    1    3    3    0    0 -0.82308218551E+01 -0.73070291022E+01  0.11932102432E+02  0.16233119575E+02  0.00000000000E+00 0. -1.
</event>
<event>
 7    1  0.1381607E-011  0.5052885E+02  0.7816164E-02  0.1300439E+00
        -11   -1    0    0    0    0  0.00000000000E+00  0.00000000000E+00  0.45593999997E+02  0.45594000000E+02  0.51100000000E-03 0.  1.
         11   -1    0    0    0    0 -0.00000000000E+00 -0.00000000000E+00 -0.45593999997E+02  0.45594000000E+02  0.51100000000E-03 0. -1.
    9900012    2    1    2    0    0  0.10318849250E+02  0.11808432008E+00  0.39327771023E+02  0.50528853828E+02  0.29999981697E+02 0.  0.
         12    1    1    2    0    0 -0.10318849250E+02 -0.11808432008E+00 -0.39327771023E+02  0.40659146172E+02  0.00000000000E+00 0. -1.
         11    1    3    3    0    0  0.76635996358E+01 -0.13099644652E+01  0.42492062260E+01  0.88601647891E+01  0.51100000000E-03 0. -1.
        -11    1    3    3    0    0 -0.68120954750E+00 -0.85560779640E+01  0.53081647710E+01  0.10091933911E+02  0.51100000000E-03 0.  1.
        -12    1    3    3    0    0  0.33364591616E+01  0.99841267493E+01  0.29770400026E+02  0.31576755128E+02  0.00000000000E+00 0.  1.
</event>
<event>
 7    1  0.1381607E-011  0.5052885E+02  0.7816164E-02  0.1300439E+00
        -11   -1    0    0    0    0  0.00000000000E+00  0.00000000000E+00  0.45593999997E+02  0.45594000000E+02  0.51100000000E-03 0. -1.
         11   -1    0    0    0    0 -0.00000000000E+00 -0.00000000000E+00 -0.45593999997E+02  0.45594000000E+02  0.51100000000E-03 0.  1.
    9900012    2    1    2    0    0 -0.36008266982E+02 -0.10201994046E+02 -0.15889939459E+02  0.50528854047E+02  0.29999982363E+02 0.  0.
         12    1    1    2    0    0  0.36008266982E+02  0.10201994046E+02  0.15889939459E+02  0.40659145953E+02  0.00000000000E+00 0. -1.
         11    1    3    3    0    0 -0.10625180768E+02 -0.11108786128E+02 -0.11256044052E+02  0.19052509639E+02  0.51100000000E-03 0. -1.
        -11    1    3    3    0    0 -0.24252670898E+02 -0.52942375439E+01 -0.34393207931E+01  0.25060924257E+02  0.51100000000E-03 0.  1.
        -12    1    3    3    0    0 -0.11304153166E+01  0.62010296260E+01 -0.11945746144E+01  0.64154201514E+01  0.00000000000E+00 0.  1.
</event>
<event>
 7    1  0.1381607E-011  0.5052893E+02  0.7816164E-02  0.1300439E+00
        -11   -1    0    0    0    0  0.00000000000E+00  0.00000000000E+00  0.45593999997E+02  0.45594000000E+02  0.51100000000E-03 0.  1.
         11   -1    0    0    0    0 -0.00000000000E+00 -0.00000000000E+00 -0.45593999997E+02  0.45594000000E+02  0.51100000000E-03 0. -1.
    9900012    2    1    2    0    0 -0.17706729306E+02 -0.14004149833E+02  0.33815902118E+02  0.50528933221E+02  0.30000223019E+02 0.  0.
         12    1    1    2    0    0  0.17706729306E+02  0.14004149833E+02 -0.33815902118E+02  0.40659066779E+02  0.00000000000E+00 0. -1.
         11    1    3    3    0    0 -0.90969378375E+01  0.15172127862E+01  0.37879082126E+01  0.99701786115E+01  0.51100000000E-03 0. -1.
        -11    1    3    3    0    0 -0.65959870874E+01 -0.19195594219E+02  0.15786325725E+02  0.25713536576E+02  0.51100000000E-03 0.  1.
         12    1    3    3    0    0 -0.20138043813E+01  0.36742315996E+01  0.14241668180E+02  0.14845218034E+02  0.00000000000E+00 0. -1.
</event>
<event>
 7    1  0.1381607E-011  0.5052886E+02  0.7816164E-02  0.1300439E+00
        -11   -1    0    0    0    0  0.00000000000E+00  0.00000000000E+00  0.45593999997E+02  0.45594000000E+02  0.51100000000E-03 0.  1.
         11   -1    0    0    0    0 -0.00000000000E+00 -0.00000000000E+00 -0.45593999997E+02  0.45594000000E+02  0.51100000000E-03 0. -1.
    9900012    2    1    2    0    0 -0.10109510790E+02  0.38968339370E+02  0.56948752854E+01  0.50528864665E+02  0.30000014636E+02 0.  0.
         12    1    1    2    0    0  0.10109510790E+02 -0.38968339370E+02 -0.56948752854E+01  0.40659135335E+02  0.00000000000E+00 0. -1.
         11    1    3    3    0    0  0.31223267337E+01  0.19121432133E+01 -0.30775978697E+01  0.47829723822E+01  0.51100000000E-03 0. -1.
        -11    1    3    3    0    0 -0.80762398290E+01  0.22930313783E+02 -0.55968066282E+01  0.24946927359E+02  0.51100000000E-03 0.  1.
         12    1    3    3    0    0 -0.51555976946E+01  0.14125882374E+02  0.14369279783E+02  0.20798964924E+02  0.00000000000E+00 0. -1.
</event>
<event>
 7    1  0.1381607E-011  0.5052887E+02  0.7816164E-02  0.1300439E+00
        -11   -1    0    0    0    0  0.00000000000E+00  0.00000000000E+00  0.45593999997E+02  0.45594000000E+02  0.51100000000E-03 0.  1.
         11   -1    0    0    0    0 -0.00000000000E+00 -0.00000000000E+00 -0.45593999997E+02  0.45594000000E+02  0.51100000000E-03 0. -1.
    9900012    2    1    2    0    0 -0.17957588435E+02 -0.21062803407E+02  0.29783359008E+02  0.50528866419E+02  0.30000019967E+02 0.  0.
         12    1    1    2    0    0  0.17957588435E+02  0.21062803407E+02 -0.29783359008E+02  0.40659133581E+02  0.00000000000E+00 0. -1.
         11    1    3    3    0    0  0.94832670817E+00  0.27328719547E+01  0.76645966570E+01  0.81923107144E+01  0.51100000000E-03 0. -1.
        -11    1    3    3    0    0 -0.17454440489E+02 -0.20855818297E+02  0.25744216538E+02  0.37448462386E+02  0.51100000000E-03 0.  1.
         12    1    3    3    0    0 -0.14514746536E+01 -0.29398570647E+01 -0.36254541871E+01  0.48880933189E+01  0.00000000000E+00 0. -1.
</event>
<event>
 7    1  0.1381607E-011  0.5052886E+02  0.7816164E-02  0.1300439E+00
        -11   -1    0    0    0    0  0.00000000000E+00  0.00000000000E+00  0.45593999997E+02  0.45594000000E+02  0.51100000000E-03 0.  1.
         11   -1    0    0    0    0 -0.00000000000E+00 -0.00000000000E+00 -0.45593999997E+02  0.45594000000E+02  0.51100000000E-03 0. -1.
    9900012    2    1    2    0    0  0.39485695454E+02  0.96460185020E+01 -0.99976622863E+00  0.50528863868E+02  0.30000012215E+02 0.  0.
         12    1    1    2    0    0 -0.39485695454E+02 -0.96460185020E+01  0.99976622863E+00  0.40659136132E+02  0.00000000000E+00 0. -1.
         11    1    3    3    0    0  0.12379679007E+01 -0.17297510740E+01  0.28451002146E+01  0.35523511642E+01  0.51100000000E-03 0. -1.
        -11    1    3    3    0    0  0.14814349811E+02 -0.40835037467E+01 -0.98704709275E+01  0.18263793685E+02  0.51100000000E-03 0.  1.
        -12    1    3    3    0    0  0.23433377743E+02  0.15459273323E+02  0.60256044842E+01  0.28712719019E+02  0.00000000000E+00 0.  1.
</event>
<event>
 7    1  0.1381607E-011  0.5052885E+02  0.7816164E-02  0.1300439E+00
        -11   -1    0    0    0    0  0.00000000000E+00  0.00000000000E+00  0.45593999997E+02  0.45594000000E+02  0.51100000000E-03 0.  1.
         11   -1    0    0    0    0 -0.00000000000E+00 -0.00000000000E+00 -0.45593999997E+02  0.45594000000E+02  0.51100000000E-03 0. -1.
    9900012    2    1    2    0    0  0.24535466930E+01  0.16111364531E+02  0.37250102394E+02  0.50528854820E+02  0.29999984712E+02 0.  0.
         12    1    1    2    0    0 -0.24535466930E+01 -0.16111364531E+02 -0.37250102394E+02  0.40659145180E+02  0.00000000000E+00 0. -1.
         11    1    3    3    0    0 -0.77819752311E+01 -0.10090566439E+01  0.60520384829E+01  0.99098185588E+01  0.51100000000E-03 0. -1.
        -11    1    3    3    0    0 -0.24107626571E+01 -0.72970996650E+00  0.94200102726E+01  0.97509408275E+01  0.51100000000E-03 0.  1.
         12    1    3    3    0    0  0.12646284581E+02  0.17850131141E+02  0.21778053638E+02  0.30868095434E+02  0.00000000000E+00 0. -1.
</event>
<event>
 7    1  0.1381607E-011  0.5052885E+02  0.7816164E-02  0.1300439E+00
        -11   -1    0    0    0    0  0.00000000000E+00  0.00000000000E+00  0.45593999997E+02  0.45594000000E+02  0.51100000000E-03 0. -1.
         11   -1    0    0    0    0 -0.00000000000E+00 -0.00000000000E+00 -0.45593999997E+02  0.45594000000E+02  0.51100000000E-03 0.  1.
    9900012    2    1    2    0    0 -0.35707897870E+02  0.86978549789E+00 -0.19425643286E+02  0.50528854483E+02  0.29999983686E+02 0.  0.
         12    1    1    2    0    0  0.35707897870E+02 -0.86978549789E+00  0.19425643286E+02  0.40659145517E+02  0.00000000000E+00 0. -1.
         11    1    3    3    0    0 -0.12611534506E+02 -0.24610575812E+01  0.10458053841E+01  0.12891908942E+02  0.51100000000E-03 0. -1.
        -11    1    3    3    0    0  0.11065806189E+01  0.63557846683E+01 -0.12248693374E+01  0.65666448488E+01  0.51100000000E-03 0.  1.
        -12    1    3    3    0    0 -0.24202943983E+02 -0.30249415892E+01 -0.19246579333E+02  0.31070300692E+02  0.00000000000E+00 0.  1.
</event>
<event>
 7    1  0.1381607E-011  0.5052886E+02  0.7816164E-02  0.1300439E+00
        -11   -1    0    0    0    0  0.00000000000E+00  0.00000000000E+00  0.45593999997E+02  0.45594000000E+02  0.51100000000E-03 0.  1.
         11   -1    0    0    0    0 -0.00000000000E+00 -0.00000000000E+00 -0.45593999997E+02  0.45594000000E+02  0.51100000000E-03 0. -1.
    9900012    2    1    2    0    0 -0.32949934219E+02 -0.19714048221E+02  0.13372515540E+02  0.50528855467E+02  0.29999986677E+02 0.  0.
         12    1    1    2    0    0  0.32949934219E+02  0.19714048221E+02 -0.13372515540E+02  0.40659144533E+02  0.00000000000E+00 0. -1.
         11    1    3    3    0    0 -0.13620732280E+02 -0.32324434662E+01 -0.55242838749E+01  0.15049609670E+02  0.51100000000E-03 0. -1.
        -11    1    3    3    0    0 -0.15864916342E+02 -0.35747529790E+01  0.74697155330E+01  0.17896119127E+02  0.51100000000E-03 0.  1.
         12    1    3    3    0    0 -0.34642855968E+01 -0.12906851776E+02  0.11427083882E+02  0.17583126670E+02  0.00000000000E+00 0. -1.
</event>
<event>
 7    1  0.1381607E-011  0.5052887E+02  0.7816164E-02  0.1300439E+00
        -11   -1    0    0    0    0  0.00000000000E+00  0.00000000000E+00  0.45593999997E+02  0.45594000000E+02  0.51100000000E-03 0.  1.
         11   -1    0    0    0    0 -0.00000000000E+00 -0.00000000000E+00 -0.45593999997E+02  0.45594000000E+02  0.51100000000E-03 0. -1.
    9900012    2    1    2    0    0  0.32574775791E+02  0.13523072114E+02  0.20228092434E+02  0.50528865470E+02  0.30000017083E+02 0.  0.
         12    1    1    2    0    0 -0.32574775791E+02 -0.13523072114E+02 -0.20228092434E+02  0.40659134530E+02  0.00000000000E+00 0. -1.
         11    1    3    3    0    0  0.15019033598E+02 -0.50664493447E+01  0.79424475218E+01  0.17729149784E+02  0.51100000000E-03 0.  1.
        -11    1    3    3    0    0  0.77043828015E+01  0.15438679491E+01 -0.24249208173E+01  0.82232161486E+01  0.51100000000E-03 0. -1.
        -12    1    3    3    0    0  0.98513593917E+01  0.17045653509E+02  0.14710565729E+02  0.24576499537E+02  0.00000000000E+00 0.  1.
</event>
<event>
 7    1  0.1381607E-011  0.5052886E+02  0.7816164E-02  0.1300439E+00
        -11   -1    0    0    0    0  0.00000000000E+00  0.00000000000E+00  0.45593999997E+02  0.45594000000E+02  0.51100000000E-03 0. -1.
         11   -1    0    0    0    0 -0.00000000000E+00 -0.00000000000E+00 -0.45593999997E+02  0.45594000000E+02  0.51100000000E-03 0.  1.
    9900012    2    1    2    0    0 -0.11628775600E+02  0.19028851855E+02 -0.33997653094E+02  0.50528855386E+02  0.29999986431E+02 0.  0.
         12    1    1    2    0    0  0.11628775600E+02 -0.19028851855E+02  0.33997653094E+02  0.40659144614E+02  0.00000000000E+00 0. -1.
         11    1    3    3    0    0  0.42594531689E+01  0.93985715362E+01 -0.24242603223E+01  0.10599675778E+02  0.51100000000E-03 0. -1.
        -11    1    3    3    0    0 -0.13522014559E+01  0.45065233755E+01 -0.20288410633E+02  0.20826829043E+02  0.51100000000E-03 0.  1.
         12    1    3    3    0    0 -0.14536027313E+02  0.51237569435E+01 -0.11284982139E+02  0.19102350566E+02  0.00000000000E+00 0. -1.
</event>
<event>
 7    1  0.1381607E-011  0.5052886E+02  0.7816164E-02  0.1300439E+00
        -11   -1    0    0    0    0  0.00000000000E+00  0.00000000000E+00  0.45593999997E+02  0.45594000000E+02  0.51100000000E-03 0.  1.
         11   -1    0    0    0    0 -0.00000000000E+00 -0.00000000000E+00 -0.45593999997E+02  0.45594000000E+02  0.51100000000E-03 0. -1.
    9900012    2    1    2    0    0  0.18246870675E+02  0.14512165819E+02  0.33310879767E+02  0.50528856415E+02  0.29999989560E+02 0.  0.
         12    1    1    2    0    0 -0.18246870675E+02 -0.14512165819E+02 -0.33310879767E+02  0.40659143585E+02  0.00000000000E+00 0. -1.
         11    1    3    3    0    0  0.59364347856E+01 -0.42198762206E+01  0.55854007138E+01  0.91785246459E+01  0.51100000000E-03 0. -1.
        -11    1    3    3    0    0  0.78081071993E+01 -0.20324147954E+01  0.13675186630E+02  0.15877908475E+02  0.51100000000E-03 0.  1.
        -12    1    3    3    0    0  0.45023286901E+01  0.20764456835E+02  0.14050292423E+02  0.25472423294E+02  0.00000000000E+00 0.  1.
</event>
<event>
 7    1  0.1381607E-011  0.5052886E+02  0.7816164E-02  0.1300439E+00
        -11   -1    0    0    0    0  0.00000000000E+00  0.00000000000E+00  0.45593999997E+02  0.45594000000E+02  0.51100000000E-03 0.  1.
         11   -1    0    0    0    0 -0.00000000000E+00 -0.00000000000E+00 -0.45593999997E+02  0.45594000000E+02  0.51100000000E-03 0. -1.
    9900012    2    1    2    0    0 -0.61008377790E+01 -0.32755791796E+02  0.23302441339E+02  0.50528857238E+02  0.29999992060E+02 0.  0.
         12    1    1    2    0    0  0.61008377790E+01  0.32755791796E+02 -0.23302441339E+02  0.40659142762E+02  0.00000000000E+00 0. -1.
         11    1    3    3    0    0 -0.19563872365E+01 -0.10728440596E+02 -0.76165225627E-01  0.10905626531E+02  0.51100000000E-03 0. -1.
        -11    1    3    3    0    0  0.86004062618E+01 -0.15098282287E+02  0.11109639434E+02  0.20623995843E+02  0.51100000000E-03 0.  1.
        -12    1    3    3    0    0 -0.12744856804E+02 -0.69290689133E+01  0.12268967130E+02  0.18999234864E+02  0.00000000000E+00 0.  1.
</event>
<event>
 7    1  0.1381607E-011  0.5052886E+02  0.7816164E-02  0.1300439E+00
        -11   -1    0    0    0    0  0.00000000000E+00  0.00000000000E+00  0.45593999997E+02  0.45594000000E+02  0.51100000000E-03 0.  1.
         11   -1    0    0    0    0 -0.00000000000E+00 -0.00000000000E+00 -0.45593999997E+02  0.45594000000E+02  0.51100000000E-03 0. -1.
    9900012    2    1    2    0    0  0.52188543396E+01 -0.33293117209E+02  0.22748568310E+02  0.50528862598E+02  0.30000008352E+02 0.  0.
         12    1    1    2    0    0 -0.52188543396E+01  0.33293117209E+02 -0.22748568310E+02  0.40659137402E+02  0.00000000000E+00 0. -1.
         11    1    3    3    0    0  0.10971152670E+01 -0.27798622905E+00 -0.82450762989E+00  0.14002683119E+01  0.51100000000E-03 0. -1.
        -11    1    3    3    0    0  0.17720555129E+01 -0.36611260638E+02  0.15127016213E+02  0.39652883956E+02  0.51100000000E-03 0.  1.
        -12    1    3    3    0    0  0.23496835597E+01  0.35961296579E+01  0.84460597267E+01  0.94757103298E+01  0.00000000000E+00 0.  1.
</event>
<event>
 7    1  0.1381607E-011  0.5052886E+02  0.7816164E-02  0.1300439E+00
        -11   -1    0    0    0    0  0.00000000000E+00  0.00000000000E+00  0.45593999997E+02  0.45594000000E+02  0.51100000000E-03 0. -1.
         11   -1    0    0    0    0 -0.00000000000E+00 -0.00000000000E+00 -0.45593999997E+02  0.45594000000E+02  0.51100000000E-03 0.  1.
    9900012    2    1    2    0    0  0.25808059482E+02 -0.81245098249E+01 -0.30349658479E+02  0.50528863709E+02  0.30000011729E+02 0.  0.
         12    1    1    2    0    0 -0.25808059482E+02  0.81245098249E+01  0.30349658479E+02  0.40659136291E+02  0.00000000000E+00 0. -1.
         11    1    3    3    0    0  0.13955185943E+02 -0.87603432862E+01 -0.99195582796E+01  0.19232484653E+02  0.51100000000E-03 0. -1.
        -11    1    3    3    0    0  0.17763629117E+02  0.21754191666E+00 -0.15834898669E+02  0.23797854105E+02  0.51100000000E-03 0.  1.
         12    1    3    3    0    0 -0.59107555785E+01  0.41829154471E+00 -0.45952015309E+01  0.74985249506E+01  0.00000000000E+00 0. -1.
</event>
<event>
 7    1  0.1381607E-011  0.5052886E+02  0.7816164E-02  0.1300439E+00
        -11   -1    0    0    0    0  0.00000000000E+00  0.00000000000E+00  0.45593999997E+02  0.45594000000E+02  0.51100000000E-03 0.  1.
         11   -1    0    0    0    0 -0.00000000000E+00 -0.00000000000E+00 -0.45593999997E+02  0.45594000000E+02  0.51100000000E-03 0. -1.
    9900012    2    1    2    0    0 -0.13274026134E+02 -0.19663102064E+02  0.33020114287E+02  0.50528864494E+02  0.30000014115E+02 0.  0.
         12    1    1    2    0    0  0.13274026134E+02  0.19663102064E+02 -0.33020114287E+02  0.40659135506E+02  0.00000000000E+00 0. -1.
         11    1    3    3    0    0 -0.61876264144E+01  0.43112369456E+01  0.10970827604E+01  0.76208316797E+01  0.51100000000E-03 0. -1.
        -11    1    3    3    0    0  0.25167078015E+01 -0.51746217847E+01  0.14280027946E+02  0.15395769782E+02  0.51100000000E-03 0.  1.
        -12    1    3    3    0    0 -0.96031075208E+01 -0.18799717225E+02  0.17643003580E+02  0.27512263032E+02  0.00000000000E+00 0.  1.
</event>
<event>
 7    1  0.1381607E-011  0.5052885E+02  0.7816164E-02  0.1300439E+00
        -11   -1    0    0    0    0  0.00000000000E+00  0.00000000000E+00  0.45593999997E+02  0.45594000000E+02  0.51100000000E-03 0. -1.
         11   -1    0    0    0    0 -0.00000000000E+00 -0.00000000000E+00 -0.45593999997E+02  0.45594000000E+02  0.51100000000E-03 0.  1.
    9900012    2    1    2    0    0  0.34304925977E+02 -0.20549744860E+02 -0.73516448127E+01  0.50528847997E+02  0.29999963972E+02 0.  0.
         12    1    1    2    0    0 -0.34304925977E+02  0.20549744860E+02  0.73516448127E+01  0.40659152003E+02  0.00000000000E+00 0. -1.
         11    1    3    3    0    0  0.13447710644E+02 -0.11431421934E+02  0.94709674155E+01  0.20030415698E+02  0.51100000000E-03 0. -1.
        -11    1    3    3    0    0  0.60445263654E+01  0.15116467012E+01 -0.90611258036E+00  0.62962222801E+01  0.51100000000E-03 0.  1.
        -12    1    3    3    0    0  0.14812688968E+02 -0.10629969627E+02 -0.15916499648E+02  0.24202210019E+02  0.00000000000E+00 0.  1.
</event>
<event>
 7    1  0.1381607E-011  0.5052888E+02  0.7816164E-02  0.1300439E+00
        -11   -1    0    0    0    0  0.00000000000E+00  0.00000000000E+00  0.45593999997E+02  0.45594000000E+02  0.51100000000E-03 0.  1.
         11   -1    0    0    0    0 -0.00000000000E+00 -0.00000000000E+00 -0.45593999997E+02  0.45594000000E+02  0.51100000000E-03 0. -1.
    9900012    2    1    2    0    0  0.31825905531E+02  0.78066981701E+01 -0.24069309218E+02  0.50528875005E+02  0.30000046064E+02 0.  0.
         12    1    1    2    0    0 -0.31825905531E+02 -0.78066981701E+01  0.24069309218E+02  0.40659124995E+02  0.00000000000E+00 0. -1.
         11    1    3    3    0    0  0.67872175520E+01 -0.48910589059E+01 -0.15217983548E+02  0.17365938006E+02  0.51100000000E-03 0. -1.
        -11    1    3    3    0    0  0.17727956162E+02  0.11286384974E+02 -0.12928440361E+02  0.24674024518E+02  0.51100000000E-03 0.  1.
        -12    1    3    3    0    0  0.73107318165E+01  0.14113721016E+01  0.40771146907E+01  0.84889124806E+01  0.00000000000E+00 0.  1.
</event>
<event>
 7    1  0.1381607E-011  0.5052886E+02  0.7816164E-02  0.1300439E+00
        -11   -1    0    0    0    0  0.00000000000E+00  0.00000000000E+00  0.45593999997E+02  0.45594000000E+02  0.51100000000E-03 0.  1.
         11   -1    0    0    0    0 -0.00000000000E+00 -0.00000000000E+00 -0.45593999997E+02  0.45594000000E+02  0.51100000000E-03 0. -1.
    9900012    2    1    2    0    0  0.39411072065E+02 -0.56175031021E+01  0.82690193392E+01  0.50528860520E+02  0.30000002038E+02 0.  0.
         12    1    1    2    0    0 -0.39411072065E+02  0.56175031021E+01 -0.82690193392E+01  0.40659139480E+02  0.00000000000E+00 0. -1.
         11    1    3    3    0    0 -0.57036161530E-02  0.10689739979E+01  0.49019772321E+01  0.50171823751E+01  0.51100000000E-03 0. -1.
        -11    1    3    3    0    0  0.51272795268E+01 -0.54513540131E-01 -0.73657670200E+01  0.89747696977E+01  0.51100000000E-03 0.  1.
        -12    1    3    3    0    0  0.34289496154E+02 -0.66319635598E+01  0.10732809127E+02  0.36536908448E+02  0.00000000000E+00 0.  1.
</event>
<event>
 7    1  0.1381607E-011  0.5052886E+02  0.7816164E-02  0.1300439E+00
        -11   -1    0    0    0    0  0.00000000000E+00  0.00000000000E+00  0.45593999997E+02  0.45594000000E+02  0.51100000000E-03 0.  1.
         11   -1    0    0    0    0 -0.00000000000E+00 -0.00000000000E+00 -0.45593999997E+02  0.45594000000E+02  0.51100000000E-03 0. -1.
    9900012    2    1    2    0    0 -0.15636844844E+02  0.28518752648E+02  0.24399504576E+02  0.50528855975E+02  0.29999988222E+02 0.  0.
         12    1    1    2    0    0  0.15636844844E+02 -0.28518752648E+02 -0.24399504576E+02  0.40659144025E+02  0.00000000000E+00 0. -1.
         11    1    3    3    0    0  0.21133493391E+01  0.10853779804E+02  0.11644204058E+02  0.16057965932E+02  0.51100000000E-03 0.  1.
        -11    1    3    3    0    0 -0.25426530610E+01  0.15270998168E+02  0.18206746039E+01  0.15587922437E+02  0.51100000000E-03 0. -1.
         12    1    3    3    0    0 -0.15207541123E+02  0.23939746761E+01  0.10934625914E+02  0.18882967607E+02  0.00000000000E+00 0. -1.
</event>
<event>
 7    1  0.1381607E-011  0.5052886E+02  0.7816164E-02  0.1300439E+00
        -11   -1    0    0    0    0  0.00000000000E+00  0.00000000000E+00  0.45593999997E+02  0.45594000000E+02  0.51100000000E-03 0.  1.
         11   -1    0    0    0    0 -0.00000000000E+00 -0.00000000000E+00 -0.45593999997E+02  0.45594000000E+02  0.51100000000E-03 0. -1.
    9900012    2    1    2    0    0  0.57604122076E+01  0.25422216557E+02  0.31204073417E+02  0.50528860298E+02  0.30000001363E+02 0.  0.
         12    1    1    2    0    0 -0.57604122076E+01 -0.25422216557E+02 -0.31204073417E+02  0.40659139702E+02  0.00000000000E+00 0. -1.
         11    1    3    3    0    0 -0.21042355314E+01  0.21432748982E+01 -0.12274766217E+01  0.32447085507E+01  0.51100000000E-03 0. -1.
        -11    1    3    3    0    0 -0.73585290576E+01  0.13151354420E+02  0.20531046831E+02  0.25468214646E+02  0.51100000000E-03 0.  1.
         12    1    3    3    0    0  0.15223176797E+02  0.10127587238E+02  0.11900503207E+02  0.21815937102E+02  0.00000000000E+00 0. -1.
</event>
<event>
 7    1  0.1381607E-011  0.5052886E+02  0.7816164E-02  0.1300439E+00
        -11   -1    0    0    0    0  0.00000000000E+00  0.00000000000E+00  0.45593999997E+02  0.45594000000E+02  0.51100000000E-03 0. -1.
         11   -1    0    0    0    0 -0.00000000000E+00 -0.00000000000E+00 -0.45593999997E+02  0.45594000000E+02  0.51100000000E-03 0.  1.
    9900012    2    1    2    0    0 -0.68784600650E+01  0.57361531801E+01 -0.39660416143E+02  0.50528864805E+02  0.30000015061E+02 0.  0.
         12    1    1    2    0    0  0.68784600650E+01 -0.57361531801E+01  0.39660416143E+02  0.40659135195E+02  0.00000000000E+00 0. -1.
         11    1    3    3    0    0  0.49275355167E+01 -0.39648024168E+01 -0.23624738105E+02  0.24456666070E+02  0.51100000000E-03 0. -1.
        -11    1    3    3    0    0 -0.70218100740E+01 -0.16825770354E+01 -0.99828354119E+01  0.12320466116E+02  0.51100000000E-03 0.  1.
         12    1    3    3    0    0 -0.47841855077E+01  0.11383532632E+02 -0.60528426257E+01  0.13751732619E+02  0.00000000000E+00 0. -1.
</event>
<event>
 7    1  0.1381607E-011  0.5052886E+02  0.7816164E-02  0.1300439E+00
        -11   -1    0    0    0    0  0.00000000000E+00  0.00000000000E+00  0.45593999997E+02  0.45594000000E+02  0.51100000000E-03 0. -1.
         11   -1    0    0    0    0 -0.00000000000E+00 -0.00000000000E+00 -0.45593999997E+02  0.45594000000E+02  0.51100000000E-03 0.  1.
    9900012    2    1    2    0    0  0.10698416086E+02 -0.31913367849E+02 -0.22808914011E+02  0.50528859421E+02  0.29999998697E+02 0.  0.
         12    1    1    2    0    0 -0.10698416086E+02  0.31913367849E+02  0.22808914011E+02  0.40659140579E+02  0.00000000000E+00 0. -1.
         11    1    3    3    0    0  0.20333783675E+01 -0.22834988320E+02 -0.24812354134E+01  0.23059224805E+02  0.51100000000E-03 0. -1.
        -11    1    3    3    0    0  0.11812887856E+02 -0.91281836576E+01 -0.14317127847E+02  0.20684491931E+02  0.51100000000E-03 0.  1.
        -12    1    3    3    0    0 -0.31478501381E+01  0.49804128213E-01 -0.60105507504E+01  0.67851426858E+01  0.00000000000E+00 0.  1.
</event>
<event>
 7    1  0.1381607E-011  0.5052886E+02  0.7816164E-02  0.1300439E+00
        -11   -1    0    0    0    0  0.00000000000E+00  0.00000000000E+00  0.45593999997E+02  0.45594000000E+02  0.51100000000E-03 0.  1.
         11   -1    0    0    0    0 -0.00000000000E+00 -0.00000000000E+00 -0.45593999997E+02  0.45594000000E+02  0.51100000000E-03 0. -1.
    9900012    2    1    2    0    0  0.99405577607E+00 -0.34263985061E+02  0.21866793072E+02  0.50528862547E+02  0.30000008199E+02 0.  0.
         12    1    1    2    0    0 -0.99405577607E+00  0.34263985061E+02 -0.21866793072E+02  0.40659137453E+02  0.00000000000E+00 0. -1.
         11    1    3    3    0    0  0.88957201587E+01 -0.15880407928E+02  0.35635791227E+01  0.18547783952E+02  0.51100000000E-03 0. -1.
        -11    1    3    3    0    0  0.38655133664E+01 -0.65453496907E+01  0.11864241985E+02  0.14090565436E+02  0.51100000000E-03 0.  1.
        -12    1    3    3    0    0 -0.11767177749E+02 -0.11838227442E+02  0.64389719639E+01  0.17890513159E+02  0.00000000000E+00 0.  1.
</event>
<event>
 7    1  0.1381607E-011  0.5052887E+02  0.7816164E-02  0.1300439E+00
        -11   -1    0    0    0    0  0.00000000000E+00  0.00000000000E+00  0.45593999997E+02  0.45594000000E+02  0.51100000000E-03 0.  1.
         11   -1    0    0    0    0 -0.00000000000E+00 -0.00000000000E+00 -0.45593999997E+02  0.45594000000E+02  0.51100000000E-03 0. -1.
    9900012    2    1    2    0    0 -0.93535917004E+01 -0.13361792583E+02  0.37244301751E+02  0.50528865827E+02  0.30000018169E+02 0.  0.
         12    1    1    2    0    0  0.93535917004E+01  0.13361792583E+02 -0.37244301751E+02  0.40659134173E+02  0.00000000000E+00 0. -1.
         11    1    3    3    0    0 -0.29594573221E+00  0.35463543279E+01 -0.10113451255E+01  0.36995989133E+01  0.51100000000E-03 0. -1.
        -11    1    3    3    0    0 -0.13115064616E+02 -0.49849264510E+01  0.24058097316E+02  0.27850430128E+02  0.51100000000E-03 0.  1.
         12    1    3    3    0    0  0.40574186478E+01 -0.11923220460E+02  0.14197549561E+02  0.18978836786E+02  0.00000000000E+00 0. -1.
</event>
<event>
 7    1  0.1381607E-011  0.5052884E+02  0.7816164E-02  0.1300439E+00
        -11   -1    0    0    0    0  0.00000000000E+00  0.00000000000E+00  0.45593999997E+02  0.45594000000E+02  0.51100000000E-03 0.  1.
         11   -1    0    0    0    0 -0.00000000000E+00 -0.00000000000E+00 -0.45593999997E+02  0.45594000000E+02  0.51100000000E-03 0. -1.
    9900012    2    1    2    0    0 -0.20442254582E+02 -0.35146556273E+02 -0.26811503978E-01  0.50528844708E+02  0.29999953974E+02 0.  0.
         12    1    1    2    0    0  0.20442254582E+02  0.35146556273E+02  0.26811503978E-01  0.40659155292E+02  0.00000000000E+00 0. -1.
         11    1    3    3    0    0 -0.19938912112E+02 -0.22669351672E+02  0.10856298230E+02  0.32083000685E+02  0.51100000000E-03 0.  1.
        -11    1    3    3    0    0  0.12547647419E+01 -0.68962326375E+01 -0.11700254011E+01  0.71064350309E+01  0.51100000000E-03 0. -1.
        -12    1    3    3    0    0 -0.17581072118E+01 -0.55809719634E+01 -0.97130843331E+01  0.11339408992E+02  0.00000000000E+00 0.  1.
</event>
<event>
 7    1  0.1381607E-011  0.5052886E+02  0.7816164E-02  0.1300439E+00
        -11   -1    0    0    0    0  0.00000000000E+00  0.00000000000E+00  0.45593999997E+02  0.45594000000E+02  0.51100000000E-03 0.  1.
         11   -1    0    0    0    0 -0.00000000000E+00 -0.00000000000E+00 -0.45593999997E+02  0.45594000000E+02  0.51100000000E-03 0. -1.
    9900012    2    1    2    0    0 -0.12845102934E+02  0.19482894623E+02  0.33295433364E+02  0.50528859144E+02  0.29999997855E+02 0.  0.
         12    1    1    2    0    0  0.12845102934E+02 -0.19482894623E+02 -0.33295433364E+02  0.40659140856E+02  0.00000000000E+00 0. -1.
         11    1    3    3    0    0  0.49388862401E+01  0.13006676829E+02  0.18633186910E+02  0.23254287649E+02  0.51100000000E-03 0.  1.
        -11    1    3    3    0    0 -0.25200387310E+01 -0.38158685502E+01  0.33261556090E+01  0.56546228340E+01  0.51100000000E-03 0. -1.
        -12    1    3    3    0    0 -0.15263950443E+02  0.10292086344E+02  0.11336090845E+02  0.21619948661E+02  0.00000000000E+00 0.  1.
</event>
<event>
 7    1  0.1381607E-011  0.5052886E+02  0.7816164E-02  0.1300439E+00
        -11   -1    0    0    0    0  0.00000000000E+00  0.00000000000E+00  0.45593999997E+02  0.45594000000E+02  0.51100000000E-03 0. -1.
         11   -1    0    0    0    0 -0.00000000000E+00 -0.00000000000E+00 -0.45593999997E+02  0.45594000000E+02  0.51100000000E-03 0.  1.
    9900012    2    1    2    0    0 -0.16475630859E+02 -0.16743626341E+02 -0.33186904038E+02  0.50528855458E+02  0.29999986650E+02 0.  0.
         12    1    1    2    0    0  0.16475630859E+02  0.16743626341E+02  0.33186904038E+02  0.40659144542E+02  0.00000000000E+00 0. -1.
         11    1    3    3    0    0 -0.20279148157E+01 -0.34431643284E+01 -0.28864063560E+01  0.49294179175E+01  0.51100000000E-03 0. -1.
        -11    1    3    3    0    0  0.55723587518E+01 -0.10683242974E+02 -0.45555281038E+01  0.12881603124E+02  0.51100000000E-03 0.  1.
         12    1    3    3    0    0 -0.20020074795E+02 -0.26172190392E+01 -0.25744969578E+02  0.32717834416E+02  0.00000000000E+00 0. -1.
</event>
<event>
 7    1  0.1381607E-011  0.5052886E+02  0.7816164E-02  0.1300439E+00
        -11   -1    0    0    0    0  0.00000000000E+00  0.00000000000E+00  0.45593999997E+02  0.45594000000E+02  0.51100000000E-03 0. -1.
         11   -1    0    0    0    0 -0.00000000000E+00 -0.00000000000E+00 -0.45593999997E+02  0.45594000000E+02  0.51100000000E-03 0.  1.
    9900012    2    1    2    0    0 -0.37280612041E+02  0.13820292839E+02  0.85041767848E+01  0.50528861408E+02  0.30000004735E+02 0.  0.
         12    1    1    2    0    0  0.37280612041E+02 -0.13820292839E+02 -0.85041767848E+01  0.40659138592E+02  0.00000000000E+00 0. -1.
         11    1    3    3    0    0 -0.37630626385E+01 -0.21600273323E+01 -0.14486260390E+01  0.45743716683E+01  0.51100000000E-03 0.  1.
        -11    1    3    3    0    0 -0.53247832735E+00  0.10529331005E+02  0.64012105440E+01  0.12333930487E+02  0.51100000000E-03 0. -1.
         12    1    3    3    0    0 -0.32985071075E+02  0.54509891664E+01  0.35515922798E+01  0.33620559252E+02  0.00000000000E+00 0. -1.
</event>
<event>
 7    1  0.1381607E-011  0.5052885E+02  0.7816164E-02  0.1300439E+00
        -11   -1    0    0    0    0  0.00000000000E+00  0.00000000000E+00  0.45593999997E+02  0.45594000000E+02  0.51100000000E-03 0.  1.
         11   -1    0    0    0    0 -0.00000000000E+00 -0.00000000000E+00 -0.45593999997E+02  0.45594000000E+02  0.51100000000E-03 0. -1.
    9900012    2    1    2    0    0  0.35932013467E+02  0.52601193075E-01  0.19027712927E+02  0.50528853207E+02  0.29999979808E+02 0.  0.
         12    1    1    2    0    0 -0.35932013467E+02 -0.52601193075E-01 -0.19027712927E+02  0.40659146793E+02  0.00000000000E+00 0. -1.
         11    1    3    3    0    0  0.22509870020E+01 -0.28021801579E+01  0.90935613427E+01  0.97781396122E+01  0.51100000000E-03 0. -1.
        -11    1    3    3    0    0  0.16147117296E+02  0.73325390776E+01  0.13522897295E+02  0.22301665359E+02  0.51100000000E-03 0.  1.
        -12    1    3    3    0    0  0.17533909169E+02 -0.44777577266E+01 -0.35887457102E+01  0.18449048235E+02  0.00000000000E+00 0.  1.
</event>
<event>
 7    1  0.1381607E-011  0.5052885E+02  0.7816164E-02  0.1300439E+00
        -11   -1    0    0    0    0  0.00000000000E+00  0.00000000000E+00  0.45593999997E+02  0.45594000000E+02  0.51100000000E-03 0. -1.
         11   -1    0    0    0    0 -0.00000000000E+00 -0.00000000000E+00 -0.45593999997E+02  0.45594000000E+02  0.51100000000E-03 0.  1.
    9900012    2    1    2    0    0  0.33109092252E+02 -0.21610670708E+02 -0.94833156331E+01  0.50528851539E+02  0.29999974737E+02 0.  0.
         12    1    1    2    0    0 -0.33109092252E+02  0.21610670708E+02  0.94833156331E+01  0.40659148461E+02  0.00000000000E+00 0. -1.
         11    1    3    3    0    0  0.16838378613E+02  0.16353731249E+01 -0.30189668099E+01  0.17184865447E+02  0.51100000000E-03 0. -1.
        -11    1    3    3    0    0  0.44026006488E+01 -0.43724938469E+01 -0.89718459546E+01  0.10908511127E+02  0.51100000000E-03 0.  1.
         12    1    3    3    0    0  0.11868112990E+02 -0.18873549986E+02  0.25074971315E+01  0.22435474964E+02  0.00000000000E+00 0. -1.
</event>
<event>
 7    1  0.1381607E-011  0.5052886E+02  0.7816164E-02  0.1300439E+00
        -11   -1    0    0    0    0  0.00000000000E+00  0.00000000000E+00  0.45593999997E+02  0.45594000000E+02  0.51100000000E-03 0. -1.
         11   -1    0    0    0    0 -0.00000000000E+00 -0.00000000000E+00 -0.45593999997E+02  0.45594000000E+02  0.51100000000E-03 0.  1.
    9900012    2    1    2    0    0  0.31817464228E+02  0.24522608750E+02 -0.62814324393E+01  0.50528858798E+02  0.29999996802E+02 0.  0.
         12    1    1    2    0    0 -0.31817464228E+02 -0.24522608750E+02  0.62814324393E+01  0.40659141202E+02  0.00000000000E+00 0. -1.
         11    1    3    3    0    0  0.99551111127E+00  0.13325377231E+02 -0.91106553162E+00  0.13393534313E+02  0.51100000000E-03 0. -1.
        -11    1    3    3    0    0  0.20708567050E+02  0.15142175524E+02 -0.18392405481E+01  0.25719895702E+02  0.51100000000E-03 0.  1.
        -12    1    3    3    0    0  0.10113386067E+02 -0.39449440053E+01 -0.35311263596E+01  0.11415428783E+02  0.00000000000E+00 0.  1.
</event>
<event>
 7    1  0.1381607E-011  0.5052884E+02  0.7816164E-02  0.1300439E+00
        -11   -1    0    0    0    0  0.00000000000E+00  0.00000000000E+00  0.45593999997E+02  0.45594000000E+02  0.51100000000E-03 0.  1.
         11   -1    0    0    0    0 -0.00000000000E+00 -0.00000000000E+00 -0.45593999997E+02  0.45594000000E+02  0.51100000000E-03 0. -1.
    9900012    2    1    2    0    0 -0.13479735101E+02 -0.20726891986E+02  0.32277851516E+02  0.50528843488E+02  0.29999950265E+02 0.  0.
         12    1    1    2    0    0  0.13479735101E+02  0.20726891986E+02 -0.32277851516E+02  0.40659156512E+02  0.00000000000E+00 0. -1.
         11    1    3    3    0    0 -0.20984399118E+01 -0.18604606858E+02  0.11881220253E+02  0.22174269805E+02  0.51100000000E-03 0. -1.
        -11    1    3    3    0    0 -0.12538630047E+02 -0.68409632168E+01  0.17874451296E+02  0.22880385280E+02  0.51100000000E-03 0.  1.
         12    1    3    3    0    0  0.11573348571E+01  0.47186780893E+01  0.25221799673E+01  0.54741884028E+01  0.00000000000E+00 0. -1.
</event>
<event>
 7    1  0.1381607E-011  0.5052888E+02  0.7816164E-02  0.1300439E+00
        -11   -1    0    0    0    0  0.00000000000E+00  0.00000000000E+00  0.45593999997E+02  0.45594000000E+02  0.51100000000E-03 0. -1.
         11   -1    0    0    0    0 -0.00000000000E+00 -0.00000000000E+00 -0.45593999997E+02  0.45594000000E+02  0.51100000000E-03 0.  1.
    9900012    2    1    2    0    0 -0.38037542471E+02  0.11776197220E+02 -0.82237772818E+01  0.50528880839E+02  0.30000063797E+02 0.  0.
         12    1    1    2    0    0  0.38037542471E+02 -0.11776197220E+02  0.82237772818E+01  0.40659119161E+02  0.00000000000E+00 0. -1.
         11    1    3    3    0    0 -0.10551634633E+02  0.52552010372E+01 -0.10467163854E+02  0.15764379175E+02  0.51100000000E-03 0. -1.
        -11    1    3    3    0    0 -0.30802910470E+01  0.24122394809E+01 -0.72652072911E+01  0.82516864635E+01  0.51100000000E-03 0.  1.
        -12    1    3    3    0    0 -0.24405616791E+02  0.41087567015E+01  0.95085938632E+01  0.26512815200E+02  0.00000000000E+00 0.  1.
</event>
<event>
 7    1  0.1381607E-011  0.5052887E+02  0.7816164E-02  0.1300439E+00
        -11   -1    0    0    0    0  0.00000000000E+00  0.00000000000E+00  0.45593999997E+02  0.45594000000E+02  0.51100000000E-03 0. -1.
         11   -1    0    0    0    0 -0.00000000000E+00 -0.00000000000E+00 -0.45593999997E+02  0.45594000000E+02  0.51100000000E-03 0.  1.
    9900012    2    1    2    0    0 -0.33748793140E+02 -0.21576949944E+02  0.69727270723E+01  0.50528871503E+02  0.30000035420E+02 0.  0.
         12    1    1    2    0    0  0.33748793140E+02  0.21576949944E+02 -0.69727270723E+01  0.40659128497E+02  0.00000000000E+00 0. -1.
         11    1    3    3    0    0 -0.19843295374E+00 -0.53359122659E+00 -0.20549351192E+01  0.21323353018E+01  0.51100000000E-03 0. -1.
        -11    1    3    3    0    0  0.41953897986E+01 -0.45813630265E+01  0.25307534432E+01  0.67078234916E+01  0.51100000000E-03 0.  1.
        -12    1    3    3    0    0 -0.37745749985E+02 -0.16461995691E+02  0.64969087483E+01  0.41688712709E+02  0.00000000000E+00 0.  1.
</event>
<event>
 7    1  0.1381607E-011  0.5052886E+02  0.7816164E-02  0.1300439E+00
        -11   -1    0    0    0    0  0.00000000000E+00  0.00000000000E+00  0.45593999997E+02  0.45594000000E+02  0.51100000000E-03 0. -1.
         11   -1    0    0    0    0 -0.00000000000E+00 -0.00000000000E+00 -0.45593999997E+02  0.45594000000E+02  0.51100000000E-03 0.  1.
    9900012    2    1    2    0    0 -0.13851511147E+02 -0.32079058450E+02 -0.20790271432E+02  0.50528859106E+02  0.29999997738E+02 0.  0.
         12    1    1    2    0    0  0.13851511147E+02  0.32079058450E+02  0.20790271432E+02  0.40659140894E+02  0.00000000000E+00 0. -1.
         11    1    3    3    0    0 -0.11292710665E+02 -0.48982539027E+01 -0.70220722126E+01  0.14171369161E+02  0.51100000000E-03 0. -1.
        -11    1    3    3    0    0 -0.55482189351E+01 -0.12316971117E+02  0.29090912560E+01  0.13818586145E+02  0.51100000000E-03 0.  1.
         12    1    3    3    0    0  0.29894184539E+01 -0.14863833430E+02 -0.16677290475E+02  0.22538903800E+02  0.00000000000E+00 0. -1.
</event>
<event>
 7    1  0.1381607E-011  0.5052886E+02  0.7816164E-02  0.1300439E+00
        -11   -1    0    0    0    0  0.00000000000E+00  0.00000000000E+00  0.45593999997E+02  0.45594000000E+02  0.51100000000E-03 0.  1.
         11   -1    0    0    0    0 -0.00000000000E+00 -0.00000000000E+00 -0.45593999997E+02  0.45594000000E+02  0.51100000000E-03 0. -1.
    9900012    2    1    2    0    0  0.16420353415E+02  0.65578704228E+01  0.36613278955E+02  0.50528857527E+02  0.29999992940E+02 0.  0.
         12    1    1    2    0    0 -0.16420353415E+02 -0.65578704228E+01 -0.36613278955E+02  0.40659142473E+02  0.00000000000E+00 0. -1.
         11    1    3    3    0    0 -0.22357234138E+00  0.43463512139E+00  0.58508539091E+01  0.58712336018E+01  0.51100000000E-03 0. -1.
        -11    1    3    3    0    0  0.23439310255E+02  0.87393920815E+01  0.22514065621E+02  0.33655035139E+02  0.51100000000E-03 0.  1.
        -12    1    3    3    0    0 -0.67953844989E+01 -0.26161567801E+01  0.82483594254E+01  0.11002588786E+02  0.00000000000E+00 0.  1.
</event>
<event>
 7    1  0.1381607E-011  0.5052887E+02  0.7816164E-02  0.1300439E+00
        -11   -1    0    0    0    0  0.00000000000E+00  0.00000000000E+00  0.45593999997E+02  0.45594000000E+02  0.51100000000E-03 0.  1.
         11   -1    0    0    0    0 -0.00000000000E+00 -0.00000000000E+00 -0.45593999997E+02  0.45594000000E+02  0.51100000000E-03 0. -1.
    9900012    2    1    2    0    0 -0.12743208817E+02  0.35913497079E+02  0.14177317253E+02  0.50528868579E+02  0.30000026534E+02 0.  0.
         12    1    1    2    0    0  0.12743208817E+02 -0.35913497079E+02 -0.14177317253E+02  0.40659131421E+02  0.00000000000E+00 0. -1.
         11    1    3    3    0    0 -0.14610543587E+01 -0.28740105088E+01  0.32809833763E+01  0.45999422193E+01  0.51100000000E-03 0. -1.
        -11    1    3    3    0    0 -0.21263412746E+01  0.21957374278E+02  0.14547230004E+02  0.26424789752E+02  0.51100000000E-03 0.  1.
        -12    1    3    3    0    0 -0.91558131836E+01  0.16830133310E+02 -0.36508961280E+01  0.19504136608E+02  0.00000000000E+00 0.  1.
</event>
<event>
 7    1  0.1381607E-011  0.5052887E+02  0.7816164E-02  0.1300439E+00
        -11   -1    0    0    0    0  0.00000000000E+00  0.00000000000E+00  0.45593999997E+02  0.45594000000E+02  0.51100000000E-03 0.  1.
         11   -1    0    0    0    0 -0.00000000000E+00 -0.00000000000E+00 -0.45593999997E+02  0.45594000000E+02  0.51100000000E-03 0. -1.
    9900012    2    1    2    0    0  0.21159402971E+02 -0.49183761545E+01  0.34369382573E+02  0.50528865521E+02  0.30000017239E+02 0.  0.
         12    1    1    2    0    0 -0.21159402971E+02  0.49183761545E+01 -0.34369382573E+02  0.40659134479E+02  0.00000000000E+00 0. -1.
         11    1    3    3    0    0  0.34642617974E+01 -0.67383205677E+01 -0.43185926675E+00  0.75889773067E+01  0.51100000000E-03 0. -1.
        -11    1    3    3    0    0 -0.13442276755E+01 -0.45134609811E+01  0.98794950275E+01  0.10944528328E+02  0.51100000000E-03 0.  1.
        -12    1    3    3    0    0  0.19039368849E+02  0.63334053943E+01  0.24921746813E+02  0.31995359886E+02  0.00000000000E+00 0.  1.
</event>
<event>
 7    1  0.1381607E-011  0.5052885E+02  0.7816164E-02  0.1300439E+00
        -11   -1    0    0    0    0  0.00000000000E+00  0.00000000000E+00  0.45593999997E+02  0.45594000000E+02  0.51100000000E-03 0. -1.
         11   -1    0    0    0    0 -0.00000000000E+00 -0.00000000000E+00 -0.45593999997E+02  0.45594000000E+02  0.51100000000E-03 0.  1.
    9900012    2    1    2    0    0 -0.31899600448E+02  0.57371812609E+01 -0.24549263147E+02  0.50528854920E+02  0.29999985016E+02 0.  0.
         12    1    1    2    0    0  0.31899600448E+02 -0.57371812609E+01  0.24549263147E+02  0.40659145080E+02  0.00000000000E+00 0. -1.
         11    1    3    3    0    0 -0.27700857095E+02  0.64531393333E+00 -0.18067786383E+02  0.33078676197E+02  0.51100000000E-03 0. -1.
        -11    1    3    3    0    0 -0.39512577090E+01 -0.13181802560E+01 -0.94907565573E+01  0.10364578957E+02  0.51100000000E-03 0.  1.
         12    1    3    3    0    0 -0.24748564346E+00  0.64100475835E+01  0.30092797937E+01  0.70855997660E+01  0.00000000000E+00 0. -1.
</event>
<event>
 7    1  0.1381607E-011  0.5052893E+02  0.7816164E-02  0.1300439E+00
        -11   -1    0    0    0    0  0.00000000000E+00  0.00000000000E+00  0.45593999997E+02  0.45594000000E+02  0.51100000000E-03 0. -1.
         11   -1    0    0    0    0 -0.00000000000E+00 -0.00000000000E+00 -0.45593999997E+02  0.45594000000E+02  0.51100000000E-03 0.  1.
    9900012    2    1    2    0    0 -0.22316861561E+02  0.19608802489E+02 -0.27759908558E+02  0.50528930063E+02  0.30000213420E+02 0.  0.
         12    1    1    2    0    0  0.22316861561E+02 -0.19608802489E+02  0.27759908558E+02  0.40659069937E+02  0.00000000000E+00 0. -1.
         11    1    3    3    0    0 -0.19876019834E+02  0.12254547034E+02 -0.12285822931E+02  0.26385062683E+02  0.51100000000E-03 0. -1.
        -11    1    3    3    0    0  0.10962122806E+01  0.32113032733E+01  0.32165886689E+01  0.46755313070E+01  0.51100000000E-03 0.  1.
        -12    1    3    3    0    0 -0.35370540076E+01  0.41429521815E+01 -0.18690674296E+02  0.19468336073E+02  0.00000000000E+00 0.  1.
</event>
<event>
 7    1  0.1381607E-011  0.5052886E+02  0.7816164E-02  0.1300439E+00
        -11   -1    0    0    0    0  0.00000000000E+00  0.00000000000E+00  0.45593999997E+02  0.45594000000E+02  0.51100000000E-03 0.  1.
         11   -1    0    0    0    0 -0.00000000000E+00 -0.00000000000E+00 -0.45593999997E+02  0.45594000000E+02  0.51100000000E-03 0. -1.
    9900012    2    1    2    0    0 -0.29018490513E+02  0.16986741607E+01  0.28428992047E+02  0.50528857432E+02  0.29999992650E+02 0.  0.
         12    1    1    2    0    0  0.29018490513E+02 -0.16986741607E+01 -0.28428992047E+02  0.40659142568E+02  0.00000000000E+00 0. -1.
         11    1    3    3    0    0 -0.14438246728E+02  0.12874866925E+01  0.18171243529E+02  0.23244669974E+02  0.51100000000E-03 0. -1.
        -11    1    3    3    0    0 -0.12440666491E+02 -0.86312096453E+01  0.96858451226E+01  0.17974525270E+02  0.51100000000E-03 0.  1.
         12    1    3    3    0    0 -0.21395772945E+01  0.90423971135E+01  0.57190339554E+00  0.93096621878E+01  0.00000000000E+00 0. -1.
</event>
<event>
 7    1  0.1381607E-011  0.5052885E+02  0.7816164E-02  0.1300439E+00
        -11   -1    0    0    0    0  0.00000000000E+00  0.00000000000E+00  0.45593999997E+02  0.45594000000E+02  0.51100000000E-03 0.  1.
         11   -1    0    0    0    0 -0.00000000000E+00 -0.00000000000E+00 -0.45593999997E+02  0.45594000000E+02  0.51100000000E-03 0. -1.
    9900012    2    1    2    0    0  0.22390625552E+01 -0.12289992280E+02  0.38692490793E+02  0.50528853979E+02  0.29999982154E+02 0.  0.
         12    1    1    2    0    0 -0.22390625552E+01  0.12289992280E+02 -0.38692490793E+02  0.40659146021E+02  0.00000000000E+00 0. -1.
         11    1    3    3    0    0  0.90515742552E+01 -0.38504571608E+01  0.50744306398E+01  0.11068281864E+02  0.51100000000E-03 0. -1.
        -11    1    3    3    0    0 -0.44928453382E+01 -0.13636096799E+02  0.27986775070E+02  0.31454544572E+02  0.51100000000E-03 0.  1.
         12    1    3    3    0    0 -0.23196663618E+01  0.51965616799E+01  0.56312850840E+01  0.80060275431E+01  0.00000000000E+00 0. -1.
</event>
<event>
 7    1  0.1381607E-011  0.5052886E+02  0.7816164E-02  0.1300439E+00
        -11   -1    0    0    0    0  0.00000000000E+00  0.00000000000E+00  0.45593999997E+02  0.45594000000E+02  0.51100000000E-03 0. -1.
         11   -1    0    0    0    0 -0.00000000000E+00 -0.00000000000E+00 -0.45593999997E+02  0.45594000000E+02  0.51100000000E-03 0.  1.
    9900012    2    1    2    0    0 -0.24359993250E+02  0.24747261831E+02 -0.21150158332E+02  0.50528862813E+02  0.30000009008E+02 0.  0.
         12    1    1    2    0    0  0.24359993250E+02 -0.24747261831E+02  0.21150158332E+02  0.40659137187E+02  0.00000000000E+00 0. -1.
         11    1    3    3    0    0 -0.84985033264E+01  0.63969443873E+01 -0.15332087486E+02  0.18660609937E+02  0.51100000000E-03 0.  1.
        -11    1    3    3    0    0 -0.16426753359E+02  0.21065190343E+02 -0.15237127508E+01  0.26756348235E+02  0.51100000000E-03 0. -1.
         12    1    3    3    0    0  0.56526343504E+00 -0.27148728988E+01 -0.42943580956E+01  0.51119046412E+01  0.00000000000E+00 0. -1.
</event>
<event>
 7    1  0.1381607E-011  0.5052886E+02  0.7816164E-02  0.1300439E+00
        -11   -1    0    0    0    0  0.00000000000E+00  0.00000000000E+00  0.45593999997E+02  0.45594000000E+02  0.51100000000E-03 0.  1.
         11   -1    0    0    0    0 -0.00000000000E+00 -0.00000000000E+00 -0.45593999997E+02  0.45594000000E+02  0.51100000000E-03 0. -1.
    9900012    2    1    2    0    0 -0.89317550507E+01 -0.22703175486E+02  0.32526228029E+02  0.50528856684E+02  0.29999990376E+02 0.  0.
         12    1    1    2    0    0  0.89317550507E+01  0.22703175486E+02 -0.32526228029E+02  0.40659143316E+02  0.00000000000E+00 0. -1.
         11    1    3    3    0    0 -0.20687045313E+01 -0.75987920697E+01 -0.25104941298E+01  0.82658187975E+01  0.51100000000E-03 0. -1.
        -11    1    3    3    0    0  0.46126373259E+01 -0.63823136574E+01  0.61926799730E+01  0.10017965673E+02  0.51100000000E-03 0.  1.
        -12    1    3    3    0    0 -0.11475687845E+02 -0.87220697587E+01  0.28844042186E+02  0.32245072213E+02  0.00000000000E+00 0.  1.
</event>
<event>
 7    1  0.1381607E-011  0.5052888E+02  0.7816164E-02  0.1300439E+00
        -11   -1    0    0    0    0  0.00000000000E+00  0.00000000000E+00  0.45593999997E+02  0.45594000000E+02  0.51100000000E-03 0.  1.
         11   -1    0    0    0    0 -0.00000000000E+00 -0.00000000000E+00 -0.45593999997E+02  0.45594000000E+02  0.51100000000E-03 0. -1.
    9900012    2    1    2    0    0 -0.30738730017E+02 -0.19670260697E+02  0.17926948361E+02  0.50528878557E+02  0.30000056862E+02 0.  0.
         12    1    1    2    0    0  0.30738730017E+02  0.19670260697E+02 -0.17926948361E+02  0.40659121443E+02  0.00000000000E+00 0. -1.
         11    1    3    3    0    0 -0.47924214391E+01  0.37126264176E+01  0.43572745796E+01  0.74657042662E+01  0.51100000000E-03 0. -1.
        -11    1    3    3    0    0 -0.15621720609E+01 -0.91530347081E+01  0.11463374525E+02  0.14752199215E+02  0.51100000000E-03 0.  1.
        -12    1    3    3    0    0 -0.24384136517E+02 -0.14229852406E+02  0.21062992567E+01  0.28310975076E+02  0.00000000000E+00 0.  1.
</event>
<event>
 7    1  0.1381607E-011  0.5052886E+02  0.7816164E-02  0.1300439E+00
        -11   -1    0    0    0    0  0.00000000000E+00  0.00000000000E+00  0.45593999997E+02  0.45594000000E+02  0.51100000000E-03 0.  1.
         11   -1    0    0    0    0 -0.00000000000E+00 -0.00000000000E+00 -0.45593999997E+02  0.45594000000E+02  0.51100000000E-03 0. -1.
    9900012    2    1    2    0    0 -0.16104820430E+02  0.36117462742E+02  0.94514034827E+01  0.50528863465E+02  0.30000010987E+02 0.  0.
         12    1    1    2    0    0  0.16104820430E+02 -0.36117462742E+02 -0.94514034827E+01  0.40659136535E+02  0.00000000000E+00 0. -1.
         11    1    3    3    0    0 -0.87033743315E+01  0.11883167767E+02  0.99860100563E+00  0.14763319585E+02  0.51100000000E-03 0. -1.
        -11    1    3    3    0    0 -0.55218902055E+01  0.27127785914E+02  0.12561160550E+02  0.30400506487E+02  0.51100000000E-03 0.  1.
         12    1    3    3    0    0 -0.18795558935E+01 -0.28934909390E+01 -0.41083580732E+01  0.53650373930E+01  0.00000000000E+00 0. -1.
</event>
<event>
 7    1  0.1381607E-011  0.5052886E+02  0.7816164E-02  0.1300439E+00
        -11   -1    0    0    0    0  0.00000000000E+00  0.00000000000E+00  0.45593999997E+02  0.45594000000E+02  0.51100000000E-03 0. -1.
         11   -1    0    0    0    0 -0.00000000000E+00 -0.00000000000E+00 -0.45593999997E+02  0.45594000000E+02  0.51100000000E-03 0.  1.
    9900012    2    1    2    0    0  0.13343643741E+02 -0.35501033038E+02 -0.14655700842E+02  0.50528859057E+02  0.29999997590E+02 0.  0.
         12    1    1    2    0    0 -0.13343643741E+02  0.35501033038E+02  0.14655700842E+02  0.40659140943E+02  0.00000000000E+00 0. -1.
         11    1    3    3    0    0  0.33108474496E+01  0.14695617897E+01  0.35721513816E+01  0.50873950547E+01  0.51100000000E-03 0. -1.
        -11    1    3    3    0    0 -0.19834476394E+01 -0.22866712416E+02 -0.82004023434E+01  0.24373493802E+02  0.51100000000E-03 0.  1.
        -12    1    3    3    0    0  0.12016243930E+02 -0.14103882412E+02 -0.10027449880E+02  0.21067970201E+02  0.00000000000E+00 0.  1.
</event>
<event>
 7    1  0.1381607E-011  0.5052883E+02  0.7816164E-02  0.1300439E+00
        -11   -1    0    0    0    0  0.00000000000E+00  0.00000000000E+00  0.45593999997E+02  0.45594000000E+02  0.51100000000E-03 0.  1.
         11   -1    0    0    0    0 -0.00000000000E+00 -0.00000000000E+00 -0.45593999997E+02  0.45594000000E+02  0.51100000000E-03 0. -1.
    9900012    2    1    2    0    0 -0.16798473766E-01 -0.21435116406E+02  0.34550011730E+02  0.50528833653E+02  0.29999920370E+02 0.  0.
         12    1    1    2    0    0  0.16798473766E-01  0.21435116406E+02 -0.34550011730E+02  0.40659166347E+02  0.00000000000E+00 0. -1.
         11    1    3    3    0    0  0.80421217853E+01 -0.15710739959E+02  0.26617455332E+02  0.31937313623E+02  0.51100000000E-03 0.  1.
        -11    1    3    3    0    0 -0.12187441761E+01 -0.82212338074E+01  0.71959423171E+00  0.83421723072E+01  0.51100000000E-03 0. -1.
        -12    1    3    3    0    0 -0.68401760829E+01  0.24968573600E+01  0.72129621664E+01  0.10249347722E+02  0.00000000000E+00 0.  1.
</event>
<event>
 7    1  0.1381607E-011  0.5052886E+02  0.7816164E-02  0.1300439E+00
        -11   -1    0    0    0    0  0.00000000000E+00  0.00000000000E+00  0.45593999997E+02  0.45594000000E+02  0.51100000000E-03 0. -1.
         11   -1    0    0    0    0 -0.00000000000E+00 -0.00000000000E+00 -0.45593999997E+02  0.45594000000E+02  0.51100000000E-03 0.  1.
    9900012    2    1    2    0    0  0.14824444566E+02 -0.31696225181E+02 -0.20706303913E+02  0.50528857496E+02  0.29999992845E+02 0.  0.
         12    1    1    2    0    0 -0.14824444566E+02  0.31696225181E+02  0.20706303913E+02  0.40659142504E+02  0.00000000000E+00 0. -1.
         11    1    3    3    0    0 -0.14780018228E+01 -0.11842379805E+02 -0.45380942401E+01  0.12767957880E+02  0.51100000000E-03 0. -1.
        -11    1    3    3    0    0  0.30780595687E+01 -0.19158379028E+02 -0.40750818872E+01  0.19827360649E+02  0.51100000000E-03 0.  1.
         12    1    3    3    0    0  0.13224386821E+02 -0.69546634785E+00 -0.12093127786E+02  0.17933538967E+02  0.00000000000E+00 0. -1.
</event>
<event>
 7    1  0.1381607E-011  0.5052887E+02  0.7816164E-02  0.1300439E+00
        -11   -1    0    0    0    0  0.00000000000E+00  0.00000000000E+00  0.45593999997E+02  0.45594000000E+02  0.51100000000E-03 0. -1.
         11   -1    0    0    0    0 -0.00000000000E+00 -0.00000000000E+00 -0.45593999997E+02  0.45594000000E+02  0.51100000000E-03 0.  1.
    9900012    2    1    2    0    0 -0.28388403172E+02 -0.16062986459E+02 -0.24274351109E+02  0.50528867073E+02  0.30000021954E+02 0.  0.
         12    1    1    2    0    0  0.28388403172E+02  0.16062986459E+02  0.24274351109E+02  0.40659132927E+02  0.00000000000E+00 0. -1.
         11    1    3    3    0    0 -0.16912468463E+02 -0.98143304405E+01  0.43435744519E+00  0.19558664018E+02  0.51100000000E-03 0. -1.
        -11    1    3    3    0    0 -0.94494810610E+01 -0.34785772850E+00 -0.58806400373E+01  0.11135332273E+02  0.51100000000E-03 0.  1.
        -12    1    3    3    0    0 -0.20264536476E+01 -0.59007982896E+01 -0.18828068517E+02  0.19834870782E+02  0.00000000000E+00 0.  1.
</event>
<event>
 7    1  0.1381607E-011  0.5052888E+02  0.7816164E-02  0.1300439E+00
        -11   -1    0    0    0    0  0.00000000000E+00  0.00000000000E+00  0.45593999997E+02  0.45594000000E+02  0.51100000000E-03 0. -1.
         11   -1    0    0    0    0 -0.00000000000E+00 -0.00000000000E+00 -0.45593999997E+02  0.45594000000E+02  0.51100000000E-03 0.  1.
    9900012    2    1    2    0    0  0.30168290175E+02 -0.27201996670E+02  0.17576663335E+01  0.50528883607E+02  0.30000072212E+02 0.  0.
         12    1    1    2    0    0 -0.30168290175E+02  0.27201996670E+02 -0.17576663335E+01  0.40659116393E+02  0.00000000000E+00 0. -1.
         11    1    3    3    0    0  0.81512299105E+01 -0.10574398448E+02 -0.46823943302E+01  0.14148684338E+02  0.51100000000E-03 0.  1.
        -11    1    3    3    0    0  0.13305165268E+00  0.50201376203E+01  0.78026750821E+00  0.50821552627E+01  0.51100000000E-03 0. -1.
         12    1    3    3    0    0  0.21884008612E+02 -0.21647735843E+02  0.56597931556E+01  0.31298044006E+02  0.00000000000E+00 0. -1.
</event>
<event>
 7    1  0.1381607E-011  0.5052887E+02  0.7816164E-02  0.1300439E+00
        -11   -1    0    0    0    0  0.00000000000E+00  0.00000000000E+00  0.45593999997E+02  0.45594000000E+02  0.51100000000E-03 0.  1.
         11   -1    0    0    0    0 -0.00000000000E+00 -0.00000000000E+00 -0.45593999997E+02  0.45594000000E+02  0.51100000000E-03 0. -1.
    9900012    2    1    2    0    0  0.27909252211E+02  0.55789230143E+01  0.29036432171E+02  0.50528866535E+02  0.30000020319E+02 0.  0.
         12    1    1    2    0    0 -0.27909252211E+02 -0.55789230143E+01 -0.29036432171E+02  0.40659133465E+02  0.00000000000E+00 0. -1.
         11    1    3    3    0    0 -0.27373784458E+01 -0.59839768918E+01  0.29291616071E+01  0.72028611106E+01  0.51100000000E-03 0. -1.
        -11    1    3    3    0    0  0.15626946632E+02  0.56481213633E+01  0.20154584918E+02  0.26121064861E+02  0.51100000000E-03 0.  1.
        -12    1    3    3    0    0  0.15019684024E+02  0.59147785428E+01  0.59526856460E+01  0.17204940563E+02  0.00000000000E+00 0.  1.
</event>
<event>
 7    1  0.1381607E-011  0.5052885E+02  0.7816164E-02  0.1300439E+00
        -11   -1    0    0    0    0  0.00000000000E+00  0.00000000000E+00  0.45593999997E+02  0.45594000000E+02  0.51100000000E-03 0. -1.
         11   -1    0    0    0    0 -0.00000000000E+00 -0.00000000000E+00 -0.45593999997E+02  0.45594000000E+02  0.51100000000E-03 0.  1.
    9900012    2    1    2    0    0  0.10536355628E+01 -0.39376129022E+02 -0.10078548896E+02  0.50528845650E+02  0.29999956837E+02 0.  0.
         12    1    1    2    0    0 -0.10536355628E+01  0.39376129022E+02  0.10078548896E+02  0.40659154350E+02  0.00000000000E+00 0. -1.
         11    1    3    3    0    0 -0.79226860287E+01 -0.11887279742E+02 -0.49427546463E+00  0.14294078567E+02  0.51100000000E-03 0. -1.
        -11    1    3    3    0    0 -0.29509692216E+01 -0.16794263231E+02 -0.10775142961E+02  0.20170751174E+02  0.51100000000E-03 0.  1.
         12    1    3    3    0    0  0.11927290813E+02 -0.10694586048E+02  0.11908695294E+01  0.16064015909E+02  0.00000000000E+00 0. -1.
</event>
<event>
 7    1  0.1381607E-011  0.5052878E+02  0.7816164E-02  0.1300439E+00
        -11   -1    0    0    0    0  0.00000000000E+00  0.00000000000E+00  0.45593999997E+02  0.45594000000E+02  0.51100000000E-03 0.  1.
         11   -1    0    0    0    0 -0.00000000000E+00 -0.00000000000E+00 -0.45593999997E+02  0.45594000000E+02  0.51100000000E-03 0. -1.
    9900012    2    1    2    0    0  0.28081629987E+01  0.14234244314E+02  0.37982526927E+02  0.50528784042E+02  0.29999769572E+02 0.  0.
         12    1    1    2    0    0 -0.28081629987E+01 -0.14234244314E+02 -0.37982526927E+02  0.40659215958E+02  0.00000000000E+00 0. -1.
         11    1    3    3    0    0  0.28489129285E+01  0.49248585275E+00 -0.26800929145E+01  0.39423020535E+01  0.51100000000E-03 0. -1.
        -11    1    3    3    0    0 -0.16452888900E+01  0.11419172230E+02  0.85747023172E+01  0.14374630084E+02  0.51100000000E-03 0.  1.
        -12    1    3    3    0    0  0.16045389602E+01  0.23225862312E+01  0.32087917524E+02  0.32211851904E+02  0.00000000000E+00 0.  1.
</event>
<event>
 7    1  0.1381607E-011  0.5052887E+02  0.7816164E-02  0.1300439E+00
        -11   -1    0    0    0    0  0.00000000000E+00  0.00000000000E+00  0.45593999997E+02  0.45594000000E+02  0.51100000000E-03 0.  1.
         11   -1    0    0    0    0 -0.00000000000E+00 -0.00000000000E+00 -0.45593999997E+02  0.45594000000E+02  0.51100000000E-03 0. -1.
    9900012    2    1    2    0    0  0.19510506358E+02 -0.24216801208E+02  0.26192586037E+02  0.50528869631E+02  0.30000029730E+02 0.  0.
         12    1    1    2    0    0 -0.19510506358E+02  0.24216801208E+02 -0.26192586037E+02  0.40659130369E+02  0.00000000000E+00 0. -1.
         11    1    3    3    0    0  0.23917785308E+01 -0.13034828611E+02  0.29106605036E+01  0.13568319951E+02  0.51100000000E-03 0. -1.
        -11    1    3    3    0    0  0.11752958916E+02 -0.16924660861E+02  0.18909021678E+02  0.27966538749E+02  0.51100000000E-03 0.  1.
         12    1    3    3    0    0  0.53657689106E+01  0.57426882636E+01  0.43729038548E+01  0.89940109305E+01  0.00000000000E+00 0. -1.
</event>
<event>
 7    1  0.1381607E-011  0.5052886E+02  0.7816164E-02  0.1300439E+00
        -11   -1    0    0    0    0  0.00000000000E+00  0.00000000000E+00  0.45593999997E+02  0.45594000000E+02  0.51100000000E-03 0. -1.
         11   -1    0    0    0    0 -0.00000000000E+00 -0.00000000000E+00 -0.45593999997E+02  0.45594000000E+02  0.51100000000E-03 0.  1.
    9900012    2    1    2    0    0 -0.33978381229E+02  0.16798005117E+02  0.14712668830E+02  0.50528855998E+02  0.29999988292E+02 0.  0.
         12    1    1    2    0    0  0.33978381229E+02 -0.16798005117E+02 -0.14712668830E+02  0.40659144002E+02  0.00000000000E+00 0. -1.
         11    1    3    3    0    0 -0.62731409801E+01  0.14086034751E+01  0.11874499113E+02  0.13503339993E+02  0.51100000000E-03 0. -1.
        -11    1    3    3    0    0 -0.23998366679E+02  0.36398561568E+01  0.41876398812E+01  0.24631412549E+02  0.51100000000E-03 0.  1.
         12    1    3    3    0    0 -0.37068735700E+01  0.11749545485E+02 -0.13494701642E+01  0.12394103457E+02  0.00000000000E+00 0. -1.
</event>
<event>
 7    1  0.1381607E-011  0.5052887E+02  0.7816164E-02  0.1300439E+00
        -11   -1    0    0    0    0  0.00000000000E+00  0.00000000000E+00  0.45593999997E+02  0.45594000000E+02  0.51100000000E-03 0.  1.
         11   -1    0    0    0    0 -0.00000000000E+00 -0.00000000000E+00 -0.45593999997E+02  0.45594000000E+02  0.51100000000E-03 0. -1.
    9900012    2    1    2    0    0 -0.15792644275E+02  0.23566595657E+02  0.29126837623E+02  0.50528871702E+02  0.30000036024E+02 0.  0.
         12    1    1    2    0    0  0.15792644275E+02 -0.23566595657E+02 -0.29126837623E+02  0.40659128298E+02  0.00000000000E+00 0. -1.
         11    1    3    3    0    0 -0.32038779526E+01 -0.20275240573E+01  0.72456359590E+01  0.81777092422E+01  0.51100000000E-03 0. -1.
        -11    1    3    3    0    0 -0.14925091564E+02  0.14300523337E+02  0.22808349207E+02  0.30781229991E+02  0.51100000000E-03 0.  1.
         12    1    3    3    0    0  0.23363252417E+01  0.11293596377E+02 -0.92714754291E+00  0.11569932469E+02  0.00000000000E+00 0. -1.
</event>
<event>
 7    1  0.1381607E-011  0.5052886E+02  0.7816164E-02  0.1300439E+00
        -11   -1    0    0    0    0  0.00000000000E+00  0.00000000000E+00  0.45593999997E+02  0.45594000000E+02  0.51100000000E-03 0.  1.
         11   -1    0    0    0    0 -0.00000000000E+00 -0.00000000000E+00 -0.45593999997E+02  0.45594000000E+02  0.51100000000E-03 0. -1.
    9900012    2    1    2    0    0  0.39988814355E+02 -0.42091544811E+01  0.60285321573E+01  0.50528862590E+02  0.30000008327E+02 0.  0.
         12    1    1    2    0    0 -0.39988814355E+02  0.42091544811E+01 -0.60285321573E+01  0.40659137410E+02  0.00000000000E+00 0. -1.
         11    1    3    3    0    0  0.12890194728E+02  0.21893453135E+01  0.11717427121E+01  0.13127198265E+02  0.51100000000E-03 0. -1.
        -11    1    3    3    0    0  0.11622001547E+02 -0.97108240370E+01  0.12674782790E+02  0.19748952946E+02  0.51100000000E-03 0.  1.
         12    1    3    3    0    0  0.15476618081E+02  0.33123242424E+01 -0.78179933447E+01  0.17652711379E+02  0.00000000000E+00 0. -1.
</event>
<event>
 7    1  0.1381607E-011  0.5052890E+02  0.7816164E-02  0.1300439E+00
        -11   -1    0    0    0    0  0.00000000000E+00  0.00000000000E+00  0.45593999997E+02  0.45594000000E+02  0.51100000000E-03 0.  1.
         11   -1    0    0    0    0 -0.00000000000E+00 -0.00000000000E+00 -0.45593999997E+02  0.45594000000E+02  0.51100000000E-03 0. -1.
    9900012    2    1    2    0    0 -0.14389329737E+02  0.15072362873E+02  0.34913229236E+02  0.50528898823E+02  0.30000118462E+02 0.  0.
         12    1    1    2    0    0  0.14389329737E+02 -0.15072362873E+02 -0.34913229236E+02  0.40659101177E+02  0.00000000000E+00 0. -1.
         11    1    3    3    0    0 -0.17018615915E+00  0.77199967165E+01  0.22555106408E+02  0.23840304905E+02  0.51100000000E-03 0.  1.
        -11    1    3    3    0    0 -0.85026569773E+01  0.12951706710E+02  0.95913083107E+01  0.18221829704E+02  0.51100000000E-03 0. -1.
         12    1    3    3    0    0 -0.57164866002E+01 -0.55993405533E+01  0.27668145172E+01  0.84667642139E+01  0.00000000000E+00 0. -1.
</event>
<event>
 7    1  0.1381607E-011  0.5052886E+02  0.7816164E-02  0.1300439E+00
        -11   -1    0    0    0    0  0.00000000000E+00  0.00000000000E+00  0.45593999997E+02  0.45594000000E+02  0.51100000000E-03 0.  1.
         11   -1    0    0    0    0 -0.00000000000E+00 -0.00000000000E+00 -0.45593999997E+02  0.45594000000E+02  0.51100000000E-03 0. -1.
    9900012    2    1    2    0    0 -0.52330677667E+01 -0.15824961757E+02  0.37085728500E+02  0.50528859930E+02  0.30000000243E+02 0.  0.
         12    1    1    2    0    0  0.52330677667E+01  0.15824961757E+02 -0.37085728500E+02  0.40659140070E+02  0.00000000000E+00 0. -1.
         11    1    3    3    0    0  0.48869743519E+01 -0.49916796098E+01 -0.12978826839E+01  0.71052011488E+01  0.51100000000E-03 0. -1.
        -11    1    3    3    0    0 -0.58184055583E+01 -0.99297720101E+01  0.11814939254E+02  0.16493847497E+02  0.51100000000E-03 0.  1.
        -12    1    3    3    0    0 -0.43016365603E+01 -0.90351013686E+00  0.26568671930E+02  0.26929811284E+02  0.00000000000E+00 0.  1.
</event>
<event>
 7    1  0.1381607E-011  0.5052892E+02  0.7816164E-02  0.1300439E+00
        -11   -1    0    0    0    0  0.00000000000E+00  0.00000000000E+00  0.45593999997E+02  0.45594000000E+02  0.51100000000E-03 0.  1.
         11   -1    0    0    0    0 -0.00000000000E+00 -0.00000000000E+00 -0.45593999997E+02  0.45594000000E+02  0.51100000000E-03 0. -1.
    9900012    2    1    2    0    0  0.26960088357E+02  0.29136911067E+02  0.87951402834E+01  0.50528924220E+02  0.30000195657E+02 0.  0.
         12    1    1    2    0    0 -0.26960088357E+02 -0.29136911067E+02 -0.87951402834E+01  0.40659075780E+02  0.00000000000E+00 0. -1.
         11    1    3    3    0    0  0.63855803167E+00  0.38044482991E+00 -0.15150699223E+01  0.16875816303E+01  0.51100000000E-03 0. -1.
        -11    1    3    3    0    0  0.15691156700E+02  0.28640553377E+02  0.16448316380E+02  0.36565568617E+02  0.51100000000E-03 0.  1.
        -12    1    3    3    0    0  0.10630373625E+02  0.11591285981E+00 -0.61381061741E+01  0.12275773972E+02  0.00000000000E+00 0.  1.
</event>
<event>
 7    1  0.1381607E-011  0.5052874E+02  0.7816164E-02  0.1300439E+00
        -11   -1    0    0    0    0  0.00000000000E+00  0.00000000000E+00  0.45593999997E+02  0.45594000000E+02  0.51100000000E-03 0.  1.
         11   -1    0    0    0    0 -0.00000000000E+00 -0.00000000000E+00 -0.45593999997E+02  0.45594000000E+02  0.51100000000E-03 0. -1.
    9900012    2    1    2    0    0  0.11370114837E+02 -0.24004627824E+02  0.30784307457E+02  0.50528742087E+02  0.29999642047E+02 0.  0.
         12    1    1    2    0    0 -0.11370114837E+02  0.24004627824E+02 -0.30784307457E+02  0.40659257913E+02  0.00000000000E+00 0. -1.
         11    1    3    3    0    0  0.39439716854E+00 -0.95747156698E+01  0.11610554162E+02  0.15054424516E+02  0.51100000000E-03 0. -1.
        -11    1    3    3    0    0  0.16557131982E+02 -0.16915516266E+02  0.16169767121E+02  0.28665914934E+02  0.51100000000E-03 0.  1.
         12    1    3    3    0    0 -0.55814143133E+01  0.24856041122E+01  0.30039861745E+01  0.68084026376E+01  0.00000000000E+00 0. -1.
</event>
<event>
 7    1  0.1381607E-011  0.5052886E+02  0.7816164E-02  0.1300439E+00
        -11   -1    0    0    0    0  0.00000000000E+00  0.00000000000E+00  0.45593999997E+02  0.45594000000E+02  0.51100000000E-03 0.  1.
         11   -1    0    0    0    0 -0.00000000000E+00 -0.00000000000E+00 -0.45593999997E+02  0.45594000000E+02  0.51100000000E-03 0. -1.
    9900012    2    1    2    0    0  0.25172678446E+01 -0.36546753027E+02  0.17639836200E+02  0.50528860617E+02  0.30000002331E+02 0.  0.
         12    1    1    2    0    0 -0.25172678446E+01  0.36546753027E+02 -0.17639836200E+02  0.40659139383E+02  0.00000000000E+00 0. -1.
         11    1    3    3    0    0  0.42754521398E+01 -0.50627919892E+00  0.89293859715E+00  0.43969477170E+01  0.51100000000E-03 0. -1.
        -11    1    3    3    0    0 -0.33434420739E+01 -0.23206538990E+02  0.22021331553E+02  0.32166148362E+02  0.51100000000E-03 0.  1.
         12    1    3    3    0    0  0.15852577788E+01 -0.12833934838E+02 -0.52744339499E+01  0.13965764538E+02  0.00000000000E+00 0. -1.
</event>
<event>
 7    1  0.1381607E-011  0.5052889E+02  0.7816164E-02  0.1300439E+00
        -11   -1    0    0    0    0  0.00000000000E+00  0.00000000000E+00  0.45593999997E+02  0.45594000000E+02  0.51100000000E-03 0.  1.
         11   -1    0    0    0    0 -0.00000000000E+00 -0.00000000000E+00 -0.45593999997E+02  0.45594000000E+02  0.51100000000E-03 0. -1.
    9900012    2    1    2    0    0  0.18533758729E+02  0.27672227335E+02  0.23321890619E+02  0.50528893266E+02  0.30000101573E+02 0.  0.
         12    1    1    2    0    0 -0.18533758729E+02 -0.27672227335E+02 -0.23321890619E+02  0.40659106734E+02  0.00000000000E+00 0. -1.
         11    1    3    3    0    0  0.72181876779E+01 -0.35632751387E+00  0.37790124858E+01  0.81553748093E+01  0.51100000000E-03 0. -1.
        -11    1    3    3    0    0  0.17162773098E+02  0.22071578316E+02  0.19390247581E+02  0.34024947484E+02  0.51100000000E-03 0.  1.
        -12    1    3    3    0    0 -0.58472020475E+01  0.59569765336E+01  0.15263055181E+00  0.83485709730E+01  0.00000000000E+00 0.  1.
</event>
<event>
 7    1  0.1381607E-011  0.5052886E+02  0.7816164E-02  0.1300439E+00
        -11   -1    0    0    0    0  0.00000000000E+00  0.00000000000E+00  0.45593999997E+02  0.45594000000E+02  0.51100000000E-03 0.  1.
         11   -1    0    0    0    0 -0.00000000000E+00 -0.00000000000E+00 -0.45593999997E+02  0.45594000000E+02  0.51100000000E-03 0. -1.
    9900012    2    1    2    0    0 -0.22461887614E+02  0.29928232894E+02  0.15903775655E+02  0.50528860813E+02  0.30000002927E+02 0.  0.
         12    1    1    2    0    0  0.22461887614E+02 -0.29928232894E+02 -0.15903775655E+02  0.40659139187E+02  0.00000000000E+00 0. -1.
         11    1    3    3    0    0 -0.62020031131E+01  0.12062090192E+02 -0.43094213627E+01  0.14231302652E+02  0.51100000000E-03 0. -1.
        -11    1    3    3    0    0 -0.71200876603E+00 -0.30043253107E+01  0.57422597106E+01  0.65196989118E+01  0.51100000000E-03 0.  1.
        -12    1    3    3    0    0 -0.15547875735E+02  0.20870468012E+02  0.14470937307E+02  0.29777859249E+02  0.00000000000E+00 0.  1.
</event>
<event>
 7    1  0.1381607E-011  0.5052884E+02  0.7816164E-02  0.1300439E+00
        -11   -1    0    0    0    0  0.00000000000E+00  0.00000000000E+00  0.45593999997E+02  0.45594000000E+02  0.51100000000E-03 0.  1.
         11   -1    0    0    0    0 -0.00000000000E+00 -0.00000000000E+00 -0.45593999997E+02  0.45594000000E+02  0.51100000000E-03 0. -1.
    9900012    2    1    2    0    0  0.18335729524E+02 -0.27332629499E+02  0.23872487249E+02  0.50528840393E+02  0.29999940859E+02 0.  0.
         12    1    1    2    0    0 -0.18335729524E+02  0.27332629499E+02 -0.23872487249E+02  0.40659159607E+02  0.00000000000E+00 0. -1.
         11    1    3    3    0    0 -0.11773769529E+01 -0.24685863826E+01  0.80139177501E+00  0.28499761851E+01  0.51100000000E-03 0. -1.
        -11    1    3    3    0    0  0.19045845374E+02 -0.30559911859E+02  0.19785537000E+02  0.41086736467E+02  0.51100000000E-03 0.  1.
        -12    1    3    3    0    0  0.46726110329E+00  0.56958687429E+01  0.32855584737E+01  0.65921277413E+01  0.00000000000E+00 0.  1.
</event>
<event>
 7    1  0.1381607E-011  0.5052886E+02  0.7816164E-02  0.1300439E+00
        -11   -1    0    0    0    0  0.00000000000E+00  0.00000000000E+00  0.45593999997E+02  0.45594000000E+02  0.51100000000E-03 0.  1.
         11   -1    0    0    0    0 -0.00000000000E+00 -0.00000000000E+00 -0.45593999997E+02  0.45594000000E+02  0.51100000000E-03 0. -1.
    9900012    2    1    2    0    0 -0.28073985728E+02  0.29366118276E+02  0.16273399164E+01  0.50528858194E+02  0.29999994965E+02 0.  0.
         12    1    1    2    0    0  0.28073985728E+02 -0.29366118276E+02 -0.16273399164E+01  0.40659141806E+02  0.00000000000E+00 0. -1.
         11    1    3    3    0    0 -0.28181784022E+02  0.94016883237E+01 -0.75339959388E-01  0.29708759152E+02  0.51100000000E-03 0.  1.
        -11    1    3    3    0    0 -0.16834399744E+01  0.42847321516E+01 -0.12372055918E+01  0.47669253923E+01  0.51100000000E-03 0. -1.
        -12    1    3    3    0    0  0.17912382684E+01  0.15679697800E+02  0.29398854676E+01  0.16053173649E+02  0.00000000000E+00 0.  1.
</event>
<event>
 7    1  0.1381607E-011  0.5052886E+02  0.7816164E-02  0.1300439E+00
        -11   -1    0    0    0    0  0.00000000000E+00  0.00000000000E+00  0.45593999997E+02  0.45594000000E+02  0.51100000000E-03 0.  1.
         11   -1    0    0    0    0 -0.00000000000E+00 -0.00000000000E+00 -0.45593999997E+02  0.45594000000E+02  0.51100000000E-03 0. -1.
    9900012    2    1    2    0    0  0.55256871940E+01  0.22159003354E+02  0.33639432558E+02  0.50528855009E+02  0.29999985285E+02 0.  0.
         12    1    1    2    0    0 -0.55256871940E+01 -0.22159003354E+02 -0.33639432558E+02  0.40659144991E+02  0.00000000000E+00 0. -1.
         11    1    3    3    0    0  0.10834490841E+02  0.11840544558E+02  0.95460952761E+01  0.18673848625E+02  0.51100000000E-03 0. -1.
        -11    1    3    3    0    0  0.27517694866E+01  0.11729665898E+02  0.17967161739E+02  0.21632757536E+02  0.51100000000E-03 0.  1.
         12    1    3    3    0    0 -0.80605731333E+01 -0.14112071025E+01  0.61261755423E+01  0.10222248847E+02  0.00000000000E+00 0. -1.
</event>
<event>
 7    1  0.1381607E-011  0.5052888E+02  0.7816164E-02  0.1300439E+00
        -11   -1    0    0    0    0  0.00000000000E+00  0.00000000000E+00  0.45593999997E+02  0.45594000000E+02  0.51100000000E-03 0.  1.
         11   -1    0    0    0    0 -0.00000000000E+00 -0.00000000000E+00 -0.45593999997E+02  0.45594000000E+02  0.51100000000E-03 0. -1.
    9900012    2    1    2    0    0  0.24606171204E+02 -0.59071267642E+01  0.31824617815E+02  0.50528879165E+02  0.30000058711E+02 0.  0.
         12    1    1    2    0    0 -0.24606171204E+02  0.59071267642E+01 -0.31824617815E+02  0.40659120835E+02  0.00000000000E+00 0. -1.
         11    1    3    3    0    0 -0.34281558216E+01 -0.63267970823E+01  0.27946334257E+01  0.77194941481E+01  0.51100000000E-03 0. -1.
        -11    1    3    3    0    0  0.10900813321E+02 -0.16543497414E+01  0.21119407466E+02  0.23824230860E+02  0.51100000000E-03 0.  1.
        -12    1    3    3    0    0  0.17133513705E+02  0.20740200595E+01  0.79105769237E+01  0.18985154157E+02  0.00000000000E+00 0.  1.
</event>
<event>
 7    1  0.1381607E-011  0.5052885E+02  0.7816164E-02  0.1300439E+00
        -11   -1    0    0    0    0  0.00000000000E+00  0.00000000000E+00  0.45593999997E+02  0.45594000000E+02  0.51100000000E-03 0.  1.
         11   -1    0    0    0    0 -0.00000000000E+00 -0.00000000000E+00 -0.45593999997E+02  0.45594000000E+02  0.51100000000E-03 0. -1.
    9900012    2    1    2    0    0  0.15429749285E+02 -0.11216325633E+02  0.35906587412E+02  0.50528854125E+02  0.29999982598E+02 0.  0.
         12    1    1    2    0    0 -0.15429749285E+02  0.11216325633E+02 -0.35906587412E+02  0.40659145875E+02  0.00000000000E+00 0. -1.
         11    1    3    3    0    0  0.11759733954E+02 -0.16203212705E+02  0.13907457026E+02  0.24377301037E+02  0.51100000000E-03 0. -1.
        -11    1    3    3    0    0  0.38465593703E+00  0.47339232831E+01  0.94688145355E+00  0.48429923176E+01  0.51100000000E-03 0.  1.
        -12    1    3    3    0    0  0.32853593943E+01  0.25296378883E+00  0.21052248932E+02  0.21308560771E+02  0.00000000000E+00 0.  1.
</event>
<event>
 7    1  0.1381607E-011  0.5052887E+02  0.7816164E-02  0.1300439E+00
        -11   -1    0    0    0    0  0.00000000000E+00  0.00000000000E+00  0.45593999997E+02  0.45594000000E+02  0.51100000000E-03 0.  1.
         11   -1    0    0    0    0 -0.00000000000E+00 -0.00000000000E+00 -0.45593999997E+02  0.45594000000E+02  0.51100000000E-03 0. -1.
    9900012    2    1    2    0    0 -0.97690953472E+01  0.29267447928E+02  0.26479167559E+02  0.50528867610E+02  0.30000023586E+02 0.  0.
         12    1    1    2    0    0  0.97690953472E+01 -0.29267447928E+02 -0.26479167559E+02  0.40659132390E+02  0.00000000000E+00 0. -1.
         11    1    3    3    0    0 -0.13933877918E+02  0.98852380690E+01  0.61425754150E+01  0.18154947493E+02  0.51100000000E-03 0. -1.
        -11    1    3    3    0    0  0.60700234290E+00  0.41000778177E+01 -0.23691277815E+01  0.47740817611E+01  0.51100000000E-03 0.  1.
        -12    1    3    3    0    0  0.35577802275E+01  0.15282132041E+02  0.22705719926E+02  0.27599838355E+02  0.00000000000E+00 0.  1.
</event>
<event>
 7    1  0.1381607E-011  0.5052885E+02  0.7816164E-02  0.1300439E+00
        -11   -1    0    0    0    0  0.00000000000E+00  0.00000000000E+00  0.45593999997E+02  0.45594000000E+02  0.51100000000E-03 0.  1.
         11   -1    0    0    0    0 -0.00000000000E+00 -0.00000000000E+00 -0.45593999997E+02  0.45594000000E+02  0.51100000000E-03 0. -1.
    9900012    2    1    2    0    0  0.34762648829E+02  0.21042024653E+02 -0.13991695887E+01  0.50528853051E+02  0.29999979333E+02 0.  0.
         12    1    1    2    0    0 -0.34762648829E+02 -0.21042024653E+02  0.13991695887E+01  0.40659146949E+02  0.00000000000E+00 0. -1.
         11    1    3    3    0    0  0.19057203084E+02  0.18857000023E+02  0.31108491744E+01  0.26989642867E+02  0.51100000000E-03 0. -1.
        -11    1    3    3    0    0  0.12161505246E+02  0.72622629269E+01 -0.81645537520E+01  0.16349391759E+02  0.51100000000E-03 0.  1.
         12    1    3    3    0    0  0.35439404997E+01 -0.50772382974E+01  0.36545349889E+01  0.71898184246E+01  0.00000000000E+00 0. -1.
</event>
<event>
 7    1  0.1381607E-011  0.5052886E+02  0.7816164E-02  0.1300439E+00
        -11   -1    0    0    0    0  0.00000000000E+00  0.00000000000E+00  0.45593999997E+02  0.45594000000E+02  0.51100000000E-03 0.  1.
         11   -1    0    0    0    0 -0.00000000000E+00 -0.00000000000E+00 -0.45593999997E+02  0.45594000000E+02  0.51100000000E-03 0. -1.
    9900012    2    1    2    0    0 -0.25456912391E+02  0.12690264256E+02  0.29052851407E+02  0.50528863631E+02  0.30000011493E+02 0.  0.
         12    1    1    2    0    0  0.25456912391E+02 -0.12690264256E+02 -0.29052851407E+02  0.40659136369E+02  0.00000000000E+00 0. -1.
         11    1    3    3    0    0  0.21410916067E+01  0.16832413779E+01  0.51741260713E+01  0.58471493625E+01  0.51100000000E-03 0. -1.
        -11    1    3    3    0    0 -0.37864699482E+01 -0.43616579526E+01 -0.21879282655E+01  0.61764427562E+01  0.51100000000E-03 0.  1.
        -12    1    3    3    0    0 -0.23811534050E+02  0.15368680830E+02  0.26066653601E+02  0.38505271512E+02  0.00000000000E+00 0.  1.
</event>
<event>
 7    1  0.1381607E-011  0.5052886E+02  0.7816164E-02  0.1300439E+00
        -11   -1    0    0    0    0  0.00000000000E+00  0.00000000000E+00  0.45593999997E+02  0.45594000000E+02  0.51100000000E-03 0.  1.
         11   -1    0    0    0    0 -0.00000000000E+00 -0.00000000000E+00 -0.45593999997E+02  0.45594000000E+02  0.51100000000E-03 0. -1.
    9900012    2    1    2    0    0  0.22729146262E+02  0.26902831925E+02  0.20317211414E+02  0.50528861605E+02  0.30000005334E+02 0.  0.
         12    1    1    2    0    0 -0.22729146262E+02 -0.26902831925E+02 -0.20317211414E+02  0.40659138395E+02  0.00000000000E+00 0. -1.
         11    1    3    3    0    0 -0.14898519258E+01 -0.13667960432E+01  0.43424423827E+01  0.47900518048E+01  0.51100000000E-03 0. -1.
        -11    1    3    3    0    0  0.31959244311E+01  0.30000898901E+01 -0.50745082845E+01  0.67056026507E+01  0.51100000000E-03 0.  1.
        -12    1    3    3    0    0  0.21023073757E+02  0.25269538079E+02  0.21049277315E+02  0.39033207150E+02  0.00000000000E+00 0.  1.
</event>
<event>
 7    1  0.1381607E-011  0.5052887E+02  0.7816164E-02  0.1300439E+00
        -11   -1    0    0    0    0  0.00000000000E+00  0.00000000000E+00  0.45593999997E+02  0.45594000000E+02  0.51100000000E-03 0.  1.
         11   -1    0    0    0    0 -0.00000000000E+00 -0.00000000000E+00 -0.45593999997E+02  0.45594000000E+02  0.51100000000E-03 0. -1.
    9900012    2    1    2    0    0  0.23989107638E+02 -0.73717346423E+01  0.31989769866E+02  0.50528866549E+02  0.30000020363E+02 0.  0.
         12    1    1    2    0    0 -0.23989107638E+02  0.73717346423E+01 -0.31989769866E+02  0.40659133451E+02  0.00000000000E+00 0. -1.
         11    1    3    3    0    0  0.18365142472E+02 -0.35586155474E+00  0.13371743581E+02  0.22720224958E+02  0.51100000000E-03 0. -1.
        -11    1    3    3    0    0  0.70338097279E+01 -0.73133843755E+01  0.21948134658E+02  0.24180171330E+02  0.51100000000E-03 0.  1.
         12    1    3    3    0    0 -0.14098445624E+01  0.29751128801E+00 -0.33301083738E+01  0.36284702614E+01  0.00000000000E+00 0. -1.
</event>
<event>
 7    1  0.1381607E-011  0.5052886E+02  0.7816164E-02  0.1300439E+00
        -11   -1    0    0    0    0  0.00000000000E+00  0.00000000000E+00  0.45593999997E+02  0.45594000000E+02  0.51100000000E-03 0. -1.
         11   -1    0    0    0    0 -0.00000000000E+00 -0.00000000000E+00 -0.45593999997E+02  0.45594000000E+02  0.51100000000E-03 0.  1.
    9900012    2    1    2    0    0 -0.21379923277E+02  0.11758807571E+02 -0.32523756268E+02  0.50528863307E+02  0.30000010508E+02 0.  0.
         12    1    1    2    0    0  0.21379923277E+02 -0.11758807571E+02  0.32523756268E+02  0.40659136693E+02  0.00000000000E+00 0. -1.
         11    1    3    3    0    0 -0.11544859267E+01  0.13867769054E+02 -0.20734613804E+02  0.24971424992E+02  0.51100000000E-03 0. -1.
        -11    1    3    3    0    0 -0.13708303194E+01  0.11608796609E+01  0.14328807375E+01  0.22978174037E+01  0.51100000000E-03 0.  1.
        -12    1    3    3    0    0 -0.18854607031E+02 -0.32698411435E+01 -0.13222023202E+02  0.23259620911E+02  0.00000000000E+00 0.  1.
</event>
<event>
 7    1  0.1381607E-011  0.5052891E+02  0.7816164E-02  0.1300439E+00
        -11   -1    0    0    0    0  0.00000000000E+00  0.00000000000E+00  0.45593999997E+02  0.45594000000E+02  0.51100000000E-03 0.  1.
         11   -1    0    0    0    0 -0.00000000000E+00 -0.00000000000E+00 -0.45593999997E+02  0.45594000000E+02  0.51100000000E-03 0. -1.
    9900012    2    1    2    0    0  0.29149160790E+02 -0.14172897562E+01  0.28310409652E+02  0.50528910245E+02  0.30000153182E+02 0.  0.
         12    1    1    2    0    0 -0.29149160790E+02  0.14172897562E+01 -0.28310409652E+02  0.40659089755E+02  0.00000000000E+00 0. -1.
         11    1    3    3    0    0  0.37771294487E+01  0.71786786565E+01 -0.15658247387E+01  0.82614733249E+01  0.51100000000E-03 0. -1.
        -11    1    3    3    0    0  0.13255515469E+02 -0.16740620441E+00  0.68630317154E+01  0.14927756689E+02  0.51100000000E-03 0.  1.
         12    1    3    3    0    0  0.12116515872E+02 -0.84285622083E+01  0.23013202675E+02  0.27339680231E+02  0.00000000000E+00 0. -1.
</event>
<event>
 7    1  0.1381607E-011  0.5052886E+02  0.7816164E-02  0.1300439E+00
        -11   -1    0    0    0    0  0.00000000000E+00  0.00000000000E+00  0.45593999997E+02  0.45594000000E+02  0.51100000000E-03 0.  1.
         11   -1    0    0    0    0 -0.00000000000E+00 -0.00000000000E+00 -0.45593999997E+02  0.45594000000E+02  0.51100000000E-03 0. -1.
    9900012    2    1    2    0    0  0.32870875298E+02 -0.11782900040E+02  0.20828690822E+02  0.50528861573E+02  0.30000005239E+02 0.  0.
         12    1    1    2    0    0 -0.32870875298E+02  0.11782900040E+02 -0.20828690822E+02  0.40659138427E+02  0.00000000000E+00 0. -1.
         11    1    3    3    0    0  0.12282339353E+02  0.25133302090E+01  0.22204249868E+01  0.12731966702E+02  0.51100000000E-03 0. -1.
        -11    1    3    3    0    0  0.25075544126E+02 -0.11584210330E+02  0.16255676079E+02  0.32050333029E+02  0.51100000000E-03 0.  1.
         12    1    3    3    0    0 -0.44870081807E+01 -0.27120199184E+01  0.23525897562E+01  0.57465618428E+01  0.00000000000E+00 0. -1.
</event>
<event>
 7    1  0.1381607E-011  0.5052886E+02  0.7816164E-02  0.1300439E+00
        -11   -1    0    0    0    0  0.00000000000E+00  0.00000000000E+00  0.45593999997E+02  0.45594000000E+02  0.51100000000E-03 0.  1.
         11   -1    0    0    0    0 -0.00000000000E+00 -0.00000000000E+00 -0.45593999997E+02  0.45594000000E+02  0.51100000000E-03 0. -1.
    9900012    2    1    2    0    0 -0.41250652447E+01 -0.20811698163E+02  0.34684615983E+02  0.50528861672E+02  0.30000005538E+02 0.  0.
         12    1    1    2    0    0  0.41250652447E+01  0.20811698163E+02 -0.34684615983E+02  0.40659138328E+02  0.00000000000E+00 0. -1.
         11    1    3    3    0    0  0.22000603209E+00 -0.14587181681E+02  0.16165911462E+02  0.21775467061E+02  0.51100000000E-03 0.  1.
        -11    1    3    3    0    0 -0.45204690494E+01 -0.54975742630E+01 -0.26327212151E+01  0.75887538148E+01  0.51100000000E-03 0. -1.
         12    1    3    3    0    0  0.17539777265E+00 -0.72694221871E+00  0.21151425736E+02  0.21164640796E+02  0.00000000000E+00 0. -1.
</event>
<event>
 7    1  0.1381607E-011  0.5052886E+02  0.7816164E-02  0.1300439E+00
        -11   -1    0    0    0    0  0.00000000000E+00  0.00000000000E+00  0.45593999997E+02  0.45594000000E+02  0.51100000000E-03 0.  1.
         11   -1    0    0    0    0 -0.00000000000E+00 -0.00000000000E+00 -0.45593999997E+02  0.45594000000E+02  0.51100000000E-03 0. -1.
    9900012    2    1    2    0    0 -0.12743629218E+02 -0.29384933203E+02  0.25045785645E+02  0.50528858795E+02  0.29999996794E+02 0.  0.
         12    1    1    2    0    0  0.12743629218E+02  0.29384933203E+02 -0.25045785645E+02  0.40659141205E+02  0.00000000000E+00 0. -1.
         11    1    3    3    0    0 -0.12388546075E+02 -0.11910743367E+02  0.11482300484E+02  0.20668456790E+02  0.51100000000E-03 0. -1.
        -11    1    3    3    0    0 -0.23827576992E+01 -0.18489547581E+02  0.27890654787E+01  0.18849928131E+02  0.51100000000E-03 0.  1.
         12    1    3    3    0    0  0.20276745565E+01  0.10153577460E+01  0.10774419682E+02  0.11010473875E+02  0.00000000000E+00 0. -1.
</event>
<event>
 7    1  0.1381607E-011  0.5052886E+02  0.7816164E-02  0.1300439E+00
        -11   -1    0    0    0    0  0.00000000000E+00  0.00000000000E+00  0.45593999997E+02  0.45594000000E+02  0.51100000000E-03 0.  1.
         11   -1    0    0    0    0 -0.00000000000E+00 -0.00000000000E+00 -0.45593999997E+02  0.45594000000E+02  0.51100000000E-03 0. -1.
    9900012    2    1    2    0    0  0.25686290559E+02 -0.30559546743E+02  0.77132610387E+01  0.50528858154E+02  0.29999994844E+02 0.  0.
         12    1    1    2    0    0 -0.25686290559E+02  0.30559546743E+02 -0.77132610387E+01  0.40659141846E+02  0.00000000000E+00 0. -1.
         11    1    3    3    0    0  0.11404991114E+02 -0.16250943674E+02  0.76290614696E+01  0.21268981446E+02  0.51100000000E-03 0. -1.
        -11    1    3    3    0    0 -0.39851791606E+01 -0.79361844676E+01  0.36258441775E+01  0.95922584987E+01  0.51100000000E-03 0.  1.
         12    1    3    3    0    0  0.18266478605E+02 -0.63724186020E+01 -0.35416446084E+01  0.19667618209E+02  0.00000000000E+00 0. -1.
</event>
<event>
 7    1  0.1381607E-011  0.5052884E+02  0.7816164E-02  0.1300439E+00
        -11   -1    0    0    0    0  0.00000000000E+00  0.00000000000E+00  0.45593999997E+02  0.45594000000E+02  0.51100000000E-03 0.  1.
         11   -1    0    0    0    0 -0.00000000000E+00 -0.00000000000E+00 -0.45593999997E+02  0.45594000000E+02  0.51100000000E-03 0. -1.
    9900012    2    1    2    0    0 -0.17361573244E+01  0.19994440048E+02  0.35360643708E+02  0.50528843608E+02  0.29999950630E+02 0.  0.
         12    1    1    2    0    0  0.17361573244E+01 -0.19994440048E+02 -0.35360643708E+02  0.40659156392E+02  0.00000000000E+00 0. -1.
         11    1    3    3    0    0 -0.38042894725E+01  0.21379142226E+02  0.11054119502E+02  0.24366655473E+02  0.51100000000E-03 0. -1.
        -11    1    3    3    0    0 -0.14908603699E+01 -0.35290292274E+01  0.44333537237E+01  0.58592949602E+01  0.51100000000E-03 0.  1.
        -12    1    3    3    0    0  0.35589925180E+01  0.21443270490E+01  0.19873170482E+02  0.20302893175E+02  0.00000000000E+00 0.  1.
</event>
<event>
 7    1  0.1381607E-011  0.5052887E+02  0.7816164E-02  0.1300439E+00
        -11   -1    0    0    0    0  0.00000000000E+00  0.00000000000E+00  0.45593999997E+02  0.45594000000E+02  0.51100000000E-03 0.  1.
         11   -1    0    0    0    0 -0.00000000000E+00 -0.00000000000E+00 -0.45593999997E+02  0.45594000000E+02  0.51100000000E-03 0. -1.
    9900012    2    1    2    0    0  0.29881778293E+01 -0.32779594395E+02  0.23869098119E+02  0.50528869900E+02  0.30000030549E+02 0.  0.
         12    1    1    2    0    0 -0.29881778293E+01  0.32779594395E+02 -0.23869098119E+02  0.40659130100E+02  0.00000000000E+00 0. -1.
         11    1    3    3    0    0  0.76539456280E+00  0.90529093942E+00 -0.24275979764E+01  0.27015944770E+01  0.51100000000E-03 0. -1.
        -11    1    3    3    0    0  0.11676586921E+02 -0.20136233184E+02  0.13313556019E+02  0.26815319187E+02  0.51100000000E-03 0.  1.
        -12    1    3    3    0    0 -0.94538036549E+01 -0.13548652151E+02  0.12983140076E+02  0.21011956236E+02  0.00000000000E+00 0.  1.
</event>
<event>
 7    1  0.1381607E-011  0.5052886E+02  0.7816164E-02  0.1300439E+00
        -11   -1    0    0    0    0  0.00000000000E+00  0.00000000000E+00  0.45593999997E+02  0.45594000000E+02  0.51100000000E-03 0.  1.
         11   -1    0    0    0    0 -0.00000000000E+00 -0.00000000000E+00 -0.45593999997E+02  0.45594000000E+02  0.51100000000E-03 0. -1.
    9900012    2    1    2    0    0  0.14998174381E+02 -0.12335113708E+01  0.37771669674E+02  0.50528858161E+02  0.29999994867E+02 0.  0.
         12    1    1    2    0    0 -0.14998174381E+02  0.12335113708E+01 -0.37771669674E+02  0.40659141839E+02  0.00000000000E+00 0. -1.
         11    1    3    3    0    0  0.44281183540E+01  0.27246056987E+01 -0.17371954257E+01  0.54817475843E+01  0.51100000000E-03 0. -1.
        -11    1    3    3    0    0  0.27553505827E+01 -0.97030185394E+01  0.10957145787E+02  0.14892936905E+02  0.51100000000E-03 0.  1.
        -12    1    3    3    0    0  0.78147054447E+01  0.57449014699E+01  0.28551719313E+02  0.30154173672E+02  0.00000000000E+00 0.  1.
</event>
<event>
 7    1  0.1381607E-011  0.5052881E+02  0.7816164E-02  0.1300439E+00
        -11   -1    0    0    0    0  0.00000000000E+00  0.00000000000E+00  0.45593999997E+02  0.45594000000E+02  0.51100000000E-03 0. -1.
         11   -1    0    0    0    0 -0.00000000000E+00 -0.00000000000E+00 -0.45593999997E+02  0.45594000000E+02  0.51100000000E-03 0.  1.
    9900012    2    1    2    0    0  0.44975577632E+01  0.98051553800E+01 -0.39202047228E+02  0.50528811559E+02  0.29999853214E+02 0.  0.
         12    1    1    2    0    0 -0.44975577632E+01 -0.98051553800E+01  0.39202047228E+02  0.40659188441E+02  0.00000000000E+00 0. -1.
         11    1    3    3    0    0 -0.16381802625E+01 -0.50610526413E+01 -0.41936029021E+01  0.67737872695E+01  0.51100000000E-03 0. -1.
        -11    1    3    3    0    0  0.10593347066E+02  0.55679984280E+01 -0.29984934986E+02  0.32284949047E+02  0.51100000000E-03 0.  1.
        -12    1    3    3    0    0 -0.44576090400E+01  0.92982095933E+01 -0.50235093391E+01  0.11470075243E+02  0.00000000000E+00 0.  1.
</event>
<event>
 7    1  0.1381607E-011  0.5052886E+02  0.7816164E-02  0.1300439E+00
        -11   -1    0    0    0    0  0.00000000000E+00  0.00000000000E+00  0.45593999997E+02  0.45594000000E+02  0.51100000000E-03 0. -1.
         11   -1    0    0    0    0 -0.00000000000E+00 -0.00000000000E+00 -0.45593999997E+02  0.45594000000E+02  0.51100000000E-03 0.  1.
    9900012    2    1    2    0    0 -0.25767666524E+02 -0.30692954350E+02 -0.68655593043E+01  0.50528856018E+02  0.29999988351E+02 0.  0.
         12    1    1    2    0    0  0.25767666524E+02  0.30692954350E+02  0.68655593043E+01  0.40659143982E+02  0.00000000000E+00 0. -1.
         11    1    3    3    0    0 -0.35819375644E+01 -0.11379472216E+02 -0.14224056522E+02  0.18564655904E+02  0.51100000000E-03 0. -1.
        -11    1    3    3    0    0 -0.16631587480E+02 -0.15173914241E+02  0.95964065049E+00  0.22533936316E+02  0.51100000000E-03 0.  1.
        -12    1    3    3    0    0 -0.55541414799E+01 -0.41395678927E+01  0.63988565671E+01  0.94302637971E+01  0.00000000000E+00 0.  1.
</event>
<event>
 7    1  0.1381607E-011  0.5052886E+02  0.7816164E-02  0.1300439E+00
        -11   -1    0    0    0    0  0.00000000000E+00  0.00000000000E+00  0.45593999997E+02  0.45594000000E+02  0.51100000000E-03 0. -1.
         11   -1    0    0    0    0 -0.00000000000E+00 -0.00000000000E+00 -0.45593999997E+02  0.45594000000E+02  0.51100000000E-03 0.  1.
    9900012    2    1    2    0    0  0.11823923230E+02  0.83671170539E+00 -0.38892934227E+02  0.50528861054E+02  0.30000003659E+02 0.  0.
         12    1    1    2    0    0 -0.11823923230E+02 -0.83671170539E+00  0.38892934227E+02  0.40659138946E+02  0.00000000000E+00 0. -1.
         11    1    3    3    0    0  0.33568339745E+01 -0.66903973716E+01 -0.20097562116E+02  0.21446252694E+02  0.51100000000E-03 0. -1.
        -11    1    3    3    0    0  0.64887816789E+01  0.13656831065E+02 -0.16139354897E+02  0.22115426723E+02  0.51100000000E-03 0.  1.
         12    1    3    3    0    0  0.19783075769E+01 -0.61297219878E+01 -0.26560172141E+01  0.69671816367E+01  0.00000000000E+00 0. -1.
</event>
<event>
 7    1  0.1381607E-011  0.5052885E+02  0.7816164E-02  0.1300439E+00
        -11   -1    0    0    0    0  0.00000000000E+00  0.00000000000E+00  0.45593999997E+02  0.45594000000E+02  0.51100000000E-03 0.  1.
         11   -1    0    0    0    0 -0.00000000000E+00 -0.00000000000E+00 -0.45593999997E+02  0.45594000000E+02  0.51100000000E-03 0. -1.
    9900012    2    1    2    0    0  0.29530438892E+02  0.11197519515E+02  0.25607325149E+02  0.50528851390E+02  0.29999974284E+02 0.  0.
         12    1    1    2    0    0 -0.29530438892E+02 -0.11197519515E+02 -0.25607325149E+02  0.40659148610E+02  0.00000000000E+00 0. -1.
         11    1    3    3    0    0 -0.23483258110E+01  0.48119156124E+01  0.84047939168E+01  0.99654265849E+01  0.51100000000E-03 0. -1.
        -11    1    3    3    0    0  0.28937407218E+01 -0.44015575080E+01  0.20166340458E+00  0.52714430900E+01  0.51100000000E-03 0.  1.
         12    1    3    3    0    0  0.28985023981E+02  0.10787161410E+02  0.17000867828E+02  0.35291981715E+02  0.00000000000E+00 0. -1.
</event>
<event>
 7    1  0.1381607E-011  0.5052876E+02  0.7816164E-02  0.1300439E+00
        -11   -1    0    0    0    0  0.00000000000E+00  0.00000000000E+00  0.45593999997E+02  0.45594000000E+02  0.51100000000E-03 0.  1.
         11   -1    0    0    0    0 -0.00000000000E+00 -0.00000000000E+00 -0.45593999997E+02  0.45594000000E+02  0.51100000000E-03 0. -1.
    9900012    2    1    2    0    0  0.99615011179E+01  0.72950375511E+01  0.38739190936E+02  0.50528757610E+02  0.29999689229E+02 0.  0.
         12    1    1    2    0    0 -0.99615011179E+01 -0.72950375511E+01 -0.38739190936E+02  0.40659242390E+02  0.00000000000E+00 0. -1.
         11    1    3    3    0    0 -0.63177923618E+00 -0.67590777487E+00  0.24570176132E+02  0.24587589385E+02  0.51100000000E-03 0. -1.
        -11    1    3    3    0    0 -0.30184271092E+01  0.22075789500E+01  0.98584814248E+01  0.10543906453E+02  0.51100000000E-03 0.  1.
         12    1    3    3    0    0  0.13611707463E+02  0.57633663760E+01  0.43105333786E+01  0.15397261771E+02  0.00000000000E+00 0. -1.
</event>
<event>
 7    1  0.1381607E-011  0.5052884E+02  0.7816164E-02  0.1300439E+00
        -11   -1    0    0    0    0  0.00000000000E+00  0.00000000000E+00  0.45593999997E+02  0.45594000000E+02  0.51100000000E-03 0.  1.
         11   -1    0    0    0    0 -0.00000000000E+00 -0.00000000000E+00 -0.45593999997E+02  0.45594000000E+02  0.51100000000E-03 0. -1.
    9900012    2    1    2    0    0 -0.12736967701E+02 -0.22918791464E+02  0.31075169760E+02  0.50528837146E+02  0.29999930988E+02 0.  0.
         12    1    1    2    0    0  0.12736967701E+02  0.22918791464E+02 -0.31075169760E+02  0.40659162854E+02  0.00000000000E+00 0. -1.
         11    1    3    3    0    0  0.31659461817E+01 -0.14113108250E+01  0.58857223260E+01  0.68305739898E+01  0.51100000000E-03 0. -1.
        -11    1    3    3    0    0 -0.13323660941E+02 -0.21224780584E+02  0.29475061990E+02  0.38688377211E+02  0.51100000000E-03 0.  1.
         12    1    3    3    0    0 -0.25792529418E+01 -0.28270005561E+00 -0.42856145555E+01  0.50098859446E+01  0.00000000000E+00 0. -1.
</event>
<event>
 7    1  0.1381607E-011  0.5052887E+02  0.7816164E-02  0.1300439E+00
        -11   -1    0    0    0    0  0.00000000000E+00  0.00000000000E+00  0.45593999997E+02  0.45594000000E+02  0.51100000000E-03 0.  1.
         11   -1    0    0    0    0 -0.00000000000E+00 -0.00000000000E+00 -0.45593999997E+02  0.45594000000E+02  0.51100000000E-03 0. -1.
    9900012    2    1    2    0    0 -0.20701422176E+01 -0.21544476075E+02 -0.34419689802E+02  0.50528868379E+02  0.30000025923E+02 0.  0.
         12    1    1    2    0    0  0.20701422176E+01  0.21544476075E+02  0.34419689802E+02  0.40659131621E+02  0.00000000000E+00 0. -1.
         11    1    3    3    0    0 -0.23093333822E+01 -0.35730820108E+01 -0.44179962167E+01  0.61334025270E+01  0.51100000000E-03 0. -1.
        -11    1    3    3    0    0 -0.12012867808E+02 -0.16458697197E+02 -0.18945156672E+02  0.27822952179E+02  0.51100000000E-03 0.  1.
         12    1    3    3    0    0  0.12252058973E+02 -0.15126968675E+01 -0.11056536913E+02  0.16572513672E+02  0.00000000000E+00 0. -1.
</event>
<event>
 7    1  0.1381607E-011  0.5052889E+02  0.7816164E-02  0.1300439E+00
        -11   -1    0    0    0    0  0.00000000000E+00  0.00000000000E+00  0.45593999997E+02  0.45594000000E+02  0.51100000000E-03 0. -1.
         11   -1    0    0    0    0 -0.00000000000E+00 -0.00000000000E+00 -0.45593999997E+02  0.45594000000E+02  0.51100000000E-03 0.  1.
    9900012    2    1    2    0    0 -0.33843803143E+02  0.19229114281E+02 -0.11747393057E+02  0.50528891662E+02  0.30000096697E+02 0.  0.
         12    1    1    2    0    0  0.33843803143E+02 -0.19229114281E+02  0.11747393057E+02  0.40659108338E+02  0.00000000000E+00 0. -1.
         11    1    3    3    0    0 -0.19327799923E+02 -0.30076381624E+01 -0.19900087877E+01  0.19661380226E+02  0.51100000000E-03 0. -1.
        -11    1    3    3    0    0  0.14858433450E+01  0.37148857475E+01 -0.41337180280E+01  0.57528889750E+01  0.51100000000E-03 0.  1.
        -12    1    3    3    0    0 -0.16001846565E+02  0.18521866695E+02 -0.56236662416E+01  0.25114622461E+02  0.00000000000E+00 0.  1.
</event>
<event>
 7    1  0.1381607E-011  0.5052886E+02  0.7816164E-02  0.1300439E+00
        -11   -1    0    0    0    0  0.00000000000E+00  0.00000000000E+00  0.45593999997E+02  0.45594000000E+02  0.51100000000E-03 0.  1.
         11   -1    0    0    0    0 -0.00000000000E+00 -0.00000000000E+00 -0.45593999997E+02  0.45594000000E+02  0.51100000000E-03 0. -1.
    9900012    2    1    2    0    0  0.29736367363E+02  0.27413683094E+02  0.41718213968E+01  0.50528860086E+02  0.30000000719E+02 0.  0.
         12    1    1    2    0    0 -0.29736367363E+02 -0.27413683094E+02 -0.41718213968E+01  0.40659139914E+02  0.00000000000E+00 0. -1.
         11    1    3    3    0    0  0.47782588444E+01  0.36482120693E+01 -0.40498377166E+01  0.72486132935E+01  0.51100000000E-03 0. -1.
        -11    1    3    3    0    0  0.13045417558E+02  0.36025401629E+01 -0.71111948661E+01  0.15288240826E+02  0.51100000000E-03 0.  1.
         12    1    3    3    0    0  0.11912690961E+02  0.20162930862E+02  0.15332853979E+02  0.27992005967E+02  0.00000000000E+00 0. -1.
</event>
<event>
 7    1  0.1381607E-011  0.5052886E+02  0.7816164E-02  0.1300439E+00
        -11   -1    0    0    0    0  0.00000000000E+00  0.00000000000E+00  0.45593999997E+02  0.45594000000E+02  0.51100000000E-03 0. -1.
         11   -1    0    0    0    0 -0.00000000000E+00 -0.00000000000E+00 -0.45593999997E+02  0.45594000000E+02  0.51100000000E-03 0.  1.
    9900012    2    1    2    0    0  0.24180716115E+01  0.19989391270E+02 -0.35323399384E+02  0.50528863539E+02  0.30000011214E+02 0.  0.
         12    1    1    2    0    0 -0.24180716115E+01 -0.19989391270E+02  0.35323399384E+02  0.40659136461E+02  0.00000000000E+00 0. -1.
         11    1    3    3    0    0 -0.59794084814E+01  0.57377716395E+00 -0.38877063059E+01  0.71551943792E+01  0.51100000000E-03 0. -1.
        -11    1    3    3    0    0 -0.50384464163E+01  0.14846364296E+02 -0.17177804968E+02  0.23256772323E+02  0.51100000000E-03 0.  1.
         12    1    3    3    0    0  0.13435926509E+02  0.45692498105E+01 -0.14257888110E+02  0.20116896837E+02  0.00000000000E+00 0. -1.
</event>
<event>
 7    1  0.1381607E-011  0.5052887E+02  0.7816164E-02  0.1300439E+00
        -11   -1    0    0    0    0  0.00000000000E+00  0.00000000000E+00  0.45593999997E+02  0.45594000000E+02  0.51100000000E-03 0. -1.
         11   -1    0    0    0    0 -0.00000000000E+00 -0.00000000000E+00 -0.45593999997E+02  0.45594000000E+02  0.51100000000E-03 0.  1.
    9900012    2    1    2    0    0  0.12514476332E+02 -0.29141759987E+02 -0.25442295590E+02  0.50528871899E+02  0.30000036625E+02 0.  0.
         12    1    1    2    0    0 -0.12514476332E+02  0.29141759987E+02  0.25442295590E+02  0.40659128101E+02  0.00000000000E+00 0. -1.
         11    1    3    3    0    0  0.52677807653E+00 -0.13748324122E+02 -0.21019876441E+02  0.25122283279E+02  0.51100000000E-03 0. -1.
        -11    1    3    3    0    0  0.98256944128E+01 -0.69896826711E+01 -0.95016744002E+01  0.15351929885E+02  0.51100000000E-03 0.  1.
         12    1    3    3    0    0  0.21620038427E+01 -0.84037531940E+01  0.50792552511E+01  0.10054658734E+02  0.00000000000E+00 0. -1.
</event>
<event>
 7    1  0.1381607E-011  0.5052887E+02  0.7816164E-02  0.1300439E+00
        -11   -1    0    0    0    0  0.00000000000E+00  0.00000000000E+00  0.45593999997E+02  0.45594000000E+02  0.51100000000E-03 0.  1.
         11   -1    0    0    0    0 -0.00000000000E+00 -0.00000000000E+00 -0.45593999997E+02  0.45594000000E+02  0.51100000000E-03 0. -1.
    9900012    2    1    2    0    0  0.76390952479E+01 -0.21125953510E+02  0.33889574676E+02  0.50528868681E+02  0.30000026842E+02 0.  0.
         12    1    1    2    0    0 -0.76390952479E+01  0.21125953510E+02 -0.33889574676E+02  0.40659131319E+02  0.00000000000E+00 0. -1.
         11    1    3    3    0    0 -0.61604691242E+00 -0.15410999348E+02  0.17724906477E+02  0.23495759715E+02  0.51100000000E-03 0. -1.
        -11    1    3    3    0    0  0.18889020860E+01 -0.83292888675E+01  0.17988775867E+02  0.19913338786E+02  0.51100000000E-03 0.  1.
         12    1    3    3    0    0  0.63662400743E+01  0.26143347054E+01 -0.18241076679E+01  0.71197701803E+01  0.00000000000E+00 0. -1.
</event>
<event>
 7    1  0.1381607E-011  0.5052887E+02  0.7816164E-02  0.1300439E+00
        -11   -1    0    0    0    0  0.00000000000E+00  0.00000000000E+00  0.45593999997E+02  0.45594000000E+02  0.51100000000E-03 0. -1.
         11   -1    0    0    0    0 -0.00000000000E+00 -0.00000000000E+00 -0.45593999997E+02  0.45594000000E+02  0.51100000000E-03 0.  1.
    9900012    2    1    2    0    0 -0.18837544488E+02 -0.23086862399E+02 -0.27664210054E+02  0.50528870451E+02  0.30000032224E+02 0.  0.
         12    1    1    2    0    0  0.18837544488E+02  0.23086862399E+02  0.27664210054E+02  0.40659129549E+02  0.00000000000E+00 0. -1.
         11    1    3    3    0    0 -0.32522471098E+01  0.24335666925E+01 -0.45271831309E+01  0.60823305954E+01  0.51100000000E-03 0. -1.
        -11    1    3    3    0    0 -0.15903960773E+02 -0.25941093521E+02 -0.26919888698E+02  0.40627044061E+02  0.51100000000E-03 0.  1.
         12    1    3    3    0    0  0.31866339503E+00  0.42066442936E+00  0.37828617752E+01  0.38194957955E+01  0.00000000000E+00 0. -1.
</event>
<event>
 7    1  0.1381607E-011  0.5052886E+02  0.7816164E-02  0.1300439E+00
        -11   -1    0    0    0    0  0.00000000000E+00  0.00000000000E+00  0.45593999997E+02  0.45594000000E+02  0.51100000000E-03 0.  1.
         11   -1    0    0    0    0 -0.00000000000E+00 -0.00000000000E+00 -0.45593999997E+02  0.45594000000E+02  0.51100000000E-03 0. -1.
    9900012    2    1    2    0    0 -0.14741430525E+02 -0.23850129790E+02 -0.29445324673E+02  0.50528860682E+02  0.30000002530E+02 0.  0.
         12    1    1    2    0    0  0.14741430525E+02  0.23850129790E+02  0.29445324673E+02  0.40659139318E+02  0.00000000000E+00 0. -1.
         11    1    3    3    0    0 -0.48367400430E+01 -0.38560105958E+01 -0.19497785220E+02  0.20455476057E+02  0.51100000000E-03 0. -1.
        -11    1    3    3    0    0 -0.13565451466E+02 -0.11072469115E+02 -0.10494145632E+02  0.20414410071E+02  0.51100000000E-03 0.  1.
        -12    1    3    3    0    0  0.36607609840E+01 -0.89216500798E+01  0.54660617836E+00  0.96589745544E+01  0.00000000000E+00 0.  1.
</event>
<event>
 7    1  0.1381607E-011  0.5052884E+02  0.7816164E-02  0.1300439E+00
        -11   -1    0    0    0    0  0.00000000000E+00  0.00000000000E+00  0.45593999997E+02  0.45594000000E+02  0.51100000000E-03 0.  1.
         11   -1    0    0    0    0 -0.00000000000E+00 -0.00000000000E+00 -0.45593999997E+02  0.45594000000E+02  0.51100000000E-03 0. -1.
    9900012    2    1    2    0    0 -0.47744455233E+00  0.28207794738E+02  0.29278990597E+02  0.50528844479E+02  0.29999953279E+02 0.  0.
         12    1    1    2    0    0  0.47744455233E+00 -0.28207794738E+02 -0.29278990597E+02  0.40659155521E+02  0.00000000000E+00 0. -1.
         11    1    3    3    0    0  0.36211199025E+01  0.88410430205E+01 -0.18958916484E+01  0.97401723004E+01  0.51100000000E-03 0. -1.
        -11    1    3    3    0    0 -0.42694953310E+01  0.18755271897E+02  0.14465910827E+02  0.24067641983E+02  0.51100000000E-03 0.  1.
         12    1    3    3    0    0  0.17093087617E+00  0.61147982044E+00  0.16708971419E+02  0.16721030196E+02  0.00000000000E+00 0. -1.
</event>
<event>
 7    1  0.1381607E-011  0.5052883E+02  0.7816164E-02  0.1300439E+00
        -11   -1    0    0    0    0  0.00000000000E+00  0.00000000000E+00  0.45593999997E+02  0.45594000000E+02  0.51100000000E-03 0. -1.
         11   -1    0    0    0    0 -0.00000000000E+00 -0.00000000000E+00 -0.45593999997E+02  0.45594000000E+02  0.51100000000E-03 0.  1.
    9900012    2    1    2    0    0  0.64765806612E+01 -0.83476567143E+01 -0.39262436234E+02  0.50528826758E+02  0.29999899414E+02 0.  0.
         12    1    1    2    0    0 -0.64765806612E+01  0.83476567143E+01  0.39262436234E+02  0.40659173242E+02  0.00000000000E+00 0. -1.
         11    1    3    3    0    0  0.65146882016E+00  0.40711016803E+01  0.10643119498E+00  0.41242706477E+01  0.51100000000E-03 0. -1.
        -11    1    3    3    0    0 -0.75667212521E+01 -0.27874724045E+01 -0.12433835574E+02  0.14819768563E+02  0.51100000000E-03 0.  1.
        -12    1    3    3    0    0  0.13391833093E+02 -0.96312859902E+01 -0.26935031854E+02  0.31584787547E+02  0.00000000000E+00 0.  1.
</event>
<event>
 7    1  0.1381607E-011  0.5052886E+02  0.7816164E-02  0.1300439E+00
        -11   -1    0    0    0    0  0.00000000000E+00  0.00000000000E+00  0.45593999997E+02  0.45594000000E+02  0.51100000000E-03 0.  1.
         11   -1    0    0    0    0 -0.00000000000E+00 -0.00000000000E+00 -0.45593999997E+02  0.45594000000E+02  0.51100000000E-03 0. -1.
    9900012    2    1    2    0    0 -0.22698671469E+02  0.33130071839E+02  0.63509386264E+01  0.50528858741E+02  0.29999996629E+02 0.  0.
         12    1    1    2    0    0  0.22698671469E+02 -0.33130071839E+02 -0.63509386264E+01  0.40659141259E+02  0.00000000000E+00 0. -1.
         11    1    3    3    0    0 -0.15082864049E+02  0.22534952347E+02  0.11914587284E+02  0.29618815905E+02  0.51100000000E-03 0.  1.
        -11    1    3    3    0    0 -0.58334361331E+01 -0.42347820115E+00 -0.75731755536E+01  0.95687668554E+01  0.51100000000E-03 0. -1.
         12    1    3    3    0    0 -0.17823712867E+01  0.11018597693E+02  0.20095268963E+01  0.11341275981E+02  0.00000000000E+00 0. -1.
</event>
<event>
 7    1  0.1381607E-011  0.5052885E+02  0.7816164E-02  0.1300439E+00
        -11   -1    0    0    0    0  0.00000000000E+00  0.00000000000E+00  0.45593999997E+02  0.45594000000E+02  0.51100000000E-03 0.  1.
         11   -1    0    0    0    0 -0.00000000000E+00 -0.00000000000E+00 -0.45593999997E+02  0.45594000000E+02  0.51100000000E-03 0. -1.
    9900012    2    1    2    0    0  0.38731601596E+02 -0.12346840992E+02 -0.76462656381E+00  0.50528854677E+02  0.29999984275E+02 0.  0.
         12    1    1    2    0    0 -0.38731601596E+02  0.12346840992E+02  0.76462656381E+00  0.40659145323E+02  0.00000000000E+00 0. -1.
         11    1    3    3    0    0  0.12497427107E+01 -0.60700968750E+01 -0.59140672629E+01  0.85664534532E+01  0.51100000000E-03 0. -1.
        -11    1    3    3    0    0  0.28336562916E+02 -0.74746191531E+01 -0.32526463130E+01  0.29485766696E+02  0.51100000000E-03 0.  1.
         12    1    3    3    0    0  0.91452959693E+01  0.11978750365E+01  0.84020870121E+01  0.12476634527E+02  0.00000000000E+00 0. -1.
</event>
<event>
 7    1  0.1381607E-011  0.5052885E+02  0.7816164E-02  0.1300439E+00
        -11   -1    0    0    0    0  0.00000000000E+00  0.00000000000E+00  0.45593999997E+02  0.45594000000E+02  0.51100000000E-03 0. -1.
         11   -1    0    0    0    0 -0.00000000000E+00 -0.00000000000E+00 -0.45593999997E+02  0.45594000000E+02  0.51100000000E-03 0.  1.
    9900012    2    1    2    0    0 -0.14890292310E+02  0.22579835756E+01 -0.37767012350E+02  0.50528849532E+02  0.29999968638E+02 0.  0.
         12    1    1    2    0    0  0.14890292310E+02 -0.22579835756E+01  0.37767012350E+02  0.40659150468E+02  0.00000000000E+00 0. -1.
         11    1    3    3    0    0 -0.64738284522E+01 -0.22459325381E+01 -0.54900721452E+01  0.87804077477E+01  0.51100000000E-03 0. -1.
        -11    1    3    3    0    0 -0.11570763338E+02  0.15481998545E+01 -0.34825736679E+02  0.36730252143E+02  0.51100000000E-03 0.  1.
        -12    1    3    3    0    0  0.31542994796E+01  0.29557162593E+01  0.25487964739E+01  0.50181896415E+01  0.00000000000E+00 0.  1.
</event>
<event>
 7    1  0.1381607E-011  0.5052886E+02  0.7816164E-02  0.1300439E+00
        -11   -1    0    0    0    0  0.00000000000E+00  0.00000000000E+00  0.45593999997E+02  0.45594000000E+02  0.51100000000E-03 0.  1.
         11   -1    0    0    0    0 -0.00000000000E+00 -0.00000000000E+00 -0.45593999997E+02  0.45594000000E+02  0.51100000000E-03 0. -1.
    9900012    2    1    2    0    0 -0.16988592192E+02  0.10719152726E+02  0.35350436068E+02  0.50528857978E+02  0.29999994309E+02 0.  0.
         12    1    1    2    0    0  0.16988592192E+02 -0.10719152726E+02 -0.35350436068E+02  0.40659142022E+02  0.00000000000E+00 0. -1.
         11    1    3    3    0    0 -0.13001694030E+01 -0.31555695811E+01 -0.47064172764E+00  0.34452233243E+01  0.51100000000E-03 0. -1.
        -11    1    3    3    0    0 -0.15202701134E+02 -0.78465378317E-01  0.25624349064E+02  0.29794891236E+02  0.51100000000E-03 0.  1.
        -12    1    3    3    0    0 -0.48572165478E+00  0.13953187685E+02  0.10196728732E+02  0.17288743417E+02  0.00000000000E+00 0.  1.
</event>
<event>
 7    1  0.1381607E-011  0.5052887E+02  0.7816164E-02  0.1300439E+00
        -11   -1    0    0    0    0  0.00000000000E+00  0.00000000000E+00  0.45593999997E+02  0.45594000000E+02  0.51100000000E-03 0. -1.
         11   -1    0    0    0    0 -0.00000000000E+00 -0.00000000000E+00 -0.45593999997E+02  0.45594000000E+02  0.51100000000E-03 0.  1.
    9900012    2    1    2    0    0 -0.29991353923E+02  0.26142680666E+02  0.83811723076E+01  0.50528866809E+02  0.30000021153E+02 0.  0.
         12    1    1    2    0    0  0.29991353923E+02 -0.26142680666E+02 -0.83811723076E+01  0.40659133191E+02  0.00000000000E+00 0. -1.
         11    1    3    3    0    0 -0.66635534304E+01  0.69338420836E+01 -0.16197158711E+01  0.97521582290E+01  0.51100000000E-03 0. -1.
        -11    1    3    3    0    0 -0.28484970032E+01  0.17090634359E+02  0.10355411177E+02  0.20185099922E+02  0.51100000000E-03 0.  1.
         12    1    3    3    0    0 -0.20479303490E+02  0.21182042236E+01 -0.35452299814E+00  0.20591608658E+02  0.00000000000E+00 0. -1.
</event>
<event>
 7    1  0.1381607E-011  0.5052886E+02  0.7816164E-02  0.1300439E+00
        -11   -1    0    0    0    0  0.00000000000E+00  0.00000000000E+00  0.45593999997E+02  0.45594000000E+02  0.51100000000E-03 0.  1.
         11   -1    0    0    0    0 -0.00000000000E+00 -0.00000000000E+00 -0.45593999997E+02  0.45594000000E+02  0.51100000000E-03 0. -1.
    9900012    2    1    2    0    0 -0.19556735051E+02  0.84262865502E+01  0.34636648818E+02  0.50528860410E+02  0.30000001703E+02 0.  0.
         12    1    1    2    0    0  0.19556735051E+02 -0.84262865502E+01 -0.34636648818E+02  0.40659139590E+02  0.00000000000E+00 0. -1.
         11    1    3    3    0    0  0.12551724616E+01  0.42111471678E+00 -0.26912516758E+01  0.29992718044E+01  0.51100000000E-03 0. -1.
        -11    1    3    3    0    0 -0.15750884254E+02  0.87804495246E+01  0.11932973172E+02  0.21623655973E+02  0.51100000000E-03 0.  1.
        -12    1    3    3    0    0 -0.50610232580E+01 -0.77527769121E+00  0.25394927321E+02  0.25905932633E+02  0.00000000000E+00 0.  1.
</event>
<event>
 7    1  0.1381607E-011  0.5052887E+02  0.7816164E-02  0.1300439E+00
        -11   -1    0    0    0    0  0.00000000000E+00  0.00000000000E+00  0.45593999997E+02  0.45594000000E+02  0.51100000000E-03 0.  1.
         11   -1    0    0    0    0 -0.00000000000E+00 -0.00000000000E+00 -0.45593999997E+02  0.45594000000E+02  0.51100000000E-03 0. -1.
    9900012    2    1    2    0    0 -0.71725889440E+01 -0.24225425797E+02  0.31856674991E+02  0.50528867832E+02  0.30000024262E+02 0.  0.
         12    1    1    2    0    0  0.71725889440E+01  0.24225425797E+02 -0.31856674991E+02  0.40659132168E+02  0.00000000000E+00 0. -1.
         11    1    3    3    0    0  0.74780127109E+00  0.26083321860E+01 -0.22816231507E+00  0.27229876673E+01  0.51100000000E-03 0. -1.
        -11    1    3    3    0    0 -0.74010067104E+00 -0.12244673581E+02  0.28679445886E+02  0.31192793987E+02  0.51100000000E-03 0.  1.
         12    1    3    3    0    0 -0.71802895441E+01 -0.14589084402E+02  0.34053914197E+01  0.16613086178E+02  0.00000000000E+00 0. -1.
</event>
<event>
 7    1  0.1381607E-011  0.5052887E+02  0.7816164E-02  0.1300439E+00
        -11   -1    0    0    0    0  0.00000000000E+00  0.00000000000E+00  0.45593999997E+02  0.45594000000E+02  0.51100000000E-03 0.  1.
         11   -1    0    0    0    0 -0.00000000000E+00 -0.00000000000E+00 -0.45593999997E+02  0.45594000000E+02  0.51100000000E-03 0. -1.
    9900012    2    1    2    0    0  0.25689909850E+02 -0.30810871096E+02  0.66244927640E+01  0.50528866338E+02  0.30000019720E+02 0.  0.
         12    1    1    2    0    0 -0.25689909850E+02  0.30810871096E+02 -0.66244927640E+01  0.40659133662E+02  0.00000000000E+00 0. -1.
         11    1    3    3    0    0 -0.38163358501E+01 -0.95016392232E-01 -0.36260404266E+01  0.52651321799E+01  0.51100000000E-03 0.  1.
        -11    1    3    3    0    0  0.15177386454E+02 -0.21536560738E+02  0.22010113786E+01  0.26439004508E+02  0.51100000000E-03 0. -1.
        -12    1    3    3    0    0  0.14328859245E+02 -0.91792939656E+01  0.80495218119E+01  0.18824729650E+02  0.00000000000E+00 0.  1.
</event>
<event>
 7    1  0.1381607E-011  0.5052886E+02  0.7816164E-02  0.1300439E+00
        -11   -1    0    0    0    0  0.00000000000E+00  0.00000000000E+00  0.45593999997E+02  0.45594000000E+02  0.51100000000E-03 0.  1.
         11   -1    0    0    0    0 -0.00000000000E+00 -0.00000000000E+00 -0.45593999997E+02  0.45594000000E+02  0.51100000000E-03 0. -1.
    9900012    2    1    2    0    0 -0.40620267318E+02  0.82606389914E+00  0.15738142973E+01  0.50528863389E+02  0.30000010756E+02 0.  0.
         12    1    1    2    0    0  0.40620267318E+02 -0.82606389914E+00 -0.15738142973E+01  0.40659136611E+02  0.00000000000E+00 0. -1.
         11    1    3    3    0    0  0.19187271155E+01 -0.57333715970E+01  0.31808829627E+01  0.68316235477E+01  0.51100000000E-03 0. -1.
        -11    1    3    3    0    0 -0.16362188549E+02  0.61093281001E+01  0.27899054365E-01  0.17465562761E+02  0.51100000000E-03 0.  1.
        -12    1    3    3    0    0 -0.26176805884E+02  0.45010739611E+00 -0.16349677198E+01  0.26231677080E+02  0.00000000000E+00 0.  1.
</event>
<event>
 7    1  0.1381607E-011  0.5052886E+02  0.7816164E-02  0.1300439E+00
        -11   -1    0    0    0    0  0.00000000000E+00  0.00000000000E+00  0.45593999997E+02  0.45594000000E+02  0.51100000000E-03 0. -1.
         11   -1    0    0    0    0 -0.00000000000E+00 -0.00000000000E+00 -0.45593999997E+02  0.45594000000E+02  0.51100000000E-03 0.  1.
    9900012    2    1    2    0    0 -0.31578986312E+02 -0.43741473050E+00 -0.25607466240E+02  0.50528855452E+02  0.29999986631E+02 0.  0.
         12    1    1    2    0    0  0.31578986312E+02  0.43741473050E+00  0.25607466240E+02  0.40659144548E+02  0.00000000000E+00 0. -1.
         11    1    3    3    0    0 -0.24162070931E+02 -0.85307841821E+01 -0.19141031650E+02  0.31983730916E+02  0.51100000000E-03 0. -1.
        -11    1    3    3    0    0 -0.10349912297E+02  0.27988051340E+01 -0.17318112599E+01  0.10860624533E+02  0.51100000000E-03 0.  1.
        -12    1    3    3    0    0  0.29329969155E+01  0.52945643175E+01 -0.47346233304E+01  0.76845000032E+01  0.00000000000E+00 0.  1.
</event>
<event>
 7    1  0.1381607E-011  0.5052886E+02  0.7816164E-02  0.1300439E+00
        -11   -1    0    0    0    0  0.00000000000E+00  0.00000000000E+00  0.45593999997E+02  0.45594000000E+02  0.51100000000E-03 0.  1.
         11   -1    0    0    0    0 -0.00000000000E+00 -0.00000000000E+00 -0.45593999997E+02  0.45594000000E+02  0.51100000000E-03 0. -1.
    9900012    2    1    2    0    0  0.14476777440E+02  0.57943505415E+01  0.37550156864E+02  0.50528857563E+02  0.29999993047E+02 0.  0.
         12    1    1    2    0    0 -0.14476777440E+02 -0.57943505415E+01 -0.37550156864E+02  0.40659142437E+02  0.00000000000E+00 0. -1.
         11    1    3    3    0    0 -0.46474818963E+01 -0.64834874191E+01  0.54469266482E+01  0.96593844142E+01  0.51100000000E-03 0. -1.
        -11    1    3    3    0    0  0.25760082353E+01  0.44138651108E+00  0.11948688948E+02  0.12231181804E+02  0.51100000000E-03 0.  1.
        -12    1    3    3    0    0  0.16548251101E+02  0.11836451450E+02  0.20154541268E+02  0.28638291344E+02  0.00000000000E+00 0.  1.
</event>
<event>
 7    1  0.1381607E-011  0.5052886E+02  0.7816164E-02  0.1300439E+00
        -11   -1    0    0    0    0  0.00000000000E+00  0.00000000000E+00  0.45593999997E+02  0.45594000000E+02  0.51100000000E-03 0.  1.
         11   -1    0    0    0    0 -0.00000000000E+00 -0.00000000000E+00 -0.45593999997E+02  0.45594000000E+02  0.51100000000E-03 0. -1.
    9900012    2    1    2    0    0  0.13321248987E+02 -0.25511049151E+01  0.38330168923E+02  0.50528860062E+02  0.30000000643E+02 0.  0.
         12    1    1    2    0    0 -0.13321248987E+02  0.25511049151E+01 -0.38330168923E+02  0.40659139938E+02  0.00000000000E+00 0. -1.
         11    1    3    3    0    0  0.12839507795E+02 -0.53737103602E+01  0.36228004753E+01  0.14382433973E+02  0.51100000000E-03 0. -1.
        -11    1    3    3    0    0 -0.32519936213E+01  0.33326098045E+01  0.87023451120E+01  0.98697802068E+01  0.51100000000E-03 0.  1.
        -12    1    3    3    0    0  0.37337348136E+01 -0.51000435948E+00  0.26005023336E+02  0.26276645882E+02  0.00000000000E+00 0.  1.
</event>
<event>
 7    1  0.1381607E-011  0.5052883E+02  0.7816164E-02  0.1300439E+00
        -11   -1    0    0    0    0  0.00000000000E+00  0.00000000000E+00  0.45593999997E+02  0.45594000000E+02  0.51100000000E-03 0.  1.
         11   -1    0    0    0    0 -0.00000000000E+00 -0.00000000000E+00 -0.45593999997E+02  0.45594000000E+02  0.51100000000E-03 0. -1.
    9900012    2    1    2    0    0  0.53790710702E+01 -0.40084146302E+02  0.41827183656E+01  0.50528827317E+02  0.29999901114E+02 0.  0.
         12    1    1    2    0    0 -0.53790710702E+01  0.40084146302E+02 -0.41827183656E+01  0.40659172683E+02  0.00000000000E+00 0. -1.
         11    1    3    3    0    0  0.95966271166E+01 -0.28921909434E+01  0.28812273799E+01  0.10428877789E+02  0.51100000000E-03 0. -1.
        -11    1    3    3    0    0 -0.14525254432E+01 -0.11691499083E+02 -0.62831809417E+01  0.13352128818E+02  0.51100000000E-03 0.  1.
        -12    1    3    3    0    0 -0.27650306032E+01 -0.25500456275E+02  0.75846719274E+01  0.26747820710E+02  0.00000000000E+00 0.  1.
</event>
<event>
 7    1  0.1381607E-011  0.5052886E+02  0.7816164E-02  0.1300439E+00
        -11   -1    0    0    0    0  0.00000000000E+00  0.00000000000E+00  0.45593999997E+02  0.45594000000E+02  0.51100000000E-03 0. -1.
         11   -1    0    0    0    0 -0.00000000000E+00 -0.00000000000E+00 -0.45593999997E+02  0.45594000000E+02  0.51100000000E-03 0.  1.
    9900012    2    1    2    0    0 -0.13677726895E+02 -0.33525626755E+02 -0.18496427387E+02  0.50528859719E+02  0.29999999601E+02 0.  0.
         12    1    1    2    0    0  0.13677726895E+02  0.33525626755E+02  0.18496427387E+02  0.40659140281E+02  0.00000000000E+00 0. -1.
         11    1    3    3    0    0 -0.66381548488E+01 -0.11250723811E+02 -0.12643789196E+02  0.18179914509E+02  0.51100000000E-03 0.  1.
        -11    1    3    3    0    0 -0.62173653608E+01 -0.21960775122E+02  0.33814127029E+01  0.23073041155E+02  0.51100000000E-03 0. -1.
         12    1    3    3    0    0 -0.82220668536E+00 -0.31412782153E+00 -0.92340508935E+01  0.92759040543E+01  0.00000000000E+00 0. -1.
</event>
<event>
 7    1  0.1381607E-011  0.5052886E+02  0.7816164E-02  0.1300439E+00
        -11   -1    0    0    0    0  0.00000000000E+00  0.00000000000E+00  0.45593999997E+02  0.45594000000E+02  0.51100000000E-03 0. -1.
         11   -1    0    0    0    0 -0.00000000000E+00 -0.00000000000E+00 -0.45593999997E+02  0.45594000000E+02  0.51100000000E-03 0.  1.
    9900012    2    1    2    0    0 -0.36874591801E+02  0.16537070210E+02  0.44671516059E+01  0.50528860129E+02  0.30000000848E+02 0.  0.
         12    1    1    2    0    0  0.36874591801E+02 -0.16537070210E+02 -0.44671516059E+01  0.40659139871E+02  0.00000000000E+00 0. -1.
         11    1    3    3    0    0 -0.73011220959E+01 -0.44920949215E+00  0.83582169705E+01  0.11107113226E+02  0.51100000000E-03 0. -1.
        -11    1    3    3    0    0 -0.97821458004E+01  0.12599130409E+02  0.57741803246E+01  0.16963773819E+02  0.51100000000E-03 0.  1.
        -12    1    3    3    0    0 -0.19791323904E+02  0.43871492931E+01 -0.96652456891E+01  0.22457973084E+02  0.00000000000E+00 0.  1.
</event>
<event>
 7    1  0.1381607E-011  0.5052889E+02  0.7816164E-02  0.1300439E+00
        -11   -1    0    0    0    0  0.00000000000E+00  0.00000000000E+00  0.45593999997E+02  0.45594000000E+02  0.51100000000E-03 0.  1.
         11   -1    0    0    0    0 -0.00000000000E+00 -0.00000000000E+00 -0.45593999997E+02  0.45594000000E+02  0.51100000000E-03 0. -1.
    9900012    2    1    2    0    0 -0.31388792910E+02  0.25402239202E+02  0.47574508308E+01  0.50528887673E+02  0.30000084570E+02 0.  0.
         12    1    1    2    0    0  0.31388792910E+02 -0.25402239202E+02 -0.47574508308E+01  0.40659112327E+02  0.00000000000E+00 0. -1.
         11    1    3    3    0    0 -0.79736464414E+01  0.86472716177E-01 -0.37924110522E+01  0.88299998274E+01  0.51100000000E-03 0. -1.
        -11    1    3    3    0    0 -0.13641601315E+02  0.22611103414E+02 -0.27093301216E+01  0.26546106193E+02  0.51100000000E-03 0.  1.
         12    1    3    3    0    0 -0.97735451535E+01  0.27046630709E+01  0.11259192005E+02  0.15152781652E+02  0.00000000000E+00 0. -1.
</event>
<event>
 7    1  0.1381607E-011  0.5052886E+02  0.7816164E-02  0.1300439E+00
        -11   -1    0    0    0    0  0.00000000000E+00  0.00000000000E+00  0.45593999997E+02  0.45594000000E+02  0.51100000000E-03 0. -1.
         11   -1    0    0    0    0 -0.00000000000E+00 -0.00000000000E+00 -0.45593999997E+02  0.45594000000E+02  0.51100000000E-03 0.  1.
    9900012    2    1    2    0    0  0.39954440171E+02  0.29184224408E+01 -0.69492035225E+01  0.50528857012E+02  0.29999991374E+02 0.  0.
         12    1    1    2    0    0 -0.39954440171E+02 -0.29184224408E+01  0.69492035225E+01  0.40659142988E+02  0.00000000000E+00 0. -1.
         11    1    3    3    0    0  0.97528701734E+01  0.42861634458E+01  0.35856590637E+01  0.11240401456E+02  0.51100000000E-03 0. -1.
        -11    1    3    3    0    0  0.31593663078E+02  0.10943372582E+01 -0.14202890382E+02  0.34656589795E+02  0.51100000000E-03 0.  1.
         12    1    3    3    0    0 -0.13920930807E+01 -0.24620782633E+01  0.36680277961E+01  0.46318657615E+01  0.00000000000E+00 0. -1.
</event>
<event>
 7    1  0.1381607E-011  0.5052886E+02  0.7816164E-02  0.1300439E+00
        -11   -1    0    0    0    0  0.00000000000E+00  0.00000000000E+00  0.45593999997E+02  0.45594000000E+02  0.51100000000E-03 0. -1.
         11   -1    0    0    0    0 -0.00000000000E+00 -0.00000000000E+00 -0.45593999997E+02  0.45594000000E+02  0.51100000000E-03 0.  1.
    9900012    2    1    2    0    0  0.12916997123E+02 -0.35807721967E+02 -0.14287206134E+02  0.50528855564E+02  0.29999986973E+02 0.  0.
         12    1    1    2    0    0 -0.12916997123E+02  0.35807721967E+02  0.14287206134E+02  0.40659144436E+02  0.00000000000E+00 0. -1.
         11    1    3    3    0    0  0.65489140724E+01 -0.61824110792E+00  0.27073344739E+01  0.71133787900E+01  0.51100000000E-03 0. -1.
        -11    1    3    3    0    0 -0.76323467686E+00  0.58044383679E+00 -0.48935629381E+01  0.49866221743E+01  0.51100000000E-03 0.  1.
         12    1    3    3    0    0  0.71313177278E+01 -0.35769924696E+02 -0.12100977669E+02  0.38428854600E+02  0.00000000000E+00 0. -1.
</event>
<event>
 7    1  0.1381607E-011  0.5052884E+02  0.7816164E-02  0.1300439E+00
        -11   -1    0    0    0    0  0.00000000000E+00  0.00000000000E+00  0.45593999997E+02  0.45594000000E+02  0.51100000000E-03 0.  1.
         11   -1    0    0    0    0 -0.00000000000E+00 -0.00000000000E+00 -0.45593999997E+02  0.45594000000E+02  0.51100000000E-03 0. -1.
    9900012    2    1    2    0    0 -0.11244475333E+02 -0.24270360010E+02  0.30621540582E+02  0.50528839309E+02  0.29999937562E+02 0.  0.
         12    1    1    2    0    0  0.11244475333E+02  0.24270360010E+02 -0.30621540582E+02  0.40659160691E+02  0.00000000000E+00 0. -1.
         11    1    3    3    0    0 -0.11092401469E+02 -0.13817793983E+01  0.52944554013E+01  0.12368586941E+02  0.51100000000E-03 0. -1.
        -11    1    3    3    0    0 -0.23459092908E+01  0.22849180512E+01  0.28887244270E+01  0.43667917260E+01  0.51100000000E-03 0.  1.
        -12    1    3    3    0    0  0.21938354276E+01 -0.25173498663E+02  0.22438360754E+02  0.33793460641E+02  0.00000000000E+00 0.  1.
</event>
<event>
 7    1  0.1381607E-011  0.5052886E+02  0.7816164E-02  0.1300439E+00
        -11   -1    0    0    0    0  0.00000000000E+00  0.00000000000E+00  0.45593999997E+02  0.45594000000E+02  0.51100000000E-03 0.  1.
         11   -1    0    0    0    0 -0.00000000000E+00 -0.00000000000E+00 -0.45593999997E+02  0.45594000000E+02  0.51100000000E-03 0. -1.
    9900012    2    1    2    0    0  0.49768386000E+01 -0.40353119801E+02 -0.14969378412E+00  0.50528860704E+02  0.30000002595E+02 0.  0.
         12    1    1    2    0    0 -0.49768386000E+01  0.40353119801E+02  0.14969378412E+00  0.40659139296E+02  0.00000000000E+00 0. -1.
         11    1    3    3    0    0  0.43742040582E+01  0.26012740075E+01 -0.97887005308E+00  0.51825162273E+01  0.51100000000E-03 0. -1.
        -11    1    3    3    0    0  0.70446307148E+01 -0.25621058215E+02 -0.19661534353E+01  0.26644534253E+02  0.51100000000E-03 0.  1.
        -12    1    3    3    0    0 -0.64419961730E+01 -0.17333335593E+02  0.27953297043E+01  0.18701810223E+02  0.00000000000E+00 0.  1.
</event>
<event>
 7    1  0.1381607E-011  0.5052886E+02  0.7816164E-02  0.1300439E+00
        -11   -1    0    0    0    0  0.00000000000E+00  0.00000000000E+00  0.45593999997E+02  0.45594000000E+02  0.51100000000E-03 0.  1.
         11   -1    0    0    0    0 -0.00000000000E+00 -0.00000000000E+00 -0.45593999997E+02  0.45594000000E+02  0.51100000000E-03 0. -1.
    9900012    2    1    2    0    0 -0.12929451273E+02  0.33819350688E+02  0.18499903358E+02  0.50528860617E+02  0.30000002330E+02 0.  0.
         12    1    1    2    0    0  0.12929451273E+02 -0.33819350688E+02 -0.18499903358E+02  0.40659139383E+02  0.00000000000E+00 0. -1.
         11    1    3    3    0    0 -0.60690173321E+01  0.14095085982E+02  0.12476426052E+01  0.15396786436E+02  0.51100000000E-03 0.  1.
        -11    1    3    3    0    0 -0.86441988153E+01 -0.59664425856E+00  0.10567491451E+02  0.13665651589E+02  0.51100000000E-03 0. -1.
         12    1    3    3    0    0  0.17837648749E+01  0.20320908964E+02  0.66847693021E+01  0.21466422592E+02  0.00000000000E+00 0. -1.
</event>
<event>
 7    1  0.1381607E-011  0.5052887E+02  0.7816164E-02  0.1300439E+00
        -11   -1    0    0    0    0  0.00000000000E+00  0.00000000000E+00  0.45593999997E+02  0.45594000000E+02  0.51100000000E-03 0.  1.
         11   -1    0    0    0    0 -0.00000000000E+00 -0.00000000000E+00 -0.45593999997E+02  0.45594000000E+02  0.51100000000E-03 0. -1.
    9900012    2    1    2    0    0 -0.13013529529E+02 -0.97776949253E+01  0.37258680426E+02  0.50528873891E+02  0.30000042680E+02 0.  0.
         12    1    1    2    0    0  0.13013529529E+02  0.97776949253E+01 -0.37258680426E+02  0.40659126109E+02  0.00000000000E+00 0. -1.
         11    1    3    3    0    0 -0.87825046823E+01  0.61685461751E+01  0.80485597591E+01  0.13415016395E+02  0.51100000000E-03 0. -1.
        -11    1    3    3    0    0  0.51262567647E+01 -0.19553275803E+01  0.39534285851E+01  0.67625004401E+01  0.51100000000E-03 0.  1.
        -12    1    3    3    0    0 -0.93572816115E+01 -0.13990913520E+02  0.25256692082E+02  0.30351357057E+02  0.00000000000E+00 0.  1.
</event>
<event>
 7    1  0.1381607E-011  0.5052886E+02  0.7816164E-02  0.1300439E+00
        -11   -1    0    0    0    0  0.00000000000E+00  0.00000000000E+00  0.45593999997E+02  0.45594000000E+02  0.51100000000E-03 0. -1.
         11   -1    0    0    0    0 -0.00000000000E+00 -0.00000000000E+00 -0.45593999997E+02  0.45594000000E+02  0.51100000000E-03 0.  1.
    9900012    2    1    2    0    0 -0.13045911603E+02  0.33142747914E+02 -0.19609395857E+02  0.50528856444E+02  0.29999989647E+02 0.  0.
         12    1    1    2    0    0  0.13045911603E+02 -0.33142747914E+02  0.19609395857E+02  0.40659143556E+02  0.00000000000E+00 0. -1.
         11    1    3    3    0    0 -0.69073626207E+01  0.20566080827E+02 -0.19687500628E+02  0.29296297039E+02  0.51100000000E-03 0. -1.
        -11    1    3    3    0    0 -0.43289015445E+01  0.16026586635E+02 -0.21581292017E+01  0.16740620946E+02  0.51100000000E-03 0.  1.
         12    1    3    3    0    0 -0.18096474380E+01 -0.34499195481E+01  0.22362339724E+01  0.44919384588E+01  0.00000000000E+00 0. -1.
</event>
<event>
 7    1  0.1381607E-011  0.5052886E+02  0.7816164E-02  0.1300439E+00
        -11   -1    0    0    0    0  0.00000000000E+00  0.00000000000E+00  0.45593999997E+02  0.45594000000E+02  0.51100000000E-03 0.  1.
         11   -1    0    0    0    0 -0.00000000000E+00 -0.00000000000E+00 -0.45593999997E+02  0.45594000000E+02  0.51100000000E-03 0. -1.
    9900012    2    1    2    0    0  0.31994349249E+02 -0.34444050058E+01  0.24852840278E+02  0.50528856138E+02  0.29999988717E+02 0.  0.
         12    1    1    2    0    0 -0.31994349249E+02  0.34444050058E+01 -0.24852840278E+02  0.40659143862E+02  0.00000000000E+00 0. -1.
         11    1    3    3    0    0  0.89201740809E+01 -0.21432501721E+01  0.63143418427E+00  0.91957455557E+01  0.51100000000E-03 0. -1.
        -11    1    3    3    0    0  0.25530352536E+02 -0.73413963416E+01  0.21844101999E+02  0.34392728785E+02  0.51100000000E-03 0.  1.
        -12    1    3    3    0    0 -0.24561773679E+01  0.60402415079E+01  0.23773040951E+01  0.69403817976E+01  0.00000000000E+00 0.  1.
</event>
<event>
 7    1  0.1381607E-011  0.5052887E+02  0.7816164E-02  0.1300439E+00
        -11   -1    0    0    0    0  0.00000000000E+00  0.00000000000E+00  0.45593999997E+02  0.45594000000E+02  0.51100000000E-03 0. -1.
         11   -1    0    0    0    0 -0.00000000000E+00 -0.00000000000E+00 -0.45593999997E+02  0.45594000000E+02  0.51100000000E-03 0.  1.
    9900012    2    1    2    0    0  0.15154986664E+02  0.29090057118E+01 -0.37616869552E+02  0.50528870522E+02  0.30000032439E+02 0.  0.
         12    1    1    2    0    0 -0.15154986664E+02 -0.29090057118E+01  0.37616869552E+02  0.40659129478E+02  0.00000000000E+00 0. -1.
         11    1    3    3    0    0  0.28911017159E+01 -0.37124349565E+01 -0.29692164182E+01  0.55638915192E+01  0.51100000000E-03 0. -1.
        -11    1    3    3    0    0  0.13730657234E+02 -0.49077668226E+01 -0.28017225972E+02  0.31584522708E+02  0.51100000000E-03 0.  1.
         12    1    3    3    0    0 -0.14667722860E+01  0.11529207491E+02 -0.66304271612E+01  0.13380456294E+02  0.00000000000E+00 0. -1.
</event>
<event>
 7    1  0.1381607E-011  0.5052885E+02  0.7816164E-02  0.1300439E+00
        -11   -1    0    0    0    0  0.00000000000E+00  0.00000000000E+00  0.45593999997E+02  0.45594000000E+02  0.51100000000E-03 0.  1.
         11   -1    0    0    0    0 -0.00000000000E+00 -0.00000000000E+00 -0.45593999997E+02  0.45594000000E+02  0.51100000000E-03 0. -1.
    9900012    2    1    2    0    0  0.39370511013E+02 -0.98563529968E+01  0.24457689060E+01  0.50528848295E+02  0.29999964878E+02 0.  0.
         12    1    1    2    0    0 -0.39370511013E+02  0.98563529968E+01 -0.24457689060E+01  0.40659151705E+02  0.00000000000E+00 0. -1.
         11    1    3    3    0    0  0.23463536979E+02  0.16464822521E+01 -0.76732037552E+01  0.24741190907E+02  0.51100000000E-03 0. -1.
        -11    1    3    3    0    0 -0.20720668519E+01 -0.19851506694E+01 -0.38117006392E+00  0.28947495743E+01  0.51100000000E-03 0.  1.
        -12    1    3    3    0    0  0.17979040886E+02 -0.95176845796E+01  0.10500142725E+02  0.22892907814E+02  0.00000000000E+00 0.  1.
</event>
<event>
 7    1  0.1381607E-011  0.5052886E+02  0.7816164E-02  0.1300439E+00
        -11   -1    0    0    0    0  0.00000000000E+00  0.00000000000E+00  0.45593999997E+02  0.45594000000E+02  0.51100000000E-03 0.  1.
         11   -1    0    0    0    0 -0.00000000000E+00 -0.00000000000E+00 -0.45593999997E+02  0.45594000000E+02  0.51100000000E-03 0. -1.
    9900012    2    1    2    0    0  0.10303345905E+01 -0.10541613157E+02  0.39255300300E+02  0.50528858359E+02  0.29999995469E+02 0.  0.
         12    1    1    2    0    0 -0.10303345905E+01  0.10541613157E+02 -0.39255300300E+02  0.40659141641E+02  0.00000000000E+00 0. -1.
         11    1    3    3    0    0  0.35173592327E+01 -0.10722776158E+02  0.40266855993E+02  0.41818290691E+02  0.51100000000E-03 0.  1.
        -11    1    3    3    0    0  0.28280548849E+01  0.12686212255E+01  0.34399973856E+00  0.31185942870E+01  0.51100000000E-03 0. -1.
        -12    1    3    3    0    0 -0.53150795271E+01 -0.10874582244E+01 -0.13555554313E+01  0.55919733813E+01  0.00000000000E+00 0.  1.
</event>
<event>
 7    1  0.1381607E-011  0.5052886E+02  0.7816164E-02  0.1300439E+00
        -11   -1    0    0    0    0  0.00000000000E+00  0.00000000000E+00  0.45593999997E+02  0.45594000000E+02  0.51100000000E-03 0.  1.
         11   -1    0    0    0    0 -0.00000000000E+00 -0.00000000000E+00 -0.45593999997E+02  0.45594000000E+02  0.51100000000E-03 0. -1.
    9900012    2    1    2    0    0  0.26269775899E+02  0.12609550786E+02  0.28356017864E+02  0.50528860241E+02  0.30000001188E+02 0.  0.
         12    1    1    2    0    0 -0.26269775899E+02 -0.12609550786E+02 -0.28356017864E+02  0.40659139759E+02  0.00000000000E+00 0. -1.
         11    1    3    3    0    0  0.44659980560E+01  0.35584729369E+01 -0.62125409145E-01  0.57106679212E+01  0.51100000000E-03 0. -1.
        -11    1    3    3    0    0  0.17455337512E+02  0.10532788811E+01  0.29013774368E+01  0.17726144401E+02  0.51100000000E-03 0.  1.
         12    1    3    3    0    0  0.43484403319E+01  0.79977989678E+01  0.25516765837E+02  0.27092047918E+02  0.00000000000E+00 0. -1.
</event>
<event>
 7    1  0.1381607E-011  0.5052886E+02  0.7816164E-02  0.1300439E+00
        -11   -1    0    0    0    0  0.00000000000E+00  0.00000000000E+00  0.45593999997E+02  0.45594000000E+02  0.51100000000E-03 0.  1.
         11   -1    0    0    0    0 -0.00000000000E+00 -0.00000000000E+00 -0.45593999997E+02  0.45594000000E+02  0.51100000000E-03 0. -1.
    9900012    2    1    2    0    0 -0.16198452806E+02 -0.34028358788E+02  0.15259311056E+02  0.50528860203E+02  0.30000001073E+02 0.  0.
         12    1    1    2    0    0  0.16198452806E+02  0.34028358788E+02 -0.15259311056E+02  0.40659139797E+02  0.00000000000E+00 0. -1.
         11    1    3    3    0    0 -0.28543294187E+01 -0.10856351993E+02 -0.41428190298E+01  0.11965388619E+02  0.51100000000E-03 0. -1.
        -11    1    3    3    0    0 -0.11478181137E+01 -0.19516445943E+02  0.69350017659E+01  0.20743755649E+02  0.51100000000E-03 0.  1.
        -12    1    3    3    0    0 -0.12196305273E+02 -0.36555608521E+01  0.12467128320E+02  0.17819715935E+02  0.00000000000E+00 0.  1.
</event>
<event>
 7    1  0.1381607E-011  0.5052886E+02  0.7816164E-02  0.1300439E+00
        -11   -1    0    0    0    0  0.00000000000E+00  0.00000000000E+00  0.45593999997E+02  0.45594000000E+02  0.51100000000E-03 0.  1.
         11   -1    0    0    0    0 -0.00000000000E+00 -0.00000000000E+00 -0.45593999997E+02  0.45594000000E+02  0.51100000000E-03 0. -1.
    9900012    2    1    2    0    0  0.39113394507E+02 -0.10760335917E+02 -0.27428420327E+01  0.50528860298E+02  0.30000001361E+02 0.  0.
         12    1    1    2    0    0 -0.39113394507E+02  0.10760335917E+02  0.27428420327E+01  0.40659139702E+02  0.00000000000E+00 0. -1.
         11    1    3    3    0    0 -0.24493956558E+01 -0.15207771756E+01  0.30281424719E+01  0.41811421152E+01  0.51100000000E-03 0. -1.
        -11    1    3    3    0    0  0.10751142294E+02  0.17234362332E+01  0.49093849942E+01  0.11944009141E+02  0.51100000000E-03 0.  1.
         12    1    3    3    0    0  0.30811647869E+02 -0.10962994974E+02 -0.10680369499E+02  0.34403709042E+02  0.00000000000E+00 0. -1.
</event>
<event>
 7    1  0.1381607E-011  0.5052885E+02  0.7816164E-02  0.1300439E+00
        -11   -1    0    0    0    0  0.00000000000E+00  0.00000000000E+00  0.45593999997E+02  0.45594000000E+02  0.51100000000E-03 0.  1.
         11   -1    0    0    0    0 -0.00000000000E+00 -0.00000000000E+00 -0.45593999997E+02  0.45594000000E+02  0.51100000000E-03 0. -1.
    9900012    2    1    2    0    0 -0.54696526260E+00  0.18187149520E+01  0.40614765705E+02  0.50528854800E+02  0.29999984651E+02 0.  0.
         12    1    1    2    0    0  0.54696526260E+00 -0.18187149520E+01 -0.40614765705E+02  0.40659145200E+02  0.00000000000E+00 0. -1.
         11    1    3    3    0    0 -0.40148834289E+01  0.53320216889E+01  0.36073126421E+01  0.75869920916E+01  0.51100000000E-03 0. -1.
        -11    1    3    3    0    0 -0.80429274979E+01 -0.57895310483E+01  0.19370682764E+02  0.21758462802E+02  0.51100000000E-03 0.  1.
        -12    1    3    3    0    0  0.11510845664E+02  0.22762243114E+01  0.17636770300E+02  0.21183399907E+02  0.00000000000E+00 0.  1.
</event>
<event>
 7    1  0.1381607E-011  0.5052886E+02  0.7816164E-02  0.1300439E+00
        -11   -1    0    0    0    0  0.00000000000E+00  0.00000000000E+00  0.45593999997E+02  0.45594000000E+02  0.51100000000E-03 0. -1.
         11   -1    0    0    0    0 -0.00000000000E+00 -0.00000000000E+00 -0.45593999997E+02  0.45594000000E+02  0.51100000000E-03 0.  1.
    9900012    2    1    2    0    0  0.35560574180E+02  0.17681332085E+02 -0.87167492323E+01  0.50528860100E+02  0.30000000758E+02 0.  0.
         12    1    1    2    0    0 -0.35560574180E+02 -0.17681332085E+02  0.87167492323E+01  0.40659139900E+02  0.00000000000E+00 0. -1.
         11    1    3    3    0    0  0.63134887520E+01 -0.62310380072E+00  0.76633402617E+01  0.99486271815E+01  0.51100000000E-03 0. -1.
        -11    1    3    3    0    0  0.10763832989E+02 -0.54838500966E-01 -0.72370349396E+01  0.12970650826E+02  0.51100000000E-03 0.  1.
        -12    1    3    3    0    0  0.18483252438E+02  0.18359274386E+02 -0.91430545544E+01  0.27609582092E+02  0.00000000000E+00 0.  1.
</event>
<event>
 7    1  0.1381607E-011  0.5052885E+02  0.7816164E-02  0.1300439E+00
        -11   -1    0    0    0    0  0.00000000000E+00  0.00000000000E+00  0.45593999997E+02  0.45594000000E+02  0.51100000000E-03 0.  1.
         11   -1    0    0    0    0 -0.00000000000E+00 -0.00000000000E+00 -0.45593999997E+02  0.45594000000E+02  0.51100000000E-03 0. -1.
    9900012    2    1    2    0    0 -0.29266577389E+02  0.18886244838E+02  0.20974843538E+02  0.50528845341E+02  0.29999955897E+02 0.  0.
         12    1    1    2    0    0  0.29266577389E+02 -0.18886244838E+02 -0.20974843538E+02  0.40659154659E+02  0.00000000000E+00 0. -1.
         11    1    3    3    0    0 -0.65385617998E+01 -0.35445899351E+01  0.12491393121E+02  0.14537943823E+02  0.51100000000E-03 0. -1.
        -11    1    3    3    0    0 -0.19128212071E+02  0.17218383039E+02  0.12374339380E+02  0.28556706513E+02  0.51100000000E-03 0.  1.
        -12    1    3    3    0    0 -0.35998035180E+01  0.52124517345E+01 -0.38908889628E+01  0.74341950050E+01  0.00000000000E+00 0.  1.
</event>
<event>
 7    1  0.1381607E-011  0.5052886E+02  0.7816164E-02  0.1300439E+00
        -11   -1    0    0    0    0  0.00000000000E+00  0.00000000000E+00  0.45593999997E+02  0.45594000000E+02  0.51100000000E-03 0. -1.
         11   -1    0    0    0    0 -0.00000000000E+00 -0.00000000000E+00 -0.45593999997E+02  0.45594000000E+02  0.51100000000E-03 0.  1.
    9900012    2    1    2    0    0  0.20369258804E+02 -0.27462867266E+02  0.22001124952E+02  0.50528864718E+02  0.30000014797E+02 0.  0.
         12    1    1    2    0    0 -0.20369258804E+02  0.27462867266E+02 -0.22001124952E+02  0.40659135282E+02  0.00000000000E+00 0. -1.
         11    1    3    3    0    0  0.42394897720E+01 -0.18750033548E+02  0.99680952024E+01  0.21654097852E+02  0.51100000000E-03 0. -1.
        -11    1    3    3    0    0  0.29620047974E+01  0.14045531774E+01  0.11821550203E+02  0.12267652241E+02  0.51100000000E-03 0.  1.
        -12    1    3    3    0    0  0.13167764235E+02 -0.10117386896E+02  0.21147954649E+00  0.16607114624E+02  0.00000000000E+00 0.  1.
</event>
<event>
 7    1  0.1381607E-011  0.5052893E+02  0.7816164E-02  0.1300439E+00
        -11   -1    0    0    0    0  0.00000000000E+00  0.00000000000E+00  0.45593999997E+02  0.45594000000E+02  0.51100000000E-03 0.  1.
         11   -1    0    0    0    0 -0.00000000000E+00 -0.00000000000E+00 -0.45593999997E+02  0.45594000000E+02  0.51100000000E-03 0. -1.
    9900012    2    1    2    0    0  0.41929471466E+01  0.20519301068E+02  0.34850214364E+02  0.50528930122E+02  0.30000213599E+02 0.  0.
         12    1    1    2    0    0 -0.41929471466E+01 -0.20519301068E+02 -0.34850214364E+02  0.40659069878E+02  0.00000000000E+00 0. -1.
         11    1    3    3    0    0  0.11229440235E+02  0.13606506380E+02  0.22107423752E+02  0.28283838655E+02  0.51100000000E-03 0.  1.
        -11    1    3    3    0    0  0.34030030216E+01  0.27012792374E+01 -0.10219891347E+01  0.44633844934E+01  0.51100000000E-03 0. -1.
        -12    1    3    3    0    0 -0.10439496110E+02  0.42115154507E+01  0.13764779747E+02  0.17781706974E+02  0.00000000000E+00 0.  1.
</event>
<event>
 7    1  0.1381607E-011  0.5052886E+02  0.7816164E-02  0.1300439E+00
        -11   -1    0    0    0    0  0.00000000000E+00  0.00000000000E+00  0.45593999997E+02  0.45594000000E+02  0.51100000000E-03 0.  1.
         11   -1    0    0    0    0 -0.00000000000E+00 -0.00000000000E+00 -0.45593999997E+02  0.45594000000E+02  0.51100000000E-03 0. -1.
    9900012    2    1    2    0    0 -0.29107725143E+00  0.39733562714E+02 -0.86211790237E+01  0.50528862531E+02  0.30000008150E+02 0.  0.
         12    1    1    2    0    0  0.29107725143E+00 -0.39733562714E+02  0.86211790237E+01  0.40659137469E+02  0.00000000000E+00 0. -1.
         11    1    3    3    0    0  0.62983306847E+01  0.14190838910E+01 -0.23537942192E+01  0.68719077403E+01  0.51100000000E-03 0.  1.
        -11    1    3    3    0    0  0.74147667202E+00  0.24264638356E+02 -0.11641691492E+02  0.26923065265E+02  0.51100000000E-03 0. -1.
        -12    1    3    3    0    0 -0.73308846082E+01  0.14049840467E+02  0.53743066878E+01  0.16733889526E+02  0.00000000000E+00 0.  1.
</event>
<event>
 7    1  0.1381607E-011  0.5052886E+02  0.7816164E-02  0.1300439E+00
        -11   -1    0    0    0    0  0.00000000000E+00  0.00000000000E+00  0.45593999997E+02  0.45594000000E+02  0.51100000000E-03 0. -1.
         11   -1    0    0    0    0 -0.00000000000E+00 -0.00000000000E+00 -0.45593999997E+02  0.45594000000E+02  0.51100000000E-03 0.  1.
    9900012    2    1    2    0    0 -0.85553057329E+01 -0.35822656841E+02 -0.17225256841E+02  0.50528862373E+02  0.30000007668E+02 0.  0.
         12    1    1    2    0    0  0.85553057329E+01  0.35822656841E+02  0.17225256841E+02  0.40659137627E+02  0.00000000000E+00 0. -1.
         11    1    3    3    0    0  0.15978719297E+01  0.29987124977E+01 -0.87478973198E+01  0.93846246130E+01  0.51100000000E-03 0. -1.
        -11    1    3    3    0    0 -0.62334424527E+01 -0.18109019455E+02 -0.32477730208E+01  0.19425252129E+02  0.51100000000E-03 0.  1.
        -12    1    3    3    0    0 -0.39197352099E+01 -0.20712349884E+02 -0.52295865005E+01  0.21718985630E+02  0.00000000000E+00 0.  1.
</event>
<event>
 7    1  0.1381607E-011  0.5052883E+02  0.7816164E-02  0.1300439E+00
        -11   -1    0    0    0    0  0.00000000000E+00  0.00000000000E+00  0.45593999997E+02  0.45594000000E+02  0.51100000000E-03 0.  1.
         11   -1    0    0    0    0 -0.00000000000E+00 -0.00000000000E+00 -0.45593999997E+02  0.45594000000E+02  0.51100000000E-03 0. -1.
    9900012    2    1    2    0    0 -0.69980681855E+01 -0.18003769272E+02  0.35777923712E+02  0.50528825248E+02  0.29999894824E+02 0.  0.
         12    1    1    2    0    0  0.69980681855E+01  0.18003769272E+02 -0.35777923712E+02  0.40659174752E+02  0.00000000000E+00 0. -1.
         11    1    3    3    0    0 -0.12493987628E+02 -0.99262493365E+01  0.10286786166E+02  0.18985471356E+02  0.51100000000E-03 0. -1.
        -11    1    3    3    0    0 -0.19809452175E+00  0.41031620267E+01  0.11160188984E+02  0.11892224287E+02  0.51100000000E-03 0.  1.
         12    1    3    3    0    0  0.56940139639E+01 -0.12180681962E+02  0.14330948562E+02  0.19651129605E+02  0.00000000000E+00 0. -1.
</event>
<event>
 7    1  0.1381607E-011  0.5052887E+02  0.7816164E-02  0.1300439E+00
        -11   -1    0    0    0    0  0.00000000000E+00  0.00000000000E+00  0.45593999997E+02  0.45594000000E+02  0.51100000000E-03 0.  1.
         11   -1    0    0    0    0 -0.00000000000E+00 -0.00000000000E+00 -0.45593999997E+02  0.45594000000E+02  0.51100000000E-03 0. -1.
    9900012    2    1    2    0    0  0.71349048343E+01  0.38626604568E+02 -0.10499682578E+02  0.50528870869E+02  0.30000033492E+02 0.  0.
         12    1    1    2    0    0 -0.71349048343E+01 -0.38626604568E+02  0.10499682578E+02  0.40659129131E+02  0.00000000000E+00 0. -1.
         11    1    3    3    0    0  0.14350031526E+02  0.21861515213E+02 -0.13272168250E+02  0.29325751525E+02  0.51100000000E-03 0. -1.
        -11    1    3    3    0    0  0.61665277932E+00  0.10460622106E+02 -0.85766440650E+00  0.10513822521E+02  0.51100000000E-03 0.  1.
         12    1    3    3    0    0 -0.78317794707E+01  0.63044672492E+01  0.36301500787E+01  0.10689296823E+02  0.00000000000E+00 0. -1.
</event>
<event>
 7    1  0.1381607E-011  0.5052888E+02  0.7816164E-02  0.1300439E+00
        -11   -1    0    0    0    0  0.00000000000E+00  0.00000000000E+00  0.45593999997E+02  0.45594000000E+02  0.51100000000E-03 0.  1.
         11   -1    0    0    0    0 -0.00000000000E+00 -0.00000000000E+00 -0.45593999997E+02  0.45594000000E+02  0.51100000000E-03 0. -1.
    9900012    2    1    2    0    0  0.20449312685E+02 -0.96288793611E+01  0.33797545616E+02  0.50528882982E+02  0.30000070311E+02 0.  0.
         12    1    1    2    0    0 -0.20449312685E+02  0.96288793611E+01 -0.33797545616E+02  0.40659117018E+02  0.00000000000E+00 0. -1.
         11    1    3    3    0    0 -0.16881427501E+01 -0.24595484079E+01 -0.23292080153E+01  0.37847608320E+01  0.51100000000E-03 0. -1.
        -11    1    3    3    0    0  0.16350443128E+02 -0.34647205037E+01  0.94572289216E+01  0.19203657406E+02  0.51100000000E-03 0.  1.
         12    1    3    3    0    0  0.57870123072E+01 -0.37046104495E+01  0.26669524710E+02  0.27540464743E+02  0.00000000000E+00 0. -1.
</event>
<event>
 7    1  0.1381607E-011  0.5052893E+02  0.7816164E-02  0.1300439E+00
        -11   -1    0    0    0    0  0.00000000000E+00  0.00000000000E+00  0.45593999997E+02  0.45594000000E+02  0.51100000000E-03 0. -1.
         11   -1    0    0    0    0 -0.00000000000E+00 -0.00000000000E+00 -0.45593999997E+02  0.45594000000E+02  0.51100000000E-03 0.  1.
    9900012    2    1    2    0    0  0.36737795177E+02 -0.65366236180E+01 -0.16148287133E+02  0.50528926964E+02  0.30000204000E+02 0.  0.
         12    1    1    2    0    0 -0.36737795177E+02  0.65366236180E+01  0.16148287133E+02  0.40659073036E+02  0.00000000000E+00 0. -1.
         11    1    3    3    0    0 -0.45165838043E+00  0.23460653168E+01  0.40133250318E+01  0.46706312031E+01  0.51100000000E-03 0. -1.
        -11    1    3    3    0    0  0.22547319776E+02 -0.79271392914E-01 -0.51792421958E+01  0.23134659345E+02  0.51100000000E-03 0.  1.
        -12    1    3    3    0    0  0.14642133782E+02 -0.88034175420E+01 -0.14982369969E+02  0.22723636416E+02  0.00000000000E+00 0.  1.
</event>
<event>
 7    1  0.1381607E-011  0.5052887E+02  0.7816164E-02  0.1300439E+00
        -11   -1    0    0    0    0  0.00000000000E+00  0.00000000000E+00  0.45593999997E+02  0.45594000000E+02  0.51100000000E-03 0. -1.
         11   -1    0    0    0    0 -0.00000000000E+00 -0.00000000000E+00 -0.45593999997E+02  0.45594000000E+02  0.51100000000E-03 0.  1.
    9900012    2    1    2    0    0  0.29046856125E+02  0.26677939018E+02  0.98859964604E+01  0.50528865638E+02  0.30000017594E+02 0.  0.
         12    1    1    2    0    0 -0.29046856125E+02 -0.26677939018E+02 -0.98859964604E+01  0.40659134362E+02  0.00000000000E+00 0. -1.
         11    1    3    3    0    0  0.48297410333E+01 -0.94205659743E+00  0.29205478469E+01  0.57221909325E+01  0.51100000000E-03 0. -1.
        -11    1    3    3    0    0  0.80624874841E+01  0.17995073742E+02  0.14575273795E+02  0.24520705330E+02  0.51100000000E-03 0.  1.
         12    1    3    3    0    0  0.16154627608E+02  0.96249218738E+01 -0.76098251817E+01  0.20285969376E+02  0.00000000000E+00 0. -1.
</event>
<event>
 7    1  0.1381607E-011  0.5052886E+02  0.7816164E-02  0.1300439E+00
        -11   -1    0    0    0    0  0.00000000000E+00  0.00000000000E+00  0.45593999997E+02  0.45594000000E+02  0.51100000000E-03 0. -1.
         11   -1    0    0    0    0 -0.00000000000E+00 -0.00000000000E+00 -0.45593999997E+02  0.45594000000E+02  0.51100000000E-03 0.  1.
    9900012    2    1    2    0    0 -0.27981328157E+02 -0.35676767982E+01 -0.29282808020E+02  0.50528857256E+02  0.29999992114E+02 0.  0.
         12    1    1    2    0    0  0.27981328157E+02  0.35676767982E+01  0.29282808020E+02  0.40659142744E+02  0.00000000000E+00 0. -1.
         11    1    3    3    0    0 -0.71583820220E+01  0.76852067731E+01  0.10691592876E+01  0.10556890554E+02  0.51100000000E-03 0. -1.
        -11    1    3    3    0    0 -0.77301013222E+01 -0.26790746069E+01 -0.35135485458E+01  0.89037593659E+01  0.51100000000E-03 0.  1.
        -12    1    3    3    0    0 -0.13092844813E+02 -0.85738089643E+01 -0.26838418761E+02  0.31068207336E+02  0.00000000000E+00 0.  1.
</event>
<event>
 7    1  0.1381607E-011  0.5052887E+02  0.7816164E-02  0.1300439E+00
        -11   -1    0    0    0    0  0.00000000000E+00  0.00000000000E+00  0.45593999997E+02  0.45594000000E+02  0.51100000000E-03 0.  1.
         11   -1    0    0    0    0 -0.00000000000E+00 -0.00000000000E+00 -0.45593999997E+02  0.45594000000E+02  0.51100000000E-03 0. -1.
    9900012    2    1    2    0    0 -0.10306421564E+02 -0.34156651190E+02  0.19500402763E+02  0.50528869982E+02  0.30000030796E+02 0.  0.
         12    1    1    2    0    0  0.10306421564E+02  0.34156651190E+02 -0.19500402763E+02  0.40659130018E+02  0.00000000000E+00 0. -1.
         11    1    3    3    0    0  0.34026398244E+01 -0.15163600458E+02  0.91340246200E+01  0.18026179369E+02  0.51100000000E-03 0. -1.
        -11    1    3    3    0    0 -0.84890500359E+01 -0.22804213115E+02  0.78694293622E+01  0.25573893427E+02  0.51100000000E-03 0.  1.
         12    1    3    3    0    0 -0.52200113526E+01  0.38111623824E+01  0.24969487806E+01  0.69287971856E+01  0.00000000000E+00 0. -1.
</event>
<event>
 7    1  0.1381607E-011  0.5052885E+02  0.7816164E-02  0.1300439E+00
        -11   -1    0    0    0    0  0.00000000000E+00  0.00000000000E+00  0.45593999997E+02  0.45594000000E+02  0.51100000000E-03 0. -1.
         11   -1    0    0    0    0 -0.00000000000E+00 -0.00000000000E+00 -0.45593999997E+02  0.45594000000E+02  0.51100000000E-03 0.  1.
    9900012    2    1    2    0    0  0.20010862355E+02  0.23689881135E+02 -0.26296788263E+02  0.50528854001E+02  0.29999982221E+02 0.  0.
         12    1    1    2    0    0 -0.20010862355E+02 -0.23689881135E+02  0.26296788263E+02  0.40659145999E+02  0.00000000000E+00 0. -1.
         11    1    3    3    0    0  0.11907083308E+02  0.22810143546E+02 -0.15071377681E+02  0.29819921310E+02  0.51100000000E-03 0. -1.
        -11    1    3    3    0    0  0.46133048378E+01  0.69484687611E+01 -0.10867137369E+02  0.13698849386E+02  0.51100000000E-03 0.  1.
         12    1    3    3    0    0  0.34904742093E+01 -0.60687311716E+01 -0.35827321306E+00  0.70100833044E+01  0.00000000000E+00 0. -1.
</event>
<event>
 7    1  0.1381607E-011  0.5052886E+02  0.7816164E-02  0.1300439E+00
        -11   -1    0    0    0    0  0.00000000000E+00  0.00000000000E+00  0.45593999997E+02  0.45594000000E+02  0.51100000000E-03 0.  1.
         11   -1    0    0    0    0 -0.00000000000E+00 -0.00000000000E+00 -0.45593999997E+02  0.45594000000E+02  0.51100000000E-03 0. -1.
    9900012    2    1    2    0    0 -0.33358177124E+02 -0.22902471888E+02  0.39842793612E+01  0.50528859802E+02  0.29999999854E+02 0.  0.
         12    1    1    2    0    0  0.33358177124E+02  0.22902471888E+02 -0.39842793612E+01  0.40659140198E+02  0.00000000000E+00 0. -1.
         11    1    3    3    0    0  0.96680192621E+00 -0.47439866965E+01 -0.57470183129E+01  0.75145416021E+01  0.51100000000E-03 0. -1.
        -11    1    3    3    0    0 -0.14218782663E+02 -0.15063061701E+02  0.91977393786E+01  0.22664245370E+02  0.51100000000E-03 0.  1.
         12    1    3    3    0    0 -0.20106196387E+02 -0.30954234904E+01  0.53355829545E+00  0.20350072830E+02  0.00000000000E+00 0. -1.
</event>
<event>
 7    1  0.1381607E-011  0.5052887E+02  0.7816164E-02  0.1300439E+00
        -11   -1    0    0    0    0  0.00000000000E+00  0.00000000000E+00  0.45593999997E+02  0.45594000000E+02  0.51100000000E-03 0.  1.
         11   -1    0    0    0    0 -0.00000000000E+00 -0.00000000000E+00 -0.45593999997E+02  0.45594000000E+02  0.51100000000E-03 0. -1.
    9900012    2    1    2    0    0  0.25486854885E+02  0.59913428605E+01  0.31107701273E+02  0.50528867696E+02  0.30000023849E+02 0.  0.
         12    1    1    2    0    0 -0.25486854885E+02 -0.59913428605E+01 -0.31107701273E+02  0.40659132304E+02  0.00000000000E+00 0. -1.
         11    1    3    3    0    0  0.17910671124E+02  0.57282419840E+01  0.29914553276E+02  0.35333912808E+02  0.51100000000E-03 0. -1.
        -11    1    3    3    0    0  0.58721814299E+01 -0.47883741101E+00  0.69700110498E+01  0.91264918949E+01  0.51100000000E-03 0.  1.
         12    1    3    3    0    0  0.17040023306E+01  0.74193828758E+00 -0.57768630530E+01  0.60684629931E+01  0.00000000000E+00 0. -1.
</event>
<event>
 7    1  0.1381607E-011  0.5052883E+02  0.7816164E-02  0.1300439E+00
        -11   -1    0    0    0    0  0.00000000000E+00  0.00000000000E+00  0.45593999997E+02  0.45594000000E+02  0.51100000000E-03 0.  1.
         11   -1    0    0    0    0 -0.00000000000E+00 -0.00000000000E+00 -0.45593999997E+02  0.45594000000E+02  0.51100000000E-03 0. -1.
    9900012    2    1    2    0    0  0.12115389474E+02 -0.38411789066E+02  0.55605848393E+01  0.50528827540E+02  0.29999901791E+02 0.  0.
         12    1    1    2    0    0 -0.12115389474E+02  0.38411789066E+02 -0.55605848393E+01  0.40659172460E+02  0.00000000000E+00 0. -1.
         11    1    3    3    0    0 -0.63923008549E+01 -0.10198223750E+02 -0.58519414421E+01  0.13383216982E+02  0.51100000000E-03 0. -1.
        -11    1    3    3    0    0  0.47745736691E+01 -0.77182122882E+01 -0.16584519646E+01  0.92259318136E+01  0.51100000000E-03 0.  1.
        -12    1    3    3    0    0  0.13733116660E+02 -0.20495353028E+02  0.13070978246E+02  0.27919678745E+02  0.00000000000E+00 0.  1.
</event>
<event>
 7    1  0.1381607E-011  0.5052886E+02  0.7816164E-02  0.1300439E+00
        -11   -1    0    0    0    0  0.00000000000E+00  0.00000000000E+00  0.45593999997E+02  0.45594000000E+02  0.51100000000E-03 0.  1.
         11   -1    0    0    0    0 -0.00000000000E+00 -0.00000000000E+00 -0.45593999997E+02  0.45594000000E+02  0.51100000000E-03 0. -1.
    9900012    2    1    2    0    0 -0.18895366307E+02  0.73035383229E+01  0.35253218914E+02  0.50528856088E+02  0.29999988565E+02 0.  0.
         12    1    1    2    0    0  0.18895366307E+02 -0.73035383229E+01 -0.35253218914E+02  0.40659143912E+02  0.00000000000E+00 0. -1.
         11    1    3    3    0    0 -0.77560572428E+01 -0.20690212671E+01  0.28031616318E+02  0.29158339915E+02  0.51100000000E-03 0.  1.
        -11    1    3    3    0    0  0.15010615282E+01 -0.21906403496E+01  0.23851380083E+01  0.35694501583E+01  0.51100000000E-03 0. -1.
        -12    1    3    3    0    0 -0.12640370592E+02  0.11563199940E+02  0.48364645875E+01  0.17801066015E+02  0.00000000000E+00 0.  1.
</event>
<event>
 7    1  0.1381607E-011  0.5052886E+02  0.7816164E-02  0.1300439E+00
        -11   -1    0    0    0    0  0.00000000000E+00  0.00000000000E+00  0.45593999997E+02  0.45594000000E+02  0.51100000000E-03 0. -1.
         11   -1    0    0    0    0 -0.00000000000E+00 -0.00000000000E+00 -0.45593999997E+02  0.45594000000E+02  0.51100000000E-03 0.  1.
    9900012    2    1    2    0    0 -0.51110649483E+01 -0.28849213396E+02 -0.28191589063E+02  0.50528858441E+02  0.29999995716E+02 0.  0.
         12    1    1    2    0    0  0.51110649483E+01  0.28849213396E+02  0.28191589063E+02  0.40659141559E+02  0.00000000000E+00 0. -1.
         11    1    3    3    0    0  0.19494911158E+00 -0.15274754050E+02 -0.47360311058E+01  0.15993314458E+02  0.51100000000E-03 0. -1.
        -11    1    3    3    0    0 -0.94754360460E+01 -0.16831623544E+02 -0.14571601338E+02  0.24195433561E+02  0.51100000000E-03 0.  1.
         12    1    3    3    0    0  0.41694219862E+01  0.32571641989E+01 -0.88839566196E+01  0.10340110422E+02  0.00000000000E+00 0. -1.
</event>
<event>
 7    1  0.1381607E-011  0.5052887E+02  0.7816164E-02  0.1300439E+00
        -11   -1    0    0    0    0  0.00000000000E+00  0.00000000000E+00  0.45593999997E+02  0.45594000000E+02  0.51100000000E-03 0. -1.
         11   -1    0    0    0    0 -0.00000000000E+00 -0.00000000000E+00 -0.45593999997E+02  0.45594000000E+02  0.51100000000E-03 0.  1.
    9900012    2    1    2    0    0  0.24022892827E+02  0.11771722119E+02 -0.30618492216E+02  0.50528869573E+02  0.30000029556E+02 0.  0.
         12    1    1    2    0    0 -0.24022892827E+02 -0.11771722119E+02  0.30618492216E+02  0.40659130427E+02  0.00000000000E+00 0. -1.
         11    1    3    3    0    0 -0.14514293746E+01 -0.31249573663E+01 -0.36868182988E+01  0.50462496173E+01  0.51100000000E-03 0. -1.
        -11    1    3    3    0    0  0.22792045015E+02  0.27790741274E+01 -0.22911895140E+02  0.32436946652E+02  0.51100000000E-03 0.  1.
        -12    1    3    3    0    0  0.26822771866E+01  0.12117605358E+02 -0.40197787777E+01  0.13045673304E+02  0.00000000000E+00 0.  1.
</event>
<event>
 7    1  0.1381607E-011  0.5052886E+02  0.7816164E-02  0.1300439E+00
        -11   -1    0    0    0    0  0.00000000000E+00  0.00000000000E+00  0.45593999997E+02  0.45594000000E+02  0.51100000000E-03 0. -1.
         11   -1    0    0    0    0 -0.00000000000E+00 -0.00000000000E+00 -0.45593999997E+02  0.45594000000E+02  0.51100000000E-03 0.  1.
    9900012    2    1    2    0    0 -0.30343797549E+02  0.26991439552E+02  0.19701270855E+01  0.50528864993E+02  0.30000015634E+02 0.  0.
         12    1    1    2    0    0  0.30343797549E+02 -0.26991439552E+02 -0.19701270855E+01  0.40659135007E+02  0.00000000000E+00 0. -1.
         11    1    3    3    0    0 -0.19312611955E+02  0.79125066304E+01 -0.43319501975E+01  0.21315499864E+02  0.51100000000E-03 0.  1.
        -11    1    3    3    0    0  0.14363680079E+00 -0.32520772533E+01 -0.59094934554E+00  0.33084527172E+01  0.51100000000E-03 0. -1.
        -12    1    3    3    0    0 -0.11174822395E+02  0.22331010175E+02  0.68930266286E+01  0.25904912412E+02  0.00000000000E+00 0.  1.
</event>
<event>
 7    1  0.1381607E-011  0.5052886E+02  0.7816164E-02  0.1300439E+00
        -11   -1    0    0    0    0  0.00000000000E+00  0.00000000000E+00  0.45593999997E+02  0.45594000000E+02  0.51100000000E-03 0.  1.
         11   -1    0    0    0    0 -0.00000000000E+00 -0.00000000000E+00 -0.45593999997E+02  0.45594000000E+02  0.51100000000E-03 0. -1.
    9900012    2    1    2    0    0  0.21565804519E+02 -0.28345125106E+02 -0.19612132019E+02  0.50528858787E+02  0.29999996770E+02 0.  0.
         12    1    1    2    0    0 -0.21565804519E+02  0.28345125106E+02  0.19612132019E+02  0.40659141213E+02  0.00000000000E+00 0. -1.
         11    1    3    3    0    0  0.33107559031E+01 -0.57875498064E+01  0.63450590746E+01  0.92041627720E+01  0.51100000000E-03 0.  1.
        -11    1    3    3    0    0  0.38529414150E+00 -0.21064908810E+01  0.15700040938E+01  0.26553094966E+01  0.51100000000E-03 0. -1.
         12    1    3    3    0    0  0.17869754474E+02 -0.20451084419E+02 -0.27527195187E+02  0.38669386519E+02  0.00000000000E+00 0. -1.
</event>
<event>
 7    1  0.1381607E-011  0.5052886E+02  0.7816164E-02  0.1300439E+00
        -11   -1    0    0    0    0  0.00000000000E+00  0.00000000000E+00  0.45593999997E+02  0.45594000000E+02  0.51100000000E-03 0.  1.
         11   -1    0    0    0    0 -0.00000000000E+00 -0.00000000000E+00 -0.45593999997E+02  0.45594000000E+02  0.51100000000E-03 0. -1.
    9900012    2    1    2    0    0  0.35101008193E+02 -0.19643188098E+02 -0.59354715945E+01  0.50528862800E+02  0.30000008965E+02 0.  0.
         12    1    1    2    0    0 -0.35101008193E+02  0.19643188098E+02  0.59354715945E+01  0.40659137200E+02  0.00000000000E+00 0. -1.
         11    1    3    3    0    0  0.23552743675E+02 -0.28932454701E+01 -0.11422319207E+02  0.26335754788E+02  0.51100000000E-03 0. -1.
        -11    1    3    3    0    0  0.12883906600E+02 -0.11340996694E+02  0.68113935610E+01  0.18466411070E+02  0.51100000000E-03 0.  1.
        -12    1    3    3    0    0 -0.13356420818E+01 -0.54089459335E+01 -0.13245459489E+01  0.57266969409E+01  0.00000000000E+00 0.  1.
</event>
<event>
 7    1  0.1381607E-011  0.5052886E+02  0.7816164E-02  0.1300439E+00
        -11   -1    0    0    0    0  0.00000000000E+00  0.00000000000E+00  0.45593999997E+02  0.45594000000E+02  0.51100000000E-03 0. -1.
         11   -1    0    0    0    0 -0.00000000000E+00 -0.00000000000E+00 -0.45593999997E+02  0.45594000000E+02  0.51100000000E-03 0.  1.
    9900012    2    1    2    0    0  0.20780063277E+02  0.17660023903E+02 -0.30157561528E+02  0.50528855993E+02  0.29999988276E+02 0.  0.
         12    1    1    2    0    0 -0.20780063277E+02 -0.17660023903E+02  0.30157561528E+02  0.40659144007E+02  0.00000000000E+00 0. -1.
         11    1    3    3    0    0  0.19508456723E+02  0.16911609262E+02 -0.11652581474E+02  0.28326049262E+02  0.51100000000E-03 0. -1.
        -11    1    3    3    0    0  0.21405823629E+01  0.43150409741E+01 -0.18691425903E+01  0.51667558240E+01  0.51100000000E-03 0.  1.
        -12    1    3    3    0    0 -0.86897580905E+00 -0.35666263333E+01 -0.16635837464E+02  0.17036050907E+02  0.00000000000E+00 0.  1.
</event>
<event>
 7    1  0.1381607E-011  0.5052884E+02  0.7816164E-02  0.1300439E+00
        -11   -1    0    0    0    0  0.00000000000E+00  0.00000000000E+00  0.45593999997E+02  0.45594000000E+02  0.51100000000E-03 0.  1.
         11   -1    0    0    0    0 -0.00000000000E+00 -0.00000000000E+00 -0.45593999997E+02  0.45594000000E+02  0.51100000000E-03 0. -1.
    9900012    2    1    2    0    0 -0.28562242221E+02 -0.22774685502E+02  0.17851587390E+02  0.50528841711E+02  0.29999944866E+02 0.  0.
         12    1    1    2    0    0  0.28562242221E+02  0.22774685502E+02 -0.17851587390E+02  0.40659158289E+02  0.00000000000E+00 0. -1.
         11    1    3    3    0    0 -0.62577702674E+01  0.21496474048E+01  0.98578541085E+01  0.11872571776E+02  0.51100000000E-03 0. -1.
        -11    1    3    3    0    0 -0.23005144185E+02 -0.18840160893E+02  0.11161548902E+02  0.31761116095E+02  0.51100000000E-03 0.  1.
        -12    1    3    3    0    0  0.70067223160E+00 -0.60841720139E+01 -0.31678156214E+01  0.68951538403E+01  0.00000000000E+00 0.  1.
</event>
<event>
 7    1  0.1381607E-011  0.5052886E+02  0.7816164E-02  0.1300439E+00
        -11   -1    0    0    0    0  0.00000000000E+00  0.00000000000E+00  0.45593999997E+02  0.45594000000E+02  0.51100000000E-03 0.  1.
         11   -1    0    0    0    0 -0.00000000000E+00 -0.00000000000E+00 -0.45593999997E+02  0.45594000000E+02  0.51100000000E-03 0. -1.
    9900012    2    1    2    0    0 -0.15502714630E+01 -0.21045787620E+02  0.34753950181E+02  0.50528861158E+02  0.30000003977E+02 0.  0.
         12    1    1    2    0    0  0.15502714630E+01  0.21045787620E+02 -0.34753950181E+02  0.40659138842E+02  0.00000000000E+00 0. -1.
         11    1    3    3    0    0 -0.72696344550E+00  0.10839140907E+01 -0.34017981088E+01  0.36435664179E+01  0.51100000000E-03 0. -1.
        -11    1    3    3    0    0  0.32521512221E+00 -0.32971813182E+01  0.21389721744E+02  0.21644799978E+02  0.51100000000E-03 0.  1.
        -12    1    3    3    0    0 -0.11485231397E+01 -0.18832520392E+02  0.16766026546E+02  0.25240494763E+02  0.00000000000E+00 0.  1.
</event>
<event>
 7    1  0.1381607E-011  0.5052885E+02  0.7816164E-02  0.1300439E+00
        -11   -1    0    0    0    0  0.00000000000E+00  0.00000000000E+00  0.45593999997E+02  0.45594000000E+02  0.51100000000E-03 0.  1.
         11   -1    0    0    0    0 -0.00000000000E+00 -0.00000000000E+00 -0.45593999997E+02  0.45594000000E+02  0.51100000000E-03 0. -1.
    9900012    2    1    2    0    0 -0.30644922167E+01 -0.63210855124E+01  0.40047708685E+02  0.50528853360E+02  0.29999980273E+02 0.  0.
         12    1    1    2    0    0  0.30644922167E+01  0.63210855124E+01 -0.40047708685E+02  0.40659146640E+02  0.00000000000E+00 0. -1.
         11    1    3    3    0    0  0.43891100668E+00 -0.54522673652E+01  0.26905893330E+02  0.27456273572E+02  0.51100000000E-03 0. -1.
        -11    1    3    3    0    0  0.52005639166E+00 -0.50166142180E+01  0.15891846322E+02  0.16672961843E+02  0.51100000000E-03 0.  1.
         12    1    3    3    0    0 -0.40234596151E+01  0.41477960708E+01 -0.27500309673E+01  0.63996179448E+01  0.00000000000E+00 0. -1.
</event>
<event>
 7    1  0.1381607E-011  0.5052886E+02  0.7816164E-02  0.1300439E+00
        -11   -1    0    0    0    0  0.00000000000E+00  0.00000000000E+00  0.45593999997E+02  0.45594000000E+02  0.51100000000E-03 0.  1.
         11   -1    0    0    0    0 -0.00000000000E+00 -0.00000000000E+00 -0.45593999997E+02  0.45594000000E+02  0.51100000000E-03 0. -1.
    9900012    2    1    2    0    0 -0.39896639450E+02  0.22740027598E+01  0.75001645394E+01  0.50528863314E+02  0.30000010529E+02 0.  0.
         12    1    1    2    0    0  0.39896639450E+02 -0.22740027598E+01 -0.75001645394E+01  0.40659136686E+02  0.00000000000E+00 0. -1.
         11    1    3    3    0    0 -0.17636773852E+02  0.82323097707E+01  0.28135017270E+01  0.19665769965E+02  0.51100000000E-03 0. -1.
        -11    1    3    3    0    0 -0.15355553461E+02  0.57754260893E+01  0.52839080346E+01  0.17235668046E+02  0.51100000000E-03 0.  1.
         12    1    3    3    0    0 -0.69043121366E+01 -0.11733733100E+02 -0.59724522232E+00  0.13627425303E+02  0.00000000000E+00 0. -1.
</event>
<event>
 7    1  0.1381607E-011  0.5052885E+02  0.7816164E-02  0.1300439E+00
        -11   -1    0    0    0    0  0.00000000000E+00  0.00000000000E+00  0.45593999997E+02  0.45594000000E+02  0.51100000000E-03 0.  1.
         11   -1    0    0    0    0 -0.00000000000E+00 -0.00000000000E+00 -0.45593999997E+02  0.45594000000E+02  0.51100000000E-03 0. -1.
    9900012    2    1    2    0    0  0.30460464777E+02  0.31741491326E+01 -0.26744190710E+02  0.50528845141E+02  0.29999955290E+02 0.  0.
         12    1    1    2    0    0 -0.30460464777E+02 -0.31741491326E+01  0.26744190710E+02  0.40659154859E+02  0.00000000000E+00 0. -1.
         11    1    3    3    0    0  0.11624457895E+01  0.18081373041E+01 -0.83225205395E+01  0.85956377957E+01  0.51100000000E-03 0. -1.
        -11    1    3    3    0    0  0.20679793471E+02  0.12018237222E+02 -0.12741818988E+02  0.27100661160E+02  0.51100000000E-03 0.  1.
        -12    1    3    3    0    0  0.86182255160E+01 -0.10652225393E+02 -0.56798511820E+01  0.14832546185E+02  0.00000000000E+00 0.  1.
</event>
<event>
 7    1  0.1381607E-011  0.5052886E+02  0.7816164E-02  0.1300439E+00
        -11   -1    0    0    0    0  0.00000000000E+00  0.00000000000E+00  0.45593999997E+02  0.45594000000E+02  0.51100000000E-03 0.  1.
         11   -1    0    0    0    0 -0.00000000000E+00 -0.00000000000E+00 -0.45593999997E+02  0.45594000000E+02  0.51100000000E-03 0. -1.
    9900012    2    1    2    0    0  0.23149604943E+02 -0.37343757894E+01  0.33216196633E+02  0.50528862155E+02  0.30000007007E+02 0.  0.
         12    1    1    2    0    0 -0.23149604943E+02  0.37343757894E+01 -0.33216196633E+02  0.40659137845E+02  0.00000000000E+00 0. -1.
         11    1    3    3    0    0 -0.22423680768E+01  0.26513925366E+01  0.15844872538E+01  0.38168962645E+01  0.51100000000E-03 0. -1.
        -11    1    3    3    0    0  0.46165420234E+01 -0.11711466828E+02  0.86299408890E+01  0.15262594652E+02  0.51100000000E-03 0.  1.
        -12    1    3    3    0    0  0.20775430996E+02  0.53256985020E+01  0.23001768490E+02  0.31449371238E+02  0.00000000000E+00 0.  1.
</event>
<event>
 7    1  0.1381607E-011  0.5052889E+02  0.7816164E-02  0.1300439E+00
        -11   -1    0    0    0    0  0.00000000000E+00  0.00000000000E+00  0.45593999997E+02  0.45594000000E+02  0.51100000000E-03 0. -1.
         11   -1    0    0    0    0 -0.00000000000E+00 -0.00000000000E+00 -0.45593999997E+02  0.45594000000E+02  0.51100000000E-03 0.  1.
    9900012    2    1    2    0    0 -0.17079036964E+02  0.36829304938E+02  0.22521549881E+01  0.50528887763E+02  0.30000084843E+02 0.  0.
         12    1    1    2    0    0  0.17079036964E+02 -0.36829304938E+02 -0.22521549881E+01  0.40659112237E+02  0.00000000000E+00 0. -1.
         11    1    3    3    0    0 -0.20663029060E+02  0.24835243517E+02 -0.43627938738E+01  0.32600369034E+02  0.51100000000E-03 0. -1.
        -11    1    3    3    0    0  0.66781928606E+00  0.65431159233E+01 -0.23967745665E+01  0.70002055090E+01  0.51100000000E-03 0.  1.
         12    1    3    3    0    0  0.29161728100E+01  0.54509454976E+01  0.90117234284E+01  0.10928313220E+02  0.00000000000E+00 0. -1.
</event>
<event>
 7    1  0.1381607E-011  0.5052887E+02  0.7816164E-02  0.1300439E+00
        -11   -1    0    0    0    0  0.00000000000E+00  0.00000000000E+00  0.45593999997E+02  0.45594000000E+02  0.51100000000E-03 0.  1.
         11   -1    0    0    0    0 -0.00000000000E+00 -0.00000000000E+00 -0.45593999997E+02  0.45594000000E+02  0.51100000000E-03 0. -1.
    9900012    2    1    2    0    0  0.14008717074E+02  0.16889948257E+02  0.34229378789E+02  0.50528869679E+02  0.30000029876E+02 0.  0.
         12    1    1    2    0    0 -0.14008717074E+02 -0.16889948257E+02 -0.34229378789E+02  0.40659130321E+02  0.00000000000E+00 0. -1.
         11    1    3    3    0    0  0.46537074392E+01 -0.44775564284E+01 -0.11341164978E+01  0.65568075304E+01  0.51100000000E-03 0. -1.
        -11    1    3    3    0    0  0.96920833927E-01  0.26111031936E-01  0.82333347547E+01  0.82339466162E+01  0.51100000000E-03 0.  1.
        -12    1    3    3    0    0  0.92580888009E+01  0.21341393653E+02  0.27130160532E+02  0.35738115532E+02  0.00000000000E+00 0.  1.
</event>
<event>
 7    1  0.1381607E-011  0.5052886E+02  0.7816164E-02  0.1300439E+00
        -11   -1    0    0    0    0  0.00000000000E+00  0.00000000000E+00  0.45593999997E+02  0.45594000000E+02  0.51100000000E-03 0. -1.
         11   -1    0    0    0    0 -0.00000000000E+00 -0.00000000000E+00 -0.45593999997E+02  0.45594000000E+02  0.51100000000E-03 0.  1.
    9900012    2    1    2    0    0  0.14473942512E+02  0.28136493228E+02 -0.25534457678E+02  0.50528858446E+02  0.29999995732E+02 0.  0.
         12    1    1    2    0    0 -0.14473942512E+02 -0.28136493228E+02  0.25534457678E+02  0.40659141554E+02  0.00000000000E+00 0. -1.
         11    1    3    3    0    0 -0.14114457795E+01  0.69648196706E+01 -0.15948021112E+01  0.72831508475E+01  0.51100000000E-03 0. -1.
        -11    1    3    3    0    0  0.10254871088E+02 -0.22536584080E+01 -0.20577528732E+01  0.10699331961E+02  0.51100000000E-03 0.  1.
        -12    1    3    3    0    0  0.56305172033E+01  0.23425331966E+02 -0.21881902694E+02  0.32546375638E+02  0.00000000000E+00 0.  1.
</event>
<event>
 7    1  0.1381607E-011  0.5052886E+02  0.7816164E-02  0.1300439E+00
        -11   -1    0    0    0    0  0.00000000000E+00  0.00000000000E+00  0.45593999997E+02  0.45594000000E+02  0.51100000000E-03 0.  1.
         11   -1    0    0    0    0 -0.00000000000E+00 -0.00000000000E+00 -0.45593999997E+02  0.45594000000E+02  0.51100000000E-03 0. -1.
    9900012    2    1    2    0    0  0.23070737131E+02 -0.32828156817E+02  0.65740981554E+01  0.50528861318E+02  0.30000004463E+02 0.  0.
         12    1    1    2    0    0 -0.23070737131E+02  0.32828156817E+02 -0.65740981554E+01  0.40659138682E+02  0.00000000000E+00 0. -1.
         11    1    3    3    0    0  0.91815155108E+01 -0.21221029289E+02  0.81389407913E+01  0.24512745024E+02  0.51100000000E-03 0.  1.
        -11    1    3    3    0    0 -0.20766449793E+01 -0.26708076006E+01 -0.62697133479E+01  0.71242524756E+01  0.51100000000E-03 0. -1.
         12    1    3    3    0    0  0.15965866599E+02 -0.89363199280E+01  0.47048707120E+01  0.18891863819E+02  0.00000000000E+00 0. -1.
</event>
<event>
 7    1  0.1381607E-011  0.5052886E+02  0.7816164E-02  0.1300439E+00
        -11   -1    0    0    0    0  0.00000000000E+00  0.00000000000E+00  0.45593999997E+02  0.45594000000E+02  0.51100000000E-03 0. -1.
         11   -1    0    0    0    0 -0.00000000000E+00 -0.00000000000E+00 -0.45593999997E+02  0.45594000000E+02  0.51100000000E-03 0.  1.
    9900012    2    1    2    0    0  0.12094693082E+02  0.36845703995E+02 -0.12217947821E+02  0.50528858930E+02  0.29999997203E+02 0.  0.
         12    1    1    2    0    0 -0.12094693082E+02 -0.36845703995E+02  0.12217947821E+02  0.40659141070E+02  0.00000000000E+00 0. -1.
         11    1    3    3    0    0  0.86231628583E+01  0.42376901985E+01 -0.76324539892E+01  0.12270750183E+02  0.51100000000E-03 0. -1.
        -11    1    3    3    0    0 -0.11034439888E+00  0.25114289192E+02 -0.11336647956E+02  0.27554659945E+02  0.51100000000E-03 0.  1.
        -12    1    3    3    0    0  0.35818746226E+01  0.74937246038E+01  0.67511541244E+01  0.10703448802E+02  0.00000000000E+00 0.  1.
</event>
<event>
 7    1  0.1381607E-011  0.5052894E+02  0.7816164E-02  0.1300439E+00
        -11   -1    0    0    0    0  0.00000000000E+00  0.00000000000E+00  0.45593999997E+02  0.45594000000E+02  0.51100000000E-03 0. -1.
         11   -1    0    0    0    0 -0.00000000000E+00 -0.00000000000E+00 -0.45593999997E+02  0.45594000000E+02  0.51100000000E-03 0.  1.
    9900012    2    1    2    0    0  0.13471575588E+02 -0.34873927768E+02 -0.15983892608E+02  0.50528941849E+02  0.30000249243E+02 0.  0.
         12    1    1    2    0    0 -0.13471575588E+02  0.34873927768E+02  0.15983892608E+02  0.40659058151E+02  0.00000000000E+00 0. -1.
         11    1    3    3    0    0  0.20026908874E+01 -0.54838068601E+01  0.33992520361E+01  0.67555771875E+01  0.51100000000E-03 0. -1.
        -11    1    3    3    0    0  0.16985299544E+02 -0.21298320419E+02 -0.72674365330E+01  0.28194582587E+02  0.51100000000E-03 0.  1.
        -12    1    3    3    0    0 -0.55164148428E+01 -0.80918004894E+01 -0.12115708111E+02  0.15578782074E+02  0.00000000000E+00 0.  1.
</event>
<event>
 7    1  0.1381607E-011  0.5052885E+02  0.7816164E-02  0.1300439E+00
        -11   -1    0    0    0    0  0.00000000000E+00  0.00000000000E+00  0.45593999997E+02  0.45594000000E+02  0.51100000000E-03 0.  1.
         11   -1    0    0    0    0 -0.00000000000E+00 -0.00000000000E+00 -0.45593999997E+02  0.45594000000E+02  0.51100000000E-03 0. -1.
    9900012    2    1    2    0    0 -0.36771717538E+01 -0.31046209880E+02  0.25995718297E+02  0.50528854537E+02  0.29999983851E+02 0.  0.
         12    1    1    2    0    0  0.36771717538E+01  0.31046209880E+02 -0.25995718297E+02  0.40659145463E+02  0.00000000000E+00 0. -1.
         11    1    3    3    0    0  0.47028345722E+01 -0.22480894461E+02  0.15081945436E+02  0.27476760128E+02  0.51100000000E-03 0.  1.
        -11    1    3    3    0    0  0.33597402467E+00 -0.37454916813E+01 -0.37597416742E+01  0.53176352073E+01  0.51100000000E-03 0. -1.
         12    1    3    3    0    0 -0.87159803507E+01 -0.48198237376E+01  0.14673514536E+02  0.17734459201E+02  0.00000000000E+00 0. -1.
</event>
<event>
 7    1  0.1381607E-011  0.5052886E+02  0.7816164E-02  0.1300439E+00
        -11   -1    0    0    0    0  0.00000000000E+00  0.00000000000E+00  0.45593999997E+02  0.45594000000E+02  0.51100000000E-03 0. -1.
         11   -1    0    0    0    0 -0.00000000000E+00 -0.00000000000E+00 -0.45593999997E+02  0.45594000000E+02  0.51100000000E-03 0.  1.
    9900012    2    1    2    0    0 -0.65541537452E+01 -0.10660922996E+02 -0.38685315870E+02  0.50528857432E+02  0.29999992649E+02 0.  0.
         12    1    1    2    0    0  0.65541537452E+01  0.10660922996E+02  0.38685315870E+02  0.40659142568E+02  0.00000000000E+00 0. -1.
         11    1    3    3    0    0  0.51696853891E+01 -0.26264961763E+01 -0.40666157646E+01  0.70824779014E+01  0.51100000000E-03 0. -1.
        -11    1    3    3    0    0 -0.37866889611E+01 -0.52587486937E+01  0.12548048476E+01  0.66006050161E+01  0.51100000000E-03 0.  1.
        -12    1    3    3    0    0 -0.79371501732E+01 -0.27756781258E+01 -0.35873504953E+02  0.36845774514E+02  0.00000000000E+00 0.  1.
</event>
<event>
 7    1  0.1381607E-011  0.5052886E+02  0.7816164E-02  0.1300439E+00
        -11   -1    0    0    0    0  0.00000000000E+00  0.00000000000E+00  0.45593999997E+02  0.45594000000E+02  0.51100000000E-03 0.  1.
         11   -1    0    0    0    0 -0.00000000000E+00 -0.00000000000E+00 -0.45593999997E+02  0.45594000000E+02  0.51100000000E-03 0. -1.
    9900012    2    1    2    0    0 -0.59251539878E+00 -0.40457643912E+02 -0.39992167209E+01  0.50528858841E+02  0.29999996934E+02 0.  0.
         12    1    1    2    0    0  0.59251539878E+00  0.40457643912E+02  0.39992167209E+01  0.40659141159E+02  0.00000000000E+00 0. -1.
         11    1    3    3    0    0 -0.41818319878E+01  0.26813731548E+01 -0.31567583425E+01  0.58857968249E+01  0.51100000000E-03 0. -1.
        -11    1    3    3    0    0 -0.74762962962E+00 -0.10396881534E+02  0.41888885687E+01  0.11233916655E+02  0.51100000000E-03 0.  1.
        -12    1    3    3    0    0  0.43369462186E+01 -0.32742135532E+02 -0.50313469470E+01  0.33409145362E+02  0.00000000000E+00 0.  1.
</event>
<event>
 7    1  0.1381607E-011  0.5052887E+02  0.7816164E-02  0.1300439E+00
        -11   -1    0    0    0    0  0.00000000000E+00  0.00000000000E+00  0.45593999997E+02  0.45594000000E+02  0.51100000000E-03 0. -1.
         11   -1    0    0    0    0 -0.00000000000E+00 -0.00000000000E+00 -0.45593999997E+02  0.45594000000E+02  0.51100000000E-03 0.  1.
    9900012    2    1    2    0    0  0.65137337315E+01  0.30625152777E+02 -0.25939092567E+02  0.50528865320E+02  0.30000016625E+02 0.  0.
         12    1    1    2    0    0 -0.65137337315E+01 -0.30625152777E+02  0.25939092567E+02  0.40659134680E+02  0.00000000000E+00 0. -1.
         11    1    3    3    0    0  0.84334959561E+00  0.56849216486E+01 -0.18326217177E+00  0.57500572150E+01  0.51100000000E-03 0. -1.
        -11    1    3    3    0    0  0.12640477350E+02  0.24454749085E+02 -0.25890307678E+02  0.37790533899E+02  0.51100000000E-03 0.  1.
         12    1    3    3    0    0 -0.69700932144E+01  0.48548204385E+00  0.13447728279E+00  0.69882742056E+01  0.00000000000E+00 0. -1.
</event>
<event>
 7    1  0.1381607E-011  0.5052885E+02  0.7816164E-02  0.1300439E+00
        -11   -1    0    0    0    0  0.00000000000E+00  0.00000000000E+00  0.45593999997E+02  0.45594000000E+02  0.51100000000E-03 0.  1.
         11   -1    0    0    0    0 -0.00000000000E+00 -0.00000000000E+00 -0.45593999997E+02  0.45594000000E+02  0.51100000000E-03 0. -1.
    9900012    2    1    2    0    0  0.30606098319E+02 -0.29423756150E+01  0.26604056384E+02  0.50528847960E+02  0.29999963858E+02 0.  0.
         12    1    1    2    0    0 -0.30606098319E+02  0.29423756150E+01 -0.26604056384E+02  0.40659152040E+02  0.00000000000E+00 0. -1.
         11    1    3    3    0    0  0.13172165556E+02 -0.10692356601E+02  0.69268087355E+01  0.18325204355E+02  0.51100000000E-03 0. -1.
        -11    1    3    3    0    0  0.18226820151E+02  0.10371892600E+01  0.11425604212E+02  0.21536879213E+02  0.51100000000E-03 0.  1.
         12    1    3    3    0    0 -0.79288738879E+00  0.67127917265E+01  0.82516434365E+01  0.10666764391E+02  0.00000000000E+00 0. -1.
</event>
<event>
 7    1  0.1381607E-011  0.5052891E+02  0.7816164E-02  0.1300439E+00
        -11   -1    0    0    0    0  0.00000000000E+00  0.00000000000E+00  0.45593999997E+02  0.45594000000E+02  0.51100000000E-03 0.  1.
         11   -1    0    0    0    0 -0.00000000000E+00 -0.00000000000E+00 -0.45593999997E+02  0.45594000000E+02  0.51100000000E-03 0. -1.
    9900012    2    1    2    0    0  0.26303753160E+02 -0.94572290459E+01  0.29526850752E+02  0.50528910895E+02  0.30000155155E+02 0.  0.
         12    1    1    2    0    0 -0.26303753160E+02  0.94572290459E+01 -0.29526850752E+02  0.40659089105E+02  0.00000000000E+00 0. -1.
         11    1    3    3    0    0 -0.44957531625E+01  0.28450776412E+01  0.36243321122E+00  0.53326936323E+01  0.51100000000E-03 0. -1.
        -11    1    3    3    0    0  0.13399618558E+02 -0.10439097243E+02  0.13252370170E+02  0.21544137118E+02  0.51100000000E-03 0.  1.
        -12    1    3    3    0    0  0.17399887764E+02 -0.18632094438E+01  0.15912047371E+02  0.23652080145E+02  0.00000000000E+00 0.  1.
</event>
<event>
 7    1  0.1381607E-011  0.5052886E+02  0.7816164E-02  0.1300439E+00
        -11   -1    0    0    0    0  0.00000000000E+00  0.00000000000E+00  0.45593999997E+02  0.45594000000E+02  0.51100000000E-03 0.  1.
         11   -1    0    0    0    0 -0.00000000000E+00 -0.00000000000E+00 -0.45593999997E+02  0.45594000000E+02  0.51100000000E-03 0. -1.
    9900012    2    1    2    0    0  0.11738482775E+02  0.14931428972E+02  0.35950331365E+02  0.50528857433E+02  0.29999992653E+02 0.  0.
         12    1    1    2    0    0 -0.11738482775E+02 -0.14931428972E+02 -0.35950331365E+02  0.40659142567E+02  0.00000000000E+00 0. -1.
         11    1    3    3    0    0  0.14636043632E+02  0.92136722219E+01  0.23618261949E+02  0.29273329616E+02  0.51100000000E-03 0. -1.
        -11    1    3    3    0    0  0.37202872249E+01 -0.30871546292E+01  0.81454988474E+01  0.94720754048E+01  0.51100000000E-03 0.  1.
        -12    1    3    3    0    0 -0.66178480818E+01  0.88049113792E+01  0.41865705686E+01  0.11783452412E+02  0.00000000000E+00 0.  1.
</event>
<event>
 7    1  0.1381607E-011  0.5052886E+02  0.7816164E-02  0.1300439E+00
        -11   -1    0    0    0    0  0.00000000000E+00  0.00000000000E+00  0.45593999997E+02  0.45594000000E+02  0.51100000000E-03 0.  1.
         11   -1    0    0    0    0 -0.00000000000E+00 -0.00000000000E+00 -0.45593999997E+02  0.45594000000E+02  0.51100000000E-03 0. -1.
    9900012    2    1    2    0    0  0.32290946255E+02  0.14721355540E+01  0.24663601166E+02  0.50528860614E+02  0.30000002323E+02 0.  0.
         12    1    1    2    0    0 -0.32290946255E+02 -0.14721355540E+01 -0.24663601166E+02  0.40659139386E+02  0.00000000000E+00 0. -1.
         11    1    3    3    0    0  0.13605196907E+02 -0.83291268750E+01  0.80298441095E+01  0.17859287054E+02  0.51100000000E-03 0. -1.
        -11    1    3    3    0    0  0.14314212839E+02  0.28045950204E+01  0.55401888919E+00  0.14596896233E+02  0.51100000000E-03 0.  1.
        -12    1    3    3    0    0  0.43715365084E+01  0.69966674086E+01  0.16079738167E+02  0.18072677328E+02  0.00000000000E+00 0.  1.
</event>
<event>
 7    1  0.1381607E-011  0.5052886E+02  0.7816164E-02  0.1300439E+00
        -11   -1    0    0    0    0  0.00000000000E+00  0.00000000000E+00  0.45593999997E+02  0.45594000000E+02  0.51100000000E-03 0.  1.
         11   -1    0    0    0    0 -0.00000000000E+00 -0.00000000000E+00 -0.45593999997E+02  0.45594000000E+02  0.51100000000E-03 0. -1.
    9900012    2    1    2    0    0 -0.12063512550E+01  0.30679156049E+02  0.26655198978E+02  0.50528861645E+02  0.30000005456E+02 0.  0.
         12    1    1    2    0    0  0.12063512550E+01 -0.30679156049E+02 -0.26655198978E+02  0.40659138355E+02  0.00000000000E+00 0. -1.
         11    1    3    3    0    0  0.23305646424E+01  0.26734152165E+02  0.49332368811E+01  0.27285220357E+02  0.51100000000E-03 0. -1.
        -11    1    3    3    0    0 -0.10553221245E+01 -0.16005852471E+01  0.29974127848E+01  0.35580980289E+01  0.51100000000E-03 0.  1.
        -12    1    3    3    0    0 -0.24815937729E+01  0.55455891311E+01  0.18724549312E+02  0.19685543259E+02  0.00000000000E+00 0.  1.
</event>
<event>
 7    1  0.1381607E-011  0.5052886E+02  0.7816164E-02  0.1300439E+00
        -11   -1    0    0    0    0  0.00000000000E+00  0.00000000000E+00  0.45593999997E+02  0.45594000000E+02  0.51100000000E-03 0.  1.
         11   -1    0    0    0    0 -0.00000000000E+00 -0.00000000000E+00 -0.45593999997E+02  0.45594000000E+02  0.51100000000E-03 0. -1.
    9900012    2    1    2    0    0 -0.32624625958E+02  0.16567192730E+02  0.17729289004E+02  0.50528858562E+02  0.29999996086E+02 0.  0.
         12    1    1    2    0    0  0.32624625958E+02 -0.16567192730E+02 -0.17729289004E+02  0.40659141438E+02  0.00000000000E+00 0. -1.
         11    1    3    3    0    0 -0.15399631926E+02  0.14580658399E+02  0.18186704490E+02  0.27937438739E+02  0.51100000000E-03 0. -1.
        -11    1    3    3    0    0 -0.77228449437E+01 -0.30398050351E+01  0.58258124336E+01  0.10140159735E+02  0.51100000000E-03 0.  1.
         12    1    3    3    0    0 -0.95021490884E+01  0.50263393654E+01 -0.62832279193E+01  0.12451260089E+02  0.00000000000E+00 0. -1.
</event>
<event>
 7    1  0.1381607E-011  0.5052883E+02  0.7816164E-02  0.1300439E+00
        -11   -1    0    0    0    0  0.00000000000E+00  0.00000000000E+00  0.45593999997E+02  0.45594000000E+02  0.51100000000E-03 0.  1.
         11   -1    0    0    0    0 -0.00000000000E+00 -0.00000000000E+00 -0.45593999997E+02  0.45594000000E+02  0.51100000000E-03 0. -1.
    9900012    2    1    2    0    0  0.17988397938E+01  0.29354154828E+02  0.28076077315E+02  0.50528827017E+02  0.29999900201E+02 0.  0.
         12    1    1    2    0    0 -0.17988397938E+01 -0.29354154828E+02 -0.28076077315E+02  0.40659172983E+02  0.00000000000E+00 0. -1.
         11    1    3    3    0    0 -0.46050592132E+01  0.10599999072E+02  0.90973008107E+01  0.14708073735E+02  0.51100000000E-03 0.  1.
        -11    1    3    3    0    0  0.74567708798E+01 -0.31930023290E+00 -0.17149439131E+01  0.76580948988E+01  0.51100000000E-03 0. -1.
         12    1    3    3    0    0 -0.10528718729E+01  0.19073455989E+02  0.20693720417E+02  0.28162658384E+02  0.00000000000E+00 0. -1.
</event>
<event>
 7    1  0.1381607E-011  0.5052882E+02  0.7816164E-02  0.1300439E+00
        -11   -1    0    0    0    0  0.00000000000E+00  0.00000000000E+00  0.45593999997E+02  0.45594000000E+02  0.51100000000E-03 0.  1.
         11   -1    0    0    0    0 -0.00000000000E+00 -0.00000000000E+00 -0.45593999997E+02  0.45594000000E+02  0.51100000000E-03 0. -1.
    9900012    2    1    2    0    0  0.41172457649E+01 -0.35398510519E+02  0.19574549488E+02  0.50528815954E+02  0.29999866573E+02 0.  0.
         12    1    1    2    0    0 -0.41172457649E+01  0.35398510519E+02 -0.19574549488E+02  0.40659184046E+02  0.00000000000E+00 0. -1.
         11    1    3    3    0    0 -0.12143439557E+01 -0.10688262206E+02 -0.24984698919E+01  0.11043365986E+02  0.51100000000E-03 0. -1.
        -11    1    3    3    0    0  0.56674082982E+01  0.10362223908E+01  0.30675316188E+00  0.57695209008E+01  0.51100000000E-03 0.  1.
        -12    1    3    3    0    0 -0.33581857760E+00 -0.25746470703E+02  0.21766266218E+02  0.33715929067E+02  0.00000000000E+00 0.  1.
</event>
<event>
 7    1  0.1381607E-011  0.5052886E+02  0.7816164E-02  0.1300439E+00
        -11   -1    0    0    0    0  0.00000000000E+00  0.00000000000E+00  0.45593999997E+02  0.45594000000E+02  0.51100000000E-03 0. -1.
         11   -1    0    0    0    0 -0.00000000000E+00 -0.00000000000E+00 -0.45593999997E+02  0.45594000000E+02  0.51100000000E-03 0.  1.
    9900012    2    1    2    0    0  0.26965505821E+02 -0.29914272325E+02  0.55824393116E+01  0.50528858081E+02  0.29999994624E+02 0.  0.
         12    1    1    2    0    0 -0.26965505821E+02  0.29914272325E+02 -0.55824393116E+01  0.40659141919E+02  0.00000000000E+00 0. -1.
         11    1    3    3    0    0  0.26595614279E+01 -0.89644054234E+01  0.68506026625E+01  0.11591574038E+02  0.51100000000E-03 0. -1.
        -11    1    3    3    0    0  0.15433968192E+02 -0.16551210847E+01  0.57767268076E+01  0.16562529180E+02  0.51100000000E-03 0.  1.
        -12    1    3    3    0    0  0.88719762007E+01 -0.19294745817E+02 -0.70448901585E+01  0.22374754863E+02  0.00000000000E+00 0.  1.
</event>
<event>
 7    1  0.1381607E-011  0.5052887E+02  0.7816164E-02  0.1300439E+00
        -11   -1    0    0    0    0  0.00000000000E+00  0.00000000000E+00  0.45593999997E+02  0.45594000000E+02  0.51100000000E-03 0. -1.
         11   -1    0    0    0    0 -0.00000000000E+00 -0.00000000000E+00 -0.45593999997E+02  0.45594000000E+02  0.51100000000E-03 0.  1.
    9900012    2    1    2    0    0  0.35240400795E+01 -0.40402979258E+02  0.28888719655E+01  0.50528866061E+02  0.30000018880E+02 0.  0.
         12    1    1    2    0    0 -0.35240400795E+01  0.40402979258E+02 -0.28888719655E+01  0.40659133939E+02  0.00000000000E+00 0. -1.
         11    1    3    3    0    0  0.26639140819E+01  0.30415526502E+01  0.37910763093E+00  0.40609362980E+01  0.51100000000E-03 0. -1.
        -11    1    3    3    0    0 -0.10611402556E+01 -0.16085156443E+02 -0.68119936652E+01  0.17500329551E+02  0.51100000000E-03 0.  1.
        -12    1    3    3    0    0  0.19212662532E+01 -0.27359375465E+02  0.93217579998E+01  0.28967600213E+02  0.00000000000E+00 0.  1.
</event>
<event>
 7    1  0.1381607E-011  0.5052888E+02  0.7816164E-02  0.1300439E+00
        -11   -1    0    0    0    0  0.00000000000E+00  0.00000000000E+00  0.45593999997E+02  0.45594000000E+02  0.51100000000E-03 0.  1.
         11   -1    0    0    0    0 -0.00000000000E+00 -0.00000000000E+00 -0.45593999997E+02  0.45594000000E+02  0.51100000000E-03 0. -1.
    9900012    2    1    2    0    0  0.15683305155E+02  0.35084622985E+02  0.13276561135E+02  0.50528881636E+02  0.30000066220E+02 0.  0.
         12    1    1    2    0    0 -0.15683305155E+02 -0.35084622985E+02 -0.13276561135E+02  0.40659118364E+02  0.00000000000E+00 0. -1.
         11    1    3    3    0    0  0.34756389417E+00  0.58736879865E+01 -0.76016070664E+01  0.96127749103E+01  0.51100000000E-03 0. -1.
        -11    1    3    3    0    0 -0.25276911548E+00  0.30120643784E+01 -0.12241822923E+01  0.32611419152E+01  0.51100000000E-03 0.  1.
        -12    1    3    3    0    0  0.15588510376E+02  0.26198870620E+02  0.22102350493E+02  0.37654964810E+02  0.00000000000E+00 0.  1.
</event>
<event>
 7    1  0.1381607E-011  0.5052888E+02  0.7816164E-02  0.1300439E+00
        -11   -1    0    0    0    0  0.00000000000E+00  0.00000000000E+00  0.45593999997E+02  0.45594000000E+02  0.51100000000E-03 0. -1.
         11   -1    0    0    0    0 -0.00000000000E+00 -0.00000000000E+00 -0.45593999997E+02  0.45594000000E+02  0.51100000000E-03 0.  1.
    9900012    2    1    2    0    0 -0.15588664404E+02 -0.27006040440E+02 -0.26092753083E+02  0.50528875052E+02  0.30000046207E+02 0.  0.
         12    1    1    2    0    0  0.15588664404E+02  0.27006040440E+02  0.26092753083E+02  0.40659124948E+02  0.00000000000E+00 0. -1.
         11    1    3    3    0    0  0.40709050174E+01 -0.40876732306E+01  0.12521801500E+01  0.59033291870E+01  0.51100000000E-03 0. -1.
        -11    1    3    3    0    0 -0.12690885271E+02 -0.19082976826E+02 -0.28517619194E+02  0.36585149696E+02  0.51100000000E-03 0.  1.
         12    1    3    3    0    0 -0.69686841505E+01 -0.38353903828E+01  0.11726859618E+01  0.80403961683E+01  0.00000000000E+00 0. -1.
</event>
<event>
 7    1  0.1381607E-011  0.5052886E+02  0.7816164E-02  0.1300439E+00
        -11   -1    0    0    0    0  0.00000000000E+00  0.00000000000E+00  0.45593999997E+02  0.45594000000E+02  0.51100000000E-03 0.  1.
         11   -1    0    0    0    0 -0.00000000000E+00 -0.00000000000E+00 -0.45593999997E+02  0.45594000000E+02  0.51100000000E-03 0. -1.
    9900012    2    1    2    0    0  0.17204029416E+02 -0.13432187860E+02  0.34303989733E+02  0.50528855759E+02  0.29999987564E+02 0.  0.
         12    1    1    2    0    0 -0.17204029416E+02  0.13432187860E+02 -0.34303989733E+02  0.40659144241E+02  0.00000000000E+00 0. -1.
         11    1    3    3    0    0 -0.23156123684E+00  0.43892041426E+01 -0.70354158012E-01  0.43958711969E+01  0.51100000000E-03 0. -1.
        -11    1    3    3    0    0  0.48875228867E+01  0.27434471748E+01  0.23954285885E+01  0.60952818436E+01  0.51100000000E-03 0.  1.
        -12    1    3    3    0    0  0.12548067766E+02 -0.20564839177E+02  0.31978915302E+02  0.40037702718E+02  0.00000000000E+00 0.  1.
</event>
<event>
 7    1  0.1381607E-011  0.5052887E+02  0.7816164E-02  0.1300439E+00
        -11   -1    0    0    0    0  0.00000000000E+00  0.00000000000E+00  0.45593999997E+02  0.45594000000E+02  0.51100000000E-03 0.  1.
         11   -1    0    0    0    0 -0.00000000000E+00 -0.00000000000E+00 -0.45593999997E+02  0.45594000000E+02  0.51100000000E-03 0. -1.
    9900012    2    1    2    0    0 -0.26657077964E+02 -0.27647148645E+02  0.13349157136E+02  0.50528872734E+02  0.30000039162E+02 0.  0.
         12    1    1    2    0    0  0.26657077964E+02  0.27647148645E+02 -0.13349157136E+02  0.40659127266E+02  0.00000000000E+00 0. -1.
         11    1    3    3    0    0 -0.88080197135E+01  0.27266509751E+01 -0.35881075442E+01  0.98939553680E+01  0.51100000000E-03 0. -1.
        -11    1    3    3    0    0 -0.17148252580E+02 -0.19752474987E+02  0.10439143101E+02  0.28163780705E+02  0.51100000000E-03 0.  1.
        -12    1    3    3    0    0 -0.70080567073E+00 -0.10621324634E+02  0.64981215794E+01  0.12471136661E+02  0.00000000000E+00 0.  1.
</event>
<event>
 7    1  0.1381607E-011  0.5052884E+02  0.7816164E-02  0.1300439E+00
        -11   -1    0    0    0    0  0.00000000000E+00  0.00000000000E+00  0.45593999997E+02  0.45594000000E+02  0.51100000000E-03 0.  1.
         11   -1    0    0    0    0 -0.00000000000E+00 -0.00000000000E+00 -0.45593999997E+02  0.45594000000E+02  0.51100000000E-03 0. -1.
    9900012    2    1    2    0    0  0.12880958259E+02  0.15725545268E+02  0.35212998572E+02  0.50528842015E+02  0.29999945789E+02 0.  0.
         12    1    1    2    0    0 -0.12880958259E+02 -0.15725545268E+02 -0.35212998572E+02  0.40659157985E+02  0.00000000000E+00 0. -1.
         11    1    3    3    0    0 -0.36182808581E+01  0.60081360473E+01  0.91626456373E+01  0.11538792418E+02  0.51100000000E-03 0. -1.
        -11    1    3    3    0    0  0.10015602125E+02  0.12021213408E+02  0.27790597685E+02  0.31892619486E+02  0.51100000000E-03 0.  1.
        -12    1    3    3    0    0  0.64836369929E+01 -0.23038041880E+01 -0.17402447504E+01  0.70974301112E+01  0.00000000000E+00 0.  1.
</event>
<event>
 7    1  0.1381607E-011  0.5052880E+02  0.7816164E-02  0.1300439E+00
        -11   -1    0    0    0    0  0.00000000000E+00  0.00000000000E+00  0.45593999997E+02  0.45594000000E+02  0.51100000000E-03 0.  1.
         11   -1    0    0    0    0 -0.00000000000E+00 -0.00000000000E+00 -0.45593999997E+02  0.45594000000E+02  0.51100000000E-03 0. -1.
    9900012    2    1    2    0    0  0.32840007570E+02 -0.60463168866E+01  0.23197979270E+02  0.50528803165E+02  0.29999827699E+02 0.  0.
         12    1    1    2    0    0 -0.32840007570E+02  0.60463168866E+01 -0.23197979270E+02  0.40659196835E+02  0.00000000000E+00 0. -1.
         11    1    3    3    0    0  0.75507941298E+01 -0.10037026025E+02  0.13667141936E+01  0.12634250724E+02  0.51100000000E-03 0. -1.
        -11    1    3    3    0    0  0.20164509771E+02 -0.31207136659E+01  0.20683250468E+02  0.29054141843E+02  0.51100000000E-03 0.  1.
         12    1    3    3    0    0  0.51247036693E+01  0.71114228039E+01  0.11480146087E+01  0.88404105977E+01  0.00000000000E+00 0. -1.
</event>
<event>
 7    1  0.1381607E-011  0.5052885E+02  0.7816164E-02  0.1300439E+00
        -11   -1    0    0    0    0  0.00000000000E+00  0.00000000000E+00  0.45593999997E+02  0.45594000000E+02  0.51100000000E-03 0.  1.
         11   -1    0    0    0    0 -0.00000000000E+00 -0.00000000000E+00 -0.45593999997E+02  0.45594000000E+02  0.51100000000E-03 0. -1.
    9900012    2    1    2    0    0 -0.31980744515E+02  0.11416773110E+02  0.22361925999E+02  0.50528850202E+02  0.29999970673E+02 0.  0.
         12    1    1    2    0    0  0.31980744515E+02 -0.11416773110E+02 -0.22361925999E+02  0.40659149798E+02  0.00000000000E+00 0. -1.
         11    1    3    3    0    0 -0.13604470997E+02 -0.23459562953E+01  0.55261455284E+01  0.14870219457E+02  0.51100000000E-03 0. -1.
        -11    1    3    3    0    0 -0.11858003139E+00 -0.51135818938E+01  0.19666873790E+01  0.54800219449E+01  0.51100000000E-03 0.  1.
        -12    1    3    3    0    0 -0.18257693487E+02  0.18876311300E+02  0.14869093091E+02  0.30178608800E+02  0.00000000000E+00 0.  1.
</event>
<event>
 7    1  0.1381607E-011  0.5052886E+02  0.7816164E-02  0.1300439E+00
        -11   -1    0    0    0    0  0.00000000000E+00  0.00000000000E+00  0.45593999997E+02  0.45594000000E+02  0.51100000000E-03 0.  1.
         11   -1    0    0    0    0 -0.00000000000E+00 -0.00000000000E+00 -0.45593999997E+02  0.45594000000E+02  0.51100000000E-03 0. -1.
    9900012    2    1    2    0    0  0.20958656497E+02  0.15193127624E+02  0.31353936406E+02  0.50528859118E+02  0.29999997775E+02 0.  0.
         12    1    1    2    0    0 -0.20958656497E+02 -0.15193127624E+02 -0.31353936406E+02  0.40659140882E+02  0.00000000000E+00 0. -1.
         11    1    3    3    0    0 -0.30310447293E+01  0.78539644896E+01  0.92120020266E+01  0.12479301741E+02  0.51100000000E-03 0. -1.
        -11    1    3    3    0    0  0.19707026882E+01 -0.44751341572E+01  0.36457707256E+00  0.49034081528E+01  0.51100000000E-03 0.  1.
        -12    1    3    3    0    0  0.22018998538E+02  0.11814297291E+02  0.21777357307E+02  0.33146149224E+02  0.00000000000E+00 0.  1.
</event>
<event>
 7    1  0.1381607E-011  0.5052886E+02  0.7816164E-02  0.1300439E+00
        -11   -1    0    0    0    0  0.00000000000E+00  0.00000000000E+00  0.45593999997E+02  0.45594000000E+02  0.51100000000E-03 0. -1.
         11   -1    0    0    0    0 -0.00000000000E+00 -0.00000000000E+00 -0.45593999997E+02  0.45594000000E+02  0.51100000000E-03 0.  1.
    9900012    2    1    2    0    0 -0.27590771082E+02 -0.26660747231E+02 -0.13458062645E+02  0.50528861520E+02  0.30000005075E+02 0.  0.
         12    1    1    2    0    0  0.27590771082E+02  0.26660747231E+02  0.13458062645E+02  0.40659138480E+02  0.00000000000E+00 0. -1.
         11    1    3    3    0    0 -0.34393794216E+01  0.31590223649E+01  0.11274098866E+01  0.48041447128E+01  0.51100000000E-03 0. -1.
        -11    1    3    3    0    0 -0.11591757840E+02 -0.14848456145E+02  0.34284473594E+01  0.19146794804E+02  0.51100000000E-03 0.  1.
        -12    1    3    3    0    0 -0.12559633820E+02 -0.14971313451E+02 -0.18013919891E+02  0.26577922003E+02  0.00000000000E+00 0.  1.
</event>
<event>
 7    1  0.1381607E-011  0.5052876E+02  0.7816164E-02  0.1300439E+00
        -11   -1    0    0    0    0  0.00000000000E+00  0.00000000000E+00  0.45593999997E+02  0.45594000000E+02  0.51100000000E-03 0.  1.
         11   -1    0    0    0    0 -0.00000000000E+00 -0.00000000000E+00 -0.45593999997E+02  0.45594000000E+02  0.51100000000E-03 0. -1.
    9900012    2    1    2    0    0 -0.25856516898E+02 -0.25431088887E+02 -0.18381349624E+02  0.50528760434E+02  0.29999697815E+02 0.  0.
         12    1    1    2    0    0  0.25856516898E+02  0.25431088887E+02  0.18381349624E+02  0.40659239566E+02  0.00000000000E+00 0. -1.
         11    1    3    3    0    0 -0.22096824954E+01  0.35646460026E+01 -0.31552283020E+00  0.42058236735E+01  0.51100000000E-03 0. -1.
        -11    1    3    3    0    0 -0.10513980059E+02 -0.86274031760E+01  0.33214088744E+01  0.14000272119E+02  0.51100000000E-03 0.  1.
         12    1    3    3    0    0 -0.13132854343E+02 -0.20368331713E+02 -0.21387235669E+02  0.32322664641E+02  0.00000000000E+00 0. -1.
</event>
<event>
 7    1  0.1381607E-011  0.5052882E+02  0.7816164E-02  0.1300439E+00
        -11   -1    0    0    0    0  0.00000000000E+00  0.00000000000E+00  0.45593999997E+02  0.45594000000E+02  0.51100000000E-03 0.  1.
         11   -1    0    0    0    0 -0.00000000000E+00 -0.00000000000E+00 -0.45593999997E+02  0.45594000000E+02  0.51100000000E-03 0. -1.
    9900012    2    1    2    0    0  0.24892189705E+02  0.21922328769E+02  0.23515093554E+02  0.50528816144E+02  0.29999867151E+02 0.  0.
         12    1    1    2    0    0 -0.24892189705E+02 -0.21922328769E+02 -0.23515093554E+02  0.40659183856E+02  0.00000000000E+00 0. -1.
         11    1    3    3    0    0 -0.15506392343E+01 -0.26732793708E+01  0.15978055901E+00  0.30945815092E+01  0.51100000000E-03 0. -1.
        -11    1    3    3    0    0  0.23087627614E+02  0.12642193733E+02  0.76443371454E+01  0.27409843157E+02  0.51100000000E-03 0.  1.
         12    1    3    3    0    0  0.33552013250E+01  0.11953414407E+02  0.15710975849E+02  0.20024391478E+02  0.00000000000E+00 0. -1.
</event>
<event>
 7    1  0.1381607E-011  0.5052885E+02  0.7816164E-02  0.1300439E+00
        -11   -1    0    0    0    0  0.00000000000E+00  0.00000000000E+00  0.45593999997E+02  0.45594000000E+02  0.51100000000E-03 0.  1.
         11   -1    0    0    0    0 -0.00000000000E+00 -0.00000000000E+00 -0.45593999997E+02  0.45594000000E+02  0.51100000000E-03 0. -1.
    9900012    2    1    2    0    0 -0.79113570486E+01  0.19378653464E+02  0.34857486875E+02  0.50528853776E+02  0.29999981538E+02 0.  0.
         12    1    1    2    0    0  0.79113570486E+01 -0.19378653464E+02 -0.34857486875E+02  0.40659146224E+02  0.00000000000E+00 0. -1.
         11    1    3    3    0    0 -0.63928310072E+01  0.11845928437E+02  0.16763634574E+02  0.21499157035E+02  0.51100000000E-03 0. -1.
        -11    1    3    3    0    0  0.24761470796E+01  0.13695955379E+02  0.66338043363E+01  0.15418101645E+02  0.51100000000E-03 0.  1.
         12    1    3    3    0    0 -0.39946731210E+01 -0.61632303517E+01  0.11460047964E+02  0.13611595096E+02  0.00000000000E+00 0. -1.
</event>
<event>
 7    1  0.1381607E-011  0.5052887E+02  0.7816164E-02  0.1300439E+00
        -11   -1    0    0    0    0  0.00000000000E+00  0.00000000000E+00  0.45593999997E+02  0.45594000000E+02  0.51100000000E-03 0.  1.
         11   -1    0    0    0    0 -0.00000000000E+00 -0.00000000000E+00 -0.45593999997E+02  0.45594000000E+02  0.51100000000E-03 0. -1.
    9900012    2    1    2    0    0  0.40156318710E+02  0.62068941790E+01 -0.14524517928E+01  0.50528867152E+02  0.30000022196E+02 0.  0.
         12    1    1    2    0    0 -0.40156318710E+02 -0.62068941790E+01  0.14524517928E+01  0.40659132848E+02  0.00000000000E+00 0. -1.
         11    1    3    3    0    0  0.65719669627E+01 -0.77791641672E+01  0.17494932661E+01  0.10332805614E+02  0.51100000000E-03 0. -1.
        -11    1    3    3    0    0  0.20890860198E+02  0.27959439515E+01 -0.80996487035E+01  0.22579850570E+02  0.51100000000E-03 0.  1.
         12    1    3    3    0    0  0.12693491550E+02  0.11190114395E+02  0.48977036446E+01  0.17616210968E+02  0.00000000000E+00 0. -1.
</event>
<event>
 7    1  0.1381607E-011  0.5052886E+02  0.7816164E-02  0.1300439E+00
        -11   -1    0    0    0    0  0.00000000000E+00  0.00000000000E+00  0.45593999997E+02  0.45594000000E+02  0.51100000000E-03 0. -1.
         11   -1    0    0    0    0 -0.00000000000E+00 -0.00000000000E+00 -0.45593999997E+02  0.45594000000E+02  0.51100000000E-03 0.  1.
    9900012    2    1    2    0    0 -0.11013606075E+02  0.39114691506E+02  0.13809910838E+01  0.50528859001E+02  0.29999997420E+02 0.  0.
         12    1    1    2    0    0  0.11013606075E+02 -0.39114691506E+02 -0.13809910838E+01  0.40659140999E+02  0.00000000000E+00 0. -1.
         11    1    3    3    0    0 -0.77339551729E+01  0.94806659981E+01  0.93877932905E+01  0.15421665069E+02  0.51100000000E-03 0. -1.
        -11    1    3    3    0    0 -0.37221233296E+01  0.11228118942E+01 -0.51458343553E+01  0.64493813737E+01  0.51100000000E-03 0.  1.
         12    1    3    3    0    0  0.44247242756E+00  0.28511213614E+02 -0.28609678513E+01  0.28657812558E+02  0.00000000000E+00 0. -1.
</event>
<event>
 7    1  0.1381607E-011  0.5052887E+02  0.7816164E-02  0.1300439E+00
        -11   -1    0    0    0    0  0.00000000000E+00  0.00000000000E+00  0.45593999997E+02  0.45594000000E+02  0.51100000000E-03 0. -1.
         11   -1    0    0    0    0 -0.00000000000E+00 -0.00000000000E+00 -0.45593999997E+02  0.45594000000E+02  0.51100000000E-03 0.  1.
    9900012    2    1    2    0    0 -0.15007048474E+02  0.14535934529E+02 -0.34880658315E+02  0.50528865466E+02  0.30000017071E+02 0.  0.
         12    1    1    2    0    0  0.15007048474E+02 -0.14535934529E+02  0.34880658315E+02  0.40659134534E+02  0.00000000000E+00 0. -1.
         11    1    3    3    0    0 -0.44507853705E+01  0.45193812480E+01 -0.25138681326E+02  0.25926580885E+02  0.51100000000E-03 0. -1.
        -11    1    3    3    0    0 -0.12504519855E+02  0.42096928892E+01 -0.12230740872E+02  0.17990985341E+02  0.51100000000E-03 0.  1.
         12    1    3    3    0    0  0.19482567512E+01  0.58068603916E+01  0.24887638826E+01  0.66112992399E+01  0.00000000000E+00 0. -1.
</event>
<event>
 7    1  0.1381607E-011  0.5052885E+02  0.7816164E-02  0.1300439E+00
        -11   -1    0    0    0    0  0.00000000000E+00  0.00000000000E+00  0.45593999997E+02  0.45594000000E+02  0.51100000000E-03 0.  1.
         11   -1    0    0    0    0 -0.00000000000E+00 -0.00000000000E+00 -0.45593999997E+02  0.45594000000E+02  0.51100000000E-03 0. -1.
    9900012    2    1    2    0    0 -0.34743866096E+02  0.10983522955E+02  0.18038645366E+02  0.50528846855E+02  0.29999960500E+02 0.  0.
         12    1    1    2    0    0  0.34743866096E+02 -0.10983522955E+02 -0.18038645366E+02  0.40659153145E+02  0.00000000000E+00 0. -1.
         11    1    3    3    0    0  0.89497935174E+00  0.62605222859E+01  0.10763521092E+02  0.12483930226E+02  0.51100000000E-03 0. -1.
        -11    1    3    3    0    0 -0.84493112222E+01  0.36170724116E+01 -0.17880754621E+01  0.93632946701E+01  0.51100000000E-03 0.  1.
        -12    1    3    3    0    0 -0.27189534226E+02  0.11059282575E+01  0.90631997368E+01  0.28681621959E+02  0.00000000000E+00 0.  1.
</event>
<event>
 7    1  0.1381607E-011  0.5052885E+02  0.7816164E-02  0.1300439E+00
        -11   -1    0    0    0    0  0.00000000000E+00  0.00000000000E+00  0.45593999997E+02  0.45594000000E+02  0.51100000000E-03 0.  1.
         11   -1    0    0    0    0 -0.00000000000E+00 -0.00000000000E+00 -0.45593999997E+02  0.45594000000E+02  0.51100000000E-03 0. -1.
    9900012    2    1    2    0    0 -0.11407817659E+02 -0.12197135627E+02  0.37070990992E+02  0.50528846118E+02  0.29999958260E+02 0.  0.
         12    1    1    2    0    0  0.11407817659E+02  0.12197135627E+02 -0.37070990992E+02  0.40659153882E+02  0.00000000000E+00 0. -1.
         11    1    3    3    0    0  0.92906120183E+01 -0.62935648469E+01  0.15998199236E+02  0.19541412672E+02  0.51100000000E-03 0. -1.
        -11    1    3    3    0    0 -0.30399318724E+01  0.16936102792E+01  0.28231463322E+01  0.44810330328E+01  0.51100000000E-03 0.  1.
         12    1    3    3    0    0 -0.17658497805E+02 -0.75971810596E+01  0.18249645424E+02  0.26506400413E+02  0.00000000000E+00 0. -1.
</event>
<event>
 7    1  0.1381607E-011  0.5052891E+02  0.7816164E-02  0.1300439E+00
        -11   -1    0    0    0    0  0.00000000000E+00  0.00000000000E+00  0.45593999997E+02  0.45594000000E+02  0.51100000000E-03 0.  1.
         11   -1    0    0    0    0 -0.00000000000E+00 -0.00000000000E+00 -0.45593999997E+02  0.45594000000E+02  0.51100000000E-03 0. -1.
    9900012    2    1    2    0    0  0.14675659116E-01  0.40416583139E+02  0.44340872481E+01  0.50528910761E+02  0.30000154748E+02 0.  0.
         12    1    1    2    0    0 -0.14675659116E-01 -0.40416583139E+02 -0.44340872481E+01  0.40659089239E+02  0.00000000000E+00 0. -1.
         11    1    3    3    0    0 -0.66259326876E+01  0.17501504796E+02  0.65573213165E+01  0.19829375109E+02  0.51100000000E-03 0.  1.
        -11    1    3    3    0    0  0.20836454288E+01 -0.32818233469E+01 -0.12911841363E+01  0.40962299116E+01  0.51100000000E-03 0. -1.
         12    1    3    3    0    0  0.45569629179E+01  0.26196901691E+02 -0.83204993201E+00  0.26603305740E+02  0.00000000000E+00 0. -1.
</event>
<event>
 7    1  0.1381607E-011  0.5052886E+02  0.7816164E-02  0.1300439E+00
        -11   -1    0    0    0    0  0.00000000000E+00  0.00000000000E+00  0.45593999997E+02  0.45594000000E+02  0.51100000000E-03 0.  1.
         11   -1    0    0    0    0 -0.00000000000E+00 -0.00000000000E+00 -0.45593999997E+02  0.45594000000E+02  0.51100000000E-03 0. -1.
    9900012    2    1    2    0    0 -0.13813210630E+02  0.59006355318E+01  0.37782847762E+02  0.50528857454E+02  0.29999992717E+02 0.  0.
         12    1    1    2    0    0  0.13813210630E+02 -0.59006355318E+01 -0.37782847762E+02  0.40659142546E+02  0.00000000000E+00 0. -1.
         11    1    3    3    0    0 -0.58151178589E+01 -0.99288872587E+01  0.90841549539E+01  0.14660159256E+02  0.51100000000E-03 0. -1.
        -11    1    3    3    0    0  0.12390916174E+01  0.24593540985E+01  0.12947575232E+02  0.13237200431E+02  0.51100000000E-03 0.  1.
        -12    1    3    3    0    0 -0.92371843883E+01  0.13370168692E+02  0.15751117576E+02  0.22631497767E+02  0.00000000000E+00 0.  1.
</event>
<event>
 7    1  0.1381607E-011  0.5052886E+02  0.7816164E-02  0.1300439E+00
        -11   -1    0    0    0    0  0.00000000000E+00  0.00000000000E+00  0.45593999997E+02  0.45594000000E+02  0.51100000000E-03 0. -1.
         11   -1    0    0    0    0 -0.00000000000E+00 -0.00000000000E+00 -0.45593999997E+02  0.45594000000E+02  0.51100000000E-03 0.  1.
    9900012    2    1    2    0    0 -0.27355339889E+02 -0.27802514925E+02  0.11483524599E+02  0.50528858423E+02  0.29999995662E+02 0.  0.
         12    1    1    2    0    0  0.27355339889E+02  0.27802514925E+02 -0.11483524599E+02  0.40659141577E+02  0.00000000000E+00 0. -1.
         11    1    3    3    0    0 -0.40952393501E+01 -0.38089051351E+01  0.80690488924E+01  0.98177540177E+01  0.51100000000E-03 0. -1.
        -11    1    3    3    0    0 -0.17877426992E+02 -0.21874176937E+02  0.11723761361E+02  0.30586411906E+02  0.51100000000E-03 0.  1.
        -12    1    3    3    0    0 -0.53826735467E+01 -0.21194328523E+01 -0.83092856545E+01  0.10124692500E+02  0.00000000000E+00 0.  1.
</event>
<event>
 7    1  0.1381607E-011  0.5052880E+02  0.7816164E-02  0.1300439E+00
        -11   -1    0    0    0    0  0.00000000000E+00  0.00000000000E+00  0.45593999997E+02  0.45594000000E+02  0.51100000000E-03 0. -1.
         11   -1    0    0    0    0 -0.00000000000E+00 -0.00000000000E+00 -0.45593999997E+02  0.45594000000E+02  0.51100000000E-03 0.  1.
    9900012    2    1    2    0    0  0.35585750276E+02 -0.17636101044E+02 -0.87058948023E+01  0.50528803167E+02  0.29999827707E+02 0.  0.
         12    1    1    2    0    0 -0.35585750276E+02  0.17636101044E+02  0.87058948023E+01  0.40659196833E+02  0.00000000000E+00 0. -1.
         11    1    3    3    0    0 -0.13622004130E+01 -0.51219545083E+01  0.43670636365E+01  0.68674051153E+01  0.51100000000E-03 0. -1.
        -11    1    3    3    0    0  0.12003946106E+02  0.23513174549E+01 -0.12021129401E+01  0.12290992298E+02  0.51100000000E-03 0.  1.
        -12    1    3    3    0    0  0.24944004584E+02 -0.14865463991E+02 -0.11870845499E+02  0.31370405754E+02  0.00000000000E+00 0.  1.
</event>
<event>
 7    1  0.1381607E-011  0.5052886E+02  0.7816164E-02  0.1300439E+00
        -11   -1    0    0    0    0  0.00000000000E+00  0.00000000000E+00  0.45593999997E+02  0.45594000000E+02  0.51100000000E-03 0.  1.
         11   -1    0    0    0    0 -0.00000000000E+00 -0.00000000000E+00 -0.45593999997E+02  0.45594000000E+02  0.51100000000E-03 0. -1.
    9900012    2    1    2    0    0 -0.31058880268E+02  0.18634001897E+02  0.18473927159E+02  0.50528855212E+02  0.29999985903E+02 0.  0.
         12    1    1    2    0    0  0.31058880268E+02 -0.18634001897E+02 -0.18473927159E+02  0.40659144788E+02  0.00000000000E+00 0. -1.
         11    1    3    3    0    0 -0.24839267054E+01 -0.67954098442E+00  0.32220691487E+01  0.41247300139E+01  0.51100000000E-03 0. -1.
        -11    1    3    3    0    0 -0.97165477445E+01  0.21800360214E+02  0.13193240370E+02  0.27271387887E+02  0.51100000000E-03 0.  1.
        -12    1    3    3    0    0 -0.18858405818E+02 -0.24868173330E+01  0.20586176412E+01  0.19132737312E+02  0.00000000000E+00 0.  1.
</event>
<event>
 7    1  0.1381607E-011  0.5052886E+02  0.7816164E-02  0.1300439E+00
        -11   -1    0    0    0    0  0.00000000000E+00  0.00000000000E+00  0.45593999997E+02  0.45594000000E+02  0.51100000000E-03 0.  1.
         11   -1    0    0    0    0 -0.00000000000E+00 -0.00000000000E+00 -0.45593999997E+02  0.45594000000E+02  0.51100000000E-03 0. -1.
    9900012    2    1    2    0    0  0.23475744550E+02  0.19211070747E+02  0.27073788179E+02  0.50528858005E+02  0.29999994391E+02 0.  0.
         12    1    1    2    0    0 -0.23475744550E+02 -0.19211070747E+02 -0.27073788179E+02  0.40659141995E+02  0.00000000000E+00 0. -1.
         11    1    3    3    0    0  0.10691957702E+02 -0.17866206156E+01  0.23176507927E+02  0.25586334100E+02  0.51100000000E-03 0. -1.
        -11    1    3    3    0    0  0.23114344862E+01  0.29295148060E+01  0.22472369458E+00  0.37383535658E+01  0.51100000000E-03 0.  1.
         12    1    3    3    0    0  0.10472352362E+02  0.18068176557E+02  0.36725565572E+01  0.21204170338E+02  0.00000000000E+00 0. -1.
</event>
<event>
 7    1  0.1381607E-011  0.5052889E+02  0.7816164E-02  0.1300439E+00
        -11   -1    0    0    0    0  0.00000000000E+00  0.00000000000E+00  0.45593999997E+02  0.45594000000E+02  0.51100000000E-03 0.  1.
         11   -1    0    0    0    0 -0.00000000000E+00 -0.00000000000E+00 -0.45593999997E+02  0.45594000000E+02  0.51100000000E-03 0. -1.
    9900012    2    1    2    0    0  0.13760639371E+02  0.30768318497E+02  0.22740242932E+02  0.50528889488E+02  0.30000090086E+02 0.  0.
         12    1    1    2    0    0 -0.13760639371E+02 -0.30768318497E+02 -0.22740242932E+02  0.40659110512E+02  0.00000000000E+00 0. -1.
         11    1    3    3    0    0  0.24521414016E+01  0.90583214092E+01  0.75433777120E+01  0.12040296166E+02  0.51100000000E-03 0. -1.
        -11    1    3    3    0    0  0.19862691563E+01  0.25025756476E+02  0.13314717466E+02  0.28416816391E+02  0.51100000000E-03 0.  1.
         12    1    3    3    0    0  0.93222288129E+01 -0.33157593879E+01  0.18821477543E+01  0.10071776930E+02  0.00000000000E+00 0. -1.
</event>
<event>
 7    1  0.1381607E-011  0.5052886E+02  0.7816164E-02  0.1300439E+00
        -11   -1    0    0    0    0  0.00000000000E+00  0.00000000000E+00  0.45593999997E+02  0.45594000000E+02  0.51100000000E-03 0.  1.
         11   -1    0    0    0    0 -0.00000000000E+00 -0.00000000000E+00 -0.45593999997E+02  0.45594000000E+02  0.51100000000E-03 0. -1.
    9900012    2    1    2    0    0 -0.51719568751E+01  0.10993310700E+01  0.40313870369E+02  0.50528858213E+02  0.29999995024E+02 0.  0.
         12    1    1    2    0    0  0.51719568751E+01 -0.10993310700E+01 -0.40313870369E+02  0.40659141787E+02  0.00000000000E+00 0. -1.
         11    1    3    3    0    0 -0.96495804435E+00  0.26292578385E+01  0.34859625883E+01  0.44716972434E+01  0.51100000000E-03 0. -1.
        -11    1    3    3    0    0 -0.82677124090E+01  0.10849273138E+02  0.12704165834E+02  0.18640215286E+02  0.51100000000E-03 0.  1.
         12    1    3    3    0    0  0.40607135782E+01 -0.12379199907E+02  0.24123741947E+02  0.27416945684E+02  0.00000000000E+00 0. -1.
</event>
<event>
 7    1  0.1381607E-011  0.5052885E+02  0.7816164E-02  0.1300439E+00
        -11   -1    0    0    0    0  0.00000000000E+00  0.00000000000E+00  0.45593999997E+02  0.45594000000E+02  0.51100000000E-03 0.  1.
         11   -1    0    0    0    0 -0.00000000000E+00 -0.00000000000E+00 -0.45593999997E+02  0.45594000000E+02  0.51100000000E-03 0. -1.
    9900012    2    1    2    0    0 -0.17428875207E+02 -0.14144723423E+01  0.36706944455E+02  0.50528853498E+02  0.29999980694E+02 0.  0.
         12    1    1    2    0    0  0.17428875207E+02  0.14144723423E+01 -0.36706944455E+02  0.40659146502E+02  0.00000000000E+00 0. -1.
         11    1    3    3    0    0 -0.51358926264E+01 -0.10831148652E+01  0.42883607284E+01  0.67779472467E+01  0.51100000000E-03 0. -1.
        -11    1    3    3    0    0 -0.21867726712E+01  0.47187647512E+01  0.32026829291E+02  0.32446363590E+02  0.51100000000E-03 0.  1.
         12    1    3    3    0    0 -0.10106209910E+02 -0.50501222284E+01  0.39175443599E+00  0.11304542662E+02  0.00000000000E+00 0. -1.
</event>
<event>
 7    1  0.1381607E-011  0.5052887E+02  0.7816164E-02  0.1300439E+00
        -11   -1    0    0    0    0  0.00000000000E+00  0.00000000000E+00  0.45593999997E+02  0.45594000000E+02  0.51100000000E-03 0.  1.
         11   -1    0    0    0    0 -0.00000000000E+00 -0.00000000000E+00 -0.45593999997E+02  0.45594000000E+02  0.51100000000E-03 0. -1.
    9900012    2    1    2    0    0 -0.28568711439E+02 -0.28258880888E+02  0.61991059480E+01  0.50528873880E+02  0.30000042644E+02 0.  0.
         12    1    1    2    0    0  0.28568711439E+02  0.28258880888E+02 -0.61991059480E+01  0.40659126120E+02  0.00000000000E+00 0. -1.
         11    1    3    3    0    0 -0.14194615761E+02 -0.15187059751E+01 -0.32765173478E+01  0.14646813669E+02  0.51100000000E-03 0. -1.
        -11    1    3    3    0    0  0.26778842920E+01 -0.29060443048E+01  0.47806179892E+01  0.62024564813E+01  0.51100000000E-03 0.  1.
        -12    1    3    3    0    0 -0.17051979970E+02 -0.23834130608E+02  0.46950053065E+01  0.29679603730E+02  0.00000000000E+00 0.  1.
</event>
<event>
 7    1  0.1381607E-011  0.5052887E+02  0.7816164E-02  0.1300439E+00
        -11   -1    0    0    0    0  0.00000000000E+00  0.00000000000E+00  0.45593999997E+02  0.45594000000E+02  0.51100000000E-03 0.  1.
         11   -1    0    0    0    0 -0.00000000000E+00 -0.00000000000E+00 -0.45593999997E+02  0.45594000000E+02  0.51100000000E-03 0. -1.
    9900012    2    1    2    0    0 -0.25282981268E+02  0.27441032796E+02  0.16153180267E+02  0.50528872422E+02  0.30000038213E+02 0.  0.
         12    1    1    2    0    0  0.25282981268E+02 -0.27441032796E+02 -0.16153180267E+02  0.40659127578E+02  0.00000000000E+00 0. -1.
         11    1    3    3    0    0 -0.12571436794E+02  0.25712967059E+02  0.61728012207E+01  0.29279705826E+02  0.51100000000E-03 0. -1.
        -11    1    3    3    0    0 -0.56839951272E+01  0.62815127700E+01  0.96891604032E+01  0.12870315958E+02  0.51100000000E-03 0.  1.
        -12    1    3    3    0    0 -0.70275493468E+01 -0.45534470336E+01  0.29121864287E+00  0.83788506376E+01  0.00000000000E+00 0.  1.
</event>
<event>
 7    1  0.1381607E-011  0.5052886E+02  0.7816164E-02  0.1300439E+00
        -11   -1    0    0    0    0  0.00000000000E+00  0.00000000000E+00  0.45593999997E+02  0.45594000000E+02  0.51100000000E-03 0.  1.
         11   -1    0    0    0    0 -0.00000000000E+00 -0.00000000000E+00 -0.45593999997E+02  0.45594000000E+02  0.51100000000E-03 0. -1.
    9900012    2    1    2    0    0  0.27234359658E+02  0.21636861732E+02  0.21054723531E+02  0.50528861856E+02  0.30000006098E+02 0.  0.
         12    1    1    2    0    0 -0.27234359658E+02 -0.21636861732E+02 -0.21054723531E+02  0.40659138144E+02  0.00000000000E+00 0. -1.
         11    1    3    3    0    0 -0.39264897980E+01  0.18760241468E+00 -0.27000252536E+01  0.47689258152E+01  0.51100000000E-03 0. -1.
        -11    1    3    3    0    0  0.31021088173E+01  0.18969962340E+01  0.65154229063E+01  0.74613946240E+01  0.51100000000E-03 0.  1.
         12    1    3    3    0    0  0.28058740639E+02  0.19552263084E+02  0.17239325879E+02  0.38298541417E+02  0.00000000000E+00 0. -1.
</event>
<event>
 7    1  0.1381607E-011  0.5052886E+02  0.7816164E-02  0.1300439E+00
        -11   -1    0    0    0    0  0.00000000000E+00  0.00000000000E+00  0.45593999997E+02  0.45594000000E+02  0.51100000000E-03 0.  1.
         11   -1    0    0    0    0 -0.00000000000E+00 -0.00000000000E+00 -0.45593999997E+02  0.45594000000E+02  0.51100000000E-03 0. -1.
    9900012    2    1    2    0    0 -0.23673875297E+02 -0.30967478475E+02  0.11564103660E+02  0.50528860952E+02  0.30000003349E+02 0.  0.
         12    1    1    2    0    0  0.23673875297E+02  0.30967478475E+02 -0.11564103660E+02  0.40659139048E+02  0.00000000000E+00 0. -1.
         11    1    3    3    0    0  0.60129013349E-01  0.44269440022E+00 -0.19833708233E+01  0.20330651524E+01  0.51100000000E-03 0. -1.
        -11    1    3    3    0    0 -0.57320985833E+01 -0.93285706578E+01 -0.73293867512E+01  0.13175700934E+02  0.51100000000E-03 0.  1.
        -12    1    3    3    0    0 -0.18001905727E+02 -0.22081602218E+02  0.20876861234E+02  0.35320094865E+02  0.00000000000E+00 0.  1.
</event>
<event>
 7    1  0.1381607E-011  0.5052886E+02  0.7816164E-02  0.1300439E+00
        -11   -1    0    0    0    0  0.00000000000E+00  0.00000000000E+00  0.45593999997E+02  0.45594000000E+02  0.51100000000E-03 0.  1.
         11   -1    0    0    0    0 -0.00000000000E+00 -0.00000000000E+00 -0.45593999997E+02  0.45594000000E+02  0.51100000000E-03 0. -1.
    9900012    2    1    2    0    0 -0.80957962283E+01 -0.11445048243E+02  0.38165885295E+02  0.50528857778E+02  0.29999993702E+02 0.  0.
         12    1    1    2    0    0  0.80957962283E+01  0.11445048243E+02 -0.38165885295E+02  0.40659142222E+02  0.00000000000E+00 0. -1.
         11    1    3    3    0    0 -0.23131004112E+01 -0.33363674656E+01 -0.31872966031E+01  0.51614572821E+01  0.51100000000E-03 0. -1.
        -11    1    3    3    0    0 -0.46787829728E-01  0.28012964304E+01  0.70154719320E+00  0.28881861985E+01  0.51100000000E-03 0.  1.
        -12    1    3    3    0    0 -0.57359079873E+01 -0.10909977207E+02  0.40651634705E+02  0.42479214297E+02  0.00000000000E+00 0.  1.
</event>
<event>
 7    1  0.1381607E-011  0.5052886E+02  0.7816164E-02  0.1300439E+00
        -11   -1    0    0    0    0  0.00000000000E+00  0.00000000000E+00  0.45593999997E+02  0.45594000000E+02  0.51100000000E-03 0. -1.
         11   -1    0    0    0    0 -0.00000000000E+00 -0.00000000000E+00 -0.45593999997E+02  0.45594000000E+02  0.51100000000E-03 0.  1.
    9900012    2    1    2    0    0  0.20566121198E+02  0.28457399741E+02 -0.20503086349E+02  0.50528862146E+02  0.30000006980E+02 0.  0.
         12    1    1    2    0    0 -0.20566121198E+02 -0.28457399741E+02  0.20503086349E+02  0.40659137854E+02  0.00000000000E+00 0. -1.
         11    1    3    3    0    0  0.16680322042E+02  0.24708259237E+02 -0.73999929704E+01  0.30716300463E+02  0.51100000000E-03 0. -1.
        -11    1    3    3    0    0  0.69256116763E+01  0.73617086506E+01 -0.95282767564E+01  0.13890533091E+02  0.51100000000E-03 0.  1.
         12    1    3    3    0    0 -0.30398125196E+01 -0.36125681460E+01 -0.35748166219E+01  0.59220285920E+01  0.00000000000E+00 0. -1.
</event>
<event>
 7    1  0.1381607E-011  0.5052886E+02  0.7816164E-02  0.1300439E+00
        -11   -1    0    0    0    0  0.00000000000E+00  0.00000000000E+00  0.45593999997E+02  0.45594000000E+02  0.51100000000E-03 0. -1.
         11   -1    0    0    0    0 -0.00000000000E+00 -0.00000000000E+00 -0.45593999997E+02  0.45594000000E+02  0.51100000000E-03 0.  1.
    9900012    2    1    2    0    0 -0.43515730106E+01  0.23696611060E+01 -0.40356094487E+02  0.50528857809E+02  0.29999993796E+02 0.  0.
         12    1    1    2    0    0  0.43515730106E+01 -0.23696611060E+01  0.40356094487E+02  0.40659142191E+02  0.00000000000E+00 0. -1.
         11    1    3    3    0    0 -0.54886401337E+01  0.11288696684E+01 -0.34817683016E+02  0.35265713776E+02  0.51100000000E-03 0. -1.
        -11    1    3    3    0    0 -0.58093429929E+01 -0.99571911399E+00 -0.53547713660E+01  0.79632593331E+01  0.51100000000E-03 0.  1.
         12    1    3    3    0    0  0.69464101160E+01  0.22365105516E+01 -0.18364010532E+00  0.72998847002E+01  0.00000000000E+00 0. -1.
</event>
<event>
 7    1  0.1381607E-011  0.5052886E+02  0.7816164E-02  0.1300439E+00
        -11   -1    0    0    0    0  0.00000000000E+00  0.00000000000E+00  0.45593999997E+02  0.45594000000E+02  0.51100000000E-03 0.  1.
         11   -1    0    0    0    0 -0.00000000000E+00 -0.00000000000E+00 -0.45593999997E+02  0.45594000000E+02  0.51100000000E-03 0. -1.
    9900012    2    1    2    0    0 -0.57039970953E+01  0.12838547341E+02  0.38154966045E+02  0.50528864315E+02  0.30000013573E+02 0.  0.
         12    1    1    2    0    0  0.57039970953E+01 -0.12838547341E+02 -0.38154966045E+02  0.40659135685E+02  0.00000000000E+00 0. -1.
         11    1    3    3    0    0 -0.12510899737E+02  0.34953539410E+01  0.16855174366E+02  0.21279967448E+02  0.51100000000E-03 0. -1.
        -11    1    3    3    0    0  0.79314599029E+00  0.12266397436E+01  0.18781291584E+02  0.18838010496E+02  0.51100000000E-03 0.  1.
        -12    1    3    3    0    0  0.60137566511E+01  0.81165536567E+01  0.25185000954E+01  0.10410886372E+02  0.00000000000E+00 0.  1.
</event>
<event>
 7    1  0.1381607E-011  0.5052882E+02  0.7816164E-02  0.1300439E+00
        -11   -1    0    0    0    0  0.00000000000E+00  0.00000000000E+00  0.45593999997E+02  0.45594000000E+02  0.51100000000E-03 0.  1.
         11   -1    0    0    0    0 -0.00000000000E+00 -0.00000000000E+00 -0.45593999997E+02  0.45594000000E+02  0.51100000000E-03 0. -1.
    9900012    2    1    2    0    0  0.34288154604E+01 -0.96018342291E+00  0.40502967937E+02  0.50528817281E+02  0.29999870607E+02 0.  0.
         12    1    1    2    0    0 -0.34288154604E+01  0.96018342291E+00 -0.40502967937E+02  0.40659182719E+02  0.00000000000E+00 0. -1.
         11    1    3    3    0    0  0.10170868433E+02  0.24808900586E+01  0.15108760383E+02  0.18381404210E+02  0.51100000000E-03 0. -1.
        -11    1    3    3    0    0  0.31385870259E+01  0.36876934789E+01  0.10950327318E+01  0.49647667275E+01  0.51100000000E-03 0.  1.
         12    1    3    3    0    0 -0.98806399989E+01 -0.71287669604E+01  0.24299174822E+02  0.27182646343E+02  0.00000000000E+00 0. -1.
</event>
<event>
 7    1  0.1381607E-011  0.5052879E+02  0.7816164E-02  0.1300439E+00
        -11   -1    0    0    0    0  0.00000000000E+00  0.00000000000E+00  0.45593999997E+02  0.45594000000E+02  0.51100000000E-03 0.  1.
         11   -1    0    0    0    0 -0.00000000000E+00 -0.00000000000E+00 -0.45593999997E+02  0.45594000000E+02  0.51100000000E-03 0. -1.
    9900012    2    1    2    0    0  0.32830765016E+02  0.64604227362E+01  0.23099237641E+02  0.50528794732E+02  0.29999802066E+02 0.  0.
         12    1    1    2    0    0 -0.32830765016E+02 -0.64604227362E+01 -0.23099237641E+02  0.40659205268E+02  0.00000000000E+00 0. -1.
         11    1    3    3    0    0  0.20209545973E+02  0.35575180778E+01  0.19050016829E+02  0.27999729013E+02  0.51100000000E-03 0. -1.
        -11    1    3    3    0    0  0.15149374415E+02  0.74567645123E+01  0.23357781078E+01  0.17045901026E+02  0.51100000000E-03 0.  1.
         12    1    3    3    0    0 -0.25281553721E+01 -0.45538598539E+01  0.17134427043E+01  0.54831646934E+01  0.00000000000E+00 0. -1.
</event>
<event>
 7    1  0.1381607E-011  0.5052883E+02  0.7816164E-02  0.1300439E+00
        -11   -1    0    0    0    0  0.00000000000E+00  0.00000000000E+00  0.45593999997E+02  0.45594000000E+02  0.51100000000E-03 0.  1.
         11   -1    0    0    0    0 -0.00000000000E+00 -0.00000000000E+00 -0.45593999997E+02  0.45594000000E+02  0.51100000000E-03 0. -1.
    9900012    2    1    2    0    0  0.26175174449E+02 -0.45106885040E+01  0.30784447621E+02  0.50528827805E+02  0.29999902597E+02 0.  0.
         12    1    1    2    0    0 -0.26175174449E+02  0.45106885040E+01 -0.30784447621E+02  0.40659172195E+02  0.00000000000E+00 0. -1.
         11    1    3    3    0    0  0.19244398911E+02  0.87146998772E+01  0.13811622601E+02  0.25239924773E+02  0.51100000000E-03 0. -1.
        -11    1    3    3    0    0  0.86706279247E+01 -0.78921535760E+01  0.15597778513E+02  0.19512984689E+02  0.51100000000E-03 0.  1.
        -12    1    3    3    0    0 -0.17398523866E+01 -0.53332348052E+01  0.13750465068E+01  0.57759183435E+01  0.00000000000E+00 0.  1.
</event>
<event>
 7    1  0.1381607E-011  0.5052890E+02  0.7816164E-02  0.1300439E+00
        -11   -1    0    0    0    0  0.00000000000E+00  0.00000000000E+00  0.45593999997E+02  0.45594000000E+02  0.51100000000E-03 0.  1.
         11   -1    0    0    0    0 -0.00000000000E+00 -0.00000000000E+00 -0.45593999997E+02  0.45594000000E+02  0.51100000000E-03 0. -1.
    9900012    2    1    2    0    0 -0.36360858886E+02 -0.83088738571E+01  0.16186809285E+02  0.50528902143E+02  0.30000128553E+02 0.  0.
         12    1    1    2    0    0  0.36360858886E+02  0.83088738571E+01 -0.16186809285E+02  0.40659097857E+02  0.00000000000E+00 0. -1.
         11    1    3    3    0    0 -0.18725118136E+02 -0.37382740341E+01 -0.47830752895E+01  0.19684576486E+02  0.51100000000E-03 0. -1.
        -11    1    3    3    0    0  0.18486240048E+01 -0.12020912378E+01  0.27610900306E+00  0.22223119713E+01  0.51100000000E-03 0.  1.
        -12    1    3    3    0    0 -0.19484364755E+02 -0.33685085852E+01  0.20693775572E+02  0.28622013686E+02  0.00000000000E+00 0.  1.
</event>
<event>
 7    1  0.1381607E-011  0.5052887E+02  0.7816164E-02  0.1300439E+00
        -11   -1    0    0    0    0  0.00000000000E+00  0.00000000000E+00  0.45593999997E+02  0.45594000000E+02  0.51100000000E-03 0. -1.
         11   -1    0    0    0    0 -0.00000000000E+00 -0.00000000000E+00 -0.45593999997E+02  0.45594000000E+02  0.51100000000E-03 0.  1.
    9900012    2    1    2    0    0 -0.36574223795E+02  0.16243446058E+02 -0.71861745618E+01  0.50528874445E+02  0.30000044363E+02 0.  0.
         12    1    1    2    0    0  0.36574223795E+02 -0.16243446058E+02  0.71861745618E+01  0.40659125555E+02  0.00000000000E+00 0. -1.
         11    1    3    3    0    0 -0.21566081355E+02  0.14630207582E+02 -0.41458060565E+01  0.26388000057E+02  0.51100000000E-03 0. -1.
        -11    1    3    3    0    0 -0.17421588283E+02  0.52110680714E+01 -0.57007554280E+01  0.19056903774E+02  0.51100000000E-03 0.  1.
        -12    1    3    3    0    0  0.24134458425E+01 -0.35978295948E+01  0.26603869227E+01  0.50839706143E+01  0.00000000000E+00 0.  1.
</event>
<event>
 7    1  0.1381607E-011  0.5052885E+02  0.7816164E-02  0.1300439E+00
        -11   -1    0    0    0    0  0.00000000000E+00  0.00000000000E+00  0.45593999997E+02  0.45594000000E+02  0.51100000000E-03 0.  1.
         11   -1    0    0    0    0 -0.00000000000E+00 -0.00000000000E+00 -0.45593999997E+02  0.45594000000E+02  0.51100000000E-03 0. -1.
    9900012    2    1    2    0    0  0.53906540862E+00 -0.32673886264E+02  0.24192827424E+02  0.50528851782E+02  0.29999975476E+02 0.  0.
         12    1    1    2    0    0 -0.53906540862E+00  0.32673886264E+02 -0.24192827424E+02  0.40659148218E+02  0.00000000000E+00 0. -1.
         11    1    3    3    0    0  0.59423335209E+01 -0.26795676224E+01  0.85063429076E+01  0.10716775646E+02  0.51100000000E-03 0. -1.
        -11    1    3    3    0    0  0.25503456900E+01 -0.99654293714E+01 -0.35933856534E+01  0.10896167510E+02  0.51100000000E-03 0.  1.
         12    1    3    3    0    0 -0.79536138023E+01 -0.20028889270E+02  0.19279870170E+02  0.28915908626E+02  0.00000000000E+00 0. -1.
</event>
<event>
 7    1  0.1381607E-011  0.5052886E+02  0.7816164E-02  0.1300439E+00
        -11   -1    0    0    0    0  0.00000000000E+00  0.00000000000E+00  0.45593999997E+02  0.45594000000E+02  0.51100000000E-03 0.  1.
         11   -1    0    0    0    0 -0.00000000000E+00 -0.00000000000E+00 -0.45593999997E+02  0.45594000000E+02  0.51100000000E-03 0. -1.
    9900012    2    1    2    0    0 -0.61183172163E+01  0.31919373059E+00  0.40194896061E+02  0.50528863763E+02  0.30000011893E+02 0.  0.
         12    1    1    2    0    0  0.61183172163E+01 -0.31919373059E+00 -0.40194896061E+02  0.40659136237E+02  0.00000000000E+00 0. -1.
         11    1    3    3    0    0 -0.73755327883E+01  0.25129728151E+01  0.17423499524E+02  0.19086431101E+02  0.51100000000E-03 0. -1.
        -11    1    3    3    0    0  0.76314478247E+00 -0.11884261641E+02  0.13793745985E+02  0.18223213033E+02  0.51100000000E-03 0.  1.
         12    1    3    3    0    0  0.49407078948E+00  0.96904825562E+01  0.89776505528E+01  0.13219219628E+02  0.00000000000E+00 0. -1.
</event>
<event>
 7    1  0.1381607E-011  0.5052887E+02  0.7816164E-02  0.1300439E+00
        -11   -1    0    0    0    0  0.00000000000E+00  0.00000000000E+00  0.45593999997E+02  0.45594000000E+02  0.51100000000E-03 0.  1.
         11   -1    0    0    0    0 -0.00000000000E+00 -0.00000000000E+00 -0.45593999997E+02  0.45594000000E+02  0.51100000000E-03 0. -1.
    9900012    2    1    2    0    0  0.22017031696E+02 -0.30993556954E+02 -0.14415784623E+02  0.50528866909E+02  0.30000021457E+02 0.  0.
         12    1    1    2    0    0 -0.22017031696E+02  0.30993556954E+02  0.14415784623E+02  0.40659133091E+02  0.00000000000E+00 0. -1.
         11    1    3    3    0    0 -0.32971099805E+01 -0.98380266157E+01  0.29801327962E+01  0.10795318136E+02  0.51100000000E-03 0. -1.
        -11    1    3    3    0    0  0.26102716383E+01  0.17033900270E+01  0.47395475134E-02  0.31169020412E+01  0.51100000000E-03 0.  1.
         12    1    3    3    0    0  0.22703870038E+02 -0.22858920366E+02 -0.17400656967E+02  0.36616646732E+02  0.00000000000E+00 0. -1.
</event>
<event>
 7    1  0.1381607E-011  0.5052886E+02  0.7816164E-02  0.1300439E+00
        -11   -1    0    0    0    0  0.00000000000E+00  0.00000000000E+00  0.45593999997E+02  0.45594000000E+02  0.51100000000E-03 0. -1.
         11   -1    0    0    0    0 -0.00000000000E+00 -0.00000000000E+00 -0.45593999997E+02  0.45594000000E+02  0.51100000000E-03 0.  1.
    9900012    2    1    2    0    0 -0.12131645603E+02 -0.46685764425E+01  0.38525225580E+02  0.50528862810E+02  0.30000008996E+02 0.  0.
         12    1    1    2    0    0  0.12131645603E+02  0.46685764425E+01 -0.38525225580E+02  0.40659137190E+02  0.00000000000E+00 0. -1.
         11    1    3    3    0    0 -0.11701523787E+02 -0.64586275889E+01  0.35442003053E+01  0.13827540827E+02  0.51100000000E-03 0. -1.
        -11    1    3    3    0    0 -0.49363264491E+01  0.14489160234E+00  0.88592247998E+01  0.10142690802E+02  0.51100000000E-03 0.  1.
         12    1    3    3    0    0  0.45062046328E+01  0.16451595440E+01  0.26121800475E+02  0.26558631181E+02  0.00000000000E+00 0. -1.
</event>
<event>
 7    1  0.1381607E-011  0.5052886E+02  0.7816164E-02  0.1300439E+00
        -11   -1    0    0    0    0  0.00000000000E+00  0.00000000000E+00  0.45593999997E+02  0.45594000000E+02  0.51100000000E-03 0.  1.
         11   -1    0    0    0    0 -0.00000000000E+00 -0.00000000000E+00 -0.45593999997E+02  0.45594000000E+02  0.51100000000E-03 0. -1.
    9900012    2    1    2    0    0 -0.13576996801E+02  0.73977344772E+01  0.37604575739E+02  0.50528862847E+02  0.30000009108E+02 0.  0.
         12    1    1    2    0    0  0.13576996801E+02 -0.73977344772E+01 -0.37604575739E+02  0.40659137153E+02  0.00000000000E+00 0. -1.
         11    1    3    3    0    0  0.51401088772E+01  0.46460161924E+01  0.72538558964E+01  0.10031181952E+02  0.51100000000E-03 0. -1.
        -11    1    3    3    0    0 -0.12666114032E+02  0.58303785524E+01  0.59324125843E+01  0.15153127667E+02  0.51100000000E-03 0.  1.
        -12    1    3    3    0    0 -0.60509916455E+01 -0.30786602676E+01  0.24418307259E+02  0.25344553228E+02  0.00000000000E+00 0.  1.
</event>
<event>
 7    1  0.1381607E-011  0.5052885E+02  0.7816164E-02  0.1300439E+00
        -11   -1    0    0    0    0  0.00000000000E+00  0.00000000000E+00  0.45593999997E+02  0.45594000000E+02  0.51100000000E-03 0.  1.
         11   -1    0    0    0    0 -0.00000000000E+00 -0.00000000000E+00 -0.45593999997E+02  0.45594000000E+02  0.51100000000E-03 0. -1.
    9900012    2    1    2    0    0  0.33829312687E+02 -0.22554760007E+02  0.16469803194E+00  0.50528847017E+02  0.29999960992E+02 0.  0.
         12    1    1    2    0    0 -0.33829312687E+02  0.22554760007E+02 -0.16469803194E+00  0.40659152983E+02  0.00000000000E+00 0. -1.
         11    1    3    3    0    0  0.15702960168E+02 -0.41635893238E+00  0.72628728765E+00  0.15725260134E+02  0.51100000000E-03 0. -1.
        -11    1    3    3    0    0  0.18323035603E+02 -0.25483952010E+02  0.10038847062E+00  0.31387505824E+02  0.51100000000E-03 0.  1.
         12    1    3    3    0    0 -0.19668308338E+00  0.33455509348E+01 -0.66197772633E+00  0.34160810591E+01  0.00000000000E+00 0. -1.
</event>
<event>
 7    1  0.1381607E-011  0.5052886E+02  0.7816164E-02  0.1300439E+00
        -11   -1    0    0    0    0  0.00000000000E+00  0.00000000000E+00  0.45593999997E+02  0.45594000000E+02  0.51100000000E-03 0.  1.
         11   -1    0    0    0    0 -0.00000000000E+00 -0.00000000000E+00 -0.45593999997E+02  0.45594000000E+02  0.51100000000E-03 0. -1.
    9900012    2    1    2    0    0 -0.37690702736E+02  0.41022715366E+01  0.14688354539E+02  0.50528862484E+02  0.30000008006E+02 0.  0.
         12    1    1    2    0    0  0.37690702736E+02 -0.41022715366E+01 -0.14688354539E+02  0.40659137516E+02  0.00000000000E+00 0. -1.
         11    1    3    3    0    0 -0.10009674235E+02 -0.59868198940E+01 -0.37923409810E+01  0.12264478836E+02  0.51100000000E-03 0. -1.
        -11    1    3    3    0    0 -0.18269907718E+02 -0.14782805864E+01  0.77917120847E+01  0.19916968117E+02  0.51100000000E-03 0.  1.
         12    1    3    3    0    0 -0.94111207829E+01  0.11567372017E+02  0.10688983435E+02  0.18347415531E+02  0.00000000000E+00 0. -1.
</event>
<event>
 7    1  0.1381607E-011  0.5052896E+02  0.7816164E-02  0.1300438E+00
        -11   -1    0    0    0    0  0.00000000000E+00  0.00000000000E+00  0.45593999997E+02  0.45594000000E+02  0.51100000000E-03 0. -1.
         11   -1    0    0    0    0 -0.00000000000E+00 -0.00000000000E+00 -0.45593999997E+02  0.45594000000E+02  0.51100000000E-03 0.  1.
    9900012    2    1    2    0    0  0.37411654462E+02 -0.64497471195E+01 -0.14557698124E+02  0.50528957929E+02  0.30000298119E+02 0.  0.
         12    1    1    2    0    0 -0.37411654462E+02  0.64497471195E+01  0.14557698124E+02  0.40659042071E+02  0.00000000000E+00 0. -1.
         11    1    3    3    0    0 -0.10897096399E+01 -0.14818576713E+01 -0.41611694674E+01  0.45495824924E+01  0.51100000000E-03 0. -1.
        -11    1    3    3    0    0  0.16801138800E+02 -0.12527759648E+02 -0.51099683698E+00  0.20963877142E+02  0.51100000000E-03 0.  1.
        -12    1    3    3    0    0  0.21700225302E+02  0.75598702000E+01 -0.98855318193E+01  0.25015498295E+02  0.00000000000E+00 0.  1.
</event>
<event>
 7    1  0.1381607E-011  0.5052886E+02  0.7816164E-02  0.1300439E+00
        -11   -1    0    0    0    0  0.00000000000E+00  0.00000000000E+00  0.45593999997E+02  0.45594000000E+02  0.51100000000E-03 0. -1.
         11   -1    0    0    0    0 -0.00000000000E+00 -0.00000000000E+00 -0.45593999997E+02  0.45594000000E+02  0.51100000000E-03 0.  1.
    9900012    2    1    2    0    0  0.40558174373E+02  0.35342731453E+00 -0.28417601768E+01  0.50528855638E+02  0.29999987198E+02 0.  0.
         12    1    1    2    0    0 -0.40558174373E+02 -0.35342731453E+00  0.28417601768E+01  0.40659144362E+02  0.00000000000E+00 0. -1.
         11    1    3    3    0    0  0.79671392261E+01 -0.44357460755E+01 -0.67617707545E+01  0.11352211005E+02  0.51100000000E-03 0. -1.
        -11    1    3    3    0    0  0.11467170961E+02 -0.81621816913E+01  0.29398276794E+01  0.14379144858E+02  0.51100000000E-03 0.  1.
        -12    1    3    3    0    0  0.21123864186E+02  0.12951355081E+02  0.98018289834E+00  0.24797499776E+02  0.00000000000E+00 0.  1.
</event>
<event>
 7    1  0.1381607E-011  0.5052886E+02  0.7816164E-02  0.1300439E+00
        -11   -1    0    0    0    0  0.00000000000E+00  0.00000000000E+00  0.45593999997E+02  0.45594000000E+02  0.51100000000E-03 0. -1.
         11   -1    0    0    0    0 -0.00000000000E+00 -0.00000000000E+00 -0.45593999997E+02  0.45594000000E+02  0.51100000000E-03 0.  1.
    9900012    2    1    2    0    0  0.76744427170E+01  0.26909721374E+02 -0.29498061991E+02  0.50528857895E+02  0.29999994058E+02 0.  0.
         12    1    1    2    0    0 -0.76744427170E+01 -0.26909721374E+02  0.29498061991E+02  0.40659142105E+02  0.00000000000E+00 0. -1.
         11    1    3    3    0    0  0.11473977736E+01  0.24709160276E+01 -0.49845236929E+01  0.56804422691E+01  0.51100000000E-03 0. -1.
        -11    1    3    3    0    0  0.14668439962E+02  0.15718937145E+02 -0.24918651343E+02  0.32911810964E+02  0.51100000000E-03 0.  1.
         12    1    3    3    0    0 -0.81413950181E+01  0.87198682014E+01  0.40511304488E+00  0.11936604663E+02  0.00000000000E+00 0. -1.
</event>
<event>
 7    1  0.1381607E-011  0.5052885E+02  0.7816164E-02  0.1300439E+00
        -11   -1    0    0    0    0  0.00000000000E+00  0.00000000000E+00  0.45593999997E+02  0.45594000000E+02  0.51100000000E-03 0.  1.
         11   -1    0    0    0    0 -0.00000000000E+00 -0.00000000000E+00 -0.45593999997E+02  0.45594000000E+02  0.51100000000E-03 0. -1.
    9900012    2    1    2    0    0 -0.19319569147E+02 -0.22168286716E+02  0.28080021913E+02  0.50528851969E+02  0.29999976046E+02 0.  0.
         12    1    1    2    0    0  0.19319569147E+02  0.22168286716E+02 -0.28080021913E+02  0.40659148031E+02  0.00000000000E+00 0. -1.
         11    1    3    3    0    0 -0.68630414508E+01 -0.78601630741E+01  0.32064983110E+01  0.10916278358E+02  0.51100000000E-03 0.  1.
        -11    1    3    3    0    0  0.17099007534E+01 -0.16329711504E+02  0.11689320579E+02  0.20154985841E+02  0.51100000000E-03 0. -1.
         12    1    3    3    0    0 -0.14166428449E+02  0.20215878622E+01  0.13184203023E+02  0.19457587770E+02  0.00000000000E+00 0. -1.
</event>
<event>
 7    1  0.1381607E-011  0.5052885E+02  0.7816164E-02  0.1300439E+00
        -11   -1    0    0    0    0  0.00000000000E+00  0.00000000000E+00  0.45593999997E+02  0.45594000000E+02  0.51100000000E-03 0.  1.
         11   -1    0    0    0    0 -0.00000000000E+00 -0.00000000000E+00 -0.45593999997E+02  0.45594000000E+02  0.51100000000E-03 0. -1.
    9900012    2    1    2    0    0  0.84375960161E+01 -0.28209136246E+02  0.28039586990E+02  0.50528845645E+02  0.29999956822E+02 0.  0.
         12    1    1    2    0    0 -0.84375960161E+01  0.28209136246E+02 -0.28039586990E+02  0.40659154355E+02  0.00000000000E+00 0. -1.
         11    1    3    3    0    0 -0.53937914604E+01 -0.75184123810E+01  0.13380929289E+02  0.16268644072E+02  0.51100000000E-03 0. -1.
        -11    1    3    3    0    0  0.38197236672E+01 -0.20333425702E+02  0.11908429308E+02  0.23871513955E+02  0.51100000000E-03 0.  1.
         12    1    3    3    0    0  0.10011663809E+02 -0.35729816361E+00  0.27502283943E+01  0.10388687618E+02  0.00000000000E+00 0. -1.
</event>
<event>
 7    1  0.1381607E-011  0.5052884E+02  0.7816164E-02  0.1300439E+00
        -11   -1    0    0    0    0  0.00000000000E+00  0.00000000000E+00  0.45593999997E+02  0.45594000000E+02  0.51100000000E-03 0.  1.
         11   -1    0    0    0    0 -0.00000000000E+00 -0.00000000000E+00 -0.45593999997E+02  0.45594000000E+02  0.51100000000E-03 0. -1.
    9900012    2    1    2    0    0  0.19662156465E+02  0.34437360767E+02  0.89796970161E+01  0.50528841475E+02  0.29999944147E+02 0.  0.
         12    1    1    2    0    0 -0.19662156465E+02 -0.34437360767E+02 -0.89796970161E+01  0.40659158525E+02  0.00000000000E+00 0. -1.
         11    1    3    3    0    0 -0.29150936391E+01  0.11628879551E+02  0.57863393540E+01  0.13312037181E+02  0.51100000000E-03 0. -1.
        -11    1    3    3    0    0  0.10440811839E+02  0.22595831634E+02  0.30507630943E+01  0.25077665657E+02  0.51100000000E-03 0.  1.
        -12    1    3    3    0    0  0.12136438266E+02  0.21264958199E+00  0.14259456772E+00  0.12139138636E+02  0.00000000000E+00 0.  1.
</event>
<event>
 7    1  0.1381607E-011  0.5052885E+02  0.7816164E-02  0.1300439E+00
        -11   -1    0    0    0    0  0.00000000000E+00  0.00000000000E+00  0.45593999997E+02  0.45594000000E+02  0.51100000000E-03 0. -1.
         11   -1    0    0    0    0 -0.00000000000E+00 -0.00000000000E+00 -0.45593999997E+02  0.45594000000E+02  0.51100000000E-03 0.  1.
    9900012    2    1    2    0    0 -0.84979112831E+01  0.23417568188E+02 -0.32133619723E+02  0.50528849585E+02  0.29999968798E+02 0.  0.
         12    1    1    2    0    0  0.84979112831E+01 -0.23417568188E+02  0.32133619723E+02  0.40659150415E+02  0.00000000000E+00 0. -1.
         11    1    3    3    0    0  0.14767140130E+01  0.25405401585E+00 -0.19052637891E+01  0.24238931672E+01  0.51100000000E-03 0. -1.
        -11    1    3    3    0    0 -0.12893259030E+02  0.18405175030E+02 -0.60241008536E+01  0.23265347358E+02  0.51100000000E-03 0.  1.
         12    1    3    3    0    0  0.29186337342E+01  0.47583391418E+01 -0.24204255080E+02  0.24839609060E+02  0.00000000000E+00 0. -1.
</event>
<event>
 7    1  0.1381607E-011  0.5052884E+02  0.7816164E-02  0.1300439E+00
        -11   -1    0    0    0    0  0.00000000000E+00  0.00000000000E+00  0.45593999997E+02  0.45594000000E+02  0.51100000000E-03 0. -1.
         11   -1    0    0    0    0 -0.00000000000E+00 -0.00000000000E+00 -0.45593999997E+02  0.45594000000E+02  0.51100000000E-03 0.  1.
    9900012    2    1    2    0    0 -0.25517543215E+02 -0.14655819438E+02 -0.28057603276E+02  0.50528841663E+02  0.29999944718E+02 0.  0.
         12    1    1    2    0    0  0.25517543215E+02  0.14655819438E+02  0.28057603276E+02  0.40659158337E+02  0.00000000000E+00 0. -1.
         11    1    3    3    0    0 -0.13174731972E+01 -0.52787867441E+00 -0.19665304634E+02  0.19716455010E+02  0.51100000000E-03 0. -1.
        -11    1    3    3    0    0 -0.13371762902E+02 -0.23201249939E+01 -0.29171465997E+01  0.13881526128E+02  0.51100000000E-03 0.  1.
        -12    1    3    3    0    0 -0.10828307116E+02 -0.11807815770E+02 -0.54751520419E+01  0.16930860525E+02  0.00000000000E+00 0.  1.
</event>
<event>
 7    1  0.1381607E-011  0.5052886E+02  0.7816164E-02  0.1300439E+00
        -11   -1    0    0    0    0  0.00000000000E+00  0.00000000000E+00  0.45593999997E+02  0.45594000000E+02  0.51100000000E-03 0.  1.
         11   -1    0    0    0    0 -0.00000000000E+00 -0.00000000000E+00 -0.45593999997E+02  0.45594000000E+02  0.51100000000E-03 0. -1.
    9900012    2    1    2    0    0  0.12297699090E+02 -0.91693037570E+01  0.37654429329E+02  0.50528861023E+02  0.30000003565E+02 0.  0.
         12    1    1    2    0    0 -0.12297699090E+02  0.91693037570E+01 -0.37654429329E+02  0.40659138977E+02  0.00000000000E+00 0. -1.
         11    1    3    3    0    0 -0.22358685309E+01  0.47879186719E+01  0.56253283293E+01  0.77180044292E+01  0.51100000000E-03 0. -1.
        -11    1    3    3    0    0 -0.27874117807E+01 -0.81408614372E+01  0.43420573030E+01  0.96382960765E+01  0.51100000000E-03 0.  1.
        -12    1    3    3    0    0  0.17320979401E+02 -0.58163609917E+01  0.27687043697E+02  0.33172560517E+02  0.00000000000E+00 0.  1.
</event>
<event>
 7    1  0.1381607E-011  0.5052883E+02  0.7816164E-02  0.1300439E+00
        -11   -1    0    0    0    0  0.00000000000E+00  0.00000000000E+00  0.45593999997E+02  0.45594000000E+02  0.51100000000E-03 0. -1.
         11   -1    0    0    0    0 -0.00000000000E+00 -0.00000000000E+00 -0.45593999997E+02  0.45594000000E+02  0.51100000000E-03 0.  1.
    9900012    2    1    2    0    0  0.15786098601E+02 -0.18961747744E+02 -0.32317480638E+02  0.50528827095E+02  0.29999900438E+02 0.  0.
         12    1    1    2    0    0 -0.15786098601E+02  0.18961747744E+02  0.32317480638E+02  0.40659172905E+02  0.00000000000E+00 0. -1.
         11    1    3    3    0    0 -0.28342832610E+01 -0.85193087196E+00 -0.27315842300E+01  0.40274682470E+01  0.51100000000E-03 0. -1.
        -11    1    3    3    0    0  0.91206666929E+01  0.51563284533E+01 -0.11381853558E+02  0.15469999183E+02  0.51100000000E-03 0.  1.
        -12    1    3    3    0    0  0.94997151694E+01 -0.23266145325E+02 -0.18204042849E+02  0.31031359665E+02  0.00000000000E+00 0.  1.
</event>
<event>
 7    1  0.1381607E-011  0.5052885E+02  0.7816164E-02  0.1300439E+00
        -11   -1    0    0    0    0  0.00000000000E+00  0.00000000000E+00  0.45593999997E+02  0.45594000000E+02  0.51100000000E-03 0.  1.
         11   -1    0    0    0    0 -0.00000000000E+00 -0.00000000000E+00 -0.45593999997E+02  0.45594000000E+02  0.51100000000E-03 0. -1.
    9900012    2    1    2    0    0 -0.43981966904E+01  0.27007104699E+02  0.30073885945E+02  0.50528850301E+02  0.29999970976E+02 0.  0.
         12    1    1    2    0    0  0.43981966904E+01 -0.27007104699E+02 -0.30073885945E+02  0.40659149699E+02  0.00000000000E+00 0. -1.
         11    1    3    3    0    0 -0.66189187893E+01  0.10176413282E+01  0.16487026836E+02  0.17795160409E+02  0.51100000000E-03 0. -1.
        -11    1    3    3    0    0  0.48709153609E+01  0.12911458397E+02  0.15535429339E+00  0.13800569177E+02  0.51100000000E-03 0.  1.
         12    1    3    3    0    0 -0.26501932621E+01  0.13078004974E+02  0.13431504816E+02  0.18933120716E+02  0.00000000000E+00 0. -1.
</event>
<event>
 7    1  0.1381607E-011  0.5052875E+02  0.7816164E-02  0.1300439E+00
        -11   -1    0    0    0    0  0.00000000000E+00  0.00000000000E+00  0.45593999997E+02  0.45594000000E+02  0.51100000000E-03 0.  1.
         11   -1    0    0    0    0 -0.00000000000E+00 -0.00000000000E+00 -0.45593999997E+02  0.45594000000E+02  0.51100000000E-03 0. -1.
    9900012    2    1    2    0    0 -0.37639174086E+02 -0.14712554621E+02  0.44730269921E+01  0.50528749394E+02  0.29999664256E+02 0.  0.
         12    1    1    2    0    0  0.37639174086E+02  0.14712554621E+02 -0.44730269921E+01  0.40659250606E+02  0.00000000000E+00 0. -1.
         11    1    3    3    0    0 -0.20072120055E+02  0.57326073180E+01  0.20992342446E+01  0.20979980335E+02  0.51100000000E-03 0. -1.
        -11    1    3    3    0    0 -0.40033958363E+01 -0.18499248571E+01  0.46637396942E+01  0.64187123627E+01  0.51100000000E-03 0.  1.
        -12    1    3    3    0    0 -0.13563658195E+02 -0.18595237082E+02 -0.22899469467E+01  0.23130056697E+02  0.00000000000E+00 0.  1.
</event>
<event>
 7    1  0.1381607E-011  0.5052885E+02  0.7816164E-02  0.1300439E+00
        -11   -1    0    0    0    0  0.00000000000E+00  0.00000000000E+00  0.45593999997E+02  0.45594000000E+02  0.51100000000E-03 0. -1.
         11   -1    0    0    0    0 -0.00000000000E+00 -0.00000000000E+00 -0.45593999997E+02  0.45594000000E+02  0.51100000000E-03 0.  1.
    9900012    2    1    2    0    0 -0.37503781828E+02 -0.93426950921E+01 -0.12623271578E+02  0.50528848652E+02  0.29999965962E+02 0.  0.
         12    1    1    2    0    0  0.37503781828E+02  0.93426950921E+01  0.12623271578E+02  0.40659151348E+02  0.00000000000E+00 0. -1.
         11    1    3    3    0    0 -0.11178230042E+02 -0.47974791849E+01 -0.12064337894E+02  0.17132334414E+02  0.51100000000E-03 0. -1.
        -11    1    3    3    0    0 -0.21515043258E+02  0.78679394652E+00 -0.80817462829E+01  0.22996320453E+02  0.51100000000E-03 0.  1.
         12    1    3    3    0    0 -0.48105085283E+01 -0.53320098537E+01  0.75228125984E+01  0.10400193785E+02  0.00000000000E+00 0. -1.
</event>
<event>
 7    1  0.1381607E-011  0.5052886E+02  0.7816164E-02  0.1300439E+00
        -11   -1    0    0    0    0  0.00000000000E+00  0.00000000000E+00  0.45593999997E+02  0.45594000000E+02  0.51100000000E-03 0. -1.
         11   -1    0    0    0    0 -0.00000000000E+00 -0.00000000000E+00 -0.45593999997E+02  0.45594000000E+02  0.51100000000E-03 0.  1.
    9900012    2    1    2    0    0 -0.84569274079E+01 -0.43868462208E+01 -0.39527222482E+02  0.50528863781E+02  0.30000011950E+02 0.  0.
         12    1    1    2    0    0  0.84569274079E+01  0.43868462208E+01  0.39527222482E+02  0.40659136219E+02  0.00000000000E+00 0. -1.
         11    1    3    3    0    0 -0.26962574283E+01  0.46321546318E+01 -0.24099814391E+02  0.24688615080E+02  0.51100000000E-03 0.  1.
        -11    1    3    3    0    0 -0.91384937570E+01  0.10881201617E+01 -0.35011610296E+01  0.98465325090E+01  0.51100000000E-03 0. -1.
         12    1    3    3    0    0  0.33778237775E+01 -0.10107121014E+02 -0.11926247061E+02  0.15993716192E+02  0.00000000000E+00 0. -1.
</event>
<event>
 7    1  0.1381607E-011  0.5052885E+02  0.7816164E-02  0.1300439E+00
        -11   -1    0    0    0    0  0.00000000000E+00  0.00000000000E+00  0.45593999997E+02  0.45594000000E+02  0.51100000000E-03 0. -1.
         11   -1    0    0    0    0 -0.00000000000E+00 -0.00000000000E+00 -0.45593999997E+02  0.45594000000E+02  0.51100000000E-03 0.  1.
    9900012    2    1    2    0    0 -0.16544560542E+02  0.28335144064E+02 -0.24011731285E+02  0.50528854510E+02  0.29999983769E+02 0.  0.
         12    1    1    2    0    0  0.16544560542E+02 -0.28335144064E+02  0.24011731285E+02  0.40659145490E+02  0.00000000000E+00 0. -1.
         11    1    3    3    0    0 -0.24954123993E+01  0.54647816229E+01  0.31991742930E+01  0.68062939730E+01  0.51100000000E-03 0. -1.
        -11    1    3    3    0    0  0.37239957935E+00  0.17793993291E+02 -0.20141578403E+02  0.26878393916E+02  0.51100000000E-03 0.  1.
         12    1    3    3    0    0 -0.14421547722E+02  0.50763691492E+01 -0.70693271759E+01  0.16844166621E+02  0.00000000000E+00 0. -1.
</event>
<event>
 7    1  0.1381607E-011  0.5052886E+02  0.7816164E-02  0.1300439E+00
        -11   -1    0    0    0    0  0.00000000000E+00  0.00000000000E+00  0.45593999997E+02  0.45594000000E+02  0.51100000000E-03 0. -1.
         11   -1    0    0    0    0 -0.00000000000E+00 -0.00000000000E+00 -0.45593999997E+02  0.45594000000E+02  0.51100000000E-03 0.  1.
    9900012    2    1    2    0    0 -0.84634335354E+01  0.35393412775E+02 -0.18134006182E+02  0.50528861356E+02  0.30000004578E+02 0.  0.
         12    1    1    2    0    0  0.84634335354E+01 -0.35393412775E+02  0.18134006182E+02  0.40659138644E+02  0.00000000000E+00 0. -1.
         11    1    3    3    0    0 -0.78801285282E+01  0.76431451482E+01 -0.58987083827E+01  0.12462297309E+02  0.51100000000E-03 0. -1.
        -11    1    3    3    0    0 -0.15910283331E+01  0.12816713916E+02 -0.17891529798E+02  0.22065954897E+02  0.51100000000E-03 0.  1.
         12    1    3    3    0    0  0.10077233258E+01  0.14933553711E+02  0.56562319989E+01  0.16000609149E+02  0.00000000000E+00 0. -1.
</event>
<event>
 7    1  0.1381607E-011  0.5052887E+02  0.7816164E-02  0.1300439E+00
        -11   -1    0    0    0    0  0.00000000000E+00  0.00000000000E+00  0.45593999997E+02  0.45594000000E+02  0.51100000000E-03 0.  1.
         11   -1    0    0    0    0 -0.00000000000E+00 -0.00000000000E+00 -0.45593999997E+02  0.45594000000E+02  0.51100000000E-03 0. -1.
    9900012    2    1    2    0    0  0.26051787944E+01  0.17665693860E+02  0.36528091121E+02  0.50528866499E+02  0.30000020211E+02 0.  0.
         12    1    1    2    0    0 -0.26051787944E+01 -0.17665693860E+02 -0.36528091121E+02  0.40659133501E+02  0.00000000000E+00 0. -1.
         11    1    3    3    0    0  0.65510586567E+01  0.17226469443E+02  0.24295068089E+02  0.30494556116E+02  0.51100000000E-03 0.  1.
        -11    1    3    3    0    0 -0.31108678212E+01  0.77453864968E+01  0.50554957785E+01  0.97584091128E+01  0.51100000000E-03 0. -1.
        -12    1    3    3    0    0 -0.83501204118E+00 -0.73061620800E+01  0.71775272531E+01  0.10275901270E+02  0.00000000000E+00 0.  1.
</event>
<event>
 7    1  0.1381607E-011  0.5052886E+02  0.7816164E-02  0.1300439E+00
        -11   -1    0    0    0    0  0.00000000000E+00  0.00000000000E+00  0.45593999997E+02  0.45594000000E+02  0.51100000000E-03 0.  1.
         11   -1    0    0    0    0 -0.00000000000E+00 -0.00000000000E+00 -0.45593999997E+02  0.45594000000E+02  0.51100000000E-03 0. -1.
    9900012    2    1    2    0    0 -0.23665342056E+02  0.82403166249E+01  0.32018973488E+02  0.50528857166E+02  0.29999991843E+02 0.  0.
         12    1    1    2    0    0  0.23665342056E+02 -0.82403166249E+01 -0.32018973488E+02  0.40659142834E+02  0.00000000000E+00 0. -1.
         11    1    3    3    0    0 -0.10124497656E+02  0.10460876851E+02  0.76211237272E+01  0.16432191710E+02  0.51100000000E-03 0. -1.
        -11    1    3    3    0    0 -0.14562853762E+02  0.56892061750E+01  0.13956450907E+02  0.20957726470E+02  0.51100000000E-03 0.  1.
         12    1    3    3    0    0  0.10220093617E+01 -0.79097664013E+01  0.10441398854E+02  0.13138938986E+02  0.00000000000E+00 0. -1.
</event>
<event>
 7    1  0.1381607E-011  0.5052887E+02  0.7816164E-02  0.1300439E+00
        -11   -1    0    0    0    0  0.00000000000E+00  0.00000000000E+00  0.45593999997E+02  0.45594000000E+02  0.51100000000E-03 0. -1.
         11   -1    0    0    0    0 -0.00000000000E+00 -0.00000000000E+00 -0.45593999997E+02  0.45594000000E+02  0.51100000000E-03 0.  1.
    9900012    2    1    2    0    0  0.58022150733E+01 -0.38477679913E+02 -0.11788445854E+02  0.50528868100E+02  0.30000025077E+02 0.  0.
         12    1    1    2    0    0 -0.58022150733E+01  0.38477679913E+02  0.11788445854E+02  0.40659131900E+02  0.00000000000E+00 0. -1.
         11    1    3    3    0    0  0.55821169111E+01  0.80112405337E+00 -0.89283299703E+00  0.57095516444E+01  0.51100000000E-03 0. -1.
        -11    1    3    3    0    0  0.54850503500E+01 -0.37521391241E+02 -0.97086145988E+01  0.39143297966E+02  0.51100000000E-03 0.  1.
         12    1    3    3    0    0 -0.52649521879E+01 -0.17574127253E+01 -0.11869982578E+01  0.56760184894E+01  0.00000000000E+00 0. -1.
</event>
<event>
 7    1  0.1381607E-011  0.5052886E+02  0.7816164E-02  0.1300439E+00
        -11   -1    0    0    0    0  0.00000000000E+00  0.00000000000E+00  0.45593999997E+02  0.45594000000E+02  0.51100000000E-03 0.  1.
         11   -1    0    0    0    0 -0.00000000000E+00 -0.00000000000E+00 -0.45593999997E+02  0.45594000000E+02  0.51100000000E-03 0. -1.
    9900012    2    1    2    0    0 -0.33235087528E+02  0.22139989797E+02  0.76430077314E+01  0.50528858859E+02  0.29999996987E+02 0.  0.
         12    1    1    2    0    0  0.33235087528E+02 -0.22139989797E+02 -0.76430077314E+01  0.40659141141E+02  0.00000000000E+00 0. -1.
         11    1    3    3    0    0 -0.36740423168E+01 -0.39966583250E+00 -0.25528045002E+01  0.44916734967E+01  0.51100000000E-03 0. -1.
        -11    1    3    3    0    0  0.10791113636E+01  0.12551303239E+02  0.17229427046E+01  0.12714882074E+02  0.51100000000E-03 0.  1.
         12    1    3    3    0    0 -0.30640156574E+02  0.99883523897E+01  0.84728695270E+01  0.33322303288E+02  0.00000000000E+00 0. -1.
</event>
<event>
 7    1  0.1381607E-011  0.5052886E+02  0.7816164E-02  0.1300439E+00
        -11   -1    0    0    0    0  0.00000000000E+00  0.00000000000E+00  0.45593999997E+02  0.45594000000E+02  0.51100000000E-03 0.  1.
         11   -1    0    0    0    0 -0.00000000000E+00 -0.00000000000E+00 -0.45593999997E+02  0.45594000000E+02  0.51100000000E-03 0. -1.
    9900012    2    1    2    0    0 -0.23846389236E+02  0.24233982250E+02  0.22298643874E+02  0.50528859651E+02  0.29999999394E+02 0.  0.
         12    1    1    2    0    0  0.23846389236E+02 -0.24233982250E+02 -0.22298643874E+02  0.40659140349E+02  0.00000000000E+00 0. -1.
         11    1    3    3    0    0 -0.55506155999E+01  0.23968099748E+02  0.16430475699E+02  0.29584449818E+02  0.51100000000E-03 0.  1.
        -11    1    3    3    0    0 -0.86734979859E+01  0.18862698588E+00  0.71429595719E+01  0.11237749737E+02  0.51100000000E-03 0. -1.
        -12    1    3    3    0    0 -0.96222756506E+01  0.77255516456E-01 -0.12747913964E+01  0.97066600958E+01  0.00000000000E+00 0.  1.
</event>
<event>
 7    1  0.1381607E-011  0.5052886E+02  0.7816164E-02  0.1300439E+00
        -11   -1    0    0    0    0  0.00000000000E+00  0.00000000000E+00  0.45593999997E+02  0.45594000000E+02  0.51100000000E-03 0.  1.
         11   -1    0    0    0    0 -0.00000000000E+00 -0.00000000000E+00 -0.45593999997E+02  0.45594000000E+02  0.51100000000E-03 0. -1.
    9900012    2    1    2    0    0 -0.14959757062E+02 -0.34084803360E+02  0.16358416111E+02  0.50528856759E+02  0.29999990603E+02 0.  0.
         12    1    1    2    0    0  0.14959757062E+02  0.34084803360E+02 -0.16358416111E+02  0.40659143241E+02  0.00000000000E+00 0. -1.
         11    1    3    3    0    0 -0.86827156354E+01 -0.10276475251E+02 -0.51403783276E+01  0.14402047910E+02  0.51100000000E-03 0. -1.
        -11    1    3    3    0    0 -0.63485576681E+01 -0.16421771873E+02  0.54025164080E+01  0.18416458935E+02  0.51100000000E-03 0.  1.
        -12    1    3    3    0    0  0.71516241897E-01 -0.73865562366E+01  0.16096278031E+02  0.17710349914E+02  0.00000000000E+00 0.  1.
</event>
<event>
 7    1  0.1381607E-011  0.5052886E+02  0.7816164E-02  0.1300439E+00
        -11   -1    0    0    0    0  0.00000000000E+00  0.00000000000E+00  0.45593999997E+02  0.45594000000E+02  0.51100000000E-03 0.  1.
         11   -1    0    0    0    0 -0.00000000000E+00 -0.00000000000E+00 -0.45593999997E+02  0.45594000000E+02  0.51100000000E-03 0. -1.
    9900012    2    1    2    0    0 -0.19569727310E+02 -0.34167675849E+02 -0.10137144475E+02  0.50528855911E+02  0.29999988027E+02 0.  0.
         12    1    1    2    0    0  0.19569727310E+02  0.34167675849E+02  0.10137144475E+02  0.40659144089E+02  0.00000000000E+00 0. -1.
         11    1    3    3    0    0 -0.32200017391E+01 -0.19610126278E+01  0.58369480506E+01  0.69486649461E+01  0.51100000000E-03 0. -1.
        -11    1    3    3    0    0 -0.17501100820E+02 -0.26175673301E+02 -0.62834736037E+01  0.32108199007E+02  0.51100000000E-03 0.  1.
         12    1    3    3    0    0  0.11513752490E+01 -0.60309899207E+01 -0.96906189223E+01  0.11471991958E+02  0.00000000000E+00 0. -1.
</event>
<event>
 7    1  0.1381607E-011  0.5052886E+02  0.7816164E-02  0.1300439E+00
        -11   -1    0    0    0    0  0.00000000000E+00  0.00000000000E+00  0.45593999997E+02  0.45594000000E+02  0.51100000000E-03 0.  1.
         11   -1    0    0    0    0 -0.00000000000E+00 -0.00000000000E+00 -0.45593999997E+02  0.45594000000E+02  0.51100000000E-03 0. -1.
    9900012    2    1    2    0    0 -0.25579662628E+02  0.26274702276E+01  0.31495126640E+02  0.50528859059E+02  0.29999997596E+02 0.  0.
         12    1    1    2    0    0  0.25579662628E+02 -0.26274702276E+01 -0.31495126640E+02  0.40659140941E+02  0.00000000000E+00 0. -1.
         11    1    3    3    0    0 -0.15057820964E+02 -0.67468231935E+01  0.21283357239E+02  0.26930259765E+02  0.51100000000E-03 0. -1.
        -11    1    3    3    0    0 -0.26456324394E+01  0.23971939859E+01  0.12354967458E+02  0.12860448327E+02  0.51100000000E-03 0.  1.
         12    1    3    3    0    0 -0.78762092252E+01  0.69770994351E+01 -0.21431980573E+01  0.10738150967E+02  0.00000000000E+00 0. -1.
</event>
<event>
 7    1  0.1381607E-011  0.5052889E+02  0.7816164E-02  0.1300439E+00
        -11   -1    0    0    0    0  0.00000000000E+00  0.00000000000E+00  0.45593999997E+02  0.45594000000E+02  0.51100000000E-03 0.  1.
         11   -1    0    0    0    0 -0.00000000000E+00 -0.00000000000E+00 -0.45593999997E+02  0.45594000000E+02  0.51100000000E-03 0. -1.
    9900012    2    1    2    0    0  0.33558785581E+02  0.17458197648E+02  0.14905784615E+02  0.50528890691E+02  0.30000093746E+02 0.  0.
         12    1    1    2    0    0 -0.33558785581E+02 -0.17458197648E+02 -0.14905784615E+02  0.40659109309E+02  0.00000000000E+00 0. -1.
         11    1    3    3    0    0  0.37447426425E+01  0.22634438050E+01  0.37592742359E+01  0.57687449552E+01  0.51100000000E-03 0. -1.
        -11    1    3    3    0    0  0.15707905537E+02  0.11887616966E+02 -0.75591113710E+01  0.21099618444E+02  0.51100000000E-03 0.  1.
        -12    1    3    3    0    0  0.14106137401E+02  0.33071368772E+01  0.18705621750E+02  0.23660527292E+02  0.00000000000E+00 0.  1.
</event>
<event>
 7    1  0.1381607E-011  0.5052885E+02  0.7816164E-02  0.1300439E+00
        -11   -1    0    0    0    0  0.00000000000E+00  0.00000000000E+00  0.45593999997E+02  0.45594000000E+02  0.51100000000E-03 0.  1.
         11   -1    0    0    0    0 -0.00000000000E+00 -0.00000000000E+00 -0.45593999997E+02  0.45594000000E+02  0.51100000000E-03 0. -1.
    9900012    2    1    2    0    0 -0.34556681221E+02 -0.12909019043E+02  0.17098530122E+02  0.50528847008E+02  0.29999960966E+02 0.  0.
         12    1    1    2    0    0  0.34556681221E+02  0.12909019043E+02 -0.17098530122E+02  0.40659152992E+02  0.00000000000E+00 0. -1.
         11    1    3    3    0    0 -0.40685072171E+01 -0.79172790151E+01 -0.44185255559E+01  0.99377777359E+01  0.51100000000E-03 0. -1.
        -11    1    3    3    0    0  0.10412735589E+01 -0.24120176979E+01  0.69123518967E+00  0.27165946234E+01  0.51100000000E-03 0.  1.
        -12    1    3    3    0    0 -0.31529447563E+02 -0.25797223304E+01  0.20825820488E+02  0.37874474649E+02  0.00000000000E+00 0.  1.
</event>
<event>
 7    1  0.1381607E-011  0.5052886E+02  0.7816164E-02  0.1300439E+00
        -11   -1    0    0    0    0  0.00000000000E+00  0.00000000000E+00  0.45593999997E+02  0.45594000000E+02  0.51100000000E-03 0.  1.
         11   -1    0    0    0    0 -0.00000000000E+00 -0.00000000000E+00 -0.45593999997E+02  0.45594000000E+02  0.51100000000E-03 0. -1.
    9900012    2    1    2    0    0  0.22953912489E+02 -0.33158090447E+02  0.51792567426E+01  0.50528858825E+02  0.29999996885E+02 0.  0.
         12    1    1    2    0    0 -0.22953912489E+02  0.33158090447E+02 -0.51792567426E+01  0.40659141175E+02  0.00000000000E+00 0. -1.
         11    1    3    3    0    0  0.53596184140E+01 -0.24169993797E+01 -0.26348877260E+01  0.64428277281E+01  0.51100000000E-03 0.  1.
        -11    1    3    3    0    0 -0.40337923132E+01 -0.17495142262E+02  0.44907132872E+01  0.18507241536E+02  0.51100000000E-03 0. -1.
         12    1    3    3    0    0  0.21628086388E+02 -0.13245948806E+02  0.33234311814E+01  0.25578789561E+02  0.00000000000E+00 0. -1.
</event>
<event>
 7    1  0.1381607E-011  0.5052886E+02  0.7816164E-02  0.1300439E+00
        -11   -1    0    0    0    0  0.00000000000E+00  0.00000000000E+00  0.45593999997E+02  0.45594000000E+02  0.51100000000E-03 0. -1.
         11   -1    0    0    0    0 -0.00000000000E+00 -0.00000000000E+00 -0.45593999997E+02  0.45594000000E+02  0.51100000000E-03 0.  1.
    9900012    2    1    2    0    0  0.14607816092E+01  0.39842376290E+02 -0.79760178729E+01  0.50528859669E+02  0.29999999450E+02 0.  0.
         12    1    1    2    0    0 -0.14607816092E+01 -0.39842376290E+02  0.79760178729E+01  0.40659140331E+02  0.00000000000E+00 0. -1.
         11    1    3    3    0    0 -0.70593234238E+01  0.89005527600E+01 -0.10622030700E+02  0.15552537513E+02  0.51100000000E-03 0. -1.
        -11    1    3    3    0    0  0.13478692328E+01  0.16082211407E+01 -0.35742067338E+01  0.41446448271E+01  0.51100000000E-03 0.  1.
         12    1    3    3    0    0  0.71722358002E+01  0.29333602389E+02  0.62202195613E+01  0.30831677329E+02  0.00000000000E+00 0. -1.
</event>
<event>
 7    1  0.1381607E-011  0.5052886E+02  0.7816164E-02  0.1300439E+00
        -11   -1    0    0    0    0  0.00000000000E+00  0.00000000000E+00  0.45593999997E+02  0.45594000000E+02  0.51100000000E-03 0.  1.
         11   -1    0    0    0    0 -0.00000000000E+00 -0.00000000000E+00 -0.45593999997E+02  0.45594000000E+02  0.51100000000E-03 0. -1.
    9900012    2    1    2    0    0  0.19068593015E+02 -0.33807848642E+02 -0.12107172316E+02  0.50528862148E+02  0.30000006986E+02 0.  0.
         12    1    1    2    0    0 -0.19068593015E+02  0.33807848642E+02  0.12107172316E+02  0.40659137852E+02  0.00000000000E+00 0. -1.
         11    1    3    3    0    0  0.35243457069E+01 -0.92120018772E+01 -0.11198750846E+02  0.14922935771E+02  0.51100000000E-03 0. -1.
        -11    1    3    3    0    0  0.16950759067E+02 -0.15924545887E+02 -0.77031472228E+01  0.24500160654E+02  0.51100000000E-03 0.  1.
        -12    1    3    3    0    0 -0.14065117592E+01 -0.86713008779E+01  0.67947257531E+01  0.11105765723E+02  0.00000000000E+00 0.  1.
</event>
<event>
 7    1  0.1381607E-011  0.5052884E+02  0.7816164E-02  0.1300439E+00
        -11   -1    0    0    0    0  0.00000000000E+00  0.00000000000E+00  0.45593999997E+02  0.45594000000E+02  0.51100000000E-03 0.  1.
         11   -1    0    0    0    0 -0.00000000000E+00 -0.00000000000E+00 -0.45593999997E+02  0.45594000000E+02  0.51100000000E-03 0. -1.
    9900012    2    1    2    0    0  0.18820307170E+02  0.34005844459E+02  0.11940080424E+02  0.50528844329E+02  0.29999952823E+02 0.  0.
         12    1    1    2    0    0 -0.18820307170E+02 -0.34005844459E+02 -0.11940080424E+02  0.40659155671E+02  0.00000000000E+00 0. -1.
         11    1    3    3    0    0  0.29731262012E+01  0.16631111883E+02 -0.19012594863E+01  0.17001416110E+02  0.51100000000E-03 0. -1.
        -11    1    3    3    0    0  0.14626590262E+02  0.21279878751E+02  0.93768796776E+01  0.27471735567E+02  0.51100000000E-03 0.  1.
         12    1    3    3    0    0  0.12205907072E+01 -0.39051461747E+01  0.44644602324E+01  0.60556926513E+01  0.00000000000E+00 0. -1.
</event>
<event>
 7    1  0.1381607E-011  0.5052882E+02  0.7816164E-02  0.1300439E+00
        -11   -1    0    0    0    0  0.00000000000E+00  0.00000000000E+00  0.45593999997E+02  0.45594000000E+02  0.51100000000E-03 0. -1.
         11   -1    0    0    0    0 -0.00000000000E+00 -0.00000000000E+00 -0.45593999997E+02  0.45594000000E+02  0.51100000000E-03 0.  1.
    9900012    2    1    2    0    0 -0.18903272347E+02 -0.34348710436E+02  0.10770379295E+02  0.50528822879E+02  0.29999887621E+02 0.  0.
         12    1    1    2    0    0  0.18903272347E+02  0.34348710436E+02 -0.10770379295E+02  0.40659177121E+02  0.00000000000E+00 0. -1.
         11    1    3    3    0    0 -0.24222417024E+01 -0.16526695799E+02 -0.28462723072E+01  0.16944031256E+02  0.51100000000E-03 0. -1.
        -11    1    3    3    0    0 -0.48935634806E+01 -0.18375844218E+02  0.96501218759E+01  0.21324714928E+02  0.51100000000E-03 0.  1.
         12    1    3    3    0    0 -0.11587467164E+02  0.55382958157E+00  0.39665297262E+01  0.12260076695E+02  0.00000000000E+00 0. -1.
</event>
<event>
 7    1  0.1381607E-011  0.5052886E+02  0.7816164E-02  0.1300439E+00
        -11   -1    0    0    0    0  0.00000000000E+00  0.00000000000E+00  0.45593999997E+02  0.45594000000E+02  0.51100000000E-03 0.  1.
         11   -1    0    0    0    0 -0.00000000000E+00 -0.00000000000E+00 -0.45593999997E+02  0.45594000000E+02  0.51100000000E-03 0. -1.
    9900012    2    1    2    0    0  0.16383401080E+02 -0.18622920661E+02  0.32217021305E+02  0.50528862446E+02  0.30000007890E+02 0.  0.
         12    1    1    2    0    0 -0.16383401080E+02  0.18622920661E+02 -0.32217021305E+02  0.40659137554E+02  0.00000000000E+00 0. -1.
         11    1    3    3    0    0  0.66124898465E+01 -0.11115869701E+01  0.43069644324E+01  0.79693532012E+01  0.51100000000E-03 0. -1.
        -11    1    3    3    0    0  0.87769971571E+01 -0.23342518548E+01 -0.17295208303E+01  0.92453043964E+01  0.51100000000E-03 0.  1.
         12    1    3    3    0    0  0.99391407613E+00 -0.15177081836E+02  0.29639577703E+02  0.33314204848E+02  0.00000000000E+00 0. -1.
</event>
<event>
 7    1  0.1381607E-011  0.5052882E+02  0.7816164E-02  0.1300439E+00
        -11   -1    0    0    0    0  0.00000000000E+00  0.00000000000E+00  0.45593999997E+02  0.45594000000E+02  0.51100000000E-03 0.  1.
         11   -1    0    0    0    0 -0.00000000000E+00 -0.00000000000E+00 -0.45593999997E+02  0.45594000000E+02  0.51100000000E-03 0. -1.
    9900012    2    1    2    0    0 -0.32611141921E+02  0.44936028690E+01  0.23863984899E+02  0.50528821216E+02  0.29999882568E+02 0.  0.
         12    1    1    2    0    0  0.32611141921E+02 -0.44936028690E+01 -0.23863984899E+02  0.40659178784E+02  0.00000000000E+00 0. -1.
         11    1    3    3    0    0 -0.10980389942E+02  0.69056004333E+01  0.44122020344E+01  0.13701233801E+02  0.51100000000E-03 0. -1.
        -11    1    3    3    0    0 -0.11846013113E+02 -0.92942346251E+01  0.13328555140E+01  0.15115797301E+02  0.51100000000E-03 0.  1.
         12    1    3    3    0    0 -0.97847388654E+01  0.68822370608E+01  0.18118927351E+02  0.21711790114E+02  0.00000000000E+00 0. -1.
</event>
<event>
 7    1  0.1381607E-011  0.5052886E+02  0.7816164E-02  0.1300439E+00
        -11   -1    0    0    0    0  0.00000000000E+00  0.00000000000E+00  0.45593999997E+02  0.45594000000E+02  0.51100000000E-03 0.  1.
         11   -1    0    0    0    0 -0.00000000000E+00 -0.00000000000E+00 -0.45593999997E+02  0.45594000000E+02  0.51100000000E-03 0. -1.
    9900012    2    1    2    0    0 -0.34235942016E+02  0.16515722261E+02  0.14432487335E+02  0.50528862058E+02  0.30000006710E+02 0.  0.
         12    1    1    2    0    0  0.34235942016E+02 -0.16515722261E+02 -0.14432487335E+02  0.40659137942E+02  0.00000000000E+00 0. -1.
         11    1    3    3    0    0 -0.24522450628E+02  0.21350916595E+02  0.71390688968E+01  0.33289315541E+02  0.51100000000E-03 0. -1.
        -11    1    3    3    0    0 -0.22592297060E+01  0.10142392886E+01  0.73584497213E+01  0.77639927075E+01  0.51100000000E-03 0.  1.
        -12    1    3    3    0    0 -0.74542616820E+01 -0.58494336217E+01 -0.65031282975E-01  0.94755538089E+01  0.00000000000E+00 0.  1.
</event>
<event>
 7    1  0.1381607E-011  0.5052886E+02  0.7816164E-02  0.1300439E+00
        -11   -1    0    0    0    0  0.00000000000E+00  0.00000000000E+00  0.45593999997E+02  0.45594000000E+02  0.51100000000E-03 0.  1.
         11   -1    0    0    0    0 -0.00000000000E+00 -0.00000000000E+00 -0.45593999997E+02  0.45594000000E+02  0.51100000000E-03 0. -1.
    9900012    2    1    2    0    0 -0.29854568467E+02  0.25148160036E+02  0.11377183842E+02  0.50528861744E+02  0.30000005757E+02 0.  0.
         12    1    1    2    0    0  0.29854568467E+02 -0.25148160036E+02 -0.11377183842E+02  0.40659138256E+02  0.00000000000E+00 0. -1.
         11    1    3    3    0    0  0.15194074245E+01  0.60461361672E+00  0.10351753555E+01  0.19353926797E+01  0.51100000000E-03 0. -1.
        -11    1    3    3    0    0 -0.15648141189E+02  0.27227868196E+02  0.51985276619E+01  0.31831522416E+02  0.51100000000E-03 0.  1.
        -12    1    3    3    0    0 -0.15725834702E+02 -0.26843217763E+01  0.51434808243E+01  0.16761946649E+02  0.00000000000E+00 0.  1.
</event>
<event>
 7    1  0.1381607E-011  0.5052886E+02  0.7816164E-02  0.1300439E+00
        -11   -1    0    0    0    0  0.00000000000E+00  0.00000000000E+00  0.45593999997E+02  0.45594000000E+02  0.51100000000E-03 0.  1.
         11   -1    0    0    0    0 -0.00000000000E+00 -0.00000000000E+00 -0.45593999997E+02  0.45594000000E+02  0.51100000000E-03 0. -1.
    9900012    2    1    2    0    0 -0.15192557065E+02 -0.37691994890E+02 -0.12905235151E+01  0.50528859332E+02  0.29999998425E+02 0.  0.
         12    1    1    2    0    0  0.15192557065E+02  0.37691994890E+02  0.12905235151E+01  0.40659140668E+02  0.00000000000E+00 0. -1.
         11    1    3    3    0    0  0.53533886873E+01 -0.34622501056E+01 -0.45766682008E+00  0.63918233244E+01  0.51100000000E-03 0. -1.
        -11    1    3    3    0    0 -0.11330871986E+02 -0.24055986325E+02 -0.91096046567E+01  0.28108077759E+02  0.51100000000E-03 0.  1.
         12    1    3    3    0    0 -0.92150737666E+01 -0.10173758459E+02  0.82767479617E+01  0.16028958248E+02  0.00000000000E+00 0. -1.
</event>
<event>
 7    1  0.1381607E-011  0.5052885E+02  0.7816164E-02  0.1300439E+00
        -11   -1    0    0    0    0  0.00000000000E+00  0.00000000000E+00  0.45593999997E+02  0.45594000000E+02  0.51100000000E-03 0. -1.
         11   -1    0    0    0    0 -0.00000000000E+00 -0.00000000000E+00 -0.45593999997E+02  0.45594000000E+02  0.51100000000E-03 0.  1.
    9900012    2    1    2    0    0  0.39982088224E+02 -0.49880017802E+01 -0.54514995707E+01  0.50528851115E+02  0.29999973448E+02 0.  0.
         12    1    1    2    0    0 -0.39982088224E+02  0.49880017802E+01  0.54514995707E+01  0.40659148885E+02  0.00000000000E+00 0. -1.
         11    1    3    3    0    0  0.93769019070E+01  0.97425193619E+00 -0.82115120577E+01  0.12502175280E+02  0.51100000000E-03 0. -1.
        -11    1    3    3    0    0  0.53635078725E+01  0.73142065743E+01  0.28467699371E+01  0.95062576151E+01  0.51100000000E-03 0.  1.
         12    1    3    3    0    0  0.25241678444E+02 -0.13276460291E+02 -0.86757450087E-01  0.28520418219E+02  0.00000000000E+00 0. -1.
</event>
<event>
 7    1  0.1381607E-011  0.5052886E+02  0.7816164E-02  0.1300439E+00
        -11   -1    0    0    0    0  0.00000000000E+00  0.00000000000E+00  0.45593999997E+02  0.45594000000E+02  0.51100000000E-03 0. -1.
         11   -1    0    0    0    0 -0.00000000000E+00 -0.00000000000E+00 -0.45593999997E+02  0.45594000000E+02  0.51100000000E-03 0.  1.
    9900012    2    1    2    0    0  0.21287650936E+02  0.17282276696E+02 -0.30022071482E+02  0.50528856548E+02  0.29999989963E+02 0.  0.
         12    1    1    2    0    0 -0.21287650936E+02 -0.17282276696E+02  0.30022071482E+02  0.40659143452E+02  0.00000000000E+00 0. -1.
         11    1    3    3    0    0  0.78651777575E+01 -0.44389954084E+01 -0.78991858273E+01  0.11998451500E+02  0.51100000000E-03 0. -1.
        -11    1    3    3    0    0  0.13384026472E+02  0.62108943592E+01 -0.16239872846E+02  0.21941760268E+02  0.51100000000E-03 0.  1.
        -12    1    3    3    0    0  0.38446706852E-01  0.15510377745E+02 -0.58830128097E+01  0.16588644781E+02  0.00000000000E+00 0.  1.
</event>
<event>
 7    1  0.1381607E-011  0.5052886E+02  0.7816164E-02  0.1300439E+00
        -11   -1    0    0    0    0  0.00000000000E+00  0.00000000000E+00  0.45593999997E+02  0.45594000000E+02  0.51100000000E-03 0.  1.
         11   -1    0    0    0    0 -0.00000000000E+00 -0.00000000000E+00 -0.45593999997E+02  0.45594000000E+02  0.51100000000E-03 0. -1.
    9900012    2    1    2    0    0 -0.39780365979E+02  0.62372647759E+01  0.56377645536E+01  0.50528863531E+02  0.30000011188E+02 0.  0.
         12    1    1    2    0    0  0.39780365979E+02 -0.62372647759E+01 -0.56377645536E+01  0.40659136469E+02  0.00000000000E+00 0. -1.
         11    1    3    3    0    0 -0.65568028394E+01  0.54883939953E+01  0.58763698853E+01  0.10375252065E+02  0.51100000000E-03 0. -1.
        -11    1    3    3    0    0 -0.24320826787E+02  0.10381127005E+02 -0.34006345733E+01  0.26661484003E+02  0.51100000000E-03 0.  1.
        -12    1    3    3    0    0 -0.89027363524E+01 -0.96322562246E+01  0.31620292416E+01  0.13492127462E+02  0.00000000000E+00 0.  1.
</event>
<event>
 7    1  0.1381607E-011  0.5052885E+02  0.7816164E-02  0.1300439E+00
        -11   -1    0    0    0    0  0.00000000000E+00  0.00000000000E+00  0.45593999997E+02  0.45594000000E+02  0.51100000000E-03 0.  1.
         11   -1    0    0    0    0 -0.00000000000E+00 -0.00000000000E+00 -0.45593999997E+02  0.45594000000E+02  0.51100000000E-03 0. -1.
    9900012    2    1    2    0    0  0.26678211353E+02  0.30681224130E+02 -0.31961213076E+00  0.50528848176E+02  0.29999964517E+02 0.  0.
         12    1    1    2    0    0 -0.26678211353E+02 -0.30681224130E+02  0.31961213076E+00  0.40659151824E+02  0.00000000000E+00 0. -1.
         11    1    3    3    0    0 -0.14589526759E+01  0.52657531162E+00  0.33480714222E+01  0.36899060935E+01  0.51100000000E-03 0. -1.
        -11    1    3    3    0    0 -0.15461609254E+01  0.38242333351E+01  0.47356440773E+01  0.62802626774E+01  0.51100000000E-03 0.  1.
        -12    1    3    3    0    0  0.29683324954E+02  0.26330415483E+02 -0.84033276303E+01  0.40558679406E+02  0.00000000000E+00 0.  1.
</event>
<event>
 7    1  0.1381607E-011  0.5052886E+02  0.7816164E-02  0.1300439E+00
        -11   -1    0    0    0    0  0.00000000000E+00  0.00000000000E+00  0.45593999997E+02  0.45594000000E+02  0.51100000000E-03 0.  1.
         11   -1    0    0    0    0 -0.00000000000E+00 -0.00000000000E+00 -0.45593999997E+02  0.45594000000E+02  0.51100000000E-03 0. -1.
    9900012    2    1    2    0    0  0.87939754658E+01  0.36151528762E+01  0.39531785850E+02  0.50528862930E+02  0.30000009362E+02 0.  0.
         12    1    1    2    0    0 -0.87939754658E+01 -0.36151528762E+01 -0.39531785850E+02  0.40659137070E+02  0.00000000000E+00 0. -1.
         11    1    3    3    0    0  0.30840014531E+01 -0.71365265686E+00  0.17172270033E+01  0.36012822604E+01  0.51100000000E-03 0. -1.
        -11    1    3    3    0    0 -0.40547706333E+01  0.31259895740E+01  0.36666558477E+02  0.37022283648E+02  0.51100000000E-03 0.  1.
        -12    1    3    3    0    0  0.97647446460E+01  0.12028159590E+01  0.11480003693E+01  0.99052970213E+01  0.00000000000E+00 0.  1.
</event>
<event>
 7    1  0.1381607E-011  0.5052884E+02  0.7816164E-02  0.1300439E+00
        -11   -1    0    0    0    0  0.00000000000E+00  0.00000000000E+00  0.45593999997E+02  0.45594000000E+02  0.51100000000E-03 0.  1.
         11   -1    0    0    0    0 -0.00000000000E+00 -0.00000000000E+00 -0.45593999997E+02  0.45594000000E+02  0.51100000000E-03 0. -1.
    9900012    2    1    2    0    0 -0.38084366636E+02 -0.70668710441E+01  0.12361536806E+02  0.50528840631E+02  0.29999941581E+02 0.  0.
         12    1    1    2    0    0  0.38084366636E+02  0.70668710441E+01 -0.12361536806E+02  0.40659159369E+02  0.00000000000E+00 0. -1.
         11    1    3    3    0    0  0.23878315351E+01 -0.52089767363E+01  0.12222326861E+01  0.58590981456E+01  0.51100000000E-03 0. -1.
        -11    1    3    3    0    0 -0.97112834594E+01 -0.40880639604E+01 -0.26821758773E+01  0.10872688769E+02  0.51100000000E-03 0.  1.
        -12    1    3    3    0    0 -0.30760914712E+02  0.22301696526E+01  0.13821479997E+02  0.33797053716E+02  0.00000000000E+00 0.  1.
</event>
<event>
 7    1  0.1381607E-011  0.5052886E+02  0.7816164E-02  0.1300439E+00
        -11   -1    0    0    0    0  0.00000000000E+00  0.00000000000E+00  0.45593999997E+02  0.45594000000E+02  0.51100000000E-03 0. -1.
         11   -1    0    0    0    0 -0.00000000000E+00 -0.00000000000E+00 -0.45593999997E+02  0.45594000000E+02  0.51100000000E-03 0.  1.
    9900012    2    1    2    0    0 -0.24180556158E+02 -0.27066305712E+02 -0.18327074491E+02  0.50528857604E+02  0.29999993173E+02 0.  0.
         12    1    1    2    0    0  0.24180556158E+02  0.27066305712E+02  0.18327074491E+02  0.40659142396E+02  0.00000000000E+00 0. -1.
         11    1    3    3    0    0 -0.13231526989E+01 -0.76371085153E+01 -0.59563654041E+01  0.97751955800E+01  0.51100000000E-03 0. -1.
        -11    1    3    3    0    0 -0.27411340501E+02 -0.18167349873E+02 -0.70405862163E+01  0.33630403566E+02  0.51100000000E-03 0.  1.
         12    1    3    3    0    0  0.45539370417E+01 -0.12618473228E+01 -0.53301228708E+01  0.71232584583E+01  0.00000000000E+00 0. -1.
</event>
<event>
 7    1  0.1381607E-011  0.5052887E+02  0.7816164E-02  0.1300439E+00
        -11   -1    0    0    0    0  0.00000000000E+00  0.00000000000E+00  0.45593999997E+02  0.45594000000E+02  0.51100000000E-03 0.  1.
         11   -1    0    0    0    0 -0.00000000000E+00 -0.00000000000E+00 -0.45593999997E+02  0.45594000000E+02  0.51100000000E-03 0. -1.
    9900012    2    1    2    0    0  0.22641120815E+02  0.18928438340E+02  0.27968895407E+02  0.50528865233E+02  0.30000016362E+02 0.  0.
         12    1    1    2    0    0 -0.22641120815E+02 -0.18928438340E+02 -0.27968895407E+02  0.40659134767E+02  0.00000000000E+00 0. -1.
         11    1    3    3    0    0  0.16339018149E+01  0.12043729097E+02  0.34416515668E+01  0.12631944089E+02  0.51100000000E-03 0. -1.
        -11    1    3    3    0    0  0.54602501690E+00 -0.17432748035E+01  0.12520028760E+02  0.12652599369E+02  0.51100000000E-03 0.  1.
        -12    1    3    3    0    0  0.20461193983E+02  0.86279840463E+01  0.12007215079E+02  0.25244321775E+02  0.00000000000E+00 0.  1.
</event>
<event>
 7    1  0.1381607E-011  0.5052886E+02  0.7816164E-02  0.1300439E+00
        -11   -1    0    0    0    0  0.00000000000E+00  0.00000000000E+00  0.45593999997E+02  0.45594000000E+02  0.51100000000E-03 0. -1.
         11   -1    0    0    0    0 -0.00000000000E+00 -0.00000000000E+00 -0.45593999997E+02  0.45594000000E+02  0.51100000000E-03 0.  1.
    9900012    2    1    2    0    0 -0.39304357022E+02 -0.60792910737E+01 -0.84483998513E+01  0.50528859319E+02  0.29999998386E+02 0.  0.
         12    1    1    2    0    0  0.39304357022E+02  0.60792910737E+01  0.84483998513E+01  0.40659140681E+02  0.00000000000E+00 0. -1.
         11    1    3    3    0    0 -0.10845421109E+02 -0.50192908088E+01  0.58218390800E+01  0.13293240756E+02  0.51100000000E-03 0. -1.
        -11    1    3    3    0    0 -0.16884457486E+02 -0.97801010118E+01 -0.10925510896E+02  0.22362961991E+02  0.51100000000E-03 0.  1.
        -12    1    3    3    0    0 -0.11574478427E+02  0.87201007469E+01 -0.33447280350E+01  0.14872656572E+02  0.00000000000E+00 0.  1.
</event>
<event>
 7    1  0.1381607E-011  0.5052886E+02  0.7816164E-02  0.1300439E+00
        -11   -1    0    0    0    0  0.00000000000E+00  0.00000000000E+00  0.45593999997E+02  0.45594000000E+02  0.51100000000E-03 0.  1.
         11   -1    0    0    0    0 -0.00000000000E+00 -0.00000000000E+00 -0.45593999997E+02  0.45594000000E+02  0.51100000000E-03 0. -1.
    9900012    2    1    2    0    0 -0.26419329889E+02 -0.29273784608E+02  0.99111307110E+01  0.50528856268E+02  0.29999989112E+02 0.  0.
         12    1    1    2    0    0  0.26419329889E+02  0.29273784608E+02 -0.99111307110E+01  0.40659143732E+02  0.00000000000E+00 0. -1.
         11    1    3    3    0    0 -0.82154140591E+01 -0.47150990000E+01 -0.79889648159E+01  0.12391478759E+02  0.51100000000E-03 0. -1.
        -11    1    3    3    0    0 -0.40108571295E+01 -0.13587983526E+02  0.22775062298E+01  0.14349470586E+02  0.51100000000E-03 0.  1.
         12    1    3    3    0    0 -0.14193058700E+02 -0.10970702082E+02  0.15622589297E+02  0.23787906923E+02  0.00000000000E+00 0. -1.
</event>
<event>
 7    1  0.1381607E-011  0.5052886E+02  0.7816164E-02  0.1300439E+00
        -11   -1    0    0    0    0  0.00000000000E+00  0.00000000000E+00  0.45593999997E+02  0.45594000000E+02  0.51100000000E-03 0. -1.
         11   -1    0    0    0    0 -0.00000000000E+00 -0.00000000000E+00 -0.45593999997E+02  0.45594000000E+02  0.51100000000E-03 0.  1.
    9900012    2    1    2    0    0  0.27718614704E+02 -0.28857437853E+02  0.72175119559E+01  0.50528858354E+02  0.29999995453E+02 0.  0.
         12    1    1    2    0    0 -0.27718614704E+02  0.28857437853E+02 -0.72175119559E+01  0.40659141646E+02  0.00000000000E+00 0. -1.
         11    1    3    3    0    0  0.45803678268E+01 -0.11538825859E+02 -0.33771770027E+01  0.12865830575E+02  0.51100000000E-03 0. -1.
        -11    1    3    3    0    0  0.16224132108E+02 -0.52450548497E+01 -0.39846414068E+01  0.17510294985E+02  0.51100000000E-03 0.  1.
         12    1    3    3    0    0  0.69141147691E+01 -0.12073557144E+02  0.14579330365E+02  0.20152732794E+02  0.00000000000E+00 0. -1.
</event>
<event>
 7    1  0.1381607E-011  0.5052885E+02  0.7816164E-02  0.1300439E+00
        -11   -1    0    0    0    0  0.00000000000E+00  0.00000000000E+00  0.45593999997E+02  0.45594000000E+02  0.51100000000E-03 0.  1.
         11   -1    0    0    0    0 -0.00000000000E+00 -0.00000000000E+00 -0.45593999997E+02  0.45594000000E+02  0.51100000000E-03 0. -1.
    9900012    2    1    2    0    0  0.27560152240E+02 -0.65055357124E+01  0.29176740750E+02  0.50528853585E+02  0.29999980956E+02 0.  0.
         12    1    1    2    0    0 -0.27560152240E+02  0.65055357124E+01 -0.29176740750E+02  0.40659146415E+02  0.00000000000E+00 0. -1.
         11    1    3    3    0    0  0.22930808157E+01 -0.11848855553E+02  0.40327903153E+01  0.12724660920E+02  0.51100000000E-03 0. -1.
        -11    1    3    3    0    0  0.85002003959E+01  0.17847447613E+01  0.16410192267E+02  0.18566990362E+02  0.51100000000E-03 0.  1.
         12    1    3    3    0    0  0.16766871029E+02  0.35585750789E+01  0.87337581682E+01  0.19237202303E+02  0.00000000000E+00 0. -1.
</event>
<event>
 7    1  0.1381607E-011  0.5052885E+02  0.7816164E-02  0.1300439E+00
        -11   -1    0    0    0    0  0.00000000000E+00  0.00000000000E+00  0.45593999997E+02  0.45594000000E+02  0.51100000000E-03 0.  1.
         11   -1    0    0    0    0 -0.00000000000E+00 -0.00000000000E+00 -0.45593999997E+02  0.45594000000E+02  0.51100000000E-03 0. -1.
    9900012    2    1    2    0    0  0.24054398496E+02  0.15337988090E+02  0.28970642748E+02  0.50528854572E+02  0.29999983958E+02 0.  0.
         12    1    1    2    0    0 -0.24054398496E+02 -0.15337988090E+02 -0.28970642748E+02  0.40659145428E+02  0.00000000000E+00 0. -1.
         11    1    3    3    0    0 -0.18603428682E+01 -0.20244579353E+01  0.51840233087E+00  0.27978646781E+01  0.51100000000E-03 0. -1.
        -11    1    3    3    0    0  0.47037587893E+01  0.93681992094E+01  0.21667220528E+02  0.24069834833E+02  0.51100000000E-03 0.  1.
         12    1    3    3    0    0  0.21210982575E+02  0.79942468160E+01  0.67850198888E+01  0.23661155062E+02  0.00000000000E+00 0. -1.
</event>
<event>
 7    1  0.1381607E-011  0.5052884E+02  0.7816164E-02  0.1300439E+00
        -11   -1    0    0    0    0  0.00000000000E+00  0.00000000000E+00  0.45593999997E+02  0.45594000000E+02  0.51100000000E-03 0. -1.
         11   -1    0    0    0    0 -0.00000000000E+00 -0.00000000000E+00 -0.45593999997E+02  0.45594000000E+02  0.51100000000E-03 0.  1.
    9900012    2    1    2    0    0 -0.18905617116E+02 -0.31680784809E+02 -0.17090129373E+02  0.50528843508E+02  0.29999950326E+02 0.  0.
         12    1    1    2    0    0  0.18905617116E+02  0.31680784809E+02  0.17090129373E+02  0.40659156492E+02  0.00000000000E+00 0. -1.
         11    1    3    3    0    0 -0.16336355971E+01 -0.22783082626E+02 -0.13952637033E+02  0.26765905545E+02  0.51100000000E-03 0. -1.
        -11    1    3    3    0    0 -0.91997309635E+01 -0.96751378350E+01 -0.66618923743E+01  0.14920594901E+02  0.51100000000E-03 0.  1.
         12    1    3    3    0    0 -0.80722505557E+01  0.77743565207E+00  0.35244000340E+01  0.88423430620E+01  0.00000000000E+00 0. -1.
</event>
<event>
 7    1  0.1381607E-011  0.5052886E+02  0.7816164E-02  0.1300439E+00
        -11   -1    0    0    0    0  0.00000000000E+00  0.00000000000E+00  0.45593999997E+02  0.45594000000E+02  0.51100000000E-03 0.  1.
         11   -1    0    0    0    0 -0.00000000000E+00 -0.00000000000E+00 -0.45593999997E+02  0.45594000000E+02  0.51100000000E-03 0. -1.
    9900012    2    1    2    0    0 -0.11969300100E+02 -0.35354616408E+02  0.16123042629E+02  0.50528861422E+02  0.30000004779E+02 0.  0.
         12    1    1    2    0    0  0.11969300100E+02  0.35354616408E+02 -0.16123042629E+02  0.40659138578E+02  0.00000000000E+00 0. -1.
         11    1    3    3    0    0  0.69965732830E+00 -0.91832102276E+01 -0.55655927160E+01  0.10760887185E+02  0.51100000000E-03 0. -1.
        -11    1    3    3    0    0 -0.27673336027E+00 -0.16026499390E+02  0.53725304371E+01  0.16905305310E+02  0.51100000000E-03 0.  1.
         12    1    3    3    0    0 -0.12392224068E+02 -0.10144906790E+02  0.16316104908E+02  0.22862668928E+02  0.00000000000E+00 0. -1.
</event>
<event>
 7    1  0.1381607E-011  0.5052886E+02  0.7816164E-02  0.1300439E+00
        -11   -1    0    0    0    0  0.00000000000E+00  0.00000000000E+00  0.45593999997E+02  0.45594000000E+02  0.51100000000E-03 0.  1.
         11   -1    0    0    0    0 -0.00000000000E+00 -0.00000000000E+00 -0.45593999997E+02  0.45594000000E+02  0.51100000000E-03 0. -1.
    9900012    2    1    2    0    0 -0.10816657574E+02 -0.35727642918E+02  0.16115234789E+02  0.50528863981E+02  0.30000012556E+02 0.  0.
         12    1    1    2    0    0  0.10816657574E+02  0.35727642918E+02 -0.16115234789E+02  0.40659136019E+02  0.00000000000E+00 0. -1.
         11    1    3    3    0    0 -0.14883329984E+02 -0.14060983146E+02  0.73733410097E+01  0.21762144112E+02  0.51100000000E-03 0. -1.
        -11    1    3    3    0    0  0.22754182090E+01 -0.45422363247E+00  0.70380996183E+01  0.74107147855E+01  0.51100000000E-03 0.  1.
         12    1    3    3    0    0  0.17912542007E+01 -0.21212436139E+02  0.17037941610E+01  0.21356005083E+02  0.00000000000E+00 0. -1.
</event>
<event>
 7    1  0.1381607E-011  0.5052886E+02  0.7816164E-02  0.1300439E+00
        -11   -1    0    0    0    0  0.00000000000E+00  0.00000000000E+00  0.45593999997E+02  0.45594000000E+02  0.51100000000E-03 0. -1.
         11   -1    0    0    0    0 -0.00000000000E+00 -0.00000000000E+00 -0.45593999997E+02  0.45594000000E+02  0.51100000000E-03 0.  1.
    9900012    2    1    2    0    0  0.13028610111E+02 -0.26181717031E+02 -0.28247807672E+02  0.50528860482E+02  0.30000001920E+02 0.  0.
         12    1    1    2    0    0 -0.13028610111E+02  0.26181717031E+02  0.28247807672E+02  0.40659139518E+02  0.00000000000E+00 0. -1.
         11    1    3    3    0    0  0.52257032272E+01 -0.19049370672E+02 -0.11844514611E+02  0.23032130250E+02  0.51100000000E-03 0. -1.
        -11    1    3    3    0    0  0.33213517575E+01 -0.13657218985E+02 -0.11711083106E+02  0.18294821007E+02  0.51100000000E-03 0.  1.
         12    1    3    3    0    0  0.44815551261E+01  0.65248726255E+01 -0.46922099544E+01  0.92019092250E+01  0.00000000000E+00 0. -1.
</event>
<event>
 7    1  0.1381607E-011  0.5052886E+02  0.7816164E-02  0.1300439E+00
        -11   -1    0    0    0    0  0.00000000000E+00  0.00000000000E+00  0.45593999997E+02  0.45594000000E+02  0.51100000000E-03 0.  1.
         11   -1    0    0    0    0 -0.00000000000E+00 -0.00000000000E+00 -0.45593999997E+02  0.45594000000E+02  0.51100000000E-03 0. -1.
    9900012    2    1    2    0    0 -0.88140057066E+00 -0.35269377926E+02  0.20210390692E+02  0.50528858615E+02  0.29999996245E+02 0.  0.
         12    1    1    2    0    0  0.88140057066E+00  0.35269377926E+02 -0.20210390692E+02  0.40659141385E+02  0.00000000000E+00 0. -1.
         11    1    3    3    0    0  0.56334361034E+01 -0.23313314990E+02  0.78754038621E-01  0.23984421206E+02  0.51100000000E-03 0.  1.
        -11    1    3    3    0    0 -0.62166866532E+01 -0.31421747276E+01  0.36796064512E+01  0.78778143454E+01  0.51100000000E-03 0. -1.
        -12    1    3    3    0    0 -0.29815002086E+00 -0.88138882091E+01  0.16452030202E+02  0.18666623063E+02  0.00000000000E+00 0.  1.
</event>
<event>
 7    1  0.1381607E-011  0.5052888E+02  0.7816164E-02  0.1300439E+00
        -11   -1    0    0    0    0  0.00000000000E+00  0.00000000000E+00  0.45593999997E+02  0.45594000000E+02  0.51100000000E-03 0. -1.
         11   -1    0    0    0    0 -0.00000000000E+00 -0.00000000000E+00 -0.45593999997E+02  0.45594000000E+02  0.51100000000E-03 0.  1.
    9900012    2    1    2    0    0  0.25098637329E+02 -0.29430677797E+02 -0.12532276729E+02  0.50528876161E+02  0.30000049579E+02 0.  0.
         12    1    1    2    0    0 -0.25098637329E+02  0.29430677797E+02  0.12532276729E+02  0.40659123839E+02  0.00000000000E+00 0. -1.
         11    1    3    3    0    0 -0.25729492155E+01  0.27645600549E+00 -0.37194247603E+01  0.45310723231E+01  0.51100000000E-03 0. -1.
        -11    1    3    3    0    0  0.15168904715E+02 -0.16136085701E+02 -0.14755723012E+02  0.26612032878E+02  0.51100000000E-03 0.  1.
        -12    1    3    3    0    0  0.12502681829E+02 -0.13571048101E+02  0.59428710436E+01  0.19385770960E+02  0.00000000000E+00 0.  1.
</event>
<event>
 7    1  0.1381607E-011  0.5052886E+02  0.7816164E-02  0.1300439E+00
        -11   -1    0    0    0    0  0.00000000000E+00  0.00000000000E+00  0.45593999997E+02  0.45594000000E+02  0.51100000000E-03 0.  1.
         11   -1    0    0    0    0 -0.00000000000E+00 -0.00000000000E+00 -0.45593999997E+02  0.45594000000E+02  0.51100000000E-03 0. -1.
    9900012    2    1    2    0    0  0.15145463115E+02 -0.34428962610E+02  0.15441099408E+02  0.50528855022E+02  0.29999985326E+02 0.  0.
         12    1    1    2    0    0 -0.15145463115E+02  0.34428962610E+02 -0.15441099408E+02  0.40659144978E+02  0.00000000000E+00 0. -1.
         11    1    3    3    0    0  0.95986111438E+01 -0.78830190072E+01 -0.42730129400E+01  0.13135218476E+02  0.51100000000E-03 0. -1.
        -11    1    3    3    0    0  0.54857887427E+01 -0.16420887977E+02  0.25978816814E+01  0.17506810948E+02  0.51100000000E-03 0.  1.
         12    1    3    3    0    0  0.61063228174E-01 -0.10125055626E+02  0.17116230667E+02  0.19886825599E+02  0.00000000000E+00 0. -1.
</event>
<event>
 7    1  0.1381607E-011  0.5052886E+02  0.7816164E-02  0.1300439E+00
        -11   -1    0    0    0    0  0.00000000000E+00  0.00000000000E+00  0.45593999997E+02  0.45594000000E+02  0.51100000000E-03 0.  1.
         11   -1    0    0    0    0 -0.00000000000E+00 -0.00000000000E+00 -0.45593999997E+02  0.45594000000E+02  0.51100000000E-03 0. -1.
    9900012    2    1    2    0    0  0.38620186384E+02 -0.12692773259E+02  0.73497487032E+00  0.50528862313E+02  0.30000007488E+02 0.  0.
         12    1    1    2    0    0 -0.38620186384E+02  0.12692773259E+02 -0.73497487032E+00  0.40659137687E+02  0.00000000000E+00 0. -1.
         11    1    3    3    0    0 -0.39062113285E+00  0.19280269457E+01 -0.86792317786E+00  0.21501543378E+01  0.51100000000E-03 0. -1.
        -11    1    3    3    0    0  0.13765089354E+02 -0.16744024778E+02 -0.48997046961E+01  0.22222672140E+02  0.51100000000E-03 0.  1.
        -12    1    3    3    0    0  0.25245718163E+02  0.21232245734E+01  0.65026027443E+01  0.26156035835E+02  0.00000000000E+00 0.  1.
</event>
<event>
 7    1  0.1381607E-011  0.5052886E+02  0.7816164E-02  0.1300439E+00
        -11   -1    0    0    0    0  0.00000000000E+00  0.00000000000E+00  0.45593999997E+02  0.45594000000E+02  0.51100000000E-03 0.  1.
         11   -1    0    0    0    0 -0.00000000000E+00 -0.00000000000E+00 -0.45593999997E+02  0.45594000000E+02  0.51100000000E-03 0. -1.
    9900012    2    1    2    0    0 -0.80383607328E+01 -0.10640918151E+02  0.38409910278E+02  0.50528860930E+02  0.30000003283E+02 0.  0.
         12    1    1    2    0    0  0.80383607328E+01  0.10640918151E+02 -0.38409910278E+02  0.40659139070E+02  0.00000000000E+00 0. -1.
         11    1    3    3    0    0  0.63101139037E+01 -0.30955157782E+01  0.54260818905E+01  0.88793085516E+01  0.51100000000E-03 0. -1.
        -11    1    3    3    0    0 -0.13837908584E+01  0.41035618663E+01 -0.14972690184E-01  0.43306260024E+01  0.51100000000E-03 0.  1.
        -12    1    3    3    0    0 -0.12964683778E+02 -0.11648964239E+02  0.32998801078E+02  0.37318926376E+02  0.00000000000E+00 0.  1.
</event>
<event>
 7    1  0.1381607E-011  0.5052885E+02  0.7816164E-02  0.1300439E+00
        -11   -1    0    0    0    0  0.00000000000E+00  0.00000000000E+00  0.45593999997E+02  0.45594000000E+02  0.51100000000E-03 0.  1.
         11   -1    0    0    0    0 -0.00000000000E+00 -0.00000000000E+00 -0.45593999997E+02  0.45594000000E+02  0.51100000000E-03 0. -1.
    9900012    2    1    2    0    0 -0.40837167579E+01  0.80561531026E+01  0.39643256956E+02  0.50528853828E+02  0.29999981696E+02 0.  0.
         12    1    1    2    0    0  0.40837167579E+01 -0.80561531026E+01 -0.39643256956E+02  0.40659146172E+02  0.00000000000E+00 0. -1.
         11    1    3    3    0    0 -0.19266052720E+01  0.11800281923E+02  0.21586297693E+02  0.24676440377E+02  0.51100000000E-03 0. -1.
        -11    1    3    3    0    0  0.69822191592E+01  0.23218234863E+01  0.90167045078E+01  0.11638007095E+02  0.51100000000E-03 0.  1.
         12    1    3    3    0    0 -0.91393306452E+01 -0.60659523068E+01  0.90402547553E+01  0.14214406357E+02  0.00000000000E+00 0. -1.
</event>
<event>
 7    1  0.1381607E-011  0.5052886E+02  0.7816164E-02  0.1300439E+00
        -11   -1    0    0    0    0  0.00000000000E+00  0.00000000000E+00  0.45593999997E+02  0.45594000000E+02  0.51100000000E-03 0.  1.
         11   -1    0    0    0    0 -0.00000000000E+00 -0.00000000000E+00 -0.45593999997E+02  0.45594000000E+02  0.51100000000E-03 0. -1.
    9900012    2    1    2    0    0 -0.15318097046E+02  0.37054472383E+02  0.67444710048E+01  0.50528856996E+02  0.29999991324E+02 0.  0.
         12    1    1    2    0    0  0.15318097046E+02 -0.37054472383E+02 -0.67444710048E+01  0.40659143004E+02  0.00000000000E+00 0. -1.
         11    1    3    3    0    0  0.59962407991E+00 -0.30175476869E+00 -0.86892117887E+00  0.10980114999E+01  0.51100000000E-03 0. -1.
        -11    1    3    3    0    0 -0.15498699410E+02  0.16573116613E+02  0.15189836638E+02  0.27305842141E+02  0.51100000000E-03 0.  1.
         12    1    3    3    0    0 -0.41902171608E+00  0.20783110539E+02 -0.75764444548E+01  0.22125003355E+02  0.00000000000E+00 0. -1.
</event>
<event>
 7    1  0.1381607E-011  0.5052886E+02  0.7816164E-02  0.1300439E+00
        -11   -1    0    0    0    0  0.00000000000E+00  0.00000000000E+00  0.45593999997E+02  0.45594000000E+02  0.51100000000E-03 0.  1.
         11   -1    0    0    0    0 -0.00000000000E+00 -0.00000000000E+00 -0.45593999997E+02  0.45594000000E+02  0.51100000000E-03 0. -1.
    9900012    2    1    2    0    0 -0.10013594077E+01 -0.40610423136E+02 -0.17194432769E+01  0.50528859906E+02  0.30000000171E+02 0.  0.
         12    1    1    2    0    0  0.10013594077E+01  0.40610423136E+02  0.17194432769E+01  0.40659140094E+02  0.00000000000E+00 0. -1.
         11    1    3    3    0    0 -0.43505618997E+01 -0.13094255326E+02 -0.86918768602E+01  0.16307533075E+02  0.51100000000E-03 0. -1.
        -11    1    3    3    0    0 -0.50566247365E+00 -0.28981927694E+02  0.77945763210E+01  0.30016049834E+02  0.51100000000E-03 0.  1.
         12    1    3    3    0    0  0.38548649656E+01  0.14657598832E+01 -0.82214273779E+00  0.42052769967E+01  0.00000000000E+00 0. -1.
</event>
<event>
 7    1  0.1381607E-011  0.5052885E+02  0.7816164E-02  0.1300439E+00
        -11   -1    0    0    0    0  0.00000000000E+00  0.00000000000E+00  0.45593999997E+02  0.45594000000E+02  0.51100000000E-03 0.  1.
         11   -1    0    0    0    0 -0.00000000000E+00 -0.00000000000E+00 -0.45593999997E+02  0.45594000000E+02  0.51100000000E-03 0. -1.
    9900012    2    1    2    0    0 -0.21902780029E+02 -0.15241926458E+02  0.30677646672E+02  0.50528854652E+02  0.29999984199E+02 0.  0.
         12    1    1    2    0    0  0.21902780029E+02  0.15241926458E+02 -0.30677646672E+02  0.40659145348E+02  0.00000000000E+00 0. -1.
         11    1    3    3    0    0  0.78406554881E+00 -0.13600218930E+01  0.16317436408E+02  0.16392777358E+02  0.51100000000E-03 0. -1.
        -11    1    3    3    0    0 -0.17493675117E+02 -0.22642409430E+01  0.11607882573E+02  0.21116306358E+02  0.51100000000E-03 0.  1.
         12    1    3    3    0    0 -0.51931704612E+01 -0.11617663622E+02  0.27523276909E+01  0.13019770935E+02  0.00000000000E+00 0. -1.
</event>
<event>
 7    1  0.1381607E-011  0.5052884E+02  0.7816164E-02  0.1300439E+00
        -11   -1    0    0    0    0  0.00000000000E+00  0.00000000000E+00  0.45593999997E+02  0.45594000000E+02  0.51100000000E-03 0. -1.
         11   -1    0    0    0    0 -0.00000000000E+00 -0.00000000000E+00 -0.45593999997E+02  0.45594000000E+02  0.51100000000E-03 0.  1.
    9900012    2    1    2    0    0  0.39405503971E+02  0.81382416961E+01  0.58431375541E+01  0.50528843865E+02  0.29999951412E+02 0.  0.
         12    1    1    2    0    0 -0.39405503971E+02 -0.81382416961E+01 -0.58431375541E+01  0.40659156135E+02  0.00000000000E+00 0. -1.
         11    1    3    3    0    0  0.46157355801E+00  0.66073695012E+01  0.53002575148E+01  0.84831074412E+01  0.51100000000E-03 0. -1.
        -11    1    3    3    0    0  0.23218652087E+02  0.61975544788E+01  0.59810273984E+01  0.24764655767E+02  0.51100000000E-03 0.  1.
         12    1    3    3    0    0  0.15725278326E+02 -0.46666822839E+01 -0.54381473590E+01  0.17281080657E+02  0.00000000000E+00 0. -1.
</event>
<event>
 7    1  0.1381607E-011  0.5052886E+02  0.7816164E-02  0.1300439E+00
        -11   -1    0    0    0    0  0.00000000000E+00  0.00000000000E+00  0.45593999997E+02  0.45594000000E+02  0.51100000000E-03 0.  1.
         11   -1    0    0    0    0 -0.00000000000E+00 -0.00000000000E+00 -0.45593999997E+02  0.45594000000E+02  0.51100000000E-03 0. -1.
    9900012    2    1    2    0    0  0.98229791624E+01  0.35431055578E+02  0.17358423074E+02  0.50528862397E+02  0.30000007741E+02 0.  0.
         12    1    1    2    0    0 -0.98229791624E+01 -0.35431055578E+02 -0.17358423074E+02  0.40659137603E+02  0.00000000000E+00 0. -1.
         11    1    3    3    0    0  0.17491002120E+02  0.11702786212E+02  0.22975249044E+01  0.21170001919E+02  0.51100000000E-03 0. -1.
        -11    1    3    3    0    0 -0.13139182701E+01  0.35085025319E+01  0.85213388553E+00  0.38421483127E+01  0.51100000000E-03 0.  1.
         12    1    3    3    0    0 -0.63541046877E+01  0.20219766835E+02  0.14208764285E+02  0.25516712165E+02  0.00000000000E+00 0. -1.
</event>
<event>
 7    1  0.1381607E-011  0.5052884E+02  0.7816164E-02  0.1300439E+00
        -11   -1    0    0    0    0  0.00000000000E+00  0.00000000000E+00  0.45593999997E+02  0.45594000000E+02  0.51100000000E-03 0.  1.
         11   -1    0    0    0    0 -0.00000000000E+00 -0.00000000000E+00 -0.45593999997E+02  0.45594000000E+02  0.51100000000E-03 0. -1.
    9900012    2    1    2    0    0  0.28084956340E+02 -0.28754097508E+02  0.61322183101E+01  0.50528843620E+02  0.29999950667E+02 0.  0.
         12    1    1    2    0    0 -0.28084956340E+02  0.28754097508E+02 -0.61322183101E+01  0.40659156380E+02  0.00000000000E+00 0. -1.
         11    1    3    3    0    0  0.24652371546E+01  0.16284955557E+01 -0.66085886746E+01  0.72389803519E+01  0.51100000000E-03 0.  1.
        -11    1    3    3    0    0  0.71335165419E+01 -0.90169742664E+01 -0.15955254259E+01  0.11607695069E+02  0.51100000000E-03 0. -1.
        -12    1    3    3    0    0  0.18486202644E+02 -0.21365618798E+02  0.14336332411E+02  0.31682168199E+02  0.00000000000E+00 0.  1.
</event>
<event>
 7    1  0.1381607E-011  0.5052887E+02  0.7816164E-02  0.1300439E+00
        -11   -1    0    0    0    0  0.00000000000E+00  0.00000000000E+00  0.45593999997E+02  0.45594000000E+02  0.51100000000E-03 0. -1.
         11   -1    0    0    0    0 -0.00000000000E+00 -0.00000000000E+00 -0.45593999997E+02  0.45594000000E+02  0.51100000000E-03 0.  1.
    9900012    2    1    2    0    0  0.38591196663E+02 -0.40146148460E+01  0.12155965358E+02  0.50528867126E+02  0.30000022116E+02 0.  0.
         12    1    1    2    0    0 -0.38591196663E+02  0.40146148460E+01 -0.12155965358E+02  0.40659132874E+02  0.00000000000E+00 0. -1.
         11    1    3    3    0    0  0.52254763194E+01 -0.65277358273E+01 -0.67372959235E+01  0.10738160663E+02  0.51100000000E-03 0. -1.
        -11    1    3    3    0    0  0.60453239630E+01 -0.35292105343E+01  0.45401974989E+01  0.83435401601E+01  0.51100000000E-03 0.  1.
        -12    1    3    3    0    0  0.27320396381E+02  0.60423315155E+01  0.14353063783E+02  0.31447166303E+02  0.00000000000E+00 0.  1.
</event>
<event>
 7    1  0.1381607E-011  0.5052886E+02  0.7816164E-02  0.1300439E+00
        -11   -1    0    0    0    0  0.00000000000E+00  0.00000000000E+00  0.45593999997E+02  0.45594000000E+02  0.51100000000E-03 0.  1.
         11   -1    0    0    0    0 -0.00000000000E+00 -0.00000000000E+00 -0.45593999997E+02  0.45594000000E+02  0.51100000000E-03 0. -1.
    9900012    2    1    2    0    0 -0.22946796389E+02 -0.31024859256E+02 -0.12808913676E+02  0.50528860487E+02  0.30000001937E+02 0.  0.
         12    1    1    2    0    0  0.22946796389E+02  0.31024859256E+02  0.12808913676E+02  0.40659139513E+02  0.00000000000E+00 0. -1.
         11    1    3    3    0    0 -0.44206968643E+01 -0.15175384788E+02 -0.31627776272E+01  0.16119492138E+02  0.51100000000E-03 0. -1.
        -11    1    3    3    0    0 -0.12215339411E+01 -0.77022752198E+01 -0.12835335892E+02  0.15018756155E+02  0.51100000000E-03 0.  1.
         12    1    3    3    0    0 -0.17304565583E+02 -0.81471992484E+01  0.31891998428E+01  0.19390612194E+02  0.00000000000E+00 0. -1.
</event>
<event>
 7    1  0.1381607E-011  0.5052886E+02  0.7816164E-02  0.1300439E+00
        -11   -1    0    0    0    0  0.00000000000E+00  0.00000000000E+00  0.45593999997E+02  0.45594000000E+02  0.51100000000E-03 0.  1.
         11   -1    0    0    0    0 -0.00000000000E+00 -0.00000000000E+00 -0.45593999997E+02  0.45594000000E+02  0.51100000000E-03 0. -1.
    9900012    2    1    2    0    0 -0.32807762953E+02 -0.12517414357E+01  0.23984365829E+02  0.50528856246E+02  0.29999989045E+02 0.  0.
         12    1    1    2    0    0  0.32807762953E+02  0.12517414357E+01 -0.23984365829E+02  0.40659143754E+02  0.00000000000E+00 0. -1.
         11    1    3    3    0    0  0.10834385575E+00 -0.20489721235E+00 -0.15083941194E+01  0.15260977489E+01  0.51100000000E-03 0.  1.
        -11    1    3    3    0    0 -0.31816787159E+01  0.63659818441E+01 -0.24545696392E+01  0.75281947813E+01  0.51100000000E-03 0. -1.
        -12    1    3    3    0    0 -0.29734428093E+02 -0.74128260675E+01  0.27947329588E+02  0.41474563716E+02  0.00000000000E+00 0.  1.
</event>
<event>
 7    1  0.1381607E-011  0.5052886E+02  0.7816164E-02  0.1300439E+00
        -11   -1    0    0    0    0  0.00000000000E+00  0.00000000000E+00  0.45593999997E+02  0.45594000000E+02  0.51100000000E-03 0.  1.
         11   -1    0    0    0    0 -0.00000000000E+00 -0.00000000000E+00 -0.45593999997E+02  0.45594000000E+02  0.51100000000E-03 0. -1.
    9900012    2    1    2    0    0  0.13552004115E+02  0.24884742453E+02  0.29159190505E+02  0.50528860642E+02  0.30000002407E+02 0.  0.
         12    1    1    2    0    0 -0.13552004115E+02 -0.24884742453E+02 -0.29159190505E+02  0.40659139358E+02  0.00000000000E+00 0. -1.
         11    1    3    3    0    0 -0.34286325541E+01 -0.24208192243E+01  0.47356909803E+01  0.63279266928E+01  0.51100000000E-03 0. -1.
        -11    1    3    3    0    0  0.16796964426E+02  0.10037047410E+02  0.12665736085E+02  0.23308822481E+02  0.51100000000E-03 0.  1.
         12    1    3    3    0    0  0.18367224315E+00  0.17268514267E+02  0.11757763439E+02  0.20892111467E+02  0.00000000000E+00 0. -1.
</event>
<event>
 7    1  0.1381607E-011  0.5052882E+02  0.7816164E-02  0.1300439E+00
        -11   -1    0    0    0    0  0.00000000000E+00  0.00000000000E+00  0.45593999997E+02  0.45594000000E+02  0.51100000000E-03 0. -1.
         11   -1    0    0    0    0 -0.00000000000E+00 -0.00000000000E+00 -0.45593999997E+02  0.45594000000E+02  0.51100000000E-03 0.  1.
    9900012    2    1    2    0    0 -0.12376917541E+02 -0.97739031891E+01 -0.37476011087E+02  0.50528822950E+02  0.29999887839E+02 0.  0.
         12    1    1    2    0    0  0.12376917541E+02  0.97739031891E+01  0.37476011087E+02  0.40659177050E+02  0.00000000000E+00 0. -1.
         11    1    3    3    0    0 -0.18013185422E+02  0.70028203773E+00 -0.22529465129E+02  0.28853804658E+02  0.51100000000E-03 0. -1.
        -11    1    3    3    0    0  0.45322821019E+01 -0.21938264055E+01 -0.11655180380E+02  0.12696365043E+02  0.51100000000E-03 0.  1.
        -12    1    3    3    0    0  0.11039857785E+01 -0.82803588213E+01 -0.32913655782E+01  0.89786532497E+01  0.00000000000E+00 0.  1.
</event>
<event>
 7    1  0.1381607E-011  0.5052886E+02  0.7816164E-02  0.1300439E+00
        -11   -1    0    0    0    0  0.00000000000E+00  0.00000000000E+00  0.45593999997E+02  0.45594000000E+02  0.51100000000E-03 0. -1.
         11   -1    0    0    0    0 -0.00000000000E+00 -0.00000000000E+00 -0.45593999997E+02  0.45594000000E+02  0.51100000000E-03 0.  1.
    9900012    2    1    2    0    0 -0.24331498531E+02 -0.30725176678E+02 -0.10821619212E+02  0.50528859022E+02  0.29999997485E+02 0.  0.
         12    1    1    2    0    0  0.24331498531E+02  0.30725176678E+02  0.10821619212E+02  0.40659140978E+02  0.00000000000E+00 0. -1.
         11    1    3    3    0    0 -0.16627373148E+02 -0.53307447578E+01 -0.20850766197E+01  0.17585048258E+02  0.51100000000E-03 0.  1.
        -11    1    3    3    0    0 -0.31631770941E+01 -0.26620761072E+02 -0.88727701801E+01  0.28238212767E+02  0.51100000000E-03 0. -1.
         12    1    3    3    0    0 -0.45409482894E+01  0.12263291515E+01  0.13622758752E+00  0.47055979971E+01  0.00000000000E+00 0. -1.
</event>
<event>
 7    1  0.1381607E-011  0.5052886E+02  0.7816164E-02  0.1300439E+00
        -11   -1    0    0    0    0  0.00000000000E+00  0.00000000000E+00  0.45593999997E+02  0.45594000000E+02  0.51100000000E-03 0. -1.
         11   -1    0    0    0    0 -0.00000000000E+00 -0.00000000000E+00 -0.45593999997E+02  0.45594000000E+02  0.51100000000E-03 0.  1.
    9900012    2    1    2    0    0 -0.49976188493E+01  0.29153940030E+02 -0.27896908082E+02  0.50528857191E+02  0.29999991918E+02 0.  0.
         12    1    1    2    0    0  0.49976188493E+01 -0.29153940030E+02  0.27896908082E+02  0.40659142809E+02  0.00000000000E+00 0. -1.
         11    1    3    3    0    0 -0.13126315729E+01 -0.15799714472E+01  0.30721577268E+01  0.36956007333E+01  0.51100000000E-03 0.  1.
        -11    1    3    3    0    0 -0.52386072642E+01  0.15129973587E+02 -0.55107136696E+01  0.16933017222E+02  0.51100000000E-03 0. -1.
        -12    1    3    3    0    0  0.15536199879E+01  0.15603937890E+02 -0.25458352139E+02  0.29900239236E+02  0.00000000000E+00 0.  1.
</event>
<event>
 7    1  0.1381607E-011  0.5052883E+02  0.7816164E-02  0.1300439E+00
        -11   -1    0    0    0    0  0.00000000000E+00  0.00000000000E+00  0.45593999997E+02  0.45594000000E+02  0.51100000000E-03 0. -1.
         11   -1    0    0    0    0 -0.00000000000E+00 -0.00000000000E+00 -0.45593999997E+02  0.45594000000E+02  0.51100000000E-03 0.  1.
    9900012    2    1    2    0    0  0.12206562582E+02  0.38626310615E+02 -0.34893833281E+01  0.50528833287E+02  0.29999919258E+02 0.  0.
         12    1    1    2    0    0 -0.12206562582E+02 -0.38626310615E+02  0.34893833281E+01  0.40659166713E+02  0.00000000000E+00 0. -1.
         11    1    3    3    0    0  0.38469195206E+01  0.30412312942E+01  0.44115779814E+01  0.65962033117E+01  0.51100000000E-03 0. -1.
        -11    1    3    3    0    0 -0.76318851420E+01  0.14993841575E+02 -0.50376634487E+00  0.16831955822E+02  0.51100000000E-03 0.  1.
         12    1    3    3    0    0  0.15991528204E+02  0.20591237746E+02 -0.73971949646E+01  0.27100674153E+02  0.00000000000E+00 0. -1.
</event>
<event>
 7    1  0.1381607E-011  0.5052885E+02  0.7816164E-02  0.1300439E+00
        -11   -1    0    0    0    0  0.00000000000E+00  0.00000000000E+00  0.45593999997E+02  0.45594000000E+02  0.51100000000E-03 0. -1.
         11   -1    0    0    0    0 -0.00000000000E+00 -0.00000000000E+00 -0.45593999997E+02  0.45594000000E+02  0.51100000000E-03 0.  1.
    9900012    2    1    2    0    0 -0.93175015938E+01  0.20075577548E+02 -0.34107498644E+02  0.50528854490E+02  0.29999983708E+02 0.  0.
         12    1    1    2    0    0  0.93175015938E+01 -0.20075577548E+02  0.34107498644E+02  0.40659145510E+02  0.00000000000E+00 0. -1.
         11    1    3    3    0    0 -0.86897151708E+01  0.17854034226E+02 -0.14362295911E+02  0.24506187627E+02  0.51100000000E-03 0. -1.
        -11    1    3    3    0    0  0.34500350202E+01  0.86295168312E+01 -0.11955901051E+02  0.15143146060E+02  0.51100000000E-03 0.  1.
         12    1    3    3    0    0 -0.40778214432E+01 -0.64079735095E+01 -0.77893016820E+01  0.10879520804E+02  0.00000000000E+00 0. -1.
</event>
<event>
 7    1  0.1381607E-011  0.5052887E+02  0.7816164E-02  0.1300439E+00
        -11   -1    0    0    0    0  0.00000000000E+00  0.00000000000E+00  0.45593999997E+02  0.45594000000E+02  0.51100000000E-03 0.  1.
         11   -1    0    0    0    0 -0.00000000000E+00 -0.00000000000E+00 -0.45593999997E+02  0.45594000000E+02  0.51100000000E-03 0. -1.
    9900012    2    1    2    0    0  0.30550667034E+02 -0.12701755236E+02  0.23632334264E+02  0.50528867385E+02  0.30000022902E+02 0.  0.
         12    1    1    2    0    0 -0.30550667034E+02  0.12701755236E+02 -0.23632334264E+02  0.40659132615E+02  0.00000000000E+00 0. -1.
         11    1    3    3    0    0 -0.13595687701E+01 -0.86197016013E+01  0.43810191798E+01  0.97642722335E+01  0.51100000000E-03 0.  1.
        -11    1    3    3    0    0  0.33724896806E+01  0.47984928629E+01  0.17083451938E+01  0.61088185407E+01  0.51100000000E-03 0. -1.
        -12    1    3    3    0    0  0.28537746123E+02 -0.88805464975E+01  0.17542969890E+02  0.34655776610E+02  0.00000000000E+00 0.  1.
</event>
<event>
 7    1  0.1381607E-011  0.5052885E+02  0.7816164E-02  0.1300439E+00
        -11   -1    0    0    0    0  0.00000000000E+00  0.00000000000E+00  0.45593999997E+02  0.45594000000E+02  0.51100000000E-03 0.  1.
         11   -1    0    0    0    0 -0.00000000000E+00 -0.00000000000E+00 -0.45593999997E+02  0.45594000000E+02  0.51100000000E-03 0. -1.
    9900012    2    1    2    0    0 -0.14115115295E+02 -0.24513466286E+02  0.29206504070E+02  0.50528851102E+02  0.29999973408E+02 0.  0.
         12    1    1    2    0    0  0.14115115295E+02  0.24513466286E+02 -0.29206504070E+02  0.40659148898E+02  0.00000000000E+00 0. -1.
         11    1    3    3    0    0 -0.26241963118E+01  0.14148440866E-01  0.19895414405E+02  0.20067738315E+02  0.51100000000E-03 0. -1.
        -11    1    3    3    0    0 -0.92099857184E+01 -0.10842453133E+02  0.84811169084E+01  0.16562366109E+02  0.51100000000E-03 0.  1.
        -12    1    3    3    0    0 -0.22809332651E+01 -0.13685161594E+02  0.82997275648E+00  0.13898746677E+02  0.00000000000E+00 0.  1.
</event>
<event>
 7    1  0.1381607E-011  0.5052886E+02  0.7816164E-02  0.1300439E+00
        -11   -1    0    0    0    0  0.00000000000E+00  0.00000000000E+00  0.45593999997E+02  0.45594000000E+02  0.51100000000E-03 0. -1.
         11   -1    0    0    0    0 -0.00000000000E+00 -0.00000000000E+00 -0.45593999997E+02  0.45594000000E+02  0.51100000000E-03 0.  1.
    9900012    2    1    2    0    0 -0.39721787525E+01  0.40786743640E+01 -0.40258567161E+02  0.50528855660E+02  0.29999987265E+02 0.  0.
         12    1    1    2    0    0  0.39721787525E+01 -0.40786743640E+01  0.40258567161E+02  0.40659144340E+02  0.00000000000E+00 0. -1.
         11    1    3    3    0    0 -0.71103587420E+01  0.22192339727E+01 -0.12945139992E+01  0.75602888583E+01  0.51100000000E-03 0. -1.
        -11    1    3    3    0    0 -0.44365565481E+01  0.74625224404E+01 -0.19398670553E+02  0.21252780869E+02  0.51100000000E-03 0.  1.
        -12    1    3    3    0    0  0.75747365376E+01 -0.56030820491E+01 -0.19565382609E+02  0.21715785933E+02  0.00000000000E+00 0.  1.
</event>
<event>
 7    1  0.1381607E-011  0.5052886E+02  0.7816164E-02  0.1300439E+00
        -11   -1    0    0    0    0  0.00000000000E+00  0.00000000000E+00  0.45593999997E+02  0.45594000000E+02  0.51100000000E-03 0.  1.
         11   -1    0    0    0    0 -0.00000000000E+00 -0.00000000000E+00 -0.45593999997E+02  0.45594000000E+02  0.51100000000E-03 0. -1.
    9900012    2    1    2    0    0  0.70223763047E+01  0.18508713404E+02  0.35514497377E+02  0.50528858780E+02  0.29999996747E+02 0.  0.
         12    1    1    2    0    0 -0.70223763047E+01 -0.18508713404E+02 -0.35514497377E+02  0.40659141220E+02  0.00000000000E+00 0. -1.
         11    1    3    3    0    0  0.41522734822E+00  0.75059345940E+01  0.21348550827E+02  0.22633428608E+02  0.51100000000E-03 0. -1.
        -11    1    3    3    0    0 -0.45385803901E+01  0.11814849905E+02  0.57282686838E+01  0.13892532260E+02  0.51100000000E-03 0.  1.
         12    1    3    3    0    0  0.11145729347E+02 -0.81207109504E+00  0.84376778659E+01  0.14002897911E+02  0.00000000000E+00 0. -1.
</event>
<event>
 7    1  0.1381607E-011  0.5052886E+02  0.7816164E-02  0.1300439E+00
        -11   -1    0    0    0    0  0.00000000000E+00  0.00000000000E+00  0.45593999997E+02  0.45594000000E+02  0.51100000000E-03 0.  1.
         11   -1    0    0    0    0 -0.00000000000E+00 -0.00000000000E+00 -0.45593999997E+02  0.45594000000E+02  0.51100000000E-03 0. -1.
    9900012    2    1    2    0    0 -0.17822057258E+02 -0.58479727728E+01  0.36074108748E+02  0.50528857947E+02  0.29999994217E+02 0.  0.
         12    1    1    2    0    0  0.17822057258E+02  0.58479727728E+01 -0.36074108748E+02  0.40659142053E+02  0.00000000000E+00 0. -1.
         11    1    3    3    0    0  0.39424351894E+01 -0.35379816780E+01  0.10956824505E+02  0.12170132007E+02  0.51100000000E-03 0. -1.
        -11    1    3    3    0    0 -0.91449094968E+01 -0.78074779403E+01  0.20634041390E+02  0.23881996270E+02  0.51100000000E-03 0.  1.
        -12    1    3    3    0    0 -0.12619582951E+02  0.54974868455E+01  0.44832428535E+01  0.14476729671E+02  0.00000000000E+00 0.  1.
</event>
<event>
 7    1  0.1381607E-011  0.5052886E+02  0.7816164E-02  0.1300439E+00
        -11   -1    0    0    0    0  0.00000000000E+00  0.00000000000E+00  0.45593999997E+02  0.45594000000E+02  0.51100000000E-03 0. -1.
         11   -1    0    0    0    0 -0.00000000000E+00 -0.00000000000E+00 -0.45593999997E+02  0.45594000000E+02  0.51100000000E-03 0.  1.
    9900012    2    1    2    0    0 -0.28783060425E+02  0.13461991555E+02 -0.25366832963E+02  0.50528855904E+02  0.29999988005E+02 0.  0.
         12    1    1    2    0    0  0.28783060425E+02 -0.13461991555E+02  0.25366832963E+02  0.40659144096E+02  0.00000000000E+00 0. -1.
         11    1    3    3    0    0  0.22463825415E+00 -0.29284624229E+01 -0.54470680289E+00  0.29871491878E+01  0.51100000000E-03 0. -1.
        -11    1    3    3    0    0 -0.20328790788E+02  0.20510232513E+01 -0.40142409295E+01  0.20822597383E+02  0.51100000000E-03 0.  1.
        -12    1    3    3    0    0 -0.86789078911E+01  0.14339430727E+02 -0.20807885231E+02  0.26719109333E+02  0.00000000000E+00 0.  1.
</event>
<event>
 7    1  0.1381607E-011  0.5052888E+02  0.7816164E-02  0.1300439E+00
        -11   -1    0    0    0    0  0.00000000000E+00  0.00000000000E+00  0.45593999997E+02  0.45594000000E+02  0.51100000000E-03 0.  1.
         11   -1    0    0    0    0 -0.00000000000E+00 -0.00000000000E+00 -0.45593999997E+02  0.45594000000E+02  0.51100000000E-03 0. -1.
    9900012    2    1    2    0    0 -0.37344712112E+02  0.10316698472E+02 -0.12332978154E+02  0.50528878758E+02  0.30000057471E+02 0.  0.
         12    1    1    2    0    0  0.37344712112E+02 -0.10316698472E+02  0.12332978154E+02  0.40659121242E+02  0.00000000000E+00 0. -1.
         11    1    3    3    0    0 -0.85273906027E+01  0.28895683675E+01  0.97854250041E+01  0.13297388413E+02  0.51100000000E-03 0.  1.
        -11    1    3    3    0    0 -0.19712508347E+02  0.34681423529E+01 -0.14440687618E+02  0.24680852008E+02  0.51100000000E-03 0. -1.
        -12    1    3    3    0    0 -0.91048131625E+01  0.39589877520E+01 -0.76777155392E+01  0.12550638336E+02  0.00000000000E+00 0.  1.
</event>
<event>
 7    1  0.1381607E-011  0.5052886E+02  0.7816164E-02  0.1300439E+00
        -11   -1    0    0    0    0  0.00000000000E+00  0.00000000000E+00  0.45593999997E+02  0.45594000000E+02  0.51100000000E-03 0.  1.
         11   -1    0    0    0    0 -0.00000000000E+00 -0.00000000000E+00 -0.45593999997E+02  0.45594000000E+02  0.51100000000E-03 0. -1.
    9900012    2    1    2    0    0 -0.31463887286E+02  0.22076384104E+02  0.13259806922E+02  0.50528863046E+02  0.30000009714E+02 0.  0.
         12    1    1    2    0    0  0.31463887286E+02 -0.22076384104E+02 -0.13259806922E+02  0.40659136954E+02  0.00000000000E+00 0. -1.
         11    1    3    3    0    0 -0.20181864047E+02  0.16219125310E+02  0.58911441604E+00  0.25898160520E+02  0.51100000000E-03 0. -1.
        -11    1    3    3    0    0 -0.43036450785E+01  0.92489397240E+01  0.13395958619E+02  0.16837932016E+02  0.51100000000E-03 0.  1.
         12    1    3    3    0    0 -0.69783781608E+01 -0.33916809306E+01 -0.72526611329E+00  0.77927705102E+01  0.00000000000E+00 0. -1.
</event>
<event>
 7    1  0.1381607E-011  0.5052886E+02  0.7816164E-02  0.1300439E+00
        -11   -1    0    0    0    0  0.00000000000E+00  0.00000000000E+00  0.45593999997E+02  0.45594000000E+02  0.51100000000E-03 0. -1.
         11   -1    0    0    0    0 -0.00000000000E+00 -0.00000000000E+00 -0.45593999997E+02  0.45594000000E+02  0.51100000000E-03 0.  1.
    9900012    2    1    2    0    0 -0.12758596893E+02  0.29876708336E+02 -0.24449251647E+02  0.50528863244E+02  0.30000010316E+02 0.  0.
         12    1    1    2    0    0  0.12758596893E+02 -0.29876708336E+02  0.24449251647E+02  0.40659136756E+02  0.00000000000E+00 0. -1.
         11    1    3    3    0    0 -0.57612213968E+01  0.35067286187E+01  0.10009116619E+01  0.68184046524E+01  0.51100000000E-03 0. -1.
        -11    1    3    3    0    0  0.19717470434E+01  0.23637012838E+02 -0.10223767246E+02  0.25828696818E+02  0.51100000000E-03 0.  1.
        -12    1    3    3    0    0 -0.89691225398E+01  0.27329668786E+01 -0.15226396062E+02  0.17881761774E+02  0.00000000000E+00 0.  1.
</event>
<event>
 7    1  0.1381607E-011  0.5052886E+02  0.7816164E-02  0.1300439E+00
        -11   -1    0    0    0    0  0.00000000000E+00  0.00000000000E+00  0.45593999997E+02  0.45594000000E+02  0.51100000000E-03 0.  1.
         11   -1    0    0    0    0 -0.00000000000E+00 -0.00000000000E+00 -0.45593999997E+02  0.45594000000E+02  0.51100000000E-03 0. -1.
    9900012    2    1    2    0    0 -0.69505811450E+00 -0.39791357471E+02  0.83264971737E+01  0.50528858466E+02  0.29999995792E+02 0.  0.
         12    1    1    2    0    0  0.69505811450E+00  0.39791357471E+02 -0.83264971737E+01  0.40659141534E+02  0.00000000000E+00 0. -1.
         11    1    3    3    0    0  0.31452947479E+01 -0.92744371790E+01 -0.82912992775E+01  0.12831746101E+02  0.51100000000E-03 0. -1.
        -11    1    3    3    0    0 -0.46222163278E+01 -0.21768809581E+01  0.47035692578E+01  0.69445848336E+01  0.51100000000E-03 0.  1.
         12    1    3    3    0    0  0.78186346540E+00 -0.28340039334E+02  0.11914227193E+02  0.30752527531E+02  0.00000000000E+00 0. -1.
</event>
<event>
 7    1  0.1381607E-011  0.5052886E+02  0.7816164E-02  0.1300439E+00
        -11   -1    0    0    0    0  0.00000000000E+00  0.00000000000E+00  0.45593999997E+02  0.45594000000E+02  0.51100000000E-03 0. -1.
         11   -1    0    0    0    0 -0.00000000000E+00 -0.00000000000E+00 -0.45593999997E+02  0.45594000000E+02  0.51100000000E-03 0.  1.
    9900012    2    1    2    0    0  0.22878190525E+01 -0.32022833574E+02 -0.24949337127E+02  0.50528863152E+02  0.30000010037E+02 0.  0.
         12    1    1    2    0    0 -0.22878190525E+01  0.32022833574E+02  0.24949337127E+02  0.40659136848E+02  0.00000000000E+00 0. -1.
         11    1    3    3    0    0  0.64661508157E+01 -0.32131699012E+01  0.35277748751E+01  0.80362157149E+01  0.51100000000E-03 0.  1.
        -11    1    3    3    0    0  0.19060341949E+01 -0.15695950338E+02 -0.88606923649E+01  0.18124781180E+02  0.51100000000E-03 0. -1.
        -12    1    3    3    0    0 -0.60843659581E+01 -0.13113713335E+02 -0.19616419637E+02  0.24367866257E+02  0.00000000000E+00 0.  1.
</event>
<event>
 7    1  0.1381607E-011  0.5052886E+02  0.7816164E-02  0.1300439E+00
        -11   -1    0    0    0    0  0.00000000000E+00  0.00000000000E+00  0.45593999997E+02  0.45594000000E+02  0.51100000000E-03 0.  1.
         11   -1    0    0    0    0 -0.00000000000E+00 -0.00000000000E+00 -0.45593999997E+02  0.45594000000E+02  0.51100000000E-03 0. -1.
    9900012    2    1    2    0    0  0.13384885313E+02  0.46031872766E+01  0.38115894724E+02  0.50528856889E+02  0.29999991000E+02 0.  0.
         12    1    1    2    0    0 -0.13384885313E+02 -0.46031872766E+01 -0.38115894724E+02  0.40659143111E+02  0.00000000000E+00 0. -1.
         11    1    3    3    0    0  0.25646689618E+01 -0.37498924705E+01 -0.21119720317E+01  0.50099547451E+01  0.51100000000E-03 0. -1.
        -11    1    3    3    0    0  0.84784909669E+01 -0.31897572133E+01  0.12919219117E+02  0.15778643256E+02  0.51100000000E-03 0.  1.
        -12    1    3    3    0    0  0.23417253839E+01  0.11542836960E+02  0.27308647638E+02  0.29740258888E+02  0.00000000000E+00 0.  1.
</event>
<event>
 7    1  0.1381607E-011  0.5052888E+02  0.7816164E-02  0.1300439E+00
        -11   -1    0    0    0    0  0.00000000000E+00  0.00000000000E+00  0.45593999997E+02  0.45594000000E+02  0.51100000000E-03 0. -1.
         11   -1    0    0    0    0 -0.00000000000E+00 -0.00000000000E+00 -0.45593999997E+02  0.45594000000E+02  0.51100000000E-03 0.  1.
    9900012    2    1    2    0    0  0.33125611735E+02 -0.20587360089E+02  0.11489936938E+02  0.50528878033E+02  0.30000055270E+02 0.  0.
         12    1    1    2    0    0 -0.33125611735E+02  0.20587360089E+02 -0.11489936938E+02  0.40659121967E+02  0.00000000000E+00 0. -1.
         11    1    3    3    0    0 -0.70533354626E+00 -0.70577773677E+01  0.57793898233E+01  0.91493750483E+01  0.51100000000E-03 0. -1.
        -11    1    3    3    0    0  0.13238653720E+02 -0.36102997906E+01  0.11383496151E+02  0.17829195209E+02  0.51100000000E-03 0.  1.
        -12    1    3    3    0    0  0.20592291561E+02 -0.99192829306E+01 -0.56729490361E+01  0.23550307777E+02  0.00000000000E+00 0.  1.
</event>
<event>
 7    1  0.1381607E-011  0.5052886E+02  0.7816164E-02  0.1300439E+00
        -11   -1    0    0    0    0  0.00000000000E+00  0.00000000000E+00  0.45593999997E+02  0.45594000000E+02  0.51100000000E-03 0.  1.
         11   -1    0    0    0    0 -0.00000000000E+00 -0.00000000000E+00 -0.45593999997E+02  0.45594000000E+02  0.51100000000E-03 0. -1.
    9900012    2    1    2    0    0 -0.60988228662E+01  0.21234644597E+02  0.34132975037E+02  0.50528858882E+02  0.29999997059E+02 0.  0.
         12    1    1    2    0    0  0.60988228662E+01 -0.21234644597E+02 -0.34132975037E+02  0.40659141118E+02  0.00000000000E+00 0. -1.
         11    1    3    3    0    0  0.54321133292E+01 -0.33891018016E+01  0.19706649602E+01  0.66990586569E+01  0.51100000000E-03 0. -1.
        -11    1    3    3    0    0  0.43121645653E+00  0.10615492348E+02  0.16633111897E+02  0.19736641991E+02  0.51100000000E-03 0.  1.
        -12    1    3    3    0    0 -0.11962152652E+02  0.14008254051E+02  0.15529198180E+02  0.24093158235E+02  0.00000000000E+00 0.  1.
</event>
<event>
 7    1  0.1381607E-011  0.5052885E+02  0.7816164E-02  0.1300439E+00
        -11   -1    0    0    0    0  0.00000000000E+00  0.00000000000E+00  0.45593999997E+02  0.45594000000E+02  0.51100000000E-03 0.  1.
         11   -1    0    0    0    0 -0.00000000000E+00 -0.00000000000E+00 -0.45593999997E+02  0.45594000000E+02  0.51100000000E-03 0. -1.
    9900012    2    1    2    0    0 -0.16834568476E+02 -0.80566102189E+01  0.36122769110E+02  0.50528854508E+02  0.29999983763E+02 0.  0.
         12    1    1    2    0    0  0.16834568476E+02  0.80566102189E+01 -0.36122769110E+02  0.40659145492E+02  0.00000000000E+00 0. -1.
         11    1    3    3    0    0 -0.12093920762E+02  0.67854826035E+01  0.12560814470E+02  0.18710418327E+02  0.51100000000E-03 0. -1.
        -11    1    3    3    0    0 -0.26326019137E+01 -0.40985824197E+01  0.19566577494E+02  0.20163827161E+02  0.51100000000E-03 0.  1.
         12    1    3    3    0    0 -0.21080457995E+01 -0.10743510403E+02  0.39953771456E+01  0.11654609020E+02  0.00000000000E+00 0. -1.
</event>
<event>
 7    1  0.1381607E-011  0.5052886E+02  0.7816164E-02  0.1300439E+00
        -11   -1    0    0    0    0  0.00000000000E+00  0.00000000000E+00  0.45593999997E+02  0.45594000000E+02  0.51100000000E-03 0.  1.
         11   -1    0    0    0    0 -0.00000000000E+00 -0.00000000000E+00 -0.45593999997E+02  0.45594000000E+02  0.51100000000E-03 0. -1.
    9900012    2    1    2    0    0 -0.10597359274E+01 -0.40304307792E+02  0.52541054027E+01  0.50528857235E+02  0.29999992052E+02 0.  0.
         12    1    1    2    0    0  0.10597359274E+01  0.40304307792E+02 -0.52541054027E+01  0.40659142765E+02  0.00000000000E+00 0. -1.
         11    1    3    3    0    0 -0.74760797082E+01 -0.39886669539E+01 -0.55125294404E+00  0.84914728959E+01  0.51100000000E-03 0. -1.
        -11    1    3    3    0    0 -0.40423487249E+01 -0.25879854380E+02  0.84376315848E-01  0.26193788683E+02  0.51100000000E-03 0.  1.
         12    1    3    3    0    0  0.10458692506E+02 -0.10435786457E+02  0.57209820308E+01  0.15843595656E+02  0.00000000000E+00 0. -1.
</event>
<event>
 7    1  0.1381607E-011  0.5052886E+02  0.7816164E-02  0.1300439E+00
        -11   -1    0    0    0    0  0.00000000000E+00  0.00000000000E+00  0.45593999997E+02  0.45594000000E+02  0.51100000000E-03 0.  1.
         11   -1    0    0    0    0 -0.00000000000E+00 -0.00000000000E+00 -0.45593999997E+02  0.45594000000E+02  0.51100000000E-03 0. -1.
    9900012    2    1    2    0    0  0.20342376219E+02  0.29766391875E+02  0.18796678592E+02  0.50528862262E+02  0.30000007331E+02 0.  0.
         12    1    1    2    0    0 -0.20342376219E+02 -0.29766391875E+02 -0.18796678592E+02  0.40659137738E+02  0.00000000000E+00 0. -1.
         11    1    3    3    0    0 -0.26861289734E+01  0.43869998925E+01  0.13721527893E+00  0.51458609787E+01  0.51100000000E-03 0. -1.
        -11    1    3    3    0    0  0.79884048827E+01  0.23728701317E+02  0.16770903035E+02  0.30135179900E+02  0.51100000000E-03 0.  1.
         12    1    3    3    0    0  0.15040100309E+02  0.16506906658E+01  0.18885602787E+01  0.15247821383E+02  0.00000000000E+00 0. -1.
</event>
<event>
 7    1  0.1381607E-011  0.5052884E+02  0.7816164E-02  0.1300439E+00
        -11   -1    0    0    0    0  0.00000000000E+00  0.00000000000E+00  0.45593999997E+02  0.45594000000E+02  0.51100000000E-03 0. -1.
         11   -1    0    0    0    0 -0.00000000000E+00 -0.00000000000E+00 -0.45593999997E+02  0.45594000000E+02  0.51100000000E-03 0.  1.
    9900012    2    1    2    0    0 -0.12949297800E+01 -0.38486789186E+02  0.13048275525E+02  0.50528840157E+02  0.29999940140E+02 0.  0.
         12    1    1    2    0    0  0.12949297800E+01  0.38486789186E+02 -0.13048275525E+02  0.40659159843E+02  0.00000000000E+00 0. -1.
         11    1    3    3    0    0  0.38925828974E+01  0.20899966622E+01 -0.36553864393E+01  0.57342948950E+01  0.51100000000E-03 0. -1.
        -11    1    3    3    0    0  0.77442692209E+00 -0.97502488199E+01  0.14508378455E+01  0.98879734942E+01  0.51100000000E-03 0.  1.
         12    1    3    3    0    0 -0.59619395994E+01 -0.30826537029E+02  0.15252824118E+02  0.34906571767E+02  0.00000000000E+00 0. -1.
</event>
<event>
 7    1  0.1381607E-011  0.5052886E+02  0.7816164E-02  0.1300439E+00
        -11   -1    0    0    0    0  0.00000000000E+00  0.00000000000E+00  0.45593999997E+02  0.45594000000E+02  0.51100000000E-03 0.  1.
         11   -1    0    0    0    0 -0.00000000000E+00 -0.00000000000E+00 -0.45593999997E+02  0.45594000000E+02  0.51100000000E-03 0. -1.
    9900012    2    1    2    0    0 -0.12940037441E+02 -0.20218054513E+02  0.32816938638E+02  0.50528858852E+02  0.29999996968E+02 0.  0.
         12    1    1    2    0    0  0.12940037441E+02  0.20218054513E+02 -0.32816938638E+02  0.40659141148E+02  0.00000000000E+00 0. -1.
         11    1    3    3    0    0 -0.35707718270E+01  0.36559124906E+01  0.37485621310E+01  0.63378092343E+01  0.51100000000E-03 0. -1.
        -11    1    3    3    0    0 -0.11644723499E+02 -0.18712152406E+02  0.31166916587E+02  0.38172253311E+02  0.51100000000E-03 0.  1.
         12    1    3    3    0    0  0.22754578846E+01 -0.51618145973E+01 -0.20985400796E+01  0.60187963072E+01  0.00000000000E+00 0. -1.
</event>
<event>
 7    1  0.1381607E-011  0.5052886E+02  0.7816164E-02  0.1300439E+00
        -11   -1    0    0    0    0  0.00000000000E+00  0.00000000000E+00  0.45593999997E+02  0.45594000000E+02  0.51100000000E-03 0.  1.
         11   -1    0    0    0    0 -0.00000000000E+00 -0.00000000000E+00 -0.45593999997E+02  0.45594000000E+02  0.51100000000E-03 0. -1.
    9900012    2    1    2    0    0  0.26454787264E+02 -0.51379984397E+01  0.30445212319E+02  0.50528858958E+02  0.29999997287E+02 0.  0.
         12    1    1    2    0    0 -0.26454787264E+02  0.51379984397E+01 -0.30445212319E+02  0.40659141042E+02  0.00000000000E+00 0. -1.
         11    1    3    3    0    0  0.19808538876E+02  0.30516290530E+01  0.11824197323E+02  0.23270201866E+02  0.51100000000E-03 0. -1.
        -11    1    3    3    0    0  0.40603824489E+01 -0.10308571461E+02  0.32758666633E+01  0.11553555896E+02  0.51100000000E-03 0.  1.
         12    1    3    3    0    0  0.25858659392E+01  0.21189439682E+01  0.15345148333E+02  0.15705101196E+02  0.00000000000E+00 0. -1.
</event>
<event>
 7    1  0.1381607E-011  0.5052886E+02  0.7816164E-02  0.1300439E+00
        -11   -1    0    0    0    0  0.00000000000E+00  0.00000000000E+00  0.45593999997E+02  0.45594000000E+02  0.51100000000E-03 0.  1.
         11   -1    0    0    0    0 -0.00000000000E+00 -0.00000000000E+00 -0.45593999997E+02  0.45594000000E+02  0.51100000000E-03 0. -1.
    9900012    2    1    2    0    0  0.30459728400E+02  0.21224364610E+02  0.16580017519E+02  0.50528859721E+02  0.29999999606E+02 0.  0.
         12    1    1    2    0    0 -0.30459728400E+02 -0.21224364610E+02 -0.16580017519E+02  0.40659140279E+02  0.00000000000E+00 0. -1.
         11    1    3    3    0    0  0.56160093843E+01  0.18263881385E+02  0.17348770220E+01  0.19186420280E+02  0.51100000000E-03 0.  1.
        -11    1    3    3    0    0  0.15701685336E+02  0.68308429258E+00  0.26603801155E+01  0.15940111328E+02  0.51100000000E-03 0. -1.
        -12    1    3    3    0    0  0.91420336803E+01  0.22773989332E+01  0.12184760381E+02  0.15402328112E+02  0.00000000000E+00 0.  1.
</event>
<event>
 7    1  0.1381607E-011  0.5052887E+02  0.7816164E-02  0.1300439E+00
        -11   -1    0    0    0    0  0.00000000000E+00  0.00000000000E+00  0.45593999997E+02  0.45594000000E+02  0.51100000000E-03 0. -1.
         11   -1    0    0    0    0 -0.00000000000E+00 -0.00000000000E+00 -0.45593999997E+02  0.45594000000E+02  0.51100000000E-03 0.  1.
    9900012    2    1    2    0    0  0.92844968399E+01 -0.13887900805E+02 -0.37068710421E+02  0.50528868644E+02  0.30000026731E+02 0.  0.
         12    1    1    2    0    0 -0.92844968399E+01  0.13887900805E+02  0.37068710421E+02  0.40659131356E+02  0.00000000000E+00 0. -1.
         11    1    3    3    0    0 -0.57518819583E+01 -0.74023025801E+01 -0.24691656590E+01  0.96940708096E+01  0.51100000000E-03 0. -1.
        -11    1    3    3    0    0  0.16065138817E+01  0.38138587726E+01 -0.34647269776E+01  0.53972899570E+01  0.51100000000E-03 0.  1.
         12    1    3    3    0    0  0.13429864916E+02 -0.10299456997E+02 -0.31134817784E+02  0.35437507878E+02  0.00000000000E+00 0. -1.
</event>
<event>
 7    1  0.1381607E-011  0.5052885E+02  0.7816164E-02  0.1300439E+00
        -11   -1    0    0    0    0  0.00000000000E+00  0.00000000000E+00  0.45593999997E+02  0.45594000000E+02  0.51100000000E-03 0.  1.
         11   -1    0    0    0    0 -0.00000000000E+00 -0.00000000000E+00 -0.45593999997E+02  0.45594000000E+02  0.51100000000E-03 0. -1.
    9900012    2    1    2    0    0 -0.20343250673E+01  0.21618193991E+02  0.34375602175E+02  0.50528845868E+02  0.29999957499E+02 0.  0.
         12    1    1    2    0    0  0.20343250673E+01 -0.21618193991E+02 -0.34375602175E+02  0.40659154132E+02  0.00000000000E+00 0. -1.
         11    1    3    3    0    0  0.33508724472E+01 -0.36014140981E+01 -0.33265433845E+00  0.49304349538E+01  0.51100000000E-03 0. -1.
        -11    1    3    3    0    0  0.29223441574E+01  0.12955661244E+02  0.23610225987E+02  0.27089334157E+02  0.51100000000E-03 0.  1.
        -12    1    3    3    0    0 -0.83075416720E+01  0.12263946844E+02  0.11098030526E+02  0.18509076757E+02  0.00000000000E+00 0.  1.
</event>
<event>
 7    1  0.1381607E-011  0.5052886E+02  0.7816164E-02  0.1300439E+00
        -11   -1    0    0    0    0  0.00000000000E+00  0.00000000000E+00  0.45593999997E+02  0.45594000000E+02  0.51100000000E-03 0. -1.
         11   -1    0    0    0    0 -0.00000000000E+00 -0.00000000000E+00 -0.45593999997E+02  0.45594000000E+02  0.51100000000E-03 0.  1.
    9900012    2    1    2    0    0  0.22222700078E+02  0.27858838499E+02 -0.19575552600E+02  0.50528861533E+02  0.30000005117E+02 0.  0.
         12    1    1    2    0    0 -0.22222700078E+02 -0.27858838499E+02  0.19575552600E+02  0.40659138467E+02  0.00000000000E+00 0. -1.
         11    1    3    3    0    0  0.27466435524E+01 -0.28921880151E+01  0.15581572772E+00  0.39916263754E+01  0.51100000000E-03 0. -1.
        -11    1    3    3    0    0  0.21208528694E+02  0.21089048070E+02 -0.74646033565E+01  0.30826448732E+02  0.51100000000E-03 0.  1.
         12    1    3    3    0    0 -0.17324721690E+01  0.96619784441E+01 -0.12266764971E+02  0.15710786426E+02  0.00000000000E+00 0. -1.
</event>
<event>
 7    1  0.1381607E-011  0.5052887E+02  0.7816164E-02  0.1300439E+00
        -11   -1    0    0    0    0  0.00000000000E+00  0.00000000000E+00  0.45593999997E+02  0.45594000000E+02  0.51100000000E-03 0.  1.
         11   -1    0    0    0    0 -0.00000000000E+00 -0.00000000000E+00 -0.45593999997E+02  0.45594000000E+02  0.51100000000E-03 0. -1.
    9900012    2    1    2    0    0  0.98596248174E+01  0.32100776554E+02 -0.22923637635E+02  0.50528865487E+02  0.30000017135E+02 0.  0.
         12    1    1    2    0    0 -0.98596248174E+01 -0.32100776554E+02  0.22923637635E+02  0.40659134513E+02  0.00000000000E+00 0. -1.
         11    1    3    3    0    0  0.23965079427E+01  0.19175521186E+01 -0.72034947862E+01  0.78301081629E+01  0.51100000000E-03 0. -1.
        -11    1    3    3    0    0 -0.29275714561E+01  0.24507744826E+02 -0.18118912046E+02  0.30618543483E+02  0.51100000000E-03 0.  1.
         12    1    3    3    0    0  0.10390688331E+02  0.56754796097E+01  0.23987691963E+01  0.12080213841E+02  0.00000000000E+00 0. -1.
</event>
<event>
 7    1  0.1381607E-011  0.5052885E+02  0.7816164E-02  0.1300439E+00
        -11   -1    0    0    0    0  0.00000000000E+00  0.00000000000E+00  0.45593999997E+02  0.45594000000E+02  0.51100000000E-03 0. -1.
         11   -1    0    0    0    0 -0.00000000000E+00 -0.00000000000E+00 -0.45593999997E+02  0.45594000000E+02  0.51100000000E-03 0.  1.
    9900012    2    1    2    0    0 -0.58083000662E+01 -0.21183987793E+02 -0.34215038412E+02  0.50528849222E+02  0.29999967694E+02 0.  0.
         12    1    1    2    0    0  0.58083000662E+01  0.21183987793E+02  0.34215038412E+02  0.40659150778E+02  0.00000000000E+00 0. -1.
         11    1    3    3    0    0 -0.29243429090E+01 -0.75777293332E+01 -0.40080874379E+01  0.90575122670E+01  0.51100000000E-03 0. -1.
        -11    1    3    3    0    0 -0.13533813707E+02 -0.57748371451E+01 -0.19679705748E+02  0.24572416977E+02  0.51100000000E-03 0.  1.
         12    1    3    3    0    0  0.10649856550E+02 -0.78314213147E+01 -0.10527245227E+02  0.16898919978E+02  0.00000000000E+00 0. -1.
</event>
<event>
 7    1  0.1381607E-011  0.5052886E+02  0.7816164E-02  0.1300439E+00
        -11   -1    0    0    0    0  0.00000000000E+00  0.00000000000E+00  0.45593999997E+02  0.45594000000E+02  0.51100000000E-03 0.  1.
         11   -1    0    0    0    0 -0.00000000000E+00 -0.00000000000E+00 -0.45593999997E+02  0.45594000000E+02  0.51100000000E-03 0. -1.
    9900012    2    1    2    0    0  0.37640675542E+02  0.14517638789E+02  0.50579726282E+01  0.50528863532E+02  0.30000011190E+02 0.  0.
         12    1    1    2    0    0 -0.37640675542E+02 -0.14517638789E+02 -0.50579726282E+01  0.40659136468E+02  0.00000000000E+00 0. -1.
         11    1    3    3    0    0  0.15427685721E+02  0.16597460282E+01  0.11083011417E+02  0.19068334639E+02  0.51100000000E-03 0. -1.
        -11    1    3    3    0    0  0.53663489672E+01 -0.21314467466E+01  0.37481751271E+01  0.68840092618E+01  0.51100000000E-03 0.  1.
        -12    1    3    3    0    0  0.16846640854E+02  0.14989339507E+02 -0.97732139157E+01  0.24576519631E+02  0.00000000000E+00 0.  1.
</event>
<event>
 7    1  0.1381607E-011  0.5052886E+02  0.7816164E-02  0.1300439E+00
        -11   -1    0    0    0    0  0.00000000000E+00  0.00000000000E+00  0.45593999997E+02  0.45594000000E+02  0.51100000000E-03 0.  1.
         11   -1    0    0    0    0 -0.00000000000E+00 -0.00000000000E+00 -0.45593999997E+02  0.45594000000E+02  0.51100000000E-03 0. -1.
    9900012    2    1    2    0    0 -0.62703709029E+01 -0.18249529297E+02  0.35788304927E+02  0.50528860309E+02  0.30000001395E+02 0.  0.
         12    1    1    2    0    0  0.62703709029E+01  0.18249529297E+02 -0.35788304927E+02  0.40659139691E+02  0.00000000000E+00 0. -1.
         11    1    3    3    0    0 -0.13148734638E+02  0.16124482549E+00  0.12276864532E+02  0.17989903432E+02  0.51100000000E-03 0.  1.
        -11    1    3    3    0    0  0.47684042538E+01 -0.31920157514E+01  0.12128441524E+02  0.13417367020E+02  0.51100000000E-03 0. -1.
        -12    1    3    3    0    0  0.21099594813E+01 -0.15218758372E+02  0.11382998871E+02  0.19121589858E+02  0.00000000000E+00 0.  1.
</event>
<event>
 7    1  0.1381607E-011  0.5052886E+02  0.7816164E-02  0.1300439E+00
        -11   -1    0    0    0    0  0.00000000000E+00  0.00000000000E+00  0.45593999997E+02  0.45594000000E+02  0.51100000000E-03 0.  1.
         11   -1    0    0    0    0 -0.00000000000E+00 -0.00000000000E+00 -0.45593999997E+02  0.45594000000E+02  0.51100000000E-03 0. -1.
    9900012    2    1    2    0    0 -0.68690567194E+01 -0.36409545816E+02  0.16742960524E+02  0.50528859652E+02  0.29999999398E+02 0.  0.
         12    1    1    2    0    0  0.68690567194E+01  0.36409545816E+02 -0.16742960524E+02  0.40659140348E+02  0.00000000000E+00 0. -1.
         11    1    3    3    0    0 -0.51477621813E+01 -0.11354854689E+02 -0.50787974556E+01  0.13462034183E+02  0.51100000000E-03 0. -1.
        -11    1    3    3    0    0 -0.64052685224E+01 -0.21591746214E+02  0.11677764052E+02  0.25369295278E+02  0.51100000000E-03 0.  1.
        -12    1    3    3    0    0  0.46839739843E+01 -0.34629449134E+01  0.10143993928E+02  0.11697530191E+02  0.00000000000E+00 0.  1.
</event>
<event>
 7    1  0.1381607E-011  0.5052886E+02  0.7816164E-02  0.1300439E+00
        -11   -1    0    0    0    0  0.00000000000E+00  0.00000000000E+00  0.45593999997E+02  0.45594000000E+02  0.51100000000E-03 0. -1.
         11   -1    0    0    0    0 -0.00000000000E+00 -0.00000000000E+00 -0.45593999997E+02  0.45594000000E+02  0.51100000000E-03 0.  1.
    9900012    2    1    2    0    0  0.28582678376E+02  0.27402298501E+02 -0.92363382944E+01  0.50528863126E+02  0.30000009958E+02 0.  0.
         12    1    1    2    0    0 -0.28582678376E+02 -0.27402298501E+02  0.92363382944E+01  0.40659136874E+02  0.00000000000E+00 0. -1.
         11    1    3    3    0    0  0.13372221420E+02  0.13835412063E+02 -0.20383342465E+01  0.19349153455E+02  0.51100000000E-03 0. -1.
        -11    1    3    3    0    0  0.15686886417E+02  0.11812289230E+02  0.38265210641E+01  0.20006270168E+02  0.51100000000E-03 0.  1.
         12    1    3    3    0    0 -0.47642946126E+00  0.17545972073E+01 -0.11024525112E+02  0.11173439503E+02  0.00000000000E+00 0. -1.
</event>
<event>
 7    1  0.1381607E-011  0.5052886E+02  0.7816164E-02  0.1300439E+00
        -11   -1    0    0    0    0  0.00000000000E+00  0.00000000000E+00  0.45593999997E+02  0.45594000000E+02  0.51100000000E-03 0. -1.
         11   -1    0    0    0    0 -0.00000000000E+00 -0.00000000000E+00 -0.45593999997E+02  0.45594000000E+02  0.51100000000E-03 0.  1.
    9900012    2    1    2    0    0 -0.69258283349E+00  0.24045484696E+02 -0.32779582536E+02  0.50528855439E+02  0.29999986591E+02 0.  0.
         12    1    1    2    0    0  0.69258283349E+00 -0.24045484696E+02  0.32779582536E+02  0.40659144561E+02  0.00000000000E+00 0. -1.
         11    1    3    3    0    0 -0.70522152806E+01  0.83462887260E+01 -0.98979907416E+01  0.14743286501E+02  0.51100000000E-03 0. -1.
        -11    1    3    3    0    0  0.58309746594E+00  0.15588488545E+02 -0.40911492868E+01  0.16126948891E+02  0.51100000000E-03 0.  1.
        -12    1    3    3    0    0  0.57765349811E+01  0.11070742470E+00 -0.18790442507E+02  0.19658620047E+02  0.00000000000E+00 0.  1.
</event>
<event>
 7    1  0.1381607E-011  0.5052886E+02  0.7816164E-02  0.1300439E+00
        -11   -1    0    0    0    0  0.00000000000E+00  0.00000000000E+00  0.45593999997E+02  0.45594000000E+02  0.51100000000E-03 0. -1.
         11   -1    0    0    0    0 -0.00000000000E+00 -0.00000000000E+00 -0.45593999997E+02  0.45594000000E+02  0.51100000000E-03 0.  1.
    9900012    2    1    2    0    0  0.37260475197E+02 -0.15105009742E+02 -0.60548705045E+01  0.50528858493E+02  0.29999995877E+02 0.  0.
         12    1    1    2    0    0 -0.37260475197E+02  0.15105009742E+02  0.60548705045E+01  0.40659141507E+02  0.00000000000E+00 0. -1.
         11    1    3    3    0    0  0.53661833162E+01  0.32819502038E+01 -0.16134107691E+01  0.64938597994E+01  0.51100000000E-03 0. -1.
        -11    1    3    3    0    0  0.33022561279E+02 -0.21211765784E+02 -0.72297400179E+01  0.39908616890E+02  0.51100000000E-03 0.  1.
         12    1    3    3    0    0 -0.11282693982E+01  0.28248058379E+01  0.27882802826E+01  0.41263818038E+01  0.00000000000E+00 0. -1.
</event>
<event>
 7    1  0.1381607E-011  0.5052877E+02  0.7816164E-02  0.1300439E+00
        -11   -1    0    0    0    0  0.00000000000E+00  0.00000000000E+00  0.45593999997E+02  0.45594000000E+02  0.51100000000E-03 0. -1.
         11   -1    0    0    0    0 -0.00000000000E+00 -0.00000000000E+00 -0.45593999997E+02  0.45594000000E+02  0.51100000000E-03 0.  1.
    9900012    2    1    2    0    0 -0.40118135010E+02 -0.65793454134E+01  0.64825444486E+00  0.50528772553E+02  0.29999734650E+02 0.  0.
         12    1    1    2    0    0  0.40118135010E+02  0.65793454134E+01 -0.64825444486E+00  0.40659227447E+02  0.00000000000E+00 0. -1.
         11    1    3    3    0    0  0.30625490331E+00 -0.17758462883E+01 -0.32227630357E+01  0.36923737556E+01  0.51100000000E-03 0. -1.
        -11    1    3    3    0    0 -0.22740246083E+02 -0.82317137670E+01 -0.77547672228E+01  0.25397171465E+02  0.51100000000E-03 0.  1.
        -12    1    3    3    0    0 -0.17684143830E+02  0.34282146419E+01  0.11625784703E+02  0.21439227333E+02  0.00000000000E+00 0.  1.
</event>
<event>
 7    1  0.1381607E-011  0.5052886E+02  0.7816164E-02  0.1300439E+00
        -11   -1    0    0    0    0  0.00000000000E+00  0.00000000000E+00  0.45593999997E+02  0.45594000000E+02  0.51100000000E-03 0. -1.
         11   -1    0    0    0    0 -0.00000000000E+00 -0.00000000000E+00 -0.45593999997E+02  0.45594000000E+02  0.51100000000E-03 0.  1.
    9900012    2    1    2    0    0 -0.11105444908E+02 -0.35374951346E+02 -0.16686748122E+02  0.50528860163E+02  0.30000000953E+02 0.  0.
         12    1    1    2    0    0  0.11105444908E+02  0.35374951346E+02  0.16686748122E+02  0.40659139837E+02  0.00000000000E+00 0. -1.
         11    1    3    3    0    0 -0.55398549621E-02  0.13400643632E+00 -0.17555679562E+01  0.17606838231E+01  0.51100000000E-03 0. -1.
        -11    1    3    3    0    0 -0.11250758500E+02 -0.25087536598E+02  0.33767689120E+01  0.27701383141E+02  0.51100000000E-03 0.  1.
        -12    1    3    3    0    0  0.15085344674E+00 -0.10421421185E+02 -0.18307949078E+02  0.21066793200E+02  0.00000000000E+00 0.  1.
</event>
<event>
 7    1  0.1381607E-011  0.5052885E+02  0.7816164E-02  0.1300439E+00
        -11   -1    0    0    0    0  0.00000000000E+00  0.00000000000E+00  0.45593999997E+02  0.45594000000E+02  0.51100000000E-03 0. -1.
         11   -1    0    0    0    0 -0.00000000000E+00 -0.00000000000E+00 -0.45593999997E+02  0.45594000000E+02  0.51100000000E-03 0.  1.
    9900012    2    1    2    0    0  0.33870835971E+02  0.21510769070E+02  0.65741783244E+01  0.50528849296E+02  0.29999967921E+02 0.  0.
         12    1    1    2    0    0 -0.33870835971E+02 -0.21510769070E+02 -0.65741783244E+01  0.40659150704E+02  0.00000000000E+00 0. -1.
         11    1    3    3    0    0  0.54005395538E+01 -0.29797193371E+00 -0.72826103276E+01  0.90714402490E+01  0.51100000000E-03 0. -1.
        -11    1    3    3    0    0  0.25438787013E+01  0.17993741566E+01 -0.32554447828E+01  0.45063274623E+01  0.51100000000E-03 0.  1.
         12    1    3    3    0    0  0.25926417716E+02  0.20009366847E+02  0.17112233435E+02  0.36951081585E+02  0.00000000000E+00 0. -1.
</event>
<event>
 7    1  0.1381607E-011  0.5052884E+02  0.7816164E-02  0.1300439E+00
        -11   -1    0    0    0    0  0.00000000000E+00  0.00000000000E+00  0.45593999997E+02  0.45594000000E+02  0.51100000000E-03 0.  1.
         11   -1    0    0    0    0 -0.00000000000E+00 -0.00000000000E+00 -0.45593999997E+02  0.45594000000E+02  0.51100000000E-03 0. -1.
    9900012    2    1    2    0    0  0.10561777095E+02  0.87413343377E+01  0.38278001600E+02  0.50528837836E+02  0.29999933086E+02 0.  0.
         12    1    1    2    0    0 -0.10561777095E+02 -0.87413343377E+01 -0.38278001600E+02  0.40659162164E+02  0.00000000000E+00 0. -1.
         11    1    3    3    0    0  0.11300073510E+02  0.77902431878E+01  0.16957399628E+02  0.21815887620E+02  0.51100000000E-03 0. -1.
        -11    1    3    3    0    0  0.75616794565E+00  0.66460177668E+01  0.21802520736E+02  0.22805509264E+02  0.51100000000E-03 0.  1.
         12    1    3    3    0    0 -0.14944643607E+01 -0.56949266168E+01 -0.48191876375E+00  0.59074409512E+01  0.00000000000E+00 0. -1.
</event>
<event>
 7    1  0.1381607E-011  0.5052886E+02  0.7816164E-02  0.1300439E+00
        -11   -1    0    0    0    0  0.00000000000E+00  0.00000000000E+00  0.45593999997E+02  0.45594000000E+02  0.51100000000E-03 0. -1.
         11   -1    0    0    0    0 -0.00000000000E+00 -0.00000000000E+00 -0.45593999997E+02  0.45594000000E+02  0.51100000000E-03 0.  1.
    9900012    2    1    2    0    0 -0.50393508623E+01  0.26725182907E+02 -0.30224741554E+02  0.50528862521E+02  0.30000008119E+02 0.  0.
         12    1    1    2    0    0  0.50393508623E+01 -0.26725182907E+02  0.30224741554E+02  0.40659137479E+02  0.00000000000E+00 0. -1.
         11    1    3    3    0    0  0.14987483447E+01  0.60703003087E+01 -0.19643790332E+02  0.20614880337E+02  0.51100000000E-03 0. -1.
        -11    1    3    3    0    0 -0.36177384591E+01 -0.25663591883E+01 -0.28221931722E+01  0.52572811989E+01  0.51100000000E-03 0.  1.
         12    1    3    3    0    0 -0.29203607479E+01  0.23221241786E+02 -0.77587580500E+01  0.24656700985E+02  0.00000000000E+00 0. -1.
</event>
<event>
 7    1  0.1381607E-011  0.5052886E+02  0.7816164E-02  0.1300439E+00
        -11   -1    0    0    0    0  0.00000000000E+00  0.00000000000E+00  0.45593999997E+02  0.45594000000E+02  0.51100000000E-03 0.  1.
         11   -1    0    0    0    0 -0.00000000000E+00 -0.00000000000E+00 -0.45593999997E+02  0.45594000000E+02  0.51100000000E-03 0. -1.
    9900012    2    1    2    0    0  0.36060354009E+01  0.14225622458E+02  0.37918254437E+02  0.50528857791E+02  0.29999993742E+02 0.  0.
         12    1    1    2    0    0 -0.36060354009E+01 -0.14225622458E+02 -0.37918254437E+02  0.40659142209E+02  0.00000000000E+00 0. -1.
         11    1    3    3    0    0  0.31148123365E+01  0.30298911843E+00  0.58077566562E+01  0.65972642767E+01  0.51100000000E-03 0. -1.
        -11    1    3    3    0    0  0.28612867092E+01  0.20726056177E+02  0.16184098218E+02  0.26451491483E+02  0.51100000000E-03 0.  1.
         12    1    3    3    0    0 -0.23700636449E+01 -0.68034228377E+01  0.15926399563E+02  0.17480102031E+02  0.00000000000E+00 0. -1.
</event>
<event>
 7    1  0.1381607E-011  0.5052886E+02  0.7816164E-02  0.1300439E+00
        -11   -1    0    0    0    0  0.00000000000E+00  0.00000000000E+00  0.45593999997E+02  0.45594000000E+02  0.51100000000E-03 0. -1.
         11   -1    0    0    0    0 -0.00000000000E+00 -0.00000000000E+00 -0.45593999997E+02  0.45594000000E+02  0.51100000000E-03 0.  1.
    9900012    2    1    2    0    0  0.34408936777E+02  0.20701333828E+02  0.63753878005E+01  0.50528859306E+02  0.29999998346E+02 0.  0.
         12    1    1    2    0    0 -0.34408936777E+02 -0.20701333828E+02 -0.63753878005E+01  0.40659140694E+02  0.00000000000E+00 0. -1.
         11    1    3    3    0    0  0.72023762217E+01  0.15597254702E+02  0.10811553645E+02  0.20298725821E+02  0.51100000000E-03 0. -1.
        -11    1    3    3    0    0 -0.39766664219E+00  0.90466738847E+00  0.13914310990E+01  0.17066465968E+01  0.51100000000E-03 0.  1.
        -12    1    3    3    0    0  0.27604227197E+02  0.41994117370E+01 -0.58275969433E+01  0.28523486888E+02  0.00000000000E+00 0.  1.
</event>
<event>
 7    1  0.1381607E-011  0.5052884E+02  0.7816164E-02  0.1300439E+00
        -11   -1    0    0    0    0  0.00000000000E+00  0.00000000000E+00  0.45593999997E+02  0.45594000000E+02  0.51100000000E-03 0.  1.
         11   -1    0    0    0    0 -0.00000000000E+00 -0.00000000000E+00 -0.45593999997E+02  0.45594000000E+02  0.51100000000E-03 0. -1.
    9900012    2    1    2    0    0  0.31705126889E+02  0.59416345083E+01  0.24751753508E+02  0.50528838752E+02  0.29999935870E+02 0.  0.
         12    1    1    2    0    0 -0.31705126889E+02 -0.59416345083E+01 -0.24751753508E+02  0.40659161248E+02  0.00000000000E+00 0. -1.
         11    1    3    3    0    0  0.44196808746E+01 -0.51060535063E+01  0.13247430683E+02  0.14869424380E+02  0.51100000000E-03 0. -1.
        -11    1    3    3    0    0  0.37379439426E+01  0.55318925976E+01  0.91968642301E+01  0.11364698525E+02  0.51100000000E-03 0.  1.
         12    1    3    3    0    0  0.23547502072E+02  0.55157954170E+01  0.23074585945E+01  0.24294715847E+02  0.00000000000E+00 0. -1.
</event>
<event>
 7    1  0.1381607E-011  0.5052882E+02  0.7816164E-02  0.1300439E+00
        -11   -1    0    0    0    0  0.00000000000E+00  0.00000000000E+00  0.45593999997E+02  0.45594000000E+02  0.51100000000E-03 0.  1.
         11   -1    0    0    0    0 -0.00000000000E+00 -0.00000000000E+00 -0.45593999997E+02  0.45594000000E+02  0.51100000000E-03 0. -1.
    9900012    2    1    2    0    0 -0.56599577989E+01 -0.19200699678E+02  0.35390212288E+02  0.50528817566E+02  0.29999871474E+02 0.  0.
         12    1    1    2    0    0  0.56599577989E+01  0.19200699678E+02 -0.35390212288E+02  0.40659182434E+02  0.00000000000E+00 0. -1.
         11    1    3    3    0    0  0.24397148363E+01 -0.81064496783E+01  0.10455366968E+01  0.85299403348E+01  0.51100000000E-03 0.  1.
        -11    1    3    3    0    0 -0.95245095567E+01 -0.13517893908E+02  0.14612765594E+02  0.22067683534E+02  0.51100000000E-03 0. -1.
        -12    1    3    3    0    0  0.14248369215E+01  0.24236439090E+01  0.19731909997E+02  0.19931193697E+02  0.00000000000E+00 0.  1.
</event>
<event>
 7    1  0.1381607E-011  0.5052885E+02  0.7816164E-02  0.1300439E+00
        -11   -1    0    0    0    0  0.00000000000E+00  0.00000000000E+00  0.45593999997E+02  0.45594000000E+02  0.51100000000E-03 0.  1.
         11   -1    0    0    0    0 -0.00000000000E+00 -0.00000000000E+00 -0.45593999997E+02  0.45594000000E+02  0.51100000000E-03 0. -1.
    9900012    2    1    2    0    0  0.27319651177E+01 -0.36728816698E+02  0.17224895465E+02  0.50528848100E+02  0.29999964286E+02 0.  0.
         12    1    1    2    0    0 -0.27319651177E+01  0.36728816698E+02 -0.17224895465E+02  0.40659151900E+02  0.00000000000E+00 0. -1.
         11    1    3    3    0    0 -0.35262486755E+01 -0.20960197510E+02  0.17626196509E+02  0.27612444894E+02  0.51100000000E-03 0. -1.
        -11    1    3    3    0    0 -0.11126539102E+01 -0.14923803896E+02  0.20451610740E+01  0.15104324068E+02  0.51100000000E-03 0.  1.
         12    1    3    3    0    0  0.73708677035E+01 -0.84481529080E+00 -0.24464621172E+01  0.78120791387E+01  0.00000000000E+00 0. -1.
</event>
<event>
 7    1  0.1381607E-011  0.5052885E+02  0.7816164E-02  0.1300439E+00
        -11   -1    0    0    0    0  0.00000000000E+00  0.00000000000E+00  0.45593999997E+02  0.45594000000E+02  0.51100000000E-03 0.  1.
         11   -1    0    0    0    0 -0.00000000000E+00 -0.00000000000E+00 -0.45593999997E+02  0.45594000000E+02  0.51100000000E-03 0. -1.
    9900012    2    1    2    0    0 -0.75919632263E+01 -0.94756729725E+01  0.38803871831E+02  0.50528846627E+02  0.29999959808E+02 0.  0.
         12    1    1    2    0    0  0.75919632263E+01  0.94756729725E+01 -0.38803871831E+02  0.40659153373E+02  0.00000000000E+00 0. -1.
         11    1    3    3    0    0 -0.29026366270E+01 -0.74979743417E+01  0.14241659670E+01  0.81653638976E+01  0.51100000000E-03 0. -1.
        -11    1    3    3    0    0 -0.65387951781E+01  0.67240586721E+01  0.10644907618E+02  0.14187419281E+02  0.51100000000E-03 0.  1.
        -12    1    3    3    0    0  0.18494685788E+01 -0.87017573028E+01  0.26734798246E+02  0.28176063448E+02  0.00000000000E+00 0.  1.
</event>
<event>
 7    1  0.1381607E-011  0.5052886E+02  0.7816164E-02  0.1300439E+00
        -11   -1    0    0    0    0  0.00000000000E+00  0.00000000000E+00  0.45593999997E+02  0.45594000000E+02  0.51100000000E-03 0.  1.
         11   -1    0    0    0    0 -0.00000000000E+00 -0.00000000000E+00 -0.45593999997E+02  0.45594000000E+02  0.51100000000E-03 0. -1.
    9900012    2    1    2    0    0 -0.39955297885E+02  0.50652461251E+01  0.55752165511E+01  0.50528860966E+02  0.30000003393E+02 0.  0.
         12    1    1    2    0    0  0.39955297885E+02 -0.50652461251E+01 -0.55752165511E+01  0.40659139034E+02  0.00000000000E+00 0. -1.
         11    1    3    3    0    0 -0.72401169112E+01  0.10399858340E+02 -0.51350100800E+01  0.13672771305E+02  0.51100000000E-03 0. -1.
        -11    1    3    3    0    0 -0.85625392795E+01 -0.51714876382E+01 -0.92639590361E+00  0.10045873428E+02  0.51100000000E-03 0.  1.
        -12    1    3    3    0    0 -0.24152641694E+02 -0.16312457677E+00  0.11636622535E+02  0.26810216233E+02  0.00000000000E+00 0.  1.
</event>
<event>
 7    1  0.1381607E-011  0.5052886E+02  0.7816164E-02  0.1300439E+00
        -11   -1    0    0    0    0  0.00000000000E+00  0.00000000000E+00  0.45593999997E+02  0.45594000000E+02  0.51100000000E-03 0.  1.
         11   -1    0    0    0    0 -0.00000000000E+00 -0.00000000000E+00 -0.45593999997E+02  0.45594000000E+02  0.51100000000E-03 0. -1.
    9900012    2    1    2    0    0  0.25390884702E+02  0.30439807643E+02 -0.90491396074E+01  0.50528857819E+02  0.29999993826E+02 0.  0.
         12    1    1    2    0    0 -0.25390884702E+02 -0.30439807643E+02  0.90491396074E+01  0.40659142181E+02  0.00000000000E+00 0. -1.
         11    1    3    3    0    0  0.16383110940E+02  0.10299920560E+02 -0.14883291151E+02  0.24413255485E+02  0.51100000000E-03 0. -1.
        -11    1    3    3    0    0  0.98101449277E+01  0.83553231468E+01 -0.12283856639E+00  0.12886638738E+02  0.51100000000E-03 0.  1.
        -12    1    3    3    0    0 -0.80237116528E+00  0.11784563936E+02  0.59569901105E+01  0.13228963596E+02  0.00000000000E+00 0.  1.
</event>
<event>
 7    1  0.1381607E-011  0.5052888E+02  0.7816164E-02  0.1300439E+00
        -11   -1    0    0    0    0  0.00000000000E+00  0.00000000000E+00  0.45593999997E+02  0.45594000000E+02  0.51100000000E-03 0. -1.
         11   -1    0    0    0    0 -0.00000000000E+00 -0.00000000000E+00 -0.45593999997E+02  0.45594000000E+02  0.51100000000E-03 0.  1.
    9900012    2    1    2    0    0 -0.34573324634E+01  0.35188902661E+02 -0.20073661795E+02  0.50528881513E+02  0.30000065848E+02 0.  0.
         12    1    1    2    0    0  0.34573324634E+01 -0.35188902661E+02  0.20073661795E+02  0.40659118487E+02  0.00000000000E+00 0. -1.
         11    1    3    3    0    0  0.45801721495E+01  0.57030160802E+01 -0.51399695210E+01  0.89398912895E+01  0.51100000000E-03 0.  1.
        -11    1    3    3    0    0  0.71514463959E+01  0.11438776194E+02  0.32766902616E+00  0.13494300783E+02  0.51100000000E-03 0. -1.
        -12    1    3    3    0    0 -0.15188951009E+02  0.18047110387E+02 -0.15261361300E+02  0.28094689441E+02  0.00000000000E+00 0.  1.
</event>
<event>
 7    1  0.1381607E-011  0.5052887E+02  0.7816164E-02  0.1300439E+00
        -11   -1    0    0    0    0  0.00000000000E+00  0.00000000000E+00  0.45593999997E+02  0.45594000000E+02  0.51100000000E-03 0.  1.
         11   -1    0    0    0    0 -0.00000000000E+00 -0.00000000000E+00 -0.45593999997E+02  0.45594000000E+02  0.51100000000E-03 0. -1.
    9900012    2    1    2    0    0  0.10877557026E+02  0.13149599980E+02  0.36904353642E+02  0.50528873789E+02  0.30000042370E+02 0.  0.
         12    1    1    2    0    0 -0.10877557026E+02 -0.13149599980E+02 -0.36904353642E+02  0.40659126211E+02  0.00000000000E+00 0. -1.
         11    1    3    3    0    0  0.43147237567E+00 -0.20535908337E+01  0.17335556820E+01  0.27218778971E+01  0.51100000000E-03 0. -1.
        -11    1    3    3    0    0 -0.60930954036E+01  0.14537148646E+02  0.18680859996E+02  0.24442361441E+02  0.51100000000E-03 0.  1.
        -12    1    3    3    0    0  0.16539180053E+02  0.66604216840E+00  0.16489937963E+02  0.23364634451E+02  0.00000000000E+00 0.  1.
</event>
<event>
 7    1  0.1381607E-011  0.5052887E+02  0.7816164E-02  0.1300439E+00
        -11   -1    0    0    0    0  0.00000000000E+00  0.00000000000E+00  0.45593999997E+02  0.45594000000E+02  0.51100000000E-03 0.  1.
         11   -1    0    0    0    0 -0.00000000000E+00 -0.00000000000E+00 -0.45593999997E+02  0.45594000000E+02  0.51100000000E-03 0. -1.
    9900012    2    1    2    0    0 -0.35176450035E+02 -0.11859639130E+02  0.16587086343E+02  0.50528866823E+02  0.30000021195E+02 0.  0.
         12    1    1    2    0    0  0.35176450035E+02  0.11859639130E+02 -0.16587086343E+02  0.40659133177E+02  0.00000000000E+00 0. -1.
         11    1    3    3    0    0 -0.83248576102E+01  0.42005566543E+01 -0.13822833098E+01  0.94264859755E+01  0.51100000000E-03 0. -1.
        -11    1    3    3    0    0 -0.14112318316E+02 -0.13604321431E+02  0.84737503662E+00  0.19620222593E+02  0.51100000000E-03 0.  1.
         12    1    3    3    0    0 -0.12739274108E+02 -0.24558743527E+01  0.17121994616E+02  0.21482158255E+02  0.00000000000E+00 0. -1.
</event>
<event>
 7    1  0.1381607E-011  0.5052886E+02  0.7816164E-02  0.1300439E+00
        -11   -1    0    0    0    0  0.00000000000E+00  0.00000000000E+00  0.45593999997E+02  0.45594000000E+02  0.51100000000E-03 0. -1.
         11   -1    0    0    0    0 -0.00000000000E+00 -0.00000000000E+00 -0.45593999997E+02  0.45594000000E+02  0.51100000000E-03 0.  1.
    9900012    2    1    2    0    0 -0.18418351249E+02  0.27491698249E+01 -0.36143774894E+02  0.50528855136E+02  0.29999985671E+02 0.  0.
         12    1    1    2    0    0  0.18418351249E+02 -0.27491698249E+01  0.36143774894E+02  0.40659144864E+02  0.00000000000E+00 0. -1.
         11    1    3    3    0    0 -0.10747515501E+02  0.51676442020E+01 -0.14221924662E+02  0.18560085598E+02  0.51100000000E-03 0. -1.
        -11    1    3    3    0    0 -0.10210533845E+01  0.40176454668E+01 -0.22324054865E+02  0.22705670019E+02  0.51100000000E-03 0.  1.
         12    1    3    3    0    0 -0.66497823639E+01 -0.64361198439E+01  0.40220463359E+00  0.92630995190E+01  0.00000000000E+00 0. -1.
</event>
<event>
 7    1  0.1381607E-011  0.5052886E+02  0.7816164E-02  0.1300439E+00
        -11   -1    0    0    0    0  0.00000000000E+00  0.00000000000E+00  0.45593999997E+02  0.45594000000E+02  0.51100000000E-03 0. -1.
         11   -1    0    0    0    0 -0.00000000000E+00 -0.00000000000E+00 -0.45593999997E+02  0.45594000000E+02  0.51100000000E-03 0.  1.
    9900012    2    1    2    0    0  0.38375315486E+02  0.30590075787E+01 -0.13082181713E+02  0.50528857800E+02  0.29999993769E+02 0.  0.
         12    1    1    2    0    0 -0.38375315486E+02 -0.30590075787E+01  0.13082181713E+02  0.40659142200E+02  0.00000000000E+00 0. -1.
         11    1    3    3    0    0  0.11920366566E+01 -0.18197716254E+01 -0.85622006393E+01  0.88342402168E+01  0.51100000000E-03 0. -1.
        -11    1    3    3    0    0  0.30628197298E+02  0.71792360699E+00 -0.99593033189E+01  0.32214742074E+02  0.51100000000E-03 0.  1.
         12    1    3    3    0    0  0.65550815320E+01  0.41608555972E+01  0.54393222448E+01  0.94798755094E+01  0.00000000000E+00 0. -1.
</event>
<event>
 7    1  0.1381607E-011  0.5052886E+02  0.7816164E-02  0.1300439E+00
        -11   -1    0    0    0    0  0.00000000000E+00  0.00000000000E+00  0.45593999997E+02  0.45594000000E+02  0.51100000000E-03 0.  1.
         11   -1    0    0    0    0 -0.00000000000E+00 -0.00000000000E+00 -0.45593999997E+02  0.45594000000E+02  0.51100000000E-03 0. -1.
    9900012    2    1    2    0    0 -0.94999815610E+01  0.26653348267E+00  0.39532835543E+02  0.50528858644E+02  0.29999996335E+02 0.  0.
         12    1    1    2    0    0  0.94999815610E+01 -0.26653348267E+00 -0.39532835543E+02  0.40659141356E+02  0.00000000000E+00 0. -1.
         11    1    3    3    0    0 -0.75841710148E+01  0.66096774422E+01  0.47175772145E+01  0.11111391493E+02  0.51100000000E-03 0. -1.
        -11    1    3    3    0    0  0.39028616524E+01  0.36083274255E+01  0.44312706765E+01  0.69201528854E+01  0.51100000000E-03 0.  1.
        -12    1    3    3    0    0 -0.58186721987E+01 -0.99514713850E+01  0.30383987652E+02  0.32497314266E+02  0.00000000000E+00 0.  1.
</event>
<event>
 7    1  0.1381607E-011  0.5052885E+02  0.7816164E-02  0.1300439E+00
        -11   -1    0    0    0    0  0.00000000000E+00  0.00000000000E+00  0.45593999997E+02  0.45594000000E+02  0.51100000000E-03 0. -1.
         11   -1    0    0    0    0 -0.00000000000E+00 -0.00000000000E+00 -0.45593999997E+02  0.45594000000E+02  0.51100000000E-03 0.  1.
    9900012    2    1    2    0    0  0.30286922365E+02  0.27060386731E+02  0.18984127293E+01  0.50528853830E+02  0.29999981701E+02 0.  0.
         12    1    1    2    0    0 -0.30286922365E+02 -0.27060386731E+02 -0.18984127293E+01  0.40659146170E+02  0.00000000000E+00 0. -1.
         11    1    3    3    0    0  0.24932671081E+02  0.18347752109E+02 -0.62824456327E+01  0.31587136909E+02  0.51100000000E-03 0. -1.
        -11    1    3    3    0    0  0.82718341722E+01  0.53217191159E+00  0.29240975425E+01  0.87895844165E+01  0.51100000000E-03 0.  1.
         12    1    3    3    0    0 -0.29175828884E+01  0.81804627107E+01  0.52567608195E+01  0.10152132504E+02  0.00000000000E+00 0. -1.
</event>
<event>
 7    1  0.1381607E-011  0.5052886E+02  0.7816164E-02  0.1300439E+00
        -11   -1    0    0    0    0  0.00000000000E+00  0.00000000000E+00  0.45593999997E+02  0.45594000000E+02  0.51100000000E-03 0. -1.
         11   -1    0    0    0    0 -0.00000000000E+00 -0.00000000000E+00 -0.45593999997E+02  0.45594000000E+02  0.51100000000E-03 0.  1.
    9900012    2    1    2    0    0 -0.24597395651E+02  0.32257526225E+02 -0.27541837298E+01  0.50528863278E+02  0.30000010421E+02 0.  0.
         12    1    1    2    0    0  0.24597395651E+02 -0.32257526225E+02  0.27541837298E+01  0.40659136722E+02  0.00000000000E+00 0. -1.
         11    1    3    3    0    0  0.85657211027E+00  0.12177828080E+02 -0.36283672101E+01  0.12735708123E+02  0.51100000000E-03 0. -1.
        -11    1    3    3    0    0 -0.82171613986E+01  0.89943901794E+01 -0.89005042606E+01  0.15087735831E+02  0.51100000000E-03 0.  1.
        -12    1    3    3    0    0 -0.17236806362E+02  0.11085307966E+02  0.97746877409E+01  0.22705419325E+02  0.00000000000E+00 0.  1.
</event>
<event>
 7    1  0.1381607E-011  0.5052889E+02  0.7816164E-02  0.1300439E+00
        -11   -1    0    0    0    0  0.00000000000E+00  0.00000000000E+00  0.45593999997E+02  0.45594000000E+02  0.51100000000E-03 0.  1.
         11   -1    0    0    0    0 -0.00000000000E+00 -0.00000000000E+00 -0.45593999997E+02  0.45594000000E+02  0.51100000000E-03 0. -1.
    9900012    2    1    2    0    0  0.32708862618E+02 -0.19521645102E+02  0.14219655222E+02  0.50528893813E+02  0.30000103234E+02 0.  0.
         12    1    1    2    0    0 -0.32708862618E+02  0.19521645102E+02 -0.14219655222E+02  0.40659106187E+02  0.00000000000E+00 0. -1.
         11    1    3    3    0    0  0.61264199724E+00 -0.12022927229E+02  0.29439491471E+00  0.12042125145E+02  0.51100000000E-03 0. -1.
        -11    1    3    3    0    0  0.37088216633E+01  0.36205601169E+01  0.35502577776E+01  0.62823677255E+01  0.51100000000E-03 0.  1.
        -12    1    3    3    0    0  0.28387398958E+02 -0.11119277990E+02  0.10375002529E+02  0.32204400943E+02  0.00000000000E+00 0.  1.
</event>
<event>
 7    1  0.1381607E-011  0.5052886E+02  0.7816164E-02  0.1300439E+00
        -11   -1    0    0    0    0  0.00000000000E+00  0.00000000000E+00  0.45593999997E+02  0.45594000000E+02  0.51100000000E-03 0.  1.
         11   -1    0    0    0    0 -0.00000000000E+00 -0.00000000000E+00 -0.45593999997E+02  0.45594000000E+02  0.51100000000E-03 0. -1.
    9900012    2    1    2    0    0  0.25124855835E+01 -0.25470637923E+02  0.31592711119E+02  0.50528863563E+02  0.30000011286E+02 0.  0.
         12    1    1    2    0    0 -0.25124855835E+01  0.25470637923E+02 -0.31592711119E+02  0.40659136437E+02  0.00000000000E+00 0. -1.
         11    1    3    3    0    0  0.26548345919E+01 -0.20940223127E+01  0.18957645507E+02  0.19256827350E+02  0.51100000000E-03 0. -1.
        -11    1    3    3    0    0  0.29735347495E+01 -0.15366447024E+02  0.15679059670E+02  0.22154063181E+02  0.51100000000E-03 0.  1.
         12    1    3    3    0    0 -0.31158837579E+01 -0.80101685862E+01 -0.30439940588E+01  0.91179730315E+01  0.00000000000E+00 0. -1.
</event>
<event>
 7    1  0.1381607E-011  0.5052886E+02  0.7816164E-02  0.1300439E+00
        -11   -1    0    0    0    0  0.00000000000E+00  0.00000000000E+00  0.45593999997E+02  0.45594000000E+02  0.51100000000E-03 0.  1.
         11   -1    0    0    0    0 -0.00000000000E+00 -0.00000000000E+00 -0.45593999997E+02  0.45594000000E+02  0.51100000000E-03 0. -1.
    9900012    2    1    2    0    0  0.14252037460E+02 -0.37904826756E+02  0.36426967677E+01  0.50528859540E+02  0.29999999059E+02 0.  0.
         12    1    1    2    0    0 -0.14252037460E+02  0.37904826756E+02 -0.36426967677E+01  0.40659140460E+02  0.00000000000E+00 0. -1.
         11    1    3    3    0    0  0.14243433022E+01 -0.29996284461E+01 -0.18277943525E+01  0.37904296739E+01  0.51100000000E-03 0. -1.
        -11    1    3    3    0    0 -0.42457927018E+01 -0.10813583253E+02  0.11778895189E+02  0.16543962964E+02  0.51100000000E-03 0.  1.
        -12    1    3    3    0    0  0.17073486860E+02 -0.24091615057E+02 -0.63084040686E+01  0.30194466902E+02  0.00000000000E+00 0.  1.
</event>
<event>
 7    1  0.1381607E-011  0.5052886E+02  0.7816164E-02  0.1300439E+00
        -11   -1    0    0    0    0  0.00000000000E+00  0.00000000000E+00  0.45593999997E+02  0.45594000000E+02  0.51100000000E-03 0.  1.
         11   -1    0    0    0    0 -0.00000000000E+00 -0.00000000000E+00 -0.45593999997E+02  0.45594000000E+02  0.51100000000E-03 0. -1.
    9900012    2    1    2    0    0 -0.70977824388E+01 -0.27311050913E+02  0.29272746705E+02  0.50528859365E+02  0.29999998526E+02 0.  0.
         12    1    1    2    0    0  0.70977824388E+01  0.27311050913E+02 -0.29272746705E+02  0.40659140635E+02  0.00000000000E+00 0. -1.
         11    1    3    3    0    0 -0.67374949954E+01 -0.34339631820E+01  0.65864395178E+01  0.10028316296E+02  0.51100000000E-03 0. -1.
        -11    1    3    3    0    0  0.23039923034E+01  0.81729126399E+00  0.13963197407E+02  0.14175585619E+02  0.51100000000E-03 0.  1.
        -12    1    3    3    0    0 -0.26642797468E+01 -0.24694378995E+02  0.87231097796E+01  0.26324957450E+02  0.00000000000E+00 0.  1.
</event>
<event>
 7    1  0.1381607E-011  0.5052886E+02  0.7816164E-02  0.1300439E+00
        -11   -1    0    0    0    0  0.00000000000E+00  0.00000000000E+00  0.45593999997E+02  0.45594000000E+02  0.51100000000E-03 0. -1.
         11   -1    0    0    0    0 -0.00000000000E+00 -0.00000000000E+00 -0.45593999997E+02  0.45594000000E+02  0.51100000000E-03 0.  1.
    9900012    2    1    2    0    0 -0.29840469467E+02 -0.23835879943E+02  0.13948579230E+02  0.50528860152E+02  0.30000000917E+02 0.  0.
         12    1    1    2    0    0  0.29840469467E+02  0.23835879943E+02 -0.13948579230E+02  0.40659139848E+02  0.00000000000E+00 0. -1.
         11    1    3    3    0    0  0.98391928051E+00  0.17361061019E+01 -0.74864532661E+00  0.21313450292E+01  0.51100000000E-03 0. -1.
        -11    1    3    3    0    0 -0.21900146176E+02 -0.26946271205E+02  0.17578617985E+02  0.38919477706E+02  0.51100000000E-03 0.  1.
         12    1    3    3    0    0 -0.89242425718E+01  0.13742851598E+01 -0.28813934285E+01  0.94780374166E+01  0.00000000000E+00 0. -1.
</event>
<event>
 7    1  0.1381607E-011  0.5052876E+02  0.7816164E-02  0.1300439E+00
        -11   -1    0    0    0    0  0.00000000000E+00  0.00000000000E+00  0.45593999997E+02  0.45594000000E+02  0.51100000000E-03 0.  1.
         11   -1    0    0    0    0 -0.00000000000E+00 -0.00000000000E+00 -0.45593999997E+02  0.45594000000E+02  0.51100000000E-03 0. -1.
    9900012    2    1    2    0    0 -0.19058823502E+02 -0.35834194551E+02 -0.24176884123E+01  0.50528764030E+02  0.29999708745E+02 0.  0.
         12    1    1    2    0    0  0.19058823502E+02  0.35834194551E+02  0.24176884123E+01  0.40659235970E+02  0.00000000000E+00 0. -1.
         11    1    3    3    0    0 -0.20067792097E+02 -0.23749747067E+02 -0.83096439775E+01  0.32184110189E+02  0.51100000000E-03 0. -1.
        -11    1    3    3    0    0 -0.49570284421E+01 -0.47302046017E+01  0.56350133852E+01  0.88713213594E+01  0.51100000000E-03 0.  1.
         12    1    3    3    0    0  0.59659970371E+01 -0.73542428824E+01  0.25694217994E+00  0.94733324814E+01  0.00000000000E+00 0. -1.
</event>
<event>
 7    1  0.1381607E-011  0.5052887E+02  0.7816164E-02  0.1300439E+00
        -11   -1    0    0    0    0  0.00000000000E+00  0.00000000000E+00  0.45593999997E+02  0.45594000000E+02  0.51100000000E-03 0.  1.
         11   -1    0    0    0    0 -0.00000000000E+00 -0.00000000000E+00 -0.45593999997E+02  0.45594000000E+02  0.51100000000E-03 0. -1.
    9900012    2    1    2    0    0 -0.32433611852E+02 -0.22117390459E+02  0.10585230997E+02  0.50528865064E+02  0.30000015849E+02 0.  0.
         12    1    1    2    0    0  0.32433611852E+02  0.22117390459E+02 -0.10585230997E+02  0.40659134936E+02  0.00000000000E+00 0. -1.
         11    1    3    3    0    0 -0.48699083729E+01  0.22217965950E+01  0.21421856578E+01  0.57655309663E+01  0.51100000000E-03 0. -1.
        -11    1    3    3    0    0 -0.23878640917E+02 -0.10334915900E+02 -0.31557012923E+01  0.26209891828E+02  0.51100000000E-03 0.  1.
        -12    1    3    3    0    0 -0.36850625621E+01 -0.14004271154E+02  0.11598746632E+02  0.18553442270E+02  0.00000000000E+00 0.  1.
</event>
<event>
 7    1  0.1381607E-011  0.5052886E+02  0.7816164E-02  0.1300439E+00
        -11   -1    0    0    0    0  0.00000000000E+00  0.00000000000E+00  0.45593999997E+02  0.45594000000E+02  0.51100000000E-03 0. -1.
         11   -1    0    0    0    0 -0.00000000000E+00 -0.00000000000E+00 -0.45593999997E+02  0.45594000000E+02  0.51100000000E-03 0.  1.
    9900012    2    1    2    0    0 -0.10055059482E+02  0.34846291114E+02 -0.18379276363E+02  0.50528855577E+02  0.29999987011E+02 0.  0.
         12    1    1    2    0    0  0.10055059482E+02 -0.34846291114E+02  0.18379276363E+02  0.40659144423E+02  0.00000000000E+00 0. -1.
         11    1    3    3    0    0 -0.84684157789E+01  0.11708767227E+02 -0.12021220238E+02  0.18796782492E+02  0.51100000000E-03 0. -1.
        -11    1    3    3    0    0  0.23852722657E+01  0.19612613672E+02 -0.12679687702E+02  0.23475915729E+02  0.51100000000E-03 0.  1.
         12    1    3    3    0    0 -0.39719159691E+01  0.35249102150E+01  0.63216315770E+01  0.82561573559E+01  0.00000000000E+00 0. -1.
</event>
<event>
 7    1  0.1381607E-011  0.5052887E+02  0.7816164E-02  0.1300439E+00
        -11   -1    0    0    0    0  0.00000000000E+00  0.00000000000E+00  0.45593999997E+02  0.45594000000E+02  0.51100000000E-03 0. -1.
         11   -1    0    0    0    0 -0.00000000000E+00 -0.00000000000E+00 -0.45593999997E+02  0.45594000000E+02  0.51100000000E-03 0.  1.
    9900012    2    1    2    0    0  0.17301982289E+02  0.24940071363E+02 -0.27051779012E+02  0.50528874352E+02  0.30000044080E+02 0.  0.
         12    1    1    2    0    0 -0.17301982289E+02 -0.24940071363E+02  0.27051779012E+02  0.40659125648E+02  0.00000000000E+00 0. -1.
         11    1    3    3    0    0  0.76820571985E+01  0.79958640072E+00  0.18868716173E+01  0.79506997160E+01  0.51100000000E-03 0.  1.
        -11    1    3    3    0    0 -0.55323831091E+00  0.12638168722E+02 -0.39574186387E+01  0.13254830961E+02  0.51100000000E-03 0. -1.
        -12    1    3    3    0    0  0.10173163402E+02  0.11502316241E+02 -0.24981231991E+02  0.29323343675E+02  0.00000000000E+00 0.  1.
</event>
<event>
 7    1  0.1381607E-011  0.5052886E+02  0.7816164E-02  0.1300439E+00
        -11   -1    0    0    0    0  0.00000000000E+00  0.00000000000E+00  0.45593999997E+02  0.45594000000E+02  0.51100000000E-03 0.  1.
         11   -1    0    0    0    0 -0.00000000000E+00 -0.00000000000E+00 -0.45593999997E+02  0.45594000000E+02  0.51100000000E-03 0. -1.
    9900012    2    1    2    0    0  0.15544472810E+02  0.35384596710E+02  0.12627959635E+02  0.50528859775E+02  0.29999999773E+02 0.  0.
         12    1    1    2    0    0 -0.15544472810E+02 -0.35384596710E+02 -0.12627959635E+02  0.40659140225E+02  0.00000000000E+00 0. -1.
         11    1    3    3    0    0  0.28179497600E+01  0.15953243975E+02  0.34352145236E+01  0.16560420685E+02  0.51100000000E-03 0. -1.
        -11    1    3    3    0    0  0.17673072921E+02  0.20971868614E+02  0.86599029641E+01  0.28760227732E+02  0.51100000000E-03 0.  1.
         12    1    3    3    0    0 -0.49465498707E+01 -0.15405158786E+01  0.53284214709E+00  0.52082113580E+01  0.00000000000E+00 0. -1.
</event>
<event>
 7    1  0.1381607E-011  0.5052885E+02  0.7816164E-02  0.1300439E+00
        -11   -1    0    0    0    0  0.00000000000E+00  0.00000000000E+00  0.45593999997E+02  0.45594000000E+02  0.51100000000E-03 0.  1.
         11   -1    0    0    0    0 -0.00000000000E+00 -0.00000000000E+00 -0.45593999997E+02  0.45594000000E+02  0.51100000000E-03 0. -1.
    9900012    2    1    2    0    0 -0.13162849934E+02 -0.33573682895E+02 -0.18780664922E+02  0.50528853717E+02  0.29999981359E+02 0.  0.
         12    1    1    2    0    0  0.13162849934E+02  0.33573682895E+02  0.18780664922E+02  0.40659146283E+02  0.00000000000E+00 0. -1.
         11    1    3    3    0    0 -0.26047211413E+01 -0.10282273265E+02 -0.99096355472E+01  0.14515873817E+02  0.51100000000E-03 0. -1.
        -11    1    3    3    0    0 -0.53675837769E+01 -0.25195436246E+02 -0.13242097980E+02  0.28965050015E+02  0.51100000000E-03 0.  1.
        -12    1    3    3    0    0 -0.51905450157E+01  0.19040266156E+01  0.43710686055E+01  0.70479298852E+01  0.00000000000E+00 0.  1.
</event>
<event>
 7    1  0.1381607E-011  0.5052886E+02  0.7816164E-02  0.1300439E+00
        -11   -1    0    0    0    0  0.00000000000E+00  0.00000000000E+00  0.45593999997E+02  0.45594000000E+02  0.51100000000E-03 0.  1.
         11   -1    0    0    0    0 -0.00000000000E+00 -0.00000000000E+00 -0.45593999997E+02  0.45594000000E+02  0.51100000000E-03 0. -1.
    9900012    2    1    2    0    0  0.11359704697E+02 -0.22837289421E+02  0.31663555742E+02  0.50528862759E+02  0.30000008844E+02 0.  0.
         12    1    1    2    0    0 -0.11359704697E+02  0.22837289421E+02 -0.31663555742E+02  0.40659137241E+02  0.00000000000E+00 0. -1.
         11    1    3    3    0    0  0.70522832904E+01  0.26759534998E+01  0.49125167559E+01  0.90015691898E+01  0.51100000000E-03 0. -1.
        -11    1    3    3    0    0  0.53330827588E+01  0.80148134825E+00  0.53044368240E+01  0.75644692044E+01  0.51100000000E-03 0.  1.
        -12    1    3    3    0    0 -0.10256613517E+01 -0.26314724269E+02  0.21446602162E+02  0.33962824365E+02  0.00000000000E+00 0.  1.
</event>
<event>
 7    1  0.1381607E-011  0.5052886E+02  0.7816164E-02  0.1300439E+00
        -11   -1    0    0    0    0  0.00000000000E+00  0.00000000000E+00  0.45593999997E+02  0.45594000000E+02  0.51100000000E-03 0. -1.
         11   -1    0    0    0    0 -0.00000000000E+00 -0.00000000000E+00 -0.45593999997E+02  0.45594000000E+02  0.51100000000E-03 0.  1.
    9900012    2    1    2    0    0 -0.35357257860E+02 -0.35560796758E+01 -0.19758139623E+02  0.50528862436E+02  0.30000007862E+02 0.  0.
         12    1    1    2    0    0  0.35357257860E+02  0.35560796758E+01  0.19758139623E+02  0.40659137564E+02  0.00000000000E+00 0. -1.
         11    1    3    3    0    0 -0.80448843373E+01 -0.16657124165E+01 -0.13956827302E+02  0.16195301493E+02  0.51100000000E-03 0. -1.
        -11    1    3    3    0    0 -0.25531186051E+02 -0.22838615898E+01 -0.11687000743E+02  0.28171678536E+02  0.51100000000E-03 0.  1.
         12    1    3    3    0    0 -0.17811874720E+01  0.39349433048E+00  0.58856884218E+01  0.61618824070E+01  0.00000000000E+00 0. -1.
</event>
<event>
 7    1  0.1381607E-011  0.5052885E+02  0.7816164E-02  0.1300439E+00
        -11   -1    0    0    0    0  0.00000000000E+00  0.00000000000E+00  0.45593999997E+02  0.45594000000E+02  0.51100000000E-03 0.  1.
         11   -1    0    0    0    0 -0.00000000000E+00 -0.00000000000E+00 -0.45593999997E+02  0.45594000000E+02  0.51100000000E-03 0. -1.
    9900012    2    1    2    0    0  0.67240142685E+00 -0.56202089683E+01  0.40263225096E+02  0.50528853825E+02  0.29999981688E+02 0.  0.
         12    1    1    2    0    0 -0.67240142685E+00  0.56202089683E+01 -0.40263225096E+02  0.40659146175E+02  0.00000000000E+00 0. -1.
         11    1    3    3    0    0 -0.15834148416E+01 -0.76193539971E+01  0.31944295443E+02  0.32878560940E+02  0.51100000000E-03 0. -1.
        -11    1    3    3    0    0 -0.64530669165E+01  0.11725031788E+01  0.19935729335E+01  0.68550105496E+01  0.51100000000E-03 0.  1.
        -12    1    3    3    0    0  0.87088831849E+01  0.82664185004E+00  0.63253567194E+01  0.10795282336E+02  0.00000000000E+00 0.  1.
</event>
<event>
 7    1  0.1381607E-011  0.5052885E+02  0.7816164E-02  0.1300439E+00
        -11   -1    0    0    0    0  0.00000000000E+00  0.00000000000E+00  0.45593999997E+02  0.45594000000E+02  0.51100000000E-03 0.  1.
         11   -1    0    0    0    0 -0.00000000000E+00 -0.00000000000E+00 -0.45593999997E+02  0.45594000000E+02  0.51100000000E-03 0. -1.
    9900012    2    1    2    0    0  0.95561016601E-01 -0.38124722785E+02  0.14130206619E+02  0.50528851479E+02  0.29999974556E+02 0.  0.
         12    1    1    2    0    0 -0.95561016601E-01  0.38124722785E+02 -0.14130206619E+02  0.40659148521E+02  0.00000000000E+00 0. -1.
         11    1    3    3    0    0 -0.66148273403E+01 -0.84175206999E+01  0.13185489321E+02  0.16984337620E+02  0.51100000000E-03 0. -1.
        -11    1    3    3    0    0 -0.38878136062E+01 -0.75067900038E+01 -0.22224384623E+01  0.87410653686E+01  0.51100000000E-03 0.  1.
         12    1    3    3    0    0  0.10598201963E+02 -0.22200412081E+02  0.31671557601E+01  0.24803448491E+02  0.00000000000E+00 0. -1.
</event>
<event>
 7    1  0.1381607E-011  0.5052881E+02  0.7816164E-02  0.1300439E+00
        -11   -1    0    0    0    0  0.00000000000E+00  0.00000000000E+00  0.45593999997E+02  0.45594000000E+02  0.51100000000E-03 0.  1.
         11   -1    0    0    0    0 -0.00000000000E+00 -0.00000000000E+00 -0.45593999997E+02  0.45594000000E+02  0.51100000000E-03 0. -1.
    9900012    2    1    2    0    0 -0.36298090143E+02 -0.14517192317E+02  0.11174488282E+02  0.50528813963E+02  0.29999860522E+02 0.  0.
         12    1    1    2    0    0  0.36298090143E+02  0.14517192317E+02 -0.11174488282E+02  0.40659186037E+02  0.00000000000E+00 0. -1.
         11    1    3    3    0    0 -0.64155316165E+01  0.24284915759E+01 -0.30781262168E+01  0.75187418179E+01  0.51100000000E-03 0. -1.
        -11    1    3    3    0    0 -0.12671824140E+02 -0.80269089946E+01 -0.48798148641E+01  0.15773997223E+02  0.51100000000E-03 0.  1.
        -12    1    3    3    0    0 -0.17210734387E+02 -0.89187748983E+01  0.19132429363E+02  0.27236074922E+02  0.00000000000E+00 0.  1.
</event>
<event>
 7    1  0.1381607E-011  0.5052885E+02  0.7816164E-02  0.1300439E+00
        -11   -1    0    0    0    0  0.00000000000E+00  0.00000000000E+00  0.45593999997E+02  0.45594000000E+02  0.51100000000E-03 0. -1.
         11   -1    0    0    0    0 -0.00000000000E+00 -0.00000000000E+00 -0.45593999997E+02  0.45594000000E+02  0.51100000000E-03 0.  1.
    9900012    2    1    2    0    0 -0.38846536469E+02  0.11990724824E+02 -0.57913326909E+00  0.50528852533E+02  0.29999977758E+02 0.  0.
         12    1    1    2    0    0  0.38846536469E+02 -0.11990724824E+02  0.57913326909E+00  0.40659147467E+02  0.00000000000E+00 0. -1.
         11    1    3    3    0    0 -0.17174563019E+02  0.14535642477E+01 -0.81908150749E+01  0.19083184110E+02  0.51100000000E-03 0. -1.
        -11    1    3    3    0    0 -0.84499266869E+01  0.10600717097E+02 -0.36921108532E+01  0.14050200952E+02  0.51100000000E-03 0.  1.
         12    1    3    3    0    0 -0.13222046763E+02 -0.63556520819E-01  0.11303792659E+02  0.17395467470E+02  0.00000000000E+00 0. -1.
</event>
<event>
 7    1  0.1381607E-011  0.5052881E+02  0.7816164E-02  0.1300439E+00
        -11   -1    0    0    0    0  0.00000000000E+00  0.00000000000E+00  0.45593999997E+02  0.45594000000E+02  0.51100000000E-03 0. -1.
         11   -1    0    0    0    0 -0.00000000000E+00 -0.00000000000E+00 -0.45593999997E+02  0.45594000000E+02  0.51100000000E-03 0.  1.
    9900012    2    1    2    0    0 -0.20191251260E+02  0.35015882263E+02 -0.44012591242E+01  0.50528810141E+02  0.29999848903E+02 0.  0.
         12    1    1    2    0    0  0.20191251260E+02 -0.35015882263E+02  0.44012591242E+01  0.40659189859E+02  0.00000000000E+00 0. -1.
         11    1    3    3    0    0 -0.47461496039E+01  0.12308806894E+02  0.39745501193E+01  0.13777870377E+02  0.51100000000E-03 0. -1.
        -11    1    3    3    0    0  0.35558879141E+01  0.92050897463E+00  0.38881388958E+01  0.53487662095E+01  0.51100000000E-03 0.  1.
        -12    1    3    3    0    0 -0.19000989571E+02  0.21786566395E+02 -0.12263948139E+02  0.31402173554E+02  0.00000000000E+00 0.  1.
</event>
<event>
 7    1  0.1381607E-011  0.5052885E+02  0.7816164E-02  0.1300439E+00
        -11   -1    0    0    0    0  0.00000000000E+00  0.00000000000E+00  0.45593999997E+02  0.45594000000E+02  0.51100000000E-03 0.  1.
         11   -1    0    0    0    0 -0.00000000000E+00 -0.00000000000E+00 -0.45593999997E+02  0.45594000000E+02  0.51100000000E-03 0. -1.
    9900012    2    1    2    0    0  0.15598040032E+02  0.23707450485E+02  0.29117417685E+02  0.50528854977E+02  0.29999985188E+02 0.  0.
         12    1    1    2    0    0 -0.15598040032E+02 -0.23707450485E+02 -0.29117417685E+02  0.40659145023E+02  0.00000000000E+00 0. -1.
         11    1    3    3    0    0  0.29431348113E+01 -0.22802477235E+01  0.38752953344E+00  0.37432274307E+01  0.51100000000E-03 0.  1.
        -11    1    3    3    0    0  0.12417426796E+02  0.24059102386E+02  0.32647037379E+02  0.42412992653E+02  0.51100000000E-03 0. -1.
         12    1    3    3    0    0  0.23747842434E+00  0.19285958223E+01 -0.39171492271E+01  0.43726348939E+01  0.00000000000E+00 0. -1.
</event>
<event>
 7    1  0.1381607E-011  0.5052878E+02  0.7816164E-02  0.1300439E+00
        -11   -1    0    0    0    0  0.00000000000E+00  0.00000000000E+00  0.45593999997E+02  0.45594000000E+02  0.51100000000E-03 0.  1.
         11   -1    0    0    0    0 -0.00000000000E+00 -0.00000000000E+00 -0.45593999997E+02  0.45594000000E+02  0.51100000000E-03 0. -1.
    9900012    2    1    2    0    0  0.11477576163E+01 -0.64810134557E+01  0.40122953429E+02  0.50528778724E+02  0.29999753408E+02 0.  0.
         12    1    1    2    0    0 -0.11477576163E+01  0.64810134557E+01 -0.40122953429E+02  0.40659221276E+02  0.00000000000E+00 0. -1.
         11    1    3    3    0    0  0.26099177741E+01  0.41593171124E+01  0.54101649931E+01  0.73062627343E+01  0.51100000000E-03 0. -1.
        -11    1    3    3    0    0  0.10987521766E+02 -0.54169880395E+01  0.16279357250E+02  0.20373680735E+02  0.51100000000E-03 0.  1.
        -12    1    3    3    0    0 -0.12449681924E+02 -0.52233425285E+01  0.18433431186E+02  0.22848835254E+02  0.00000000000E+00 0.  1.
</event>
<event>
 7    1  0.1381607E-011  0.5052886E+02  0.7816164E-02  0.1300439E+00
        -11   -1    0    0    0    0  0.00000000000E+00  0.00000000000E+00  0.45593999997E+02  0.45594000000E+02  0.51100000000E-03 0.  1.
         11   -1    0    0    0    0 -0.00000000000E+00 -0.00000000000E+00 -0.45593999997E+02  0.45594000000E+02  0.51100000000E-03 0. -1.
    9900012    2    1    2    0    0  0.11515095050E+02  0.26216670288E+02  0.28866145140E+02  0.50528861418E+02  0.30000004766E+02 0.  0.
         12    1    1    2    0    0 -0.11515095050E+02 -0.26216670288E+02 -0.28866145140E+02  0.40659138582E+02  0.00000000000E+00 0. -1.
         11    1    3    3    0    0  0.48146056655E+01  0.97391185816E+00  0.16314940958E+02  0.17038375237E+02  0.51100000000E-03 0. -1.
        -11    1    3    3    0    0  0.11570825332E+02  0.10907722495E+02  0.68140711629E+01  0.17300114883E+02  0.51100000000E-03 0.  1.
         12    1    3    3    0    0 -0.48703359474E+01  0.14335035934E+02  0.57371330197E+01  0.16190371298E+02  0.00000000000E+00 0. -1.
</event>
<event>
 7    1  0.1381607E-011  0.5052885E+02  0.7816164E-02  0.1300439E+00
        -11   -1    0    0    0    0  0.00000000000E+00  0.00000000000E+00  0.45593999997E+02  0.45594000000E+02  0.51100000000E-03 0.  1.
         11   -1    0    0    0    0 -0.00000000000E+00 -0.00000000000E+00 -0.45593999997E+02  0.45594000000E+02  0.51100000000E-03 0. -1.
    9900012    2    1    2    0    0  0.30551318708E+02  0.15110945570E+02  0.22168510968E+02  0.50528848148E+02  0.29999964431E+02 0.  0.
         12    1    1    2    0    0 -0.30551318708E+02 -0.15110945570E+02 -0.22168510968E+02  0.40659151852E+02  0.00000000000E+00 0. -1.
         11    1    3    3    0    0  0.82110966435E+01 -0.56072104865E+01  0.87025211664E+00  0.99809947669E+01  0.51100000000E-03 0. -1.
        -11    1    3    3    0    0 -0.17277824379E+01  0.47252579221E+01  0.74309573805E+00  0.50858122380E+01  0.51100000000E-03 0.  1.
        -12    1    3    3    0    0  0.24068004502E+02  0.15992898134E+02  0.20555163113E+02  0.35462041143E+02  0.00000000000E+00 0.  1.
</event>
<event>
 7    1  0.1381607E-011  0.5052880E+02  0.7816164E-02  0.1300439E+00
        -11   -1    0    0    0    0  0.00000000000E+00  0.00000000000E+00  0.45593999997E+02  0.45594000000E+02  0.51100000000E-03 0.  1.
         11   -1    0    0    0    0 -0.00000000000E+00 -0.00000000000E+00 -0.45593999997E+02  0.45594000000E+02  0.51100000000E-03 0. -1.
    9900012    2    1    2    0    0  0.37297483835E+02 -0.86387426503E+01  0.13690889251E+02  0.50528799031E+02  0.29999815133E+02 0.  0.
         12    1    1    2    0    0 -0.37297483835E+02  0.86387426503E+01 -0.13690889251E+02  0.40659200969E+02  0.00000000000E+00 0. -1.
         11    1    3    3    0    0  0.82596107273E+01 -0.13301101425E+02  0.65084686645E+01  0.16955843627E+02  0.51100000000E-03 0. -1.
        -11    1    3    3    0    0  0.31320132732E+01 -0.22966189563E+01  0.54507209893E+01  0.66928562915E+01  0.51100000000E-03 0.  1.
        -12    1    3    3    0    0  0.25905859834E+02  0.69589777307E+01  0.17316995969E+01  0.26880099113E+02  0.00000000000E+00 0.  1.
</event>
<event>
 7    1  0.1381607E-011  0.5052886E+02  0.7816164E-02  0.1300439E+00
        -11   -1    0    0    0    0  0.00000000000E+00  0.00000000000E+00  0.45593999997E+02  0.45594000000E+02  0.51100000000E-03 0.  1.
         11   -1    0    0    0    0 -0.00000000000E+00 -0.00000000000E+00 -0.45593999997E+02  0.45594000000E+02  0.51100000000E-03 0. -1.
    9900012    2    1    2    0    0  0.10156700796E+02  0.13013419455E+02  0.37157209225E+02  0.50528857678E+02  0.29999993399E+02 0.  0.
         12    1    1    2    0    0 -0.10156700796E+02 -0.13013419455E+02 -0.37157209225E+02  0.40659142322E+02  0.00000000000E+00 0. -1.
         11    1    3    3    0    0 -0.17203682825E+01  0.47163847746E+01 -0.30582405790E+00  0.50296601262E+01  0.51100000000E-03 0. -1.
        -11    1    3    3    0    0 -0.46669384547E+01 -0.20452353227E+01  0.14486006387E+02  0.15356030847E+02  0.51100000000E-03 0.  1.
         12    1    3    3    0    0  0.16544007533E+02  0.10342270003E+02  0.22977026895E+02  0.30143166705E+02  0.00000000000E+00 0. -1.
</event>
<event>
 7    1  0.1381607E-011  0.5052884E+02  0.7816164E-02  0.1300439E+00
        -11   -1    0    0    0    0  0.00000000000E+00  0.00000000000E+00  0.45593999997E+02  0.45594000000E+02  0.51100000000E-03 0.  1.
         11   -1    0    0    0    0 -0.00000000000E+00 -0.00000000000E+00 -0.45593999997E+02  0.45594000000E+02  0.51100000000E-03 0. -1.
    9900012    2    1    2    0    0  0.30403758197E+01 -0.36613258151E+02  0.17418165090E+02  0.50528843188E+02  0.29999949353E+02 0.  0.
         12    1    1    2    0    0 -0.30403758197E+01  0.36613258151E+02 -0.17418165090E+02  0.40659156812E+02  0.00000000000E+00 0. -1.
         11    1    3    3    0    0  0.76867168254E+01 -0.86516770182E+01  0.26339122732E+01  0.11869061669E+02  0.51100000000E-03 0. -1.
        -11    1    3    3    0    0 -0.46255965106E+01 -0.11571958437E+02 -0.45921452899E+01  0.13281346459E+02  0.51100000000E-03 0.  1.
        -12    1    3    3    0    0 -0.20744495134E-01 -0.16389622696E+02  0.19376398107E+02  0.25378435059E+02  0.00000000000E+00 0.  1.
</event>
<event>
 7    1  0.1381607E-011  0.5052886E+02  0.7816164E-02  0.1300439E+00
        -11   -1    0    0    0    0  0.00000000000E+00  0.00000000000E+00  0.45593999997E+02  0.45594000000E+02  0.51100000000E-03 0.  1.
         11   -1    0    0    0    0 -0.00000000000E+00 -0.00000000000E+00 -0.45593999997E+02  0.45594000000E+02  0.51100000000E-03 0. -1.
    9900012    2    1    2    0    0  0.46250944013E+01  0.18833381510E+02  0.35736227726E+02  0.50528859215E+02  0.29999998070E+02 0.  0.
         12    1    1    2    0    0 -0.46250944013E+01 -0.18833381510E+02 -0.35736227726E+02  0.40659140785E+02  0.00000000000E+00 0. -1.
         11    1    3    3    0    0 -0.98781743559E+00  0.67426865403E-01  0.25474563845E+01  0.27331051865E+01  0.51100000000E-03 0. -1.
        -11    1    3    3    0    0 -0.44923419825E+01  0.13876400825E+02  0.33529545737E+02  0.36564546681E+02  0.51100000000E-03 0.  1.
         12    1    3    3    0    0  0.10105253819E+02  0.48895538189E+01 -0.34077439592E+00  0.11231207348E+02  0.00000000000E+00 0. -1.
</event>
<event>
 7    1  0.1381607E-011  0.5052885E+02  0.7816164E-02  0.1300439E+00
        -11   -1    0    0    0    0  0.00000000000E+00  0.00000000000E+00  0.45593999997E+02  0.45594000000E+02  0.51100000000E-03 0. -1.
         11   -1    0    0    0    0 -0.00000000000E+00 -0.00000000000E+00 -0.45593999997E+02  0.45594000000E+02  0.51100000000E-03 0.  1.
    9900012    2    1    2    0    0 -0.23801235093E+02  0.15908684012E+02 -0.28871814463E+02  0.50528847410E+02  0.29999962188E+02 0.  0.
         12    1    1    2    0    0  0.23801235093E+02 -0.15908684012E+02  0.28871814463E+02  0.40659152590E+02  0.00000000000E+00 0. -1.
         11    1    3    3    0    0 -0.16084292294E+02  0.14914553193E+01 -0.76239729982E+01  0.17862078885E+02  0.51100000000E-03 0. -1.
        -11    1    3    3    0    0 -0.91694275976E+01  0.11095609219E+01 -0.15617313952E+02  0.18144145702E+02  0.51100000000E-03 0.  1.
         12    1    3    3    0    0  0.14524847985E+01  0.13307667771E+02 -0.56305275122E+01  0.14522622823E+02  0.00000000000E+00 0. -1.
</event>
<event>
 7    1  0.1381607E-011  0.5052885E+02  0.7816164E-02  0.1300439E+00
        -11   -1    0    0    0    0  0.00000000000E+00  0.00000000000E+00  0.45593999997E+02  0.45594000000E+02  0.51100000000E-03 0. -1.
         11   -1    0    0    0    0 -0.00000000000E+00 -0.00000000000E+00 -0.45593999997E+02  0.45594000000E+02  0.51100000000E-03 0.  1.
    9900012    2    1    2    0    0 -0.25933836378E+02  0.29401711344E+02 -0.10776905381E+02  0.50528853565E+02  0.29999980896E+02 0.  0.
         12    1    1    2    0    0  0.25933836378E+02 -0.29401711344E+02  0.10776905381E+02  0.40659146435E+02  0.00000000000E+00 0. -1.
         11    1    3    3    0    0 -0.16670699794E+01  0.66580102458E+01  0.19060169556E+01  0.71232803992E+01  0.51100000000E-03 0. -1.
        -11    1    3    3    0    0 -0.22604130776E+02  0.26279583729E+02 -0.16095201834E+02  0.38218042485E+02  0.51100000000E-03 0.  1.
         12    1    3    3    0    0 -0.16626356228E+01 -0.35358826307E+01  0.34122794973E+01  0.51875306804E+01  0.00000000000E+00 0. -1.
</event>
<event>
 7    1  0.1381607E-011  0.5052898E+02  0.7816164E-02  0.1300438E+00
        -11   -1    0    0    0    0  0.00000000000E+00  0.00000000000E+00  0.45593999997E+02  0.45594000000E+02  0.51100000000E-03 0.  1.
         11   -1    0    0    0    0 -0.00000000000E+00 -0.00000000000E+00 -0.45593999997E+02  0.45594000000E+02  0.51100000000E-03 0. -1.
    9900012    2    1    2    0    0  0.26409445294E+02  0.24972329259E+02  0.18223055660E+02  0.50528981481E+02  0.30000369707E+02 0.  0.
         12    1    1    2    0    0 -0.26409445294E+02 -0.24972329259E+02 -0.18223055660E+02  0.40659018519E+02  0.00000000000E+00 0. -1.
         11    1    3    3    0    0  0.18109491007E+02  0.18764860219E+02  0.94062460555E+00  0.26095179985E+02  0.51100000000E-03 0. -1.
        -11    1    3    3    0    0  0.52272224626E+01  0.53552152411E+01  0.66472884027E+00  0.75129255050E+01  0.51100000000E-03 0.  1.
         12    1    3    3    0    0  0.30727318242E+01  0.85225379969E+00  0.16617702214E+02  0.16920875991E+02  0.00000000000E+00 0. -1.
</event>
<event>
 7    1  0.1381607E-011  0.5052884E+02  0.7816164E-02  0.1300439E+00
        -11   -1    0    0    0    0  0.00000000000E+00  0.00000000000E+00  0.45593999997E+02  0.45594000000E+02  0.51100000000E-03 0.  1.
         11   -1    0    0    0    0 -0.00000000000E+00 -0.00000000000E+00 -0.45593999997E+02  0.45594000000E+02  0.51100000000E-03 0. -1.
    9900012    2    1    2    0    0 -0.33543174504E+02 -0.22967981560E+02  0.70314956842E+00  0.50528841720E+02  0.29999944891E+02 0.  0.
         12    1    1    2    0    0  0.33543174504E+02  0.22967981560E+02 -0.70314956842E+00  0.40659158280E+02  0.00000000000E+00 0. -1.
         11    1    3    3    0    0  0.24308662238E+01 -0.73312034553E+01  0.82205161585E+00  0.77673305466E+01  0.51100000000E-03 0. -1.
        -11    1    3    3    0    0 -0.14858198188E+02 -0.12473781698E+02  0.64142839566E+01  0.20432922507E+02  0.51100000000E-03 0.  1.
         12    1    3    3    0    0 -0.21115842540E+02 -0.31629964064E+01 -0.65331860041E+01  0.22328588666E+02  0.00000000000E+00 0. -1.
</event>
<event>
 7    1  0.1381607E-011  0.5052886E+02  0.7816164E-02  0.1300439E+00
        -11   -1    0    0    0    0  0.00000000000E+00  0.00000000000E+00  0.45593999997E+02  0.45594000000E+02  0.51100000000E-03 0.  1.
         11   -1    0    0    0    0 -0.00000000000E+00 -0.00000000000E+00 -0.45593999997E+02  0.45594000000E+02  0.51100000000E-03 0. -1.
    9900012    2    1    2    0    0  0.32197627347E+02  0.30369073935E+01  0.24642555919E+02  0.50528861107E+02  0.30000003822E+02 0.  0.
         12    1    1    2    0    0 -0.32197627347E+02 -0.30369073935E+01 -0.24642555919E+02  0.40659138893E+02  0.00000000000E+00 0. -1.
         11    1    3    3    0    0 -0.19744308332E+01  0.72198534625E+00  0.73852052369E+01  0.76785999119E+01  0.51100000000E-03 0. -1.
        -11    1    3    3    0    0  0.13620294374E+02 -0.65643739629E+01  0.13255559897E+02  0.20107543182E+02  0.51100000000E-03 0.  1.
         12    1    3    3    0    0  0.20551763806E+02  0.88792960101E+01  0.40017907850E+01  0.22742718014E+02  0.00000000000E+00 0. -1.
</event>
<event>
 7    1  0.1381607E-011  0.5052886E+02  0.7816164E-02  0.1300439E+00
        -11   -1    0    0    0    0  0.00000000000E+00  0.00000000000E+00  0.45593999997E+02  0.45594000000E+02  0.51100000000E-03 0.  1.
         11   -1    0    0    0    0 -0.00000000000E+00 -0.00000000000E+00 -0.45593999997E+02  0.45594000000E+02  0.51100000000E-03 0. -1.
    9900012    2    1    2    0    0  0.24397665061E+01 -0.16740215715E+02  0.36972676197E+02  0.50528855051E+02  0.29999985414E+02 0.  0.
         12    1    1    2    0    0 -0.24397665061E+01  0.16740215715E+02 -0.36972676197E+02  0.40659144949E+02  0.00000000000E+00 0. -1.
         11    1    3    3    0    0  0.17024939023E+01  0.36525654481E+01  0.11713660331E+02  0.12387475871E+02  0.51100000000E-03 0. -1.
        -11    1    3    3    0    0 -0.68079239288E+01 -0.85790092927E+00  0.27361448499E+01  0.73871720655E+01  0.51100000000E-03 0.  1.
        -12    1    3    3    0    0  0.75451965326E+01 -0.19534880234E+02  0.22522871016E+02  0.30754207115E+02  0.00000000000E+00 0.  1.
</event>
<event>
 7    1  0.1381607E-011  0.5052885E+02  0.7816164E-02  0.1300439E+00
        -11   -1    0    0    0    0  0.00000000000E+00  0.00000000000E+00  0.45593999997E+02  0.45594000000E+02  0.51100000000E-03 0.  1.
         11   -1    0    0    0    0 -0.00000000000E+00 -0.00000000000E+00 -0.45593999997E+02  0.45594000000E+02  0.51100000000E-03 0. -1.
    9900012    2    1    2    0    0 -0.14784578455E+01 -0.32286515904E+02  0.24669036914E+02  0.50528851840E+02  0.29999975654E+02 0.  0.
         12    1    1    2    0    0  0.14784578455E+01  0.32286515904E+02 -0.24669036914E+02  0.40659148160E+02  0.00000000000E+00 0. -1.
         11    1    3    3    0    0 -0.32985558328E+01 -0.11062790339E+02 -0.12175120434E+01  0.11608106499E+02  0.51100000000E-03 0. -1.
        -11    1    3    3    0    0 -0.87930771854E+01 -0.12722272266E+02  0.13867449608E+02  0.20772110554E+02  0.51100000000E-03 0.  1.
         12    1    3    3    0    0  0.10613175173E+02 -0.85014532997E+01  0.12019099349E+02  0.18148634787E+02  0.00000000000E+00 0. -1.
</event>
<event>
 7    1  0.1381607E-011  0.5052886E+02  0.7816164E-02  0.1300439E+00
        -11   -1    0    0    0    0  0.00000000000E+00  0.00000000000E+00  0.45593999997E+02  0.45594000000E+02  0.51100000000E-03 0. -1.
         11   -1    0    0    0    0 -0.00000000000E+00 -0.00000000000E+00 -0.45593999997E+02  0.45594000000E+02  0.51100000000E-03 0.  1.
    9900012    2    1    2    0    0 -0.37115304261E+02  0.11967596295E+02 -0.11506379187E+02  0.50528856705E+02  0.29999990441E+02 0.  0.
         12    1    1    2    0    0  0.37115304261E+02 -0.11967596295E+02  0.11506379187E+02  0.40659143295E+02  0.00000000000E+00 0. -1.
         11    1    3    3    0    0 -0.13704043437E+00 -0.24153512267E+01  0.28984654213E+01  0.37754209949E+01  0.51100000000E-03 0. -1.
        -11    1    3    3    0    0 -0.33960868753E+01  0.84069661819E+01 -0.79067089326E+01  0.12030234115E+02  0.51100000000E-03 0.  1.
        -12    1    3    3    0    0 -0.33582176951E+02  0.59759813401E+01 -0.64981356759E+01  0.34723201595E+02  0.00000000000E+00 0.  1.
</event>
<event>
 7    1  0.1381607E-011  0.5052887E+02  0.7816164E-02  0.1300439E+00
        -11   -1    0    0    0    0  0.00000000000E+00  0.00000000000E+00  0.45593999997E+02  0.45594000000E+02  0.51100000000E-03 0.  1.
         11   -1    0    0    0    0 -0.00000000000E+00 -0.00000000000E+00 -0.45593999997E+02  0.45594000000E+02  0.51100000000E-03 0. -1.
    9900012    2    1    2    0    0 -0.18996109155E+02  0.15650756198E+02  0.32363042283E+02  0.50528870171E+02  0.30000031372E+02 0.  0.
         12    1    1    2    0    0  0.18996109155E+02 -0.15650756198E+02 -0.32363042283E+02  0.40659129829E+02  0.00000000000E+00 0. -1.
         11    1    3    3    0    0 -0.15143654566E+02  0.22318212140E+01  0.74107126007E+01  0.17006762215E+02  0.51100000000E-03 0. -1.
        -11    1    3    3    0    0 -0.82650084372E+01  0.21940236320E+01  0.17132044640E+02  0.19147612331E+02  0.51100000000E-03 0.  1.
         12    1    3    3    0    0  0.44125538482E+01  0.11224911352E+02  0.78202850430E+01  0.14374495625E+02  0.00000000000E+00 0. -1.
</event>
<event>
 7    1  0.1381607E-011  0.5052886E+02  0.7816164E-02  0.1300439E+00
        -11   -1    0    0    0    0  0.00000000000E+00  0.00000000000E+00  0.45593999997E+02  0.45594000000E+02  0.51100000000E-03 0. -1.
         11   -1    0    0    0    0 -0.00000000000E+00 -0.00000000000E+00 -0.45593999997E+02  0.45594000000E+02  0.51100000000E-03 0.  1.
    9900012    2    1    2    0    0  0.19007130209E+02  0.32383717596E+02  0.15594535154E+02  0.50528859690E+02  0.29999999513E+02 0.  0.
         12    1    1    2    0    0 -0.19007130209E+02 -0.32383717596E+02 -0.15594535154E+02  0.40659140310E+02  0.00000000000E+00 0. -1.
         11    1    3    3    0    0  0.21144849721E+02  0.16080992716E+02  0.16839832301E+02  0.31452868687E+02  0.51100000000E-03 0. -1.
        -11    1    3    3    0    0  0.15177404721E+01 -0.32950380358E+00 -0.13327986217E+01  0.20465730684E+01  0.51100000000E-03 0.  1.
        -12    1    3    3    0    0 -0.36554599839E+01  0.16632228683E+02  0.87501474412E-01  0.17029417934E+02  0.00000000000E+00 0.  1.
</event>
<event>
 7    1  0.1381607E-011  0.5052878E+02  0.7816164E-02  0.1300439E+00
        -11   -1    0    0    0    0  0.00000000000E+00  0.00000000000E+00  0.45593999997E+02  0.45594000000E+02  0.51100000000E-03 0.  1.
         11   -1    0    0    0    0 -0.00000000000E+00 -0.00000000000E+00 -0.45593999997E+02  0.45594000000E+02  0.51100000000E-03 0. -1.
    9900012    2    1    2    0    0 -0.34815799753E+02 -0.18536413657E+02  0.98708533743E+01  0.50528778536E+02  0.29999752837E+02 0.  0.
         12    1    1    2    0    0  0.34815799753E+02  0.18536413657E+02 -0.98708533743E+01  0.40659221464E+02  0.00000000000E+00 0. -1.
         11    1    3    3    0    0  0.14433209286E+01 -0.45472254609E+00  0.28039378041E+01  0.31862227428E+01  0.51100000000E-03 0. -1.
        -11    1    3    3    0    0 -0.29222188644E+02 -0.84328569237E+01  0.14055905264E+02  0.33505489969E+02  0.51100000000E-03 0.  1.
        -12    1    3    3    0    0 -0.70369320384E+01 -0.96488341869E+01 -0.69889896939E+01  0.13837065824E+02  0.00000000000E+00 0.  1.
</event>
<event>
 7    1  0.1381607E-011  0.5052887E+02  0.7816164E-02  0.1300439E+00
        -11   -1    0    0    0    0  0.00000000000E+00  0.00000000000E+00  0.45593999997E+02  0.45594000000E+02  0.51100000000E-03 0.  1.
         11   -1    0    0    0    0 -0.00000000000E+00 -0.00000000000E+00 -0.45593999997E+02  0.45594000000E+02  0.51100000000E-03 0. -1.
    9900012    2    1    2    0    0  0.94666419262E+01 -0.33088116355E+02  0.21650037557E+02  0.50528869666E+02  0.30000029837E+02 0.  0.
         12    1    1    2    0    0 -0.94666419262E+01  0.33088116355E+02 -0.21650037557E+02  0.40659130334E+02  0.00000000000E+00 0. -1.
         11    1    3    3    0    0 -0.34099633678E+01 -0.12228827347E+02  0.40236344157E+01  0.13317721376E+02  0.51100000000E-03 0. -1.
        -11    1    3    3    0    0  0.91445375030E+01 -0.71680243326E+01 -0.31613937093E+01  0.12041492824E+02  0.51100000000E-03 0.  1.
        -12    1    3    3    0    0  0.37320677909E+01 -0.13691264675E+02  0.20787796851E+02  0.25169655467E+02  0.00000000000E+00 0.  1.
</event>
<event>
 7    1  0.1381607E-011  0.5052888E+02  0.7816164E-02  0.1300439E+00
        -11   -1    0    0    0    0  0.00000000000E+00  0.00000000000E+00  0.45593999997E+02  0.45594000000E+02  0.51100000000E-03 0.  1.
         11   -1    0    0    0    0 -0.00000000000E+00 -0.00000000000E+00 -0.45593999997E+02  0.45594000000E+02  0.51100000000E-03 0. -1.
    9900012    2    1    2    0    0  0.15979220675E+02 -0.37216956689E+02 -0.35674561803E+01  0.50528879226E+02  0.30000058894E+02 0.  0.
         12    1    1    2    0    0 -0.15979220675E+02  0.37216956689E+02  0.35674561803E+01  0.40659120774E+02  0.00000000000E+00 0. -1.
         11    1    3    3    0    0  0.13540835881E+01 -0.12463085612E+02 -0.52232294586E+01  0.13581022479E+02  0.51100000000E-03 0. -1.
        -11    1    3    3    0    0  0.13250378275E+02 -0.26810323126E+02  0.73011692454E+01  0.30784298322E+02  0.51100000000E-03 0.  1.
        -12    1    3    3    0    0  0.13747588118E+01  0.20564520498E+01 -0.56453959671E+01  0.61635584243E+01  0.00000000000E+00 0.  1.
</event>
<event>
 7    1  0.1381607E-011  0.5052883E+02  0.7816164E-02  0.1300439E+00
        -11   -1    0    0    0    0  0.00000000000E+00  0.00000000000E+00  0.45593999997E+02  0.45594000000E+02  0.51100000000E-03 0.  1.
         11   -1    0    0    0    0 -0.00000000000E+00 -0.00000000000E+00 -0.45593999997E+02  0.45594000000E+02  0.51100000000E-03 0. -1.
    9900012    2    1    2    0    0  0.15891093504E+02 -0.37396323430E+02 -0.14685466360E+01  0.50528825291E+02  0.29999894953E+02 0.  0.
         12    1    1    2    0    0 -0.15891093504E+02  0.37396323430E+02  0.14685466360E+01  0.40659174709E+02  0.00000000000E+00 0. -1.
         11    1    3    3    0    0  0.66291346241E+01 -0.90769464462E+01 -0.58662221397E+01  0.12678680732E+02  0.51100000000E-03 0. -1.
        -11    1    3    3    0    0 -0.65588209040E+01 -0.13657276999E+02  0.58273470145E+01  0.16232600536E+02  0.51100000000E-03 0.  1.
         12    1    3    3    0    0  0.15820779784E+02 -0.14662099985E+02 -0.14296715108E+01  0.21617544023E+02  0.00000000000E+00 0. -1.
</event>
<event>
 7    1  0.1381607E-011  0.5052886E+02  0.7816164E-02  0.1300439E+00
        -11   -1    0    0    0    0  0.00000000000E+00  0.00000000000E+00  0.45593999997E+02  0.45594000000E+02  0.51100000000E-03 0.  1.
         11   -1    0    0    0    0 -0.00000000000E+00 -0.00000000000E+00 -0.45593999997E+02  0.45594000000E+02  0.51100000000E-03 0. -1.
    9900012    2    1    2    0    0 -0.20948165332E+02 -0.20344754255E+02  0.28291889490E+02  0.50528859978E+02  0.30000000388E+02 0.  0.
         12    1    1    2    0    0  0.20948165332E+02  0.20344754255E+02 -0.28291889490E+02  0.40659140022E+02  0.00000000000E+00 0. -1.
         11    1    3    3    0    0 -0.70572603144E+01 -0.16661426632E+02  0.25140793849E+02  0.30975273626E+02  0.51100000000E-03 0. -1.
        -11    1    3    3    0    0 -0.13521083099E+01 -0.57338518640E+01 -0.14044485763E+01  0.60562141759E+01  0.51100000000E-03 0.  1.
         12    1    3    3    0    0 -0.12538796707E+02  0.20505242412E+01  0.45555442166E+01  0.13497372175E+02  0.00000000000E+00 0. -1.
</event>
<event>
 7    1  0.1381607E-011  0.5052886E+02  0.7816164E-02  0.1300439E+00
        -11   -1    0    0    0    0  0.00000000000E+00  0.00000000000E+00  0.45593999997E+02  0.45594000000E+02  0.51100000000E-03 0.  1.
         11   -1    0    0    0    0 -0.00000000000E+00 -0.00000000000E+00 -0.45593999997E+02  0.45594000000E+02  0.51100000000E-03 0. -1.
    9900012    2    1    2    0    0  0.39027642098E+02 -0.14605964185E+01  0.11308210710E+02  0.50528858112E+02  0.29999994716E+02 0.  0.
         12    1    1    2    0    0 -0.39027642098E+02  0.14605964185E+01 -0.11308210710E+02  0.40659141888E+02  0.00000000000E+00 0. -1.
         11    1    3    3    0    0  0.11890434010E+01 -0.10181117713E+01  0.10658421077E+02  0.10772758045E+02  0.51100000000E-03 0. -1.
        -11    1    3    3    0    0  0.64884940369E+01  0.15483051121E+01 -0.43268725927E+01  0.79510773032E+01  0.51100000000E-03 0.  1.
        -12    1    3    3    0    0  0.31350104660E+02 -0.19907897593E+01  0.49766622264E+01  0.31805022764E+02  0.00000000000E+00 0.  1.
</event>
<event>
 7    1  0.1381607E-011  0.5052887E+02  0.7816164E-02  0.1300439E+00
        -11   -1    0    0    0    0  0.00000000000E+00  0.00000000000E+00  0.45593999997E+02  0.45594000000E+02  0.51100000000E-03 0.  1.
         11   -1    0    0    0    0 -0.00000000000E+00 -0.00000000000E+00 -0.45593999997E+02  0.45594000000E+02  0.51100000000E-03 0. -1.
    9900012    2    1    2    0    0 -0.44122679552E+01 -0.18142583617E+02  0.36118463981E+02  0.50528869547E+02  0.30000029476E+02 0.  0.
         12    1    1    2    0    0  0.44122679552E+01  0.18142583617E+02 -0.36118463981E+02  0.40659130453E+02  0.00000000000E+00 0. -1.
         11    1    3    3    0    0 -0.79834193130E+01 -0.68148742790E+01  0.12284796556E+02  0.16158394785E+02  0.51100000000E-03 0. -1.
        -11    1    3    3    0    0  0.45779185630E+01 -0.11339635066E+01  0.23660187959E+02  0.24125664885E+02  0.51100000000E-03 0.  1.
         12    1    3    3    0    0 -0.10067672052E+01 -0.10193745832E+02  0.17347946577E+00  0.10244809877E+02  0.00000000000E+00 0. -1.
</event>
<event>
 7    1  0.1381607E-011  0.5052895E+02  0.7816164E-02  0.1300438E+00
        -11   -1    0    0    0    0  0.00000000000E+00  0.00000000000E+00  0.45593999997E+02  0.45594000000E+02  0.51100000000E-03 0.  1.
         11   -1    0    0    0    0 -0.00000000000E+00 -0.00000000000E+00 -0.45593999997E+02  0.45594000000E+02  0.51100000000E-03 0. -1.
    9900012    2    1    2    0    0 -0.20841709797E+02 -0.30486399938E+02  0.17010612252E+02  0.50528949622E+02  0.30000272869E+02 0.  0.
         12    1    1    2    0    0  0.20841709797E+02  0.30486399938E+02 -0.17010612252E+02  0.40659050378E+02  0.00000000000E+00 0. -1.
         11    1    3    3    0    0 -0.22397973344E+02 -0.14610782577E+02  0.37049386784E+01  0.26997606344E+02  0.51100000000E-03 0. -1.
        -11    1    3    3    0    0  0.40546359353E+00 -0.29817895070E+01 -0.19021745150E+01  0.35600193169E+01  0.51100000000E-03 0.  1.
         12    1    3    3    0    0  0.11507999530E+01 -0.12893827854E+02  0.15207848089E+02  0.19971323961E+02  0.00000000000E+00 0. -1.
</event>
<event>
 7    1  0.1381607E-011  0.5052886E+02  0.7816164E-02  0.1300439E+00
        -11   -1    0    0    0    0  0.00000000000E+00  0.00000000000E+00  0.45593999997E+02  0.45594000000E+02  0.51100000000E-03 0. -1.
         11   -1    0    0    0    0 -0.00000000000E+00 -0.00000000000E+00 -0.45593999997E+02  0.45594000000E+02  0.51100000000E-03 0.  1.
    9900012    2    1    2    0    0  0.34702897719E+02 -0.66171974403E+01 -0.20126775923E+02  0.50528861776E+02  0.30000005854E+02 0.  0.
         12    1    1    2    0    0 -0.34702897719E+02  0.66171974403E+01  0.20126775923E+02  0.40659138224E+02  0.00000000000E+00 0. -1.
         11    1    3    3    0    0  0.89854049914E+01  0.59427396870E+01 -0.14037113380E+01  0.10863888053E+02  0.51100000000E-03 0. -1.
        -11    1    3    3    0    0  0.13898607538E+02  0.26536774695E+01 -0.22705279408E+01  0.14330687108E+02  0.51100000000E-03 0.  1.
        -12    1    3    3    0    0  0.11818885190E+02 -0.15213614597E+02 -0.16452536644E+02  0.25334286614E+02  0.00000000000E+00 0.  1.
</event>
<event>
 7    1  0.1381607E-011  0.5052887E+02  0.7816164E-02  0.1300439E+00
        -11   -1    0    0    0    0  0.00000000000E+00  0.00000000000E+00  0.45593999997E+02  0.45594000000E+02  0.51100000000E-03 0. -1.
         11   -1    0    0    0    0 -0.00000000000E+00 -0.00000000000E+00 -0.45593999997E+02  0.45594000000E+02  0.51100000000E-03 0.  1.
    9900012    2    1    2    0    0 -0.78998976981E+01  0.11322004858E+02 -0.38243542096E+02  0.50528872001E+02  0.30000036933E+02 0.  0.
         12    1    1    2    0    0  0.78998976981E+01 -0.11322004858E+02  0.38243542096E+02  0.40659127999E+02  0.00000000000E+00 0. -1.
         11    1    3    3    0    0 -0.10390596639E+02  0.14329814335E+02 -0.27560698689E+02  0.32755155165E+02  0.51100000000E-03 0. -1.
        -11    1    3    3    0    0 -0.10845034856E+01 -0.74636856649E+00 -0.12920895998E+02  0.12987793019E+02  0.51100000000E-03 0.  1.
         12    1    3    3    0    0  0.35752024261E+01 -0.22614409106E+01  0.22380525915E+01  0.47859238170E+01  0.00000000000E+00 0. -1.
</event>
<event>
 7    1  0.1381607E-011  0.5052886E+02  0.7816164E-02  0.1300439E+00
        -11   -1    0    0    0    0  0.00000000000E+00  0.00000000000E+00  0.45593999997E+02  0.45594000000E+02  0.51100000000E-03 0.  1.
         11   -1    0    0    0    0 -0.00000000000E+00 -0.00000000000E+00 -0.45593999997E+02  0.45594000000E+02  0.51100000000E-03 0. -1.
    9900012    2    1    2    0    0  0.62848166496E+01  0.79894355527E+01  0.39367952542E+02  0.50528859723E+02  0.29999999613E+02 0.  0.
         12    1    1    2    0    0 -0.62848166496E+01 -0.79894355527E+01 -0.39367952542E+02  0.40659140277E+02  0.00000000000E+00 0. -1.
         11    1    3    3    0    0  0.13896050975E+02  0.66047365228E+01  0.91282303860E+01  0.17889867732E+02  0.51100000000E-03 0. -1.
        -11    1    3    3    0    0 -0.49867215356E+00  0.91465548650E+00  0.20720968271E+02  0.20747139440E+02  0.51100000000E-03 0.  1.
        -12    1    3    3    0    0 -0.71125621715E+01  0.47004354344E+00  0.95187538846E+01  0.11891852551E+02  0.00000000000E+00 0.  1.
</event>
<event>
 7    1  0.1381607E-011  0.5052886E+02  0.7816164E-02  0.1300439E+00
        -11   -1    0    0    0    0  0.00000000000E+00  0.00000000000E+00  0.45593999997E+02  0.45594000000E+02  0.51100000000E-03 0. -1.
         11   -1    0    0    0    0 -0.00000000000E+00 -0.00000000000E+00 -0.45593999997E+02  0.45594000000E+02  0.51100000000E-03 0.  1.
    9900012    2    1    2    0    0 -0.23272607617E+02  0.16199670968E+01 -0.33300562863E+02  0.50528855325E+02  0.29999986247E+02 0.  0.
         12    1    1    2    0    0  0.23272607617E+02 -0.16199670968E+01  0.33300562863E+02  0.40659144675E+02  0.00000000000E+00 0. -1.
         11    1    3    3    0    0  0.21744125096E+01 -0.10071976706E+01 -0.38750484845E+01  0.45561516577E+01  0.51100000000E-03 0. -1.
        -11    1    3    3    0    0 -0.17561374935E+02 -0.86375962487E+01 -0.24521580258E+02  0.31373840332E+02  0.51100000000E-03 0.  1.
        -12    1    3    3    0    0 -0.78856451919E+01  0.11264761016E+02 -0.49039341207E+01  0.14598863336E+02  0.00000000000E+00 0.  1.
</event>
<event>
 7    1  0.1381607E-011  0.5052886E+02  0.7816164E-02  0.1300439E+00
        -11   -1    0    0    0    0  0.00000000000E+00  0.00000000000E+00  0.45593999997E+02  0.45594000000E+02  0.51100000000E-03 0. -1.
         11   -1    0    0    0    0 -0.00000000000E+00 -0.00000000000E+00 -0.45593999997E+02  0.45594000000E+02  0.51100000000E-03 0.  1.
    9900012    2    1    2    0    0 -0.33156212598E+02 -0.37349939606E+01 -0.23235343347E+02  0.50528858418E+02  0.29999995648E+02 0.  0.
         12    1    1    2    0    0  0.33156212598E+02  0.37349939606E+01  0.23235343347E+02  0.40659141582E+02  0.00000000000E+00 0. -1.
         11    1    3    3    0    0  0.57888534732E+00  0.13521422633E+01 -0.64891836913E+01  0.66537885589E+01  0.51100000000E-03 0. -1.
        -11    1    3    3    0    0 -0.23236462987E+02 -0.89727963605E+01 -0.20296584112E+02  0.32130913674E+02  0.51100000000E-03 0.  1.
        -12    1    3    3    0    0 -0.10498634958E+02  0.38856601366E+01  0.35504244559E+01  0.11744156185E+02  0.00000000000E+00 0.  1.
</event>
<event>
 7    1  0.1381607E-011  0.5052883E+02  0.7816164E-02  0.1300439E+00
        -11   -1    0    0    0    0  0.00000000000E+00  0.00000000000E+00  0.45593999997E+02  0.45594000000E+02  0.51100000000E-03 0.  1.
         11   -1    0    0    0    0 -0.00000000000E+00 -0.00000000000E+00 -0.45593999997E+02  0.45594000000E+02  0.51100000000E-03 0. -1.
    9900012    2    1    2    0    0  0.36760797727E+02  0.11474278900E+02  0.13044254644E+02  0.50528832460E+02  0.29999916747E+02 0.  0.
         12    1    1    2    0    0 -0.36760797727E+02 -0.11474278900E+02 -0.13044254644E+02  0.40659167540E+02  0.00000000000E+00 0. -1.
         11    1    3    3    0    0  0.61088557600E+01  0.19539242912E+01 -0.44059119703E+01  0.77812594985E+01  0.51100000000E-03 0. -1.
        -11    1    3    3    0    0  0.22468417568E+02  0.95867488554E+01  0.10873950771E+01  0.24452361234E+02  0.51100000000E-03 0.  1.
         12    1    3    3    0    0  0.81835243993E+01 -0.66394246666E-01  0.16362771537E+02  0.18295211728E+02  0.00000000000E+00 0. -1.
</event>
<event>
 7    1  0.1381607E-011  0.5052885E+02  0.7816164E-02  0.1300439E+00
        -11   -1    0    0    0    0  0.00000000000E+00  0.00000000000E+00  0.45593999997E+02  0.45594000000E+02  0.51100000000E-03 0. -1.
         11   -1    0    0    0    0 -0.00000000000E+00 -0.00000000000E+00 -0.45593999997E+02  0.45594000000E+02  0.51100000000E-03 0.  1.
    9900012    2    1    2    0    0  0.35691210326E+02 -0.18525496682E+02 -0.60091276953E+01  0.50528854196E+02  0.29999982815E+02 0.  0.
         12    1    1    2    0    0 -0.35691210326E+02  0.18525496682E+02  0.60091276953E+01  0.40659145804E+02  0.00000000000E+00 0. -1.
         11    1    3    3    0    0  0.10231879071E+00 -0.36370120197E+01  0.15479994460E+01  0.39540647582E+01  0.51100000000E-03 0. -1.
        -11    1    3    3    0    0  0.16053655090E+01 -0.25621063318E+01  0.69836161534E+01  0.76100251058E+01  0.51100000000E-03 0.  1.
        -12    1    3    3    0    0  0.33983526026E+02 -0.12326378330E+02 -0.14540743295E+02  0.38964764332E+02  0.00000000000E+00 0.  1.
</event>
<event>
 7    1  0.1381607E-011  0.5052886E+02  0.7816164E-02  0.1300439E+00
        -11   -1    0    0    0    0  0.00000000000E+00  0.00000000000E+00  0.45593999997E+02  0.45594000000E+02  0.51100000000E-03 0.  1.
         11   -1    0    0    0    0 -0.00000000000E+00 -0.00000000000E+00 -0.45593999997E+02  0.45594000000E+02  0.51100000000E-03 0. -1.
    9900012    2    1    2    0    0  0.19483820853E+02  0.35227863707E+02 -0.57047417123E+01  0.50528859153E+02  0.29999997881E+02 0.  0.
         12    1    1    2    0    0 -0.19483820853E+02 -0.35227863707E+02  0.57047417123E+01  0.40659140847E+02  0.00000000000E+00 0. -1.
         11    1    3    3    0    0  0.12689132972E+02  0.14108908326E+02  0.45680998256E+01  0.19517759247E+02  0.51100000000E-03 0. -1.
        -11    1    3    3    0    0  0.81321335642E+01  0.80394982856E+00 -0.61782476257E+01  0.10244446086E+02  0.51100000000E-03 0.  1.
         12    1    3    3    0    0 -0.13374456833E+01  0.20315005553E+02 -0.40945939122E+01  0.20766653820E+02  0.00000000000E+00 0. -1.
</event>
<event>
 7    1  0.1381607E-011  0.5052886E+02  0.7816164E-02  0.1300439E+00
        -11   -1    0    0    0    0  0.00000000000E+00  0.00000000000E+00  0.45593999997E+02  0.45594000000E+02  0.51100000000E-03 0.  1.
         11   -1    0    0    0    0 -0.00000000000E+00 -0.00000000000E+00 -0.45593999997E+02  0.45594000000E+02  0.51100000000E-03 0. -1.
    9900012    2    1    2    0    0 -0.12530426398E+02  0.33982121591E+02  0.18476197215E+02  0.50528855431E+02  0.29999986569E+02 0.  0.
         12    1    1    2    0    0  0.12530426398E+02 -0.33982121591E+02 -0.18476197215E+02  0.40659144569E+02  0.00000000000E+00 0. -1.
         11    1    3    3    0    0 -0.93797767848E+01  0.20084737141E+00  0.54316348827E+01  0.10840812237E+02  0.51100000000E-03 0. -1.
        -11    1    3    3    0    0  0.20807581442E+01  0.11179483303E+01  0.51700715793E+01  0.56841009245E+01  0.51100000000E-03 0.  1.
         12    1    3    3    0    0 -0.52314077574E+01  0.32663325889E+02  0.78744907531E+01  0.34003942270E+02  0.00000000000E+00 0. -1.
</event>
<event>
 7    1  0.1381607E-011  0.5052886E+02  0.7816164E-02  0.1300439E+00
        -11   -1    0    0    0    0  0.00000000000E+00  0.00000000000E+00  0.45593999997E+02  0.45594000000E+02  0.51100000000E-03 0.  1.
         11   -1    0    0    0    0 -0.00000000000E+00 -0.00000000000E+00 -0.45593999997E+02  0.45594000000E+02  0.51100000000E-03 0. -1.
    9900012    2    1    2    0    0  0.29867512721E+01 -0.28910788905E+02  0.28432568463E+02  0.50528863909E+02  0.30000012337E+02 0.  0.
         12    1    1    2    0    0 -0.29867512721E+01  0.28910788905E+02 -0.28432568463E+02  0.40659136091E+02  0.00000000000E+00 0. -1.
         11    1    3    3    0    0 -0.28846129851E+01 -0.24890785008E+02  0.49503462975E+01  0.25541693349E+02  0.51100000000E-03 0. -1.
        -11    1    3    3    0    0  0.22823495170E+01 -0.79110984542E+00  0.25785330829E+01  0.35332431598E+01  0.51100000000E-03 0.  1.
         12    1    3    3    0    0  0.35890147403E+01 -0.32288940510E+01  0.20903689083E+02  0.21453927400E+02  0.00000000000E+00 0. -1.
</event>
<event>
 7    1  0.1381607E-011  0.5052886E+02  0.7816164E-02  0.1300439E+00
        -11   -1    0    0    0    0  0.00000000000E+00  0.00000000000E+00  0.45593999997E+02  0.45594000000E+02  0.51100000000E-03 0.  1.
         11   -1    0    0    0    0 -0.00000000000E+00 -0.00000000000E+00 -0.45593999997E+02  0.45594000000E+02  0.51100000000E-03 0. -1.
    9900012    2    1    2    0    0  0.28499125427E+02  0.21807958845E+01  0.28917284510E+02  0.50528863706E+02  0.30000011720E+02 0.  0.
         12    1    1    2    0    0 -0.28499125427E+02 -0.21807958845E+01 -0.28917284510E+02  0.40659136294E+02  0.00000000000E+00 0. -1.
         11    1    3    3    0    0  0.19077227752E+02  0.45307452055E+01  0.80306794088E+01  0.21188678176E+02  0.51100000000E-03 0. -1.
        -11    1    3    3    0    0  0.68832384929E+01  0.56009125712E+01  0.18720609640E+02  0.20717394125E+02  0.51100000000E-03 0.  1.
        -12    1    3    3    0    0  0.25386591817E+01 -0.79508618921E+01  0.21659954608E+01  0.86227914045E+01  0.00000000000E+00 0.  1.
</event>
<event>
 7    1  0.1381607E-011  0.5052885E+02  0.7816164E-02  0.1300439E+00
        -11   -1    0    0    0    0  0.00000000000E+00  0.00000000000E+00  0.45593999997E+02  0.45594000000E+02  0.51100000000E-03 0.  1.
         11   -1    0    0    0    0 -0.00000000000E+00 -0.00000000000E+00 -0.45593999997E+02  0.45594000000E+02  0.51100000000E-03 0. -1.
    9900012    2    1    2    0    0  0.10264812508E+02  0.26079491499E+02  0.29456078494E+02  0.50528845891E+02  0.29999957569E+02 0.  0.
         12    1    1    2    0    0 -0.10264812508E+02 -0.26079491499E+02 -0.29456078494E+02  0.40659154109E+02  0.00000000000E+00 0. -1.
         11    1    3    3    0    0  0.52826404844E+01  0.39501105315E+01 -0.31138044438E+01  0.72942060620E+01  0.51100000000E-03 0. -1.
        -11    1    3    3    0    0 -0.13661492551E+01  0.40107141254E+01 -0.11870518645E+01  0.44001459036E+01  0.51100000000E-03 0.  1.
        -12    1    3    3    0    0  0.63483212788E+01  0.18118666842E+02  0.33756934802E+02  0.38834493925E+02  0.00000000000E+00 0.  1.
</event>
<event>
 7    1  0.1381607E-011  0.5052887E+02  0.7816164E-02  0.1300439E+00
        -11   -1    0    0    0    0  0.00000000000E+00  0.00000000000E+00  0.45593999997E+02  0.45594000000E+02  0.51100000000E-03 0.  1.
         11   -1    0    0    0    0 -0.00000000000E+00 -0.00000000000E+00 -0.45593999997E+02  0.45594000000E+02  0.51100000000E-03 0. -1.
    9900012    2    1    2    0    0  0.11998357726E+02 -0.26080885783E+02  0.28792215152E+02  0.50528870094E+02  0.30000031138E+02 0.  0.
         12    1    1    2    0    0 -0.11998357726E+02  0.26080885783E+02 -0.28792215152E+02  0.40659129906E+02  0.00000000000E+00 0. -1.
         11    1    3    3    0    0  0.56771332098E+01 -0.10564315939E+02  0.31656477572E+01  0.12403867894E+02  0.51100000000E-03 0. -1.
        -11    1    3    3    0    0  0.95130005324E+01 -0.75744782371E+01  0.26853107445E+02  0.29478115262E+02  0.51100000000E-03 0.  1.
         12    1    3    3    0    0 -0.31917760160E+01 -0.79420916067E+01 -0.12265400500E+01  0.86468869381E+01  0.00000000000E+00 0. -1.
</event>
<event>
 7    1  0.1381607E-011  0.5052883E+02  0.7816164E-02  0.1300439E+00
        -11   -1    0    0    0    0  0.00000000000E+00  0.00000000000E+00  0.45593999997E+02  0.45594000000E+02  0.51100000000E-03 0.  1.
         11   -1    0    0    0    0 -0.00000000000E+00 -0.00000000000E+00 -0.45593999997E+02  0.45594000000E+02  0.51100000000E-03 0. -1.
    9900012    2    1    2    0    0 -0.28700094192E+02  0.14586376970E+02  0.24833647805E+02  0.50528832977E+02  0.29999918317E+02 0.  0.
         12    1    1    2    0    0  0.28700094192E+02 -0.14586376970E+02 -0.24833647805E+02  0.40659167023E+02  0.00000000000E+00 0. -1.
         11    1    3    3    0    0 -0.12118677827E+01 -0.19500895616E+01  0.57069034981E+01  0.61514405320E+01  0.51100000000E-03 0. -1.
        -11    1    3    3    0    0 -0.48596366626E+01  0.13427731985E+02  0.15797184423E+02  0.21294860664E+02  0.51100000000E-03 0.  1.
        -12    1    3    3    0    0 -0.22628589746E+02  0.31087345463E+01  0.33295598831E+01  0.23082531781E+02  0.00000000000E+00 0.  1.
</event>
<event>
 7    1  0.1381607E-011  0.5052886E+02  0.7816164E-02  0.1300439E+00
        -11   -1    0    0    0    0  0.00000000000E+00  0.00000000000E+00  0.45593999997E+02  0.45594000000E+02  0.51100000000E-03 0.  1.
         11   -1    0    0    0    0 -0.00000000000E+00 -0.00000000000E+00 -0.45593999997E+02  0.45594000000E+02  0.51100000000E-03 0. -1.
    9900012    2    1    2    0    0 -0.23701676834E+01  0.19547629585E+02  0.35572996257E+02  0.50528861053E+02  0.30000003657E+02 0.  0.
         12    1    1    2    0    0  0.23701676834E+01 -0.19547629585E+02 -0.35572996257E+02  0.40659138947E+02  0.00000000000E+00 0. -1.
         11    1    3    3    0    0  0.56158369368E+01  0.21640559305E+01 -0.15781991041E+01  0.62218546467E+01  0.51100000000E-03 0. -1.
        -11    1    3    3    0    0  0.38871186468E+01  0.83380594662E+01  0.14991230892E+02  0.17588915002E+02  0.51100000000E-03 0.  1.
         12    1    3    3    0    0 -0.11873123267E+02  0.90455141878E+01  0.22159964469E+02  0.26718091404E+02  0.00000000000E+00 0. -1.
</event>
<event>
 7    1  0.1381607E-011  0.5052886E+02  0.7816164E-02  0.1300439E+00
        -11   -1    0    0    0    0  0.00000000000E+00  0.00000000000E+00  0.45593999997E+02  0.45594000000E+02  0.51100000000E-03 0.  1.
         11   -1    0    0    0    0 -0.00000000000E+00 -0.00000000000E+00 -0.45593999997E+02  0.45594000000E+02  0.51100000000E-03 0. -1.
    9900012    2    1    2    0    0  0.74325879063E+01 -0.39012804372E+02  0.87134060482E+01  0.50528859418E+02  0.29999998686E+02 0.  0.
         12    1    1    2    0    0 -0.74325879063E+01  0.39012804372E+02 -0.87134060482E+01  0.40659140582E+02  0.00000000000E+00 0. -1.
         11    1    3    3    0    0 -0.25631743098E+01 -0.86816624499E+01 -0.40565144247E+01  0.99194977179E+01  0.51100000000E-03 0. -1.
        -11    1    3    3    0    0 -0.15636035214E+01 -0.62209531104E+01  0.12294411207E+02  0.13867143209E+02  0.51100000000E-03 0.  1.
        -12    1    3    3    0    0  0.11559365737E+02 -0.24110188811E+02  0.47550926547E+00  0.26742218491E+02  0.00000000000E+00 0.  1.
</event>
<event>
 7    1  0.1381607E-011  0.5052885E+02  0.7816164E-02  0.1300439E+00
        -11   -1    0    0    0    0  0.00000000000E+00  0.00000000000E+00  0.45593999997E+02  0.45594000000E+02  0.51100000000E-03 0.  1.
         11   -1    0    0    0    0 -0.00000000000E+00 -0.00000000000E+00 -0.45593999997E+02  0.45594000000E+02  0.51100000000E-03 0. -1.
    9900012    2    1    2    0    0  0.18348503071E+02 -0.25312110010E+02  0.25996074169E+02  0.50528851579E+02  0.29999974859E+02 0.  0.
         12    1    1    2    0    0 -0.18348503071E+02  0.25312110010E+02 -0.25996074169E+02  0.40659148421E+02  0.00000000000E+00 0. -1.
         11    1    3    3    0    0  0.63649490146E-01 -0.81874543371E+01  0.82745507762E+01  0.11640732391E+02  0.51100000000E-03 0. -1.
        -11    1    3    3    0    0 -0.32122648329E+01  0.35088352049E+01  0.32607640286E+01  0.57674216217E+01  0.51100000000E-03 0.  1.
        -12    1    3    3    0    0  0.21497118414E+02 -0.20633490878E+02  0.14460759365E+02  0.33120697567E+02  0.00000000000E+00 0.  1.
</event>
<event>
 7    1  0.1381607E-011  0.5052885E+02  0.7816164E-02  0.1300439E+00
        -11   -1    0    0    0    0  0.00000000000E+00  0.00000000000E+00  0.45593999997E+02  0.45594000000E+02  0.51100000000E-03 0.  1.
         11   -1    0    0    0    0 -0.00000000000E+00 -0.00000000000E+00 -0.45593999997E+02  0.45594000000E+02  0.51100000000E-03 0. -1.
    9900012    2    1    2    0    0  0.15804055457E+02  0.36329086195E+02  0.91430628422E+01  0.50528852557E+02  0.29999977833E+02 0.  0.
         12    1    1    2    0    0 -0.15804055457E+02 -0.36329086195E+02 -0.91430628422E+01  0.40659147443E+02  0.00000000000E+00 0. -1.
         11    1    3    3    0    0 -0.28932263492E+01  0.74576200522E+01 -0.56133407998E+01  0.97722285456E+01  0.51100000000E-03 0. -1.
        -11    1    3    3    0    0  0.26854890560E+01  0.18517503269E+02  0.51575368185E+01  0.19409017623E+02  0.51100000000E-03 0.  1.
        -12    1    3    3    0    0  0.16011792750E+02  0.10353962874E+02  0.95988668235E+01  0.21347606389E+02  0.00000000000E+00 0.  1.
</event>
<event>
 7    1  0.1381607E-011  0.5052888E+02  0.7816164E-02  0.1300439E+00
        -11   -1    0    0    0    0  0.00000000000E+00  0.00000000000E+00  0.45593999997E+02  0.45594000000E+02  0.51100000000E-03 0. -1.
         11   -1    0    0    0    0 -0.00000000000E+00 -0.00000000000E+00 -0.45593999997E+02  0.45594000000E+02  0.51100000000E-03 0.  1.
    9900012    2    1    2    0    0 -0.20585979024E+02 -0.21571369670E+02 -0.27641589246E+02  0.50528880754E+02  0.30000063541E+02 0.  0.
         12    1    1    2    0    0  0.20585979024E+02  0.21571369670E+02  0.27641589246E+02  0.40659119246E+02  0.00000000000E+00 0. -1.
         11    1    3    3    0    0 -0.13828240857E+02 -0.12701809900E+00 -0.17568352992E+02  0.22358072500E+02  0.51100000000E-03 0. -1.
        -11    1    3    3    0    0  0.38114913664E+01 -0.60793512147E+01 -0.46097699483E+00  0.71901653443E+01  0.51100000000E-03 0.  1.
        -12    1    3    3    0    0 -0.10569229533E+02 -0.15365000356E+02 -0.96122592592E+01  0.20980642910E+02  0.00000000000E+00 0.  1.
</event>
<event>
 7    1  0.1381607E-011  0.5052889E+02  0.7816164E-02  0.1300439E+00
        -11   -1    0    0    0    0  0.00000000000E+00  0.00000000000E+00  0.45593999997E+02  0.45594000000E+02  0.51100000000E-03 0.  1.
         11   -1    0    0    0    0 -0.00000000000E+00 -0.00000000000E+00 -0.45593999997E+02  0.45594000000E+02  0.51100000000E-03 0. -1.
    9900012    2    1    2    0    0  0.18625873566E+02 -0.10783805686E+02  0.34495641453E+02  0.50528893881E+02  0.30000103440E+02 0.  0.
         12    1    1    2    0    0 -0.18625873566E+02  0.10783805686E+02 -0.34495641453E+02  0.40659106119E+02  0.00000000000E+00 0. -1.
         11    1    3    3    0    0  0.28604786228E+01  0.40875887210E+00  0.24743968256E+02  0.24912113261E+02  0.51100000000E-03 0. -1.
        -11    1    3    3    0    0  0.93718518389E+01 -0.43919131424E+01  0.12168566123E+02  0.15974808596E+02  0.51100000000E-03 0.  1.
         12    1    3    3    0    0  0.63935431039E+01 -0.68006514154E+01 -0.24168929260E+01  0.96419720240E+01  0.00000000000E+00 0. -1.
</event>
<event>
 7    1  0.1381607E-011  0.5052886E+02  0.7816164E-02  0.1300439E+00
        -11   -1    0    0    0    0  0.00000000000E+00  0.00000000000E+00  0.45593999997E+02  0.45594000000E+02  0.51100000000E-03 0.  1.
         11   -1    0    0    0    0 -0.00000000000E+00 -0.00000000000E+00 -0.45593999997E+02  0.45594000000E+02  0.51100000000E-03 0. -1.
    9900012    2    1    2    0    0 -0.10867419227E+02 -0.31290550155E+01  0.39054755251E+02  0.50528859654E+02  0.29999999406E+02 0.  0.
         12    1    1    2    0    0  0.10867419227E+02  0.31290550155E+01 -0.39054755251E+02  0.40659140346E+02  0.00000000000E+00 0. -1.
         11    1    3    3    0    0  0.44808858545E+01  0.33379973284E+01  0.44806302091E+01  0.71621652827E+01  0.51100000000E-03 0. -1.
        -11    1    3    3    0    0 -0.11024575004E+00 -0.53639587176E+01  0.24466590507E+02  0.25047919246E+02  0.51100000000E-03 0.  1.
        -12    1    3    3    0    0 -0.15238059332E+02 -0.11030936263E+01  0.10107534534E+02  0.18318775126E+02  0.00000000000E+00 0.  1.
</event>
<event>
 7    1  0.1381607E-011  0.5052887E+02  0.7816164E-02  0.1300439E+00
        -11   -1    0    0    0    0  0.00000000000E+00  0.00000000000E+00  0.45593999997E+02  0.45594000000E+02  0.51100000000E-03 0.  1.
         11   -1    0    0    0    0 -0.00000000000E+00 -0.00000000000E+00 -0.45593999997E+02  0.45594000000E+02  0.51100000000E-03 0. -1.
    9900012    2    1    2    0    0 -0.36142896072E+02 -0.16393301002E+02  0.88383109140E+01  0.50528868258E+02  0.30000025557E+02 0.  0.
         12    1    1    2    0    0  0.36142896072E+02  0.16393301002E+02 -0.88383109140E+01  0.40659131742E+02  0.00000000000E+00 0. -1.
         11    1    3    3    0    0 -0.27457521983E+00  0.28741347505E+00 -0.24369271814E+01  0.24691319134E+01  0.51100000000E-03 0. -1.
        -11    1    3    3    0    0 -0.25988721550E+01 -0.10871570238E+02  0.87450430164E+01  0.14192285001E+02  0.51100000000E-03 0.  1.
         12    1    3    3    0    0 -0.33269448697E+02 -0.58091442384E+01  0.25301950790E+01  0.33867451344E+02  0.00000000000E+00 0. -1.
</event>
<event>
 7    1  0.1381607E-011  0.5052886E+02  0.7816164E-02  0.1300439E+00
        -11   -1    0    0    0    0  0.00000000000E+00  0.00000000000E+00  0.45593999997E+02  0.45594000000E+02  0.51100000000E-03 0. -1.
         11   -1    0    0    0    0 -0.00000000000E+00 -0.00000000000E+00 -0.45593999997E+02  0.45594000000E+02  0.51100000000E-03 0.  1.
    9900012    2    1    2    0    0 -0.14103185633E+02 -0.12662342516E+02 -0.35971253816E+02  0.50528857558E+02  0.29999993035E+02 0.  0.
         12    1    1    2    0    0  0.14103185633E+02  0.12662342516E+02  0.35971253816E+02  0.40659142442E+02  0.00000000000E+00 0. -1.
         11    1    3    3    0    0  0.34463039078E+01 -0.33635793016E+01 -0.38117766204E+01  0.61416868700E+01  0.51100000000E-03 0. -1.
        -11    1    3    3    0    0  0.29469124423E+01 -0.89492768092E+01 -0.14699582802E+02  0.17459999518E+02  0.51100000000E-03 0.  1.
         12    1    3    3    0    0 -0.20496401983E+02 -0.34948640520E+00 -0.17459894393E+02  0.26927171170E+02  0.00000000000E+00 0. -1.
</event>
<event>
 7    1  0.1381607E-011  0.5052886E+02  0.7816164E-02  0.1300439E+00
        -11   -1    0    0    0    0  0.00000000000E+00  0.00000000000E+00  0.45593999997E+02  0.45594000000E+02  0.51100000000E-03 0.  1.
         11   -1    0    0    0    0 -0.00000000000E+00 -0.00000000000E+00 -0.45593999997E+02  0.45594000000E+02  0.51100000000E-03 0. -1.
    9900012    2    1    2    0    0  0.39843890039E+02 -0.47169016542E+01 -0.65864053179E+01  0.50528862408E+02  0.30000007777E+02 0.  0.
         12    1    1    2    0    0 -0.39843890039E+02  0.47169016542E+01  0.65864053179E+01  0.40659137592E+02  0.00000000000E+00 0. -1.
         11    1    3    3    0    0  0.59093624502E+00  0.23423453879E+01 -0.21493463173E+01  0.32334930670E+01  0.51100000000E-03 0. -1.
        -11    1    3    3    0    0  0.23174299436E+02 -0.10286982268E+02 -0.13324179127E+02  0.28642693801E+02  0.51100000000E-03 0.  1.
         12    1    3    3    0    0  0.16078654359E+02  0.32277352264E+01  0.88871201260E+01  0.18652675540E+02  0.00000000000E+00 0. -1.
</event>
<event>
 7    1  0.1381607E-011  0.5052886E+02  0.7816164E-02  0.1300439E+00
        -11   -1    0    0    0    0  0.00000000000E+00  0.00000000000E+00  0.45593999997E+02  0.45594000000E+02  0.51100000000E-03 0.  1.
         11   -1    0    0    0    0 -0.00000000000E+00 -0.00000000000E+00 -0.45593999997E+02  0.45594000000E+02  0.51100000000E-03 0. -1.
    9900012    2    1    2    0    0  0.44963791220E+01 -0.13391698227E+02  0.38126244857E+02  0.50528861378E+02  0.30000004645E+02 0.  0.
         12    1    1    2    0    0 -0.44963791220E+01  0.13391698227E+02 -0.38126244857E+02  0.40659138622E+02  0.00000000000E+00 0. -1.
         11    1    3    3    0    0  0.45450136876E+01  0.42538050951E+01  0.22997724982E+01  0.66363364149E+01  0.51100000000E-03 0. -1.
        -11    1    3    3    0    0  0.16131564300E+01 -0.14721911360E+02  0.10050968514E+02  0.17898573018E+02  0.51100000000E-03 0.  1.
         12    1    3    3    0    0 -0.16617909955E+01 -0.29235919617E+01  0.25775503845E+02  0.25993951945E+02  0.00000000000E+00 0. -1.
</event>
<event>
 7    1  0.1381607E-011  0.5052884E+02  0.7816164E-02  0.1300439E+00
        -11   -1    0    0    0    0  0.00000000000E+00  0.00000000000E+00  0.45593999997E+02  0.45594000000E+02  0.51100000000E-03 0.  1.
         11   -1    0    0    0    0 -0.00000000000E+00 -0.00000000000E+00 -0.45593999997E+02  0.45594000000E+02  0.51100000000E-03 0. -1.
    9900012    2    1    2    0    0 -0.89043658077E+01  0.39572890621E+02  0.28046045231E+01  0.50528841019E+02  0.29999942762E+02 0.  0.
         12    1    1    2    0    0  0.89043658077E+01 -0.39572890621E+02 -0.28046045231E+01  0.40659158981E+02  0.00000000000E+00 0. -1.
         11    1    3    3    0    0  0.69459152662E+01  0.63060248899E+01 -0.62489684268E+01  0.11272146888E+02  0.51100000000E-03 0. -1.
        -11    1    3    3    0    0 -0.87411323161E+00  0.29957539085E+01  0.40532052475E+01  0.51153776460E+01  0.51100000000E-03 0.  1.
         12    1    3    3    0    0 -0.14976167842E+02  0.30271111822E+02  0.50003677023E+01  0.34141316485E+02  0.00000000000E+00 0. -1.
</event>
<event>
 7    1  0.1381607E-011  0.5052884E+02  0.7816164E-02  0.1300439E+00
        -11   -1    0    0    0    0  0.00000000000E+00  0.00000000000E+00  0.45593999997E+02  0.45594000000E+02  0.51100000000E-03 0. -1.
         11   -1    0    0    0    0 -0.00000000000E+00 -0.00000000000E+00 -0.45593999997E+02  0.45594000000E+02  0.51100000000E-03 0.  1.
    9900012    2    1    2    0    0 -0.29060643245E+02  0.22773475315E+02  0.17029830141E+02  0.50528840166E+02  0.29999940169E+02 0.  0.
         12    1    1    2    0    0  0.29060643245E+02 -0.22773475315E+02 -0.17029830141E+02  0.40659159834E+02  0.00000000000E+00 0. -1.
         11    1    3    3    0    0  0.10335524004E+01  0.14794878502E+01  0.36565481662E+01  0.40776782139E+01  0.51100000000E-03 0. -1.
        -11    1    3    3    0    0 -0.51219261648E+01  0.13475679713E+02 -0.40976827768E+01  0.14987297147E+02  0.51100000000E-03 0.  1.
        -12    1    3    3    0    0 -0.24972269481E+02  0.78183077515E+01  0.17470964752E+02  0.31463864805E+02  0.00000000000E+00 0.  1.
</event>
<event>
 7    1  0.1381607E-011  0.5052886E+02  0.7816164E-02  0.1300439E+00
        -11   -1    0    0    0    0  0.00000000000E+00  0.00000000000E+00  0.45593999997E+02  0.45594000000E+02  0.51100000000E-03 0.  1.
         11   -1    0    0    0    0 -0.00000000000E+00 -0.00000000000E+00 -0.45593999997E+02  0.45594000000E+02  0.51100000000E-03 0. -1.
    9900012    2    1    2    0    0 -0.11289543329E+02  0.33685495366E+02  0.19773701157E+02  0.50528860264E+02  0.30000001259E+02 0.  0.
         12    1    1    2    0    0  0.11289543329E+02 -0.33685495366E+02 -0.19773701157E+02  0.40659139736E+02  0.00000000000E+00 0. -1.
         11    1    3    3    0    0 -0.10608751694E+02  0.96669048437E+01  0.19106517590E+01  0.14479131610E+02  0.51100000000E-03 0. -1.
        -11    1    3    3    0    0  0.76890297772E+01  0.24201357961E+01  0.34499311713E+01  0.87681390007E+01  0.51100000000E-03 0.  1.
         12    1    3    3    0    0 -0.83698214124E+01  0.21598454726E+02  0.14413118226E+02  0.27281589654E+02  0.00000000000E+00 0. -1.
</event>
<event>
 7    1  0.1381607E-011  0.5052879E+02  0.7816164E-02  0.1300439E+00
        -11   -1    0    0    0    0  0.00000000000E+00  0.00000000000E+00  0.45593999997E+02  0.45594000000E+02  0.51100000000E-03 0. -1.
         11   -1    0    0    0    0 -0.00000000000E+00 -0.00000000000E+00 -0.45593999997E+02  0.45594000000E+02  0.51100000000E-03 0.  1.
    9900012    2    1    2    0    0 -0.24852915971E+02 -0.24839403106E+02 -0.20457464762E+02  0.50528791407E+02  0.29999791960E+02 0.  0.
         12    1    1    2    0    0  0.24852915971E+02  0.24839403106E+02  0.20457464762E+02  0.40659208593E+02  0.00000000000E+00 0. -1.
         11    1    3    3    0    0 -0.18546748158E+01 -0.11713265685E+02  0.43294606697E+01  0.12624763033E+02  0.51100000000E-03 0. -1.
        -11    1    3    3    0    0 -0.39652972717E+01  0.14153267615E+01 -0.14240145384E+01  0.44446090899E+01  0.51100000000E-03 0.  1.
        -12    1    3    3    0    0 -0.19032943884E+02 -0.14541464183E+02 -0.23362910893E+02  0.33459419284E+02  0.00000000000E+00 0.  1.
</event>
<event>
 7    1  0.1381607E-011  0.5052885E+02  0.7816164E-02  0.1300439E+00
        -11   -1    0    0    0    0  0.00000000000E+00  0.00000000000E+00  0.45593999997E+02  0.45594000000E+02  0.51100000000E-03 0. -1.
         11   -1    0    0    0    0 -0.00000000000E+00 -0.00000000000E+00 -0.45593999997E+02  0.45594000000E+02  0.51100000000E-03 0.  1.
    9900012    2    1    2    0    0 -0.56514712446E+01 -0.39699762486E+02 -0.67198128965E+01  0.50528853993E+02  0.29999982197E+02 0.  0.
         12    1    1    2    0    0  0.56514712446E+01  0.39699762486E+02  0.67198128965E+01  0.40659146007E+02  0.00000000000E+00 0. -1.
         11    1    3    3    0    0 -0.13351614950E+01 -0.12277358611E+02 -0.14912288799E+02  0.19362142138E+02  0.51100000000E-03 0. -1.
        -11    1    3    3    0    0  0.31584715592E+01 -0.16710913509E+02  0.44463068847E+01  0.17578402034E+02  0.51100000000E-03 0.  1.
        -12    1    3    3    0    0 -0.74747813087E+01 -0.10711490366E+02  0.37461690180E+01  0.13588309821E+02  0.00000000000E+00 0.  1.
</event>
<event>
 7    1  0.1381607E-011  0.5052885E+02  0.7816164E-02  0.1300439E+00
        -11   -1    0    0    0    0  0.00000000000E+00  0.00000000000E+00  0.45593999997E+02  0.45594000000E+02  0.51100000000E-03 0. -1.
         11   -1    0    0    0    0 -0.00000000000E+00 -0.00000000000E+00 -0.45593999997E+02  0.45594000000E+02  0.51100000000E-03 0.  1.
    9900012    2    1    2    0    0 -0.25903689874E+01  0.34113973044E+02 -0.21970273208E+02  0.50528854987E+02  0.29999985218E+02 0.  0.
         12    1    1    2    0    0  0.25903689874E+01 -0.34113973044E+02  0.21970273208E+02  0.40659145013E+02  0.00000000000E+00 0. -1.
         11    1    3    3    0    0  0.18304054896E+01  0.79404096841E+01  0.67478504315E+01  0.10579885440E+02  0.51100000000E-03 0. -1.
        -11    1    3    3    0    0 -0.28947914059E+01  0.14456812290E+02 -0.10005775824E+02  0.17818383455E+02  0.51100000000E-03 0.  1.
        -12    1    3    3    0    0 -0.15259830711E+01  0.11716751070E+02 -0.18712347816E+02  0.22130586092E+02  0.00000000000E+00 0.  1.
</event>
<event>
 7    1  0.1381607E-011  0.5052886E+02  0.7816164E-02  0.1300439E+00
        -11   -1    0    0    0    0  0.00000000000E+00  0.00000000000E+00  0.45593999997E+02  0.45594000000E+02  0.51100000000E-03 0.  1.
         11   -1    0    0    0    0 -0.00000000000E+00 -0.00000000000E+00 -0.45593999997E+02  0.45594000000E+02  0.51100000000E-03 0. -1.
    9900012    2    1    2    0    0  0.17434665282E+02  0.70797099201E+01  0.36042693727E+02  0.50528860595E+02  0.30000002265E+02 0.  0.
         12    1    1    2    0    0 -0.17434665282E+02 -0.70797099201E+01 -0.36042693727E+02  0.40659139405E+02  0.00000000000E+00 0. -1.
         11    1    3    3    0    0  0.19018250174E+02  0.62634993592E+01  0.12849248665E+02  0.23791352534E+02  0.51100000000E-03 0. -1.
        -11    1    3    3    0    0  0.31070743798E+01 -0.36995209221E+00  0.21321206509E+02  0.21549585217E+02  0.51100000000E-03 0.  1.
        -12    1    3    3    0    0 -0.46906592712E+01  0.11861626532E+01  0.18722385526E+01  0.51879228441E+01  0.00000000000E+00 0.  1.
</event>
<event>
 7    1  0.1381607E-011  0.5052884E+02  0.7816164E-02  0.1300439E+00
        -11   -1    0    0    0    0  0.00000000000E+00  0.00000000000E+00  0.45593999997E+02  0.45594000000E+02  0.51100000000E-03 0.  1.
         11   -1    0    0    0    0 -0.00000000000E+00 -0.00000000000E+00 -0.45593999997E+02  0.45594000000E+02  0.51100000000E-03 0. -1.
    9900012    2    1    2    0    0  0.16532634979E+02  0.33693397152E+02  0.15639507998E+02  0.50528840621E+02  0.29999941551E+02 0.  0.
         12    1    1    2    0    0 -0.16532634979E+02 -0.33693397152E+02 -0.15639507998E+02  0.40659159379E+02  0.00000000000E+00 0. -1.
         11    1    3    3    0    0 -0.52916412435E+00 -0.10563019391E+01  0.29068041724E+01  0.31377219785E+01  0.51100000000E-03 0. -1.
        -11    1    3    3    0    0 -0.49258717260E+01  0.13660251811E+02  0.41103548137E+00  0.14527065851E+02  0.51100000000E-03 0.  1.
        -12    1    3    3    0    0  0.21987670829E+02  0.21089447280E+02  0.12321668344E+02  0.32864052791E+02  0.00000000000E+00 0.  1.
</event>
<event>
 7    1  0.1381607E-011  0.5052887E+02  0.7816164E-02  0.1300439E+00
        -11   -1    0    0    0    0  0.00000000000E+00  0.00000000000E+00  0.45593999997E+02  0.45594000000E+02  0.51100000000E-03 0.  1.
         11   -1    0    0    0    0 -0.00000000000E+00 -0.00000000000E+00 -0.45593999997E+02  0.45594000000E+02  0.51100000000E-03 0. -1.
    9900012    2    1    2    0    0  0.35527118493E+02 -0.12477082465E+02  0.15339856273E+02  0.50528869098E+02  0.30000028110E+02 0.  0.
         12    1    1    2    0    0 -0.35527118493E+02  0.12477082465E+02 -0.15339856273E+02  0.40659130902E+02  0.00000000000E+00 0. -1.
         11    1    3    3    0    0  0.33472740735E+01 -0.77344191598E+01 -0.32373475766E+01  0.90280619767E+01  0.51100000000E-03 0.  1.
        -11    1    3    3    0    0  0.64434208038E+01  0.56364124459E+01  0.92228601636E+00  0.86103094411E+01  0.51100000000E-03 0. -1.
        -12    1    3    3    0    0  0.25736423615E+02 -0.10379075751E+02  0.17654917833E+02  0.32890497680E+02  0.00000000000E+00 0.  1.
</event>
<event>
 7    1  0.1381607E-011  0.5052886E+02  0.7816164E-02  0.1300439E+00
        -11   -1    0    0    0    0  0.00000000000E+00  0.00000000000E+00  0.45593999997E+02  0.45594000000E+02  0.51100000000E-03 0.  1.
         11   -1    0    0    0    0 -0.00000000000E+00 -0.00000000000E+00 -0.45593999997E+02  0.45594000000E+02  0.51100000000E-03 0. -1.
    9900012    2    1    2    0    0  0.27089946922E+02 -0.30311501186E+02  0.71637292514E+00  0.50528861808E+02  0.30000005951E+02 0.  0.
         12    1    1    2    0    0 -0.27089946922E+02  0.30311501186E+02 -0.71637292514E+00  0.40659138192E+02  0.00000000000E+00 0. -1.
         11    1    3    3    0    0  0.32688854585E+01 -0.80513655420E+01  0.30173102183E+01  0.91986010049E+01  0.51100000000E-03 0.  1.
        -11    1    3    3    0    0 -0.40876682548E+01  0.15167888059E+01  0.11362302635E+01  0.45056297580E+01  0.51100000000E-03 0. -1.
         12    1    3    3    0    0  0.27908729719E+02 -0.23776924449E+02 -0.34371675566E+01  0.36824631045E+02  0.00000000000E+00 0. -1.
</event>
<event>
 7    1  0.1381607E-011  0.5052888E+02  0.7816164E-02  0.1300439E+00
        -11   -1    0    0    0    0  0.00000000000E+00  0.00000000000E+00  0.45593999997E+02  0.45594000000E+02  0.51100000000E-03 0. -1.
         11   -1    0    0    0    0 -0.00000000000E+00 -0.00000000000E+00 -0.45593999997E+02  0.45594000000E+02  0.51100000000E-03 0.  1.
    9900012    2    1    2    0    0  0.31683194496E+02 -0.25325376064E+02 -0.28221749846E+01  0.50528878540E+02  0.30000056811E+02 0.  0.
         12    1    1    2    0    0 -0.31683194496E+02  0.25325376064E+02  0.28221749846E+01  0.40659121460E+02  0.00000000000E+00 0. -1.
         11    1    3    3    0    0 -0.34100507543E+01  0.21200670747E+01  0.15684027981E+01  0.43108024944E+01  0.51100000000E-03 0. -1.
        -11    1    3    3    0    0  0.44907253058E+01 -0.94863022347E+01 -0.29757477791E+00  0.10499766420E+02  0.51100000000E-03 0.  1.
        -12    1    3    3    0    0  0.30602519944E+02 -0.17959140904E+02 -0.40930030049E+01  0.35718309626E+02  0.00000000000E+00 0.  1.
</event>
<event>
 7    1  0.1381607E-011  0.5052879E+02  0.7816164E-02  0.1300439E+00
        -11   -1    0    0    0    0  0.00000000000E+00  0.00000000000E+00  0.45593999997E+02  0.45594000000E+02  0.51100000000E-03 0.  1.
         11   -1    0    0    0    0 -0.00000000000E+00 -0.00000000000E+00 -0.45593999997E+02  0.45594000000E+02  0.51100000000E-03 0. -1.
    9900012    2    1    2    0    0  0.23603968760E+01  0.21051869058E+02  0.34704731808E+02  0.50528793489E+02  0.29999798287E+02 0.  0.
         12    1    1    2    0    0 -0.23603968760E+01 -0.21051869058E+02 -0.34704731808E+02  0.40659206511E+02  0.00000000000E+00 0. -1.
         11    1    3    3    0    0 -0.73294784894E+01  0.12802621538E+02  0.89125299403E+01  0.17235473981E+02  0.51100000000E-03 0. -1.
        -11    1    3    3    0    0  0.16046284502E+01 -0.35989235423E+01  0.14534324382E+02  0.15059006230E+02  0.51100000000E-03 0.  1.
        -12    1    3    3    0    0  0.80852469152E+01  0.11848171063E+02  0.11257877486E+02  0.18234313278E+02  0.00000000000E+00 0.  1.
</event>
<event>
 7    1  0.1381607E-011  0.5052886E+02  0.7816164E-02  0.1300439E+00
        -11   -1    0    0    0    0  0.00000000000E+00  0.00000000000E+00  0.45593999997E+02  0.45594000000E+02  0.51100000000E-03 0.  1.
         11   -1    0    0    0    0 -0.00000000000E+00 -0.00000000000E+00 -0.45593999997E+02  0.45594000000E+02  0.51100000000E-03 0. -1.
    9900012    2    1    2    0    0 -0.16878411859E+02 -0.26344659524E+02  0.25966204415E+02  0.50528860264E+02  0.30000001258E+02 0.  0.
         12    1    1    2    0    0  0.16878411859E+02  0.26344659524E+02 -0.25966204415E+02  0.40659139736E+02  0.00000000000E+00 0. -1.
         11    1    3    3    0    0  0.17298584158E+01 -0.14557806904E+02  0.18537494316E+01  0.14776959742E+02  0.51100000000E-03 0. -1.
        -11    1    3    3    0    0 -0.13159203179E+02 -0.42436204084E+01  0.53816771159E+01  0.14836960313E+02  0.51100000000E-03 0.  1.
        -12    1    3    3    0    0 -0.54490670960E+01 -0.75432322118E+01  0.18730777868E+02  0.20914940209E+02  0.00000000000E+00 0.  1.
</event>
<event>
 7    1  0.1381607E-011  0.5052887E+02  0.7816164E-02  0.1300439E+00
        -11   -1    0    0    0    0  0.00000000000E+00  0.00000000000E+00  0.45593999997E+02  0.45594000000E+02  0.51100000000E-03 0.  1.
         11   -1    0    0    0    0 -0.00000000000E+00 -0.00000000000E+00 -0.45593999997E+02  0.45594000000E+02  0.51100000000E-03 0. -1.
    9900012    2    1    2    0    0 -0.15736102259E+02 -0.90709718554E+01  0.36376609158E+02  0.50528866480E+02  0.30000020154E+02 0.  0.
         12    1    1    2    0    0  0.15736102259E+02  0.90709718554E+01 -0.36376609158E+02  0.40659133520E+02  0.00000000000E+00 0. -1.
         11    1    3    3    0    0 -0.53596381435E+01 -0.10048065841E+02  0.35269601795E+01  0.11921778246E+02  0.51100000000E-03 0. -1.
        -11    1    3    3    0    0  0.36863176542E+01  0.10248224010E+01  0.12593739694E+01  0.40280543513E+01  0.51100000000E-03 0.  1.
        -12    1    3    3    0    0 -0.14062781770E+02 -0.47728414883E-01  0.31590275009E+02  0.34579033883E+02  0.00000000000E+00 0.  1.
</event>
<event>
 7    1  0.1381607E-011  0.5052886E+02  0.7816164E-02  0.1300439E+00
        -11   -1    0    0    0    0  0.00000000000E+00  0.00000000000E+00  0.45593999997E+02  0.45594000000E+02  0.51100000000E-03 0. -1.
         11   -1    0    0    0    0 -0.00000000000E+00 -0.00000000000E+00 -0.45593999997E+02  0.45594000000E+02  0.51100000000E-03 0.  1.
    9900012    2    1    2    0    0  0.22367997804E+02 -0.23994024087E+02 -0.24023424204E+02  0.50528862919E+02  0.30000009330E+02 0.  0.
         12    1    1    2    0    0 -0.22367997804E+02  0.23994024087E+02  0.24023424204E+02  0.40659137081E+02  0.00000000000E+00 0. -1.
         11    1    3    3    0    0  0.16961100302E+01 -0.47109912680E+01  0.11886138949E+01  0.51461666524E+01  0.51100000000E-03 0. -1.
        -11    1    3    3    0    0 -0.38911205724E+01 -0.21869477749E+01 -0.11746463055E+02  0.12565944232E+02  0.51100000000E-03 0.  1.
        -12    1    3    3    0    0  0.24563008346E+02 -0.17096085044E+02 -0.13465575044E+02  0.32816752035E+02  0.00000000000E+00 0.  1.
</event>
<event>
 7    1  0.1381607E-011  0.5052886E+02  0.7816164E-02  0.1300439E+00
        -11   -1    0    0    0    0  0.00000000000E+00  0.00000000000E+00  0.45593999997E+02  0.45594000000E+02  0.51100000000E-03 0. -1.
         11   -1    0    0    0    0 -0.00000000000E+00 -0.00000000000E+00 -0.45593999997E+02  0.45594000000E+02  0.51100000000E-03 0.  1.
    9900012    2    1    2    0    0 -0.56658088099E+01  0.44128950430E+01 -0.40019881126E+02  0.50528856902E+02  0.29999991039E+02 0.  0.
         12    1    1    2    0    0  0.56658088099E+01 -0.44128950430E+01  0.40019881126E+02  0.40659143098E+02  0.00000000000E+00 0. -1.
         11    1    3    3    0    0  0.38758436289E+01  0.31938331851E+01  0.22825239321E+01  0.55165795573E+01  0.51100000000E-03 0.  1.
        -11    1    3    3    0    0 -0.87705546501E+01  0.30815652597E-01 -0.13037151774E+02  0.15712762491E+02  0.51100000000E-03 0. -1.
        -12    1    3    3    0    0 -0.77109778870E+00  0.11882462054E+01 -0.29265253284E+02  0.29299514853E+02  0.00000000000E+00 0.  1.
</event>
<event>
 7    1  0.1381607E-011  0.5052886E+02  0.7816164E-02  0.1300439E+00
        -11   -1    0    0    0    0  0.00000000000E+00  0.00000000000E+00  0.45593999997E+02  0.45594000000E+02  0.51100000000E-03 0. -1.
         11   -1    0    0    0    0 -0.00000000000E+00 -0.00000000000E+00 -0.45593999997E+02  0.45594000000E+02  0.51100000000E-03 0.  1.
    9900012    2    1    2    0    0  0.24959698572E+02 -0.11518981147E+02 -0.29958176317E+02  0.50528858252E+02  0.29999995142E+02 0.  0.
         12    1    1    2    0    0 -0.24959698572E+02  0.11518981147E+02  0.29958176317E+02  0.40659141748E+02  0.00000000000E+00 0. -1.
         11    1    3    3    0    0  0.94232132084E+01 -0.22635628231E+00 -0.18164805330E+02  0.20464807286E+02  0.51100000000E-03 0.  1.
        -11    1    3    3    0    0  0.11389079958E+02 -0.17378477114E+01 -0.15229077065E+02  0.19095969351E+02  0.51100000000E-03 0. -1.
        -12    1    3    3    0    0  0.41474054054E+01 -0.95547771533E+01  0.34357060776E+01  0.10968081614E+02  0.00000000000E+00 0.  1.
</event>
<event>
 7    1  0.1381607E-011  0.5052886E+02  0.7816164E-02  0.1300439E+00
        -11   -1    0    0    0    0  0.00000000000E+00  0.00000000000E+00  0.45593999997E+02  0.45594000000E+02  0.51100000000E-03 0.  1.
         11   -1    0    0    0    0 -0.00000000000E+00 -0.00000000000E+00 -0.45593999997E+02  0.45594000000E+02  0.51100000000E-03 0. -1.
    9900012    2    1    2    0    0 -0.28320164829E+02  0.23148976277E+02  0.17755526654E+02  0.50528861232E+02  0.30000004202E+02 0.  0.
         12    1    1    2    0    0  0.28320164829E+02 -0.23148976277E+02 -0.17755526654E+02  0.40659138768E+02  0.00000000000E+00 0. -1.
         11    1    3    3    0    0 -0.13689273095E+02  0.11413821652E+02  0.20071304680E+01  0.17935999987E+02  0.51100000000E-03 0.  1.
        -11    1    3    3    0    0 -0.10220837327E+02  0.81278870659E+00  0.17890792453E+02  0.20620538208E+02  0.51100000000E-03 0. -1.
         12    1    3    3    0    0 -0.44100544069E+01  0.10922365918E+02 -0.21423962674E+01  0.11972323037E+02  0.00000000000E+00 0. -1.
</event>
<event>
 7    1  0.1381607E-011  0.5052886E+02  0.7816164E-02  0.1300439E+00
        -11   -1    0    0    0    0  0.00000000000E+00  0.00000000000E+00  0.45593999997E+02  0.45594000000E+02  0.51100000000E-03 0. -1.
         11   -1    0    0    0    0 -0.00000000000E+00 -0.00000000000E+00 -0.45593999997E+02  0.45594000000E+02  0.51100000000E-03 0.  1.
    9900012    2    1    2    0    0 -0.30733828851E+02  0.24067252599E+02 -0.11373848803E+02  0.50528864248E+02  0.30000013367E+02 0.  0.
         12    1    1    2    0    0  0.30733828851E+02 -0.24067252599E+02  0.11373848803E+02  0.40659135752E+02  0.00000000000E+00 0. -1.
         11    1    3    3    0    0  0.13374115612E+01 -0.21955623532E+01 -0.21664221573E+01  0.33619263757E+01  0.51100000000E-03 0. -1.
        -11    1    3    3    0    0  0.14396930221E+01 -0.19640079842E+01 -0.27217499247E+00  0.24503311710E+01  0.51100000000E-03 0.  1.
        -12    1    3    3    0    0 -0.33510933435E+02  0.28226822937E+02 -0.89352516530E+01  0.44716606701E+02  0.00000000000E+00 0.  1.
</event>
<event>
 7    1  0.1381607E-011  0.5052886E+02  0.7816164E-02  0.1300439E+00
        -11   -1    0    0    0    0  0.00000000000E+00  0.00000000000E+00  0.45593999997E+02  0.45594000000E+02  0.51100000000E-03 0. -1.
         11   -1    0    0    0    0 -0.00000000000E+00 -0.00000000000E+00 -0.45593999997E+02  0.45594000000E+02  0.51100000000E-03 0.  1.
    9900012    2    1    2    0    0 -0.19449531856E+02  0.32202962962E+02 -0.15422401910E+02  0.50528860884E+02  0.30000003144E+02 0.  0.
         12    1    1    2    0    0  0.19449531856E+02 -0.32202962962E+02  0.15422401910E+02  0.40659139116E+02  0.00000000000E+00 0. -1.
         11    1    3    3    0    0 -0.47805442623E+01  0.80637989749E+01 -0.82253300101E+01  0.12471347617E+02  0.51100000000E-03 0.  1.
        -11    1    3    3    0    0 -0.82339187134E+01  0.14608558429E+01  0.66796970048E+01  0.10702797275E+02  0.51100000000E-03 0. -1.
         12    1    3    3    0    0 -0.64350688799E+01  0.22678308144E+02 -0.13876768905E+02  0.27354715992E+02  0.00000000000E+00 0. -1.
</event>
<event>
 7    1  0.1381607E-011  0.5052888E+02  0.7816164E-02  0.1300439E+00
        -11   -1    0    0    0    0  0.00000000000E+00  0.00000000000E+00  0.45593999997E+02  0.45594000000E+02  0.51100000000E-03 0. -1.
         11   -1    0    0    0    0 -0.00000000000E+00 -0.00000000000E+00 -0.45593999997E+02  0.45594000000E+02  0.51100000000E-03 0.  1.
    9900012    2    1    2    0    0 -0.26995047534E+01  0.43374710090E+01 -0.40336872086E+02  0.50528877649E+02  0.30000054103E+02 0.  0.
         12    1    1    2    0    0  0.26995047534E+01 -0.43374710090E+01  0.40336872086E+02  0.40659122351E+02  0.00000000000E+00 0. -1.
         11    1    3    3    0    0 -0.81760991158E+01 -0.45202945551E+01 -0.12971776850E+02  0.15985889231E+02  0.51100000000E-03 0. -1.
        -11    1    3    3    0    0  0.38090193114E+01 -0.53145607370E+01 -0.11298815761E+02  0.13054364090E+02  0.51100000000E-03 0.  1.
        -12    1    3    3    0    0  0.16675750510E+01  0.14172326301E+02 -0.16066279475E+02  0.21488624328E+02  0.00000000000E+00 0.  1.
</event>
<event>
 7    1  0.1381607E-011  0.5052887E+02  0.7816164E-02  0.1300439E+00
        -11   -1    0    0    0    0  0.00000000000E+00  0.00000000000E+00  0.45593999997E+02  0.45594000000E+02  0.51100000000E-03 0.  1.
         11   -1    0    0    0    0 -0.00000000000E+00 -0.00000000000E+00 -0.45593999997E+02  0.45594000000E+02  0.51100000000E-03 0. -1.
    9900012    2    1    2    0    0  0.32816425811E+02 -0.15969003677E+02 -0.17923114110E+02  0.50528869404E+02  0.30000029039E+02 0.  0.
         12    1    1    2    0    0 -0.32816425811E+02  0.15969003677E+02  0.17923114110E+02  0.40659130596E+02  0.00000000000E+00 0. -1.
         11    1    3    3    0    0  0.15245079875E+01  0.13355812164E+01 -0.11808476624E+02  0.11981152792E+02  0.51100000000E-03 0. -1.
        -11    1    3    3    0    0  0.12434716407E+02 -0.15648201038E+01 -0.62048897967E+01  0.13984687759E+02  0.51100000000E-03 0.  1.
        -12    1    3    3    0    0  0.18857201417E+02 -0.15739764790E+02  0.90252310356E-01  0.24563028852E+02  0.00000000000E+00 0.  1.
</event>
<event>
 7    1  0.1381607E-011  0.5052888E+02  0.7816164E-02  0.1300439E+00
        -11   -1    0    0    0    0  0.00000000000E+00  0.00000000000E+00  0.45593999997E+02  0.45594000000E+02  0.51100000000E-03 0. -1.
         11   -1    0    0    0    0 -0.00000000000E+00 -0.00000000000E+00 -0.45593999997E+02  0.45594000000E+02  0.51100000000E-03 0.  1.
    9900012    2    1    2    0    0 -0.21874658212E+02  0.23621418195E+02 -0.24833284896E+02  0.50528879152E+02  0.30000058670E+02 0.  0.
         12    1    1    2    0    0  0.21874658212E+02 -0.23621418195E+02  0.24833284896E+02  0.40659120848E+02  0.00000000000E+00 0. -1.
         11    1    3    3    0    0 -0.91251396605E+01  0.22775535775E+02 -0.17238256836E+02  0.29985841704E+02  0.51100000000E-03 0. -1.
        -11    1    3    3    0    0 -0.11941222110E+02  0.62689826170E+01 -0.64140496961E+01  0.14934288141E+02  0.51100000000E-03 0.  1.
        -12    1    3    3    0    0 -0.80829644186E+00 -0.54231001976E+01 -0.11809783640E+01  0.56087493069E+01  0.00000000000E+00 0.  1.
</event>
<event>
 7    1  0.1381607E-011  0.5052886E+02  0.7816164E-02  0.1300439E+00
        -11   -1    0    0    0    0  0.00000000000E+00  0.00000000000E+00  0.45593999997E+02  0.45594000000E+02  0.51100000000E-03 0. -1.
         11   -1    0    0    0    0 -0.00000000000E+00 -0.00000000000E+00 -0.45593999997E+02  0.45594000000E+02  0.51100000000E-03 0.  1.
    9900012    2    1    2    0    0  0.13605002713E+02  0.20827097213E+01 -0.38258749558E+02  0.50528859621E+02  0.29999999304E+02 0.  0.
         12    1    1    2    0    0 -0.13605002713E+02 -0.20827097213E+01  0.38258749558E+02  0.40659140379E+02  0.00000000000E+00 0. -1.
         11    1    3    3    0    0 -0.34730714340E+01  0.39576544729E+01 -0.17748202545E+02  0.18512804973E+02  0.51100000000E-03 0. -1.
        -11    1    3    3    0    0 -0.12859090223E+01 -0.55860303046E+01 -0.35377488774E+01  0.67359456618E+01  0.51100000000E-03 0.  1.
         12    1    3    3    0    0  0.18363983169E+02  0.37110855529E+01 -0.16972798136E+02  0.25280108987E+02  0.00000000000E+00 0. -1.
</event>
<event>
 7    1  0.1381607E-011  0.5052886E+02  0.7816164E-02  0.1300439E+00
        -11   -1    0    0    0    0  0.00000000000E+00  0.00000000000E+00  0.45593999997E+02  0.45594000000E+02  0.51100000000E-03 0.  1.
         11   -1    0    0    0    0 -0.00000000000E+00 -0.00000000000E+00 -0.45593999997E+02  0.45594000000E+02  0.51100000000E-03 0. -1.
    9900012    2    1    2    0    0  0.10813005270E+01 -0.39794093565E+02  0.82720217315E+01  0.50528862810E+02  0.30000008997E+02 0.  0.
         12    1    1    2    0    0 -0.10813005270E+01  0.39794093565E+02 -0.82720217315E+01  0.40659137190E+02  0.00000000000E+00 0. -1.
         11    1    3    3    0    0 -0.63447730065E+01 -0.47735785129E+01  0.76060711893E+01  0.10995249680E+02  0.51100000000E-03 0. -1.
        -11    1    3    3    0    0 -0.45203628087E+01 -0.13009554924E+02  0.38183707562E+01  0.14292031162E+02  0.51100000000E-03 0.  1.
        -12    1    3    3    0    0  0.11946436342E+02 -0.22010960129E+02 -0.31524202140E+01  0.25241581968E+02  0.00000000000E+00 0.  1.
</event>
<event>
 7    1  0.1381607E-011  0.5052888E+02  0.7816164E-02  0.1300439E+00
        -11   -1    0    0    0    0  0.00000000000E+00  0.00000000000E+00  0.45593999997E+02  0.45594000000E+02  0.51100000000E-03 0.  1.
         11   -1    0    0    0    0 -0.00000000000E+00 -0.00000000000E+00 -0.45593999997E+02  0.45594000000E+02  0.51100000000E-03 0. -1.
    9900012    2    1    2    0    0 -0.22322048242E+02  0.76815319308E+01  0.33104145991E+02  0.50528877379E+02  0.30000053282E+02 0.  0.
         12    1    1    2    0    0  0.22322048242E+02 -0.76815319308E+01 -0.33104145991E+02  0.40659122621E+02  0.00000000000E+00 0. -1.
         11    1    3    3    0    0 -0.76786146455E+01 -0.15337808896E+01  0.38876080119E+00  0.78399452749E+01  0.51100000000E-03 0. -1.
        -11    1    3    3    0    0 -0.15301632928E+02 -0.19641722637E+01  0.23855337174E+02  0.28409066421E+02  0.51100000000E-03 0.  1.
         12    1    3    3    0    0  0.65819933119E+00  0.11179485084E+02  0.88600480151E+01  0.14279865683E+02  0.00000000000E+00 0. -1.
</event>
<event>
 7    1  0.1381607E-011  0.5052886E+02  0.7816164E-02  0.1300439E+00
        -11   -1    0    0    0    0  0.00000000000E+00  0.00000000000E+00  0.45593999997E+02  0.45594000000E+02  0.51100000000E-03 0.  1.
         11   -1    0    0    0    0 -0.00000000000E+00 -0.00000000000E+00 -0.45593999997E+02  0.45594000000E+02  0.51100000000E-03 0. -1.
    9900012    2    1    2    0    0  0.29506650042E+02  0.21618777829E+02  0.17752501631E+02  0.50528864918E+02  0.30000015404E+02 0.  0.
         12    1    1    2    0    0 -0.29506650042E+02 -0.21618777829E+02 -0.17752501631E+02  0.40659135082E+02  0.00000000000E+00 0. -1.
         11    1    3    3    0    0  0.28104242532E+02  0.13181258018E+02  0.12045303894E+02  0.33296897114E+02  0.51100000000E-03 0. -1.
        -11    1    3    3    0    0  0.53940453163E+01  0.10358225026E+02  0.51631717063E+01  0.12768981670E+02  0.51100000000E-03 0.  1.
         12    1    3    3    0    0 -0.39916378070E+01 -0.19207052155E+01  0.54402603086E+00  0.44629861337E+01  0.00000000000E+00 0. -1.
</event>
<event>
 7    1  0.1381607E-011  0.5052886E+02  0.7816164E-02  0.1300439E+00
        -11   -1    0    0    0    0  0.00000000000E+00  0.00000000000E+00  0.45593999997E+02  0.45594000000E+02  0.51100000000E-03 0.  1.
         11   -1    0    0    0    0 -0.00000000000E+00 -0.00000000000E+00 -0.45593999997E+02  0.45594000000E+02  0.51100000000E-03 0. -1.
    9900012    2    1    2    0    0 -0.55783034180E+01  0.22717622117E+01  0.40210540760E+02  0.50528856369E+02  0.29999989420E+02 0.  0.
         12    1    1    2    0    0  0.55783034180E+01 -0.22717622117E+01 -0.40210540760E+02  0.40659143631E+02  0.00000000000E+00 0. -1.
         11    1    3    3    0    0 -0.20394643124E+01  0.13187415490E+02  0.18567586388E+02  0.22865314486E+02  0.51100000000E-03 0. -1.
        -11    1    3    3    0    0  0.60317342233E+00 -0.33968591301E+01 -0.87976445147E+00  0.35604010839E+01  0.51100000000E-03 0.  1.
        -12    1    3    3    0    0 -0.41420125280E+01 -0.75187941483E+01  0.22522718823E+02  0.24103140800E+02  0.00000000000E+00 0.  1.
</event>
<event>
 7    1  0.1381607E-011  0.5052886E+02  0.7816164E-02  0.1300439E+00
        -11   -1    0    0    0    0  0.00000000000E+00  0.00000000000E+00  0.45593999997E+02  0.45594000000E+02  0.51100000000E-03 0. -1.
         11   -1    0    0    0    0 -0.00000000000E+00 -0.00000000000E+00 -0.45593999997E+02  0.45594000000E+02  0.51100000000E-03 0.  1.
    9900012    2    1    2    0    0  0.22278546911E+01  0.37827407565E+02 -0.14740741082E+02  0.50528861454E+02  0.30000004876E+02 0.  0.
         12    1    1    2    0    0 -0.22278546911E+01 -0.37827407565E+02  0.14740741082E+02  0.40659138546E+02  0.00000000000E+00 0. -1.
         11    1    3    3    0    0  0.34233924797E+01  0.72484124732E+01  0.29456443095E+00  0.80215876183E+01  0.51100000000E-03 0. -1.
        -11    1    3    3    0    0 -0.67510715070E+01  0.90333572405E+01  0.52120206351E+01  0.12423512744E+02  0.51100000000E-03 0.  1.
        -12    1    3    3    0    0  0.55555337184E+01  0.21545637852E+02 -0.20247326148E+02  0.30083761092E+02  0.00000000000E+00 0.  1.
</event>
<event>
 7    1  0.1381607E-011  0.5052885E+02  0.7816164E-02  0.1300439E+00
        -11   -1    0    0    0    0  0.00000000000E+00  0.00000000000E+00  0.45593999997E+02  0.45594000000E+02  0.51100000000E-03 0.  1.
         11   -1    0    0    0    0 -0.00000000000E+00 -0.00000000000E+00 -0.45593999997E+02  0.45594000000E+02  0.51100000000E-03 0. -1.
    9900012    2    1    2    0    0 -0.81586822656E+01 -0.38198543993E+02  0.11290406834E+02  0.50528854092E+02  0.29999982498E+02 0.  0.
         12    1    1    2    0    0  0.81586822656E+01  0.38198543993E+02 -0.11290406834E+02  0.40659145908E+02  0.00000000000E+00 0. -1.
         11    1    3    3    0    0 -0.56274960908E+01 -0.94463197133E+01  0.81878726076E+01  0.13709227786E+02  0.51100000000E-03 0. -1.
        -11    1    3    3    0    0 -0.77929055434E+01 -0.17914325115E+02  0.10994520993E+02  0.22417223585E+02  0.51100000000E-03 0.  1.
         12    1    3    3    0    0  0.52617193687E+01 -0.10837899165E+02 -0.78919867669E+01  0.14402402722E+02  0.00000000000E+00 0. -1.
</event>
<event>
 7    1  0.1381607E-011  0.5052885E+02  0.7816164E-02  0.1300439E+00
        -11   -1    0    0    0    0  0.00000000000E+00  0.00000000000E+00  0.45593999997E+02  0.45594000000E+02  0.51100000000E-03 0.  1.
         11   -1    0    0    0    0 -0.00000000000E+00 -0.00000000000E+00 -0.45593999997E+02  0.45594000000E+02  0.51100000000E-03 0. -1.
    9900012    2    1    2    0    0  0.35290173736E+01 -0.26957166271E+02  0.30232820139E+02  0.50528853544E+02  0.29999980833E+02 0.  0.
         12    1    1    2    0    0 -0.35290173736E+01  0.26957166271E+02 -0.30232820139E+02  0.40659146456E+02  0.00000000000E+00 0. -1.
         11    1    3    3    0    0  0.62033168717E+01 -0.10940864734E+02  0.30963639636E+01  0.12952649590E+02  0.51100000000E-03 0. -1.
        -11    1    3    3    0    0  0.58707237539E+01 -0.12868039508E+02  0.24159848589E+02  0.27995537543E+02  0.51100000000E-03 0.  1.
         12    1    3    3    0    0 -0.85450232519E+01 -0.31482620289E+01  0.29766075857E+01  0.95806664119E+01  0.00000000000E+00 0. -1.
</event>
<event>
 7    1  0.1381607E-011  0.5052887E+02  0.7816164E-02  0.1300439E+00
        -11   -1    0    0    0    0  0.00000000000E+00  0.00000000000E+00  0.45593999997E+02  0.45594000000E+02  0.51100000000E-03 0.  1.
         11   -1    0    0    0    0 -0.00000000000E+00 -0.00000000000E+00 -0.45593999997E+02  0.45594000000E+02  0.51100000000E-03 0. -1.
    9900012    2    1    2    0    0  0.37799008886E+02 -0.57121270342E+01  0.13848166085E+02  0.50528866070E+02  0.30000018907E+02 0.  0.
         12    1    1    2    0    0 -0.37799008886E+02  0.57121270342E+01 -0.13848166085E+02  0.40659133930E+02  0.00000000000E+00 0. -1.
         11    1    3    3    0    0  0.23391024806E+01  0.22879753155E+01 -0.27625696516E+01  0.42822917696E+01  0.51100000000E-03 0. -1.
        -11    1    3    3    0    0  0.21396016106E+01 -0.14985465234E+01  0.11647714661E+02  0.11937034549E+02  0.51100000000E-03 0.  1.
        -12    1    3    3    0    0  0.33320304795E+02 -0.65015558263E+01  0.49630210749E+01  0.34309539751E+02  0.00000000000E+00 0.  1.
</event>
<event>
 7    1  0.1381607E-011  0.5052886E+02  0.7816164E-02  0.1300439E+00
        -11   -1    0    0    0    0  0.00000000000E+00  0.00000000000E+00  0.45593999997E+02  0.45594000000E+02  0.51100000000E-03 0.  1.
         11   -1    0    0    0    0 -0.00000000000E+00 -0.00000000000E+00 -0.45593999997E+02  0.45594000000E+02  0.51100000000E-03 0. -1.
    9900012    2    1    2    0    0 -0.14128620769E+02 -0.49717577259E+01  0.37799860228E+02  0.50528859171E+02  0.29999997936E+02 0.  0.
         12    1    1    2    0    0  0.14128620769E+02  0.49717577259E+01 -0.37799860228E+02  0.40659140829E+02  0.00000000000E+00 0. -1.
         11    1    3    3    0    0 -0.13647131853E+02 -0.75289384049E+01  0.34553167677E+01  0.15964596316E+02  0.51100000000E-03 0. -1.
        -11    1    3    3    0    0 -0.53703693927E+00 -0.55467850827E+00  0.60532311013E+01  0.61022687542E+01  0.51100000000E-03 0.  1.
         12    1    3    3    0    0  0.55548023899E-01  0.31118591873E+01  0.28291312359E+02  0.28461994100E+02  0.00000000000E+00 0. -1.
</event>
<event>
 7    1  0.1381607E-011  0.5052884E+02  0.7816164E-02  0.1300439E+00
        -11   -1    0    0    0    0  0.00000000000E+00  0.00000000000E+00  0.45593999997E+02  0.45594000000E+02  0.51100000000E-03 0.  1.
         11   -1    0    0    0    0 -0.00000000000E+00 -0.00000000000E+00 -0.45593999997E+02  0.45594000000E+02  0.51100000000E-03 0. -1.
    9900012    2    1    2    0    0  0.37669991015E+02  0.87758762204E+01 -0.12534889594E+02  0.50528835182E+02  0.29999925021E+02 0.  0.
         12    1    1    2    0    0 -0.37669991015E+02 -0.87758762204E+01  0.12534889594E+02  0.40659164818E+02  0.00000000000E+00 0. -1.
         11    1    3    3    0    0  0.93005374610E+01 -0.39763209529E+01 -0.78121695865E+01  0.12780497615E+02  0.51100000000E-03 0. -1.
        -11    1    3    3    0    0  0.16193910656E+02  0.10398109534E+00 -0.10459774831E+02  0.19278496938E+02  0.51100000000E-03 0.  1.
        -12    1    3    3    0    0  0.12175542898E+02  0.12648216078E+02  0.57370548236E+01  0.18469840629E+02  0.00000000000E+00 0.  1.
</event>
<event>
 7    1  0.1381607E-011  0.5052889E+02  0.7816164E-02  0.1300439E+00
        -11   -1    0    0    0    0  0.00000000000E+00  0.00000000000E+00  0.45593999997E+02  0.45594000000E+02  0.51100000000E-03 0. -1.
         11   -1    0    0    0    0 -0.00000000000E+00 -0.00000000000E+00 -0.45593999997E+02  0.45594000000E+02  0.51100000000E-03 0.  1.
    9900012    2    1    2    0    0  0.35543758631E+02  0.15043508441E+02 -0.12786594915E+02  0.50528893598E+02  0.30000102581E+02 0.  0.
         12    1    1    2    0    0 -0.35543758631E+02 -0.15043508441E+02  0.12786594915E+02  0.40659106402E+02  0.00000000000E+00 0. -1.
         11    1    3    3    0    0  0.89600366835E+01 -0.44149365167E+01 -0.21332057836E+00  0.99909673078E+01  0.51100000000E-03 0. -1.
        -11    1    3    3    0    0 -0.11553594756E+01  0.45005178244E+01 -0.71985432821E+01  0.85678784918E+01  0.51100000000E-03 0.  1.
        -12    1    3    3    0    0  0.27739081424E+02  0.14957927133E+02 -0.53747310543E+01  0.31970047799E+02  0.00000000000E+00 0.  1.
</event>
<event>
 7    1  0.1381607E-011  0.5052884E+02  0.7816164E-02  0.1300439E+00
        -11   -1    0    0    0    0  0.00000000000E+00  0.00000000000E+00  0.45593999997E+02  0.45594000000E+02  0.51100000000E-03 0.  1.
         11   -1    0    0    0    0 -0.00000000000E+00 -0.00000000000E+00 -0.45593999997E+02  0.45594000000E+02  0.51100000000E-03 0. -1.
    9900012    2    1    2    0    0  0.69989430049E+01 -0.10395528177E+01  0.40038745642E+02  0.50528843272E+02  0.29999949610E+02 0.  0.
         12    1    1    2    0    0 -0.69989430049E+01  0.10395528177E+01 -0.40038745642E+02  0.40659156728E+02  0.00000000000E+00 0. -1.
         11    1    3    3    0    0 -0.16717874757E+01 -0.32873431071E+01 -0.11334597217E+01  0.38582676514E+01  0.51100000000E-03 0. -1.
        -11    1    3    3    0    0  0.13543864300E+01  0.51515558452E+00  0.38741695301E+02  0.38768785162E+02  0.51100000000E-03 0.  1.
         12    1    3    3    0    0  0.73163440507E+01  0.17326347049E+01  0.24305100628E+01  0.79017904587E+01  0.00000000000E+00 0. -1.
</event>
<event>
 7    1  0.1381607E-011  0.5052885E+02  0.7816164E-02  0.1300439E+00
        -11   -1    0    0    0    0  0.00000000000E+00  0.00000000000E+00  0.45593999997E+02  0.45594000000E+02  0.51100000000E-03 0.  1.
         11   -1    0    0    0    0 -0.00000000000E+00 -0.00000000000E+00 -0.45593999997E+02  0.45594000000E+02  0.51100000000E-03 0. -1.
    9900012    2    1    2    0    0 -0.18032946907E+02  0.36425496195E+02 -0.10781795908E+01  0.50528850742E+02  0.29999972315E+02 0.  0.
         12    1    1    2    0    0  0.18032946907E+02 -0.36425496195E+02  0.10781795908E+01  0.40659149258E+02  0.00000000000E+00 0. -1.
         11    1    3    3    0    0 -0.21283307336E+02  0.13259135152E+02 -0.21532342268E+01  0.25167841664E+02  0.51100000000E-03 0.  1.
        -11    1    3    3    0    0  0.20172231947E+01  0.17249641517E+02 -0.35799136073E+01  0.17732318054E+02  0.51100000000E-03 0. -1.
        -12    1    3    3    0    0  0.12331372345E+01  0.59167195250E+01  0.46549682433E+01  0.76286910229E+01  0.00000000000E+00 0.  1.
</event>
<event>
 7    1  0.1381607E-011  0.5052891E+02  0.7816164E-02  0.1300439E+00
        -11   -1    0    0    0    0  0.00000000000E+00  0.00000000000E+00  0.45593999997E+02  0.45594000000E+02  0.51100000000E-03 0.  1.
         11   -1    0    0    0    0 -0.00000000000E+00 -0.00000000000E+00 -0.45593999997E+02  0.45594000000E+02  0.51100000000E-03 0. -1.
    9900012    2    1    2    0    0  0.79787890873E+01  0.32470666501E+01  0.39736090789E+02  0.50528912106E+02  0.30000158838E+02 0.  0.
         12    1    1    2    0    0 -0.79787890873E+01 -0.32470666501E+01 -0.39736090789E+02  0.40659087894E+02  0.00000000000E+00 0. -1.
         11    1    3    3    0    0 -0.46193602722E+00  0.18050818380E+01  0.94211851737E-01  0.18656316542E+01  0.51100000000E-03 0. -1.
        -11    1    3    3    0    0  0.16751103020E+02 -0.50291873221E+01  0.27489374412E+02  0.32581557411E+02  0.51100000000E-03 0.  1.
        -12    1    3    3    0    0 -0.83103779053E+01  0.64711721342E+01  0.12152504526E+02  0.16081723041E+02  0.00000000000E+00 0.  1.
</event>
<event>
 7    1  0.1381607E-011  0.5052886E+02  0.7816164E-02  0.1300439E+00
        -11   -1    0    0    0    0  0.00000000000E+00  0.00000000000E+00  0.45593999997E+02  0.45594000000E+02  0.51100000000E-03 0. -1.
         11   -1    0    0    0    0 -0.00000000000E+00 -0.00000000000E+00 -0.45593999997E+02  0.45594000000E+02  0.51100000000E-03 0.  1.
    9900012    2    1    2    0    0  0.19815592134E+02  0.33005023292E+02 -0.13083427366E+02  0.50528864178E+02  0.30000013157E+02 0.  0.
         12    1    1    2    0    0 -0.19815592134E+02 -0.33005023292E+02  0.13083427366E+02  0.40659135822E+02  0.00000000000E+00 0. -1.
         11    1    3    3    0    0  0.48100686176E+01 -0.28913604125E+01 -0.58831853307E+00  0.56429464022E+01  0.51100000000E-03 0. -1.
        -11    1    3    3    0    0 -0.35355510914E+01  0.10027650367E+02 -0.66085138252E+01  0.12519039446E+02  0.51100000000E-03 0.  1.
        -12    1    3    3    0    0  0.18541074607E+02  0.25868733337E+02 -0.58865950082E+01  0.32366878331E+02  0.00000000000E+00 0.  1.
</event>
<event>
 7    1  0.1381607E-011  0.5052884E+02  0.7816164E-02  0.1300439E+00
        -11   -1    0    0    0    0  0.00000000000E+00  0.00000000000E+00  0.45593999997E+02  0.45594000000E+02  0.51100000000E-03 0.  1.
         11   -1    0    0    0    0 -0.00000000000E+00 -0.00000000000E+00 -0.45593999997E+02  0.45594000000E+02  0.51100000000E-03 0. -1.
    9900012    2    1    2    0    0 -0.91057296568E+01 -0.34090631826E+02  0.20201028452E+02  0.50528843081E+02  0.29999949028E+02 0.  0.
         12    1    1    2    0    0  0.91057296568E+01  0.34090631826E+02 -0.20201028452E+02  0.40659156919E+02  0.00000000000E+00 0. -1.
         11    1    3    3    0    0  0.51151482027E+00 -0.78375936804E+01 -0.31343338490E+01  0.84565696975E+01  0.51100000000E-03 0. -1.
        -11    1    3    3    0    0  0.46242079300E+01 -0.46769716448E+01  0.12330799206E+02  0.13975191307E+02  0.51100000000E-03 0.  1.
         12    1    3    3    0    0 -0.14241452407E+02 -0.21576066501E+02  0.11004563095E+02  0.28097082077E+02  0.00000000000E+00 0. -1.
</event>
<event>
 7    1  0.1381607E-011  0.5052886E+02  0.7816164E-02  0.1300439E+00
        -11   -1    0    0    0    0  0.00000000000E+00  0.00000000000E+00  0.45593999997E+02  0.45594000000E+02  0.51100000000E-03 0. -1.
         11   -1    0    0    0    0 -0.00000000000E+00 -0.00000000000E+00 -0.45593999997E+02  0.45594000000E+02  0.51100000000E-03 0.  1.
    9900012    2    1    2    0    0 -0.45705587780E+01  0.11704381622E+02 -0.38668889768E+02  0.50528860897E+02  0.30000003182E+02 0.  0.
         12    1    1    2    0    0  0.45705587780E+01 -0.11704381622E+02  0.38668889768E+02  0.40659139103E+02  0.00000000000E+00 0. -1.
         11    1    3    3    0    0 -0.44224362352E+01 -0.15703592199E+01 -0.27547953474E+00  0.47010487733E+01  0.51100000000E-03 0. -1.
        -11    1    3    3    0    0  0.11353109229E+01  0.10528134302E+02 -0.40287262732E+01  0.11329659236E+02  0.51100000000E-03 0.  1.
        -12    1    3    3    0    0 -0.12834334657E+01  0.27466065400E+01 -0.34364683960E+02  0.34498152887E+02  0.00000000000E+00 0.  1.
</event>
<event>
 7    1  0.1381607E-011  0.5052885E+02  0.7816164E-02  0.1300439E+00
        -11   -1    0    0    0    0  0.00000000000E+00  0.00000000000E+00  0.45593999997E+02  0.45594000000E+02  0.51100000000E-03 0. -1.
         11   -1    0    0    0    0 -0.00000000000E+00 -0.00000000000E+00 -0.45593999997E+02  0.45594000000E+02  0.51100000000E-03 0.  1.
    9900012    2    1    2    0    0  0.44612143010E+01  0.62433354816E+01 -0.39928492265E+02  0.50528853852E+02  0.29999981767E+02 0.  0.
         12    1    1    2    0    0 -0.44612143010E+01 -0.62433354816E+01  0.39928492265E+02  0.40659146148E+02  0.00000000000E+00 0. -1.
         11    1    3    3    0    0  0.12187222950E+02 -0.48151509445E-01 -0.16019191539E+02  0.20128219485E+02  0.51100000000E-03 0. -1.
        -11    1    3    3    0    0  0.22992446897E+01  0.82194440777E+01 -0.10004037499E+02  0.13150154130E+02  0.51100000000E-03 0.  1.
         12    1    3    3    0    0 -0.10025253338E+02 -0.19279570866E+01 -0.13905263226E+02  0.17250480237E+02  0.00000000000E+00 0. -1.
</event>
<event>
 7    1  0.1381607E-011  0.5052886E+02  0.7816164E-02  0.1300439E+00
        -11   -1    0    0    0    0  0.00000000000E+00  0.00000000000E+00  0.45593999997E+02  0.45594000000E+02  0.51100000000E-03 0.  1.
         11   -1    0    0    0    0 -0.00000000000E+00 -0.00000000000E+00 -0.45593999997E+02  0.45594000000E+02  0.51100000000E-03 0. -1.
    9900012    2    1    2    0    0  0.13395640192E+00  0.19796394229E+02  0.35514087538E+02  0.50528861022E+02  0.30000003562E+02 0.  0.
         12    1    1    2    0    0 -0.13395640192E+00 -0.19796394229E+02 -0.35514087538E+02  0.40659138978E+02  0.00000000000E+00 0. -1.
         11    1    3    3    0    0  0.96182146428E+01  0.52000319719E+01  0.95454040150E+01  0.14514307544E+02  0.51100000000E-03 0. -1.
        -11    1    3    3    0    0  0.19016728172E+01  0.11033568666E+02  0.19390643875E+02  0.22390914836E+02  0.51100000000E-03 0.  1.
         12    1    3    3    0    0 -0.11385931058E+02  0.35627935904E+01  0.65780396481E+01  0.13623638642E+02  0.00000000000E+00 0. -1.
</event>
<event>
 7    1  0.1381607E-011  0.5052889E+02  0.7816164E-02  0.1300439E+00
        -11   -1    0    0    0    0  0.00000000000E+00  0.00000000000E+00  0.45593999997E+02  0.45594000000E+02  0.51100000000E-03 0. -1.
         11   -1    0    0    0    0 -0.00000000000E+00 -0.00000000000E+00 -0.45593999997E+02  0.45594000000E+02  0.51100000000E-03 0.  1.
    9900012    2    1    2    0    0 -0.29138175133E+02  0.23267246278E+02 -0.16210039218E+02  0.50528888218E+02  0.30000086228E+02 0.  0.
         12    1    1    2    0    0  0.29138175133E+02 -0.23267246278E+02  0.16210039218E+02  0.40659111782E+02  0.00000000000E+00 0. -1.
         11    1    3    3    0    0  0.40783919093E+01  0.72306945739E+01 -0.15649499553E+01  0.84477981280E+01  0.51100000000E-03 0. -1.
        -11    1    3    3    0    0 -0.13133641790E+02  0.13460002218E+02 -0.40822797585E+01  0.19243939687E+02  0.51100000000E-03 0.  1.
        -12    1    3    3    0    0 -0.20082925252E+02  0.25765494858E+01 -0.10562809504E+02  0.22837150403E+02  0.00000000000E+00 0.  1.
</event>
<event>
 7    1  0.1381607E-011  0.5052886E+02  0.7816164E-02  0.1300439E+00
        -11   -1    0    0    0    0  0.00000000000E+00  0.00000000000E+00  0.45593999997E+02  0.45594000000E+02  0.51100000000E-03 0. -1.
         11   -1    0    0    0    0 -0.00000000000E+00 -0.00000000000E+00 -0.45593999997E+02  0.45594000000E+02  0.51100000000E-03 0.  1.
    9900012    2    1    2    0    0  0.29214976918E+02  0.25832590811E+02  0.11503393836E+02  0.50528859649E+02  0.29999999391E+02 0.  0.
         12    1    1    2    0    0 -0.29214976918E+02 -0.25832590811E+02 -0.11503393836E+02  0.40659140351E+02  0.00000000000E+00 0. -1.
         11    1    3    3    0    0  0.14201063458E+02  0.57657805774E+01  0.12439390613E+02  0.19739626848E+02  0.51100000000E-03 0. -1.
        -11    1    3    3    0    0  0.13336181490E+02  0.75221398761E+01 -0.69045698417E+01  0.16796112944E+02  0.51100000000E-03 0.  1.
         12    1    3    3    0    0  0.16777319694E+01  0.12544670357E+02  0.59685730640E+01  0.13993119858E+02  0.00000000000E+00 0. -1.
</event>
<event>
 7    1  0.1381607E-011  0.5052882E+02  0.7816164E-02  0.1300439E+00
        -11   -1    0    0    0    0  0.00000000000E+00  0.00000000000E+00  0.45593999997E+02  0.45594000000E+02  0.51100000000E-03 0. -1.
         11   -1    0    0    0    0 -0.00000000000E+00 -0.00000000000E+00 -0.45593999997E+02  0.45594000000E+02  0.51100000000E-03 0.  1.
    9900012    2    1    2    0    0  0.40640640597E+02 -0.12259368038E+01 -0.63377132645E-01  0.50528823842E+02  0.29999890551E+02 0.  0.
         12    1    1    2    0    0 -0.40640640597E+02  0.12259368038E+01  0.63377132645E-01  0.40659176158E+02  0.00000000000E+00 0. -1.
         11    1    3    3    0    0 -0.16688589886E+01  0.45523619878E+01 -0.18965586328E+01  0.52063446774E+01  0.51100000000E-03 0. -1.
        -11    1    3    3    0    0  0.21687274659E+02  0.43805766372E+01  0.28689082256E+01  0.22310490099E+02  0.51100000000E-03 0.  1.
        -12    1    3    3    0    0  0.20622224927E+02 -0.10158875429E+02 -0.10357267255E+01  0.23011989066E+02  0.00000000000E+00 0.  1.
</event>
<event>
 7    1  0.1381607E-011  0.5052879E+02  0.7816164E-02  0.1300439E+00
        -11   -1    0    0    0    0  0.00000000000E+00  0.00000000000E+00  0.45593999997E+02  0.45594000000E+02  0.51100000000E-03 0.  1.
         11   -1    0    0    0    0 -0.00000000000E+00 -0.00000000000E+00 -0.45593999997E+02  0.45594000000E+02  0.51100000000E-03 0. -1.
    9900012    2    1    2    0    0 -0.30915975206E+02 -0.24944948179E+02  0.86673802816E+01  0.50528788946E+02  0.29999784480E+02 0.  0.
         12    1    1    2    0    0  0.30915975206E+02  0.24944948179E+02 -0.86673802816E+01  0.40659211054E+02  0.00000000000E+00 0. -1.
         11    1    3    3    0    0  0.22931147840E+01 -0.96170907791E+01 -0.19178641694E+01  0.10070998645E+02  0.51100000000E-03 0. -1.
        -11    1    3    3    0    0 -0.15109353265E+02 -0.10167655443E+02 -0.12001291363E+01  0.18251413192E+02  0.51100000000E-03 0.  1.
        -12    1    3    3    0    0 -0.18099736725E+02 -0.51602019561E+01  0.11785373587E+02  0.22206377110E+02  0.00000000000E+00 0.  1.
</event>
<event>
 7    1  0.1381607E-011  0.5052886E+02  0.7816164E-02  0.1300439E+00
        -11   -1    0    0    0    0  0.00000000000E+00  0.00000000000E+00  0.45593999997E+02  0.45594000000E+02  0.51100000000E-03 0. -1.
         11   -1    0    0    0    0 -0.00000000000E+00 -0.00000000000E+00 -0.45593999997E+02  0.45594000000E+02  0.51100000000E-03 0.  1.
    9900012    2    1    2    0    0  0.27961097999E+02 -0.20196508897E+02 -0.21527742123E+02  0.50528860143E+02  0.30000000891E+02 0.  0.
         12    1    1    2    0    0 -0.27961097999E+02  0.20196508897E+02  0.21527742123E+02  0.40659139857E+02  0.00000000000E+00 0. -1.
         11    1    3    3    0    0 -0.15996870463E+01 -0.76782804958E+01  0.82824756490E+00  0.78867600640E+01  0.51100000000E-03 0. -1.
        -11    1    3    3    0    0  0.98694876343E+01 -0.13286269486E+02 -0.90415793477E+01  0.18859530757E+02  0.51100000000E-03 0.  1.
         12    1    3    3    0    0  0.19691297411E+02  0.76804108418E+00 -0.13314410341E+02  0.23782569322E+02  0.00000000000E+00 0. -1.
</event>
<event>
 7    1  0.1381607E-011  0.5052884E+02  0.7816164E-02  0.1300439E+00
        -11   -1    0    0    0    0  0.00000000000E+00  0.00000000000E+00  0.45593999997E+02  0.45594000000E+02  0.51100000000E-03 0.  1.
         11   -1    0    0    0    0 -0.00000000000E+00 -0.00000000000E+00 -0.45593999997E+02  0.45594000000E+02  0.51100000000E-03 0. -1.
    9900012    2    1    2    0    0 -0.39542345496E+02  0.65806525588E+01 -0.68018506685E+01  0.50528840541E+02  0.29999941308E+02 0.  0.
         12    1    1    2    0    0  0.39542345496E+02 -0.65806525588E+01  0.68018506685E+01  0.40659159459E+02  0.00000000000E+00 0. -1.
         11    1    3    3    0    0 -0.10360794608E+02  0.13928476580E+02  0.26652350791E+01  0.17562801685E+02  0.51100000000E-03 0. -1.
        -11    1    3    3    0    0 -0.70258923251E+01 -0.25674329196E+01 -0.68626304665E+01  0.10151382760E+02  0.51100000000E-03 0.  1.
        -12    1    3    3    0    0 -0.22155658563E+02 -0.47803911018E+01 -0.26044552812E+01  0.22814656095E+02  0.00000000000E+00 0.  1.
</event>
<event>
 7    1  0.1381607E-011  0.5052886E+02  0.7816164E-02  0.1300439E+00
        -11   -1    0    0    0    0  0.00000000000E+00  0.00000000000E+00  0.45593999997E+02  0.45594000000E+02  0.51100000000E-03 0. -1.
         11   -1    0    0    0    0 -0.00000000000E+00 -0.00000000000E+00 -0.45593999997E+02  0.45594000000E+02  0.51100000000E-03 0.  1.
    9900012    2    1    2    0    0 -0.39152311560E+02  0.10813598689E+02 -0.18244122257E+01  0.50528857153E+02  0.29999991802E+02 0.  0.
         12    1    1    2    0    0  0.39152311560E+02 -0.10813598689E+02  0.18244122257E+01  0.40659142847E+02  0.00000000000E+00 0. -1.
         11    1    3    3    0    0 -0.13660528440E+02  0.14679898698E+01 -0.73497022014E+01  0.15581500384E+02  0.51100000000E-03 0. -1.
        -11    1    3    3    0    0 -0.28136570430E+02  0.45095332055E+01  0.67870024127E+01  0.29292761688E+02  0.51100000000E-03 0.  1.
         12    1    3    3    0    0  0.26447873096E+01  0.48360756142E+01 -0.12617124370E+01  0.56545950812E+01  0.00000000000E+00 0. -1.
</event>
<event>
 7    1  0.1381607E-011  0.5052886E+02  0.7816164E-02  0.1300439E+00
        -11   -1    0    0    0    0  0.00000000000E+00  0.00000000000E+00  0.45593999997E+02  0.45594000000E+02  0.51100000000E-03 0.  1.
         11   -1    0    0    0    0 -0.00000000000E+00 -0.00000000000E+00 -0.45593999997E+02  0.45594000000E+02  0.51100000000E-03 0. -1.
    9900012    2    1    2    0    0 -0.28984712910E+01  0.42571907759E+01  0.40331633985E+02  0.50528861925E+02  0.30000006307E+02 0.  0.
         12    1    1    2    0    0  0.28984712910E+01 -0.42571907759E+01 -0.40331633985E+02  0.40659138075E+02  0.00000000000E+00 0. -1.
         11    1    3    3    0    0  0.76455946426E+01 -0.12935883342E+01  0.39469062941E+01  0.87009515441E+01  0.51100000000E-03 0. -1.
        -11    1    3    3    0    0  0.43969179944E+01  0.26072377356E+01  0.63378088912E+01  0.81423828369E+01  0.51100000000E-03 0.  1.
         12    1    3    3    0    0 -0.14940983928E+02  0.29435413745E+01  0.30046918800E+02  0.33685527544E+02  0.00000000000E+00 0. -1.
</event>
<event>
 7    1  0.1381607E-011  0.5052886E+02  0.7816164E-02  0.1300439E+00
        -11   -1    0    0    0    0  0.00000000000E+00  0.00000000000E+00  0.45593999997E+02  0.45594000000E+02  0.51100000000E-03 0.  1.
         11   -1    0    0    0    0 -0.00000000000E+00 -0.00000000000E+00 -0.45593999997E+02  0.45594000000E+02  0.51100000000E-03 0. -1.
    9900012    2    1    2    0    0  0.11836101552E+02 -0.38345813314E+02 -0.65322926706E+01  0.50528861468E+02  0.30000004917E+02 0.  0.
         12    1    1    2    0    0 -0.11836101552E+02  0.38345813314E+02  0.65322926706E+01  0.40659138532E+02  0.00000000000E+00 0. -1.
         11    1    3    3    0    0 -0.57226910564E+00  0.18696972860E+01 -0.22965130825E+01  0.30161618772E+01  0.51100000000E-03 0. -1.
        -11    1    3    3    0    0  0.12968126094E+02 -0.15919924457E+02 -0.95356769874E+01  0.22639466093E+02  0.51100000000E-03 0.  1.
        -12    1    3    3    0    0 -0.55975543565E+00 -0.24295586143E+02  0.52998973992E+01  0.24873233497E+02  0.00000000000E+00 0.  1.
</event>
<event>
 7    1  0.1381607E-011  0.5052886E+02  0.7816164E-02  0.1300439E+00
        -11   -1    0    0    0    0  0.00000000000E+00  0.00000000000E+00  0.45593999997E+02  0.45594000000E+02  0.51100000000E-03 0. -1.
         11   -1    0    0    0    0 -0.00000000000E+00 -0.00000000000E+00 -0.45593999997E+02  0.45594000000E+02  0.51100000000E-03 0.  1.
    9900012    2    1    2    0    0 -0.28614233364E+02  0.53734524882E+01 -0.28381641697E+02  0.50528856772E+02  0.29999990644E+02 0.  0.
         12    1    1    2    0    0  0.28614233364E+02 -0.53734524882E+01  0.28381641697E+02  0.40659143228E+02  0.00000000000E+00 0. -1.
         11    1    3    3    0    0  0.54282976232E+00  0.60235198096E+01 -0.64955338313E+01  0.88752135221E+01  0.51100000000E-03 0. -1.
        -11    1    3    3    0    0 -0.17680660907E+02  0.39240856750E+01 -0.19711298842E+01  0.18217836638E+02  0.51100000000E-03 0.  1.
        -12    1    3    3    0    0 -0.11476402219E+02 -0.45741529964E+01 -0.19914977982E+02  0.23435806611E+02  0.00000000000E+00 0.  1.
</event>
<event>
 7    1  0.1381607E-011  0.5052886E+02  0.7816164E-02  0.1300439E+00
        -11   -1    0    0    0    0  0.00000000000E+00  0.00000000000E+00  0.45593999997E+02  0.45594000000E+02  0.51100000000E-03 0.  1.
         11   -1    0    0    0    0 -0.00000000000E+00 -0.00000000000E+00 -0.45593999997E+02  0.45594000000E+02  0.51100000000E-03 0. -1.
    9900012    2    1    2    0    0 -0.16063814019E+02  0.32776058258E+02  0.17912269575E+02  0.50528861826E+02  0.30000006005E+02 0.  0.
         12    1    1    2    0    0  0.16063814019E+02 -0.32776058258E+02 -0.17912269575E+02  0.40659138174E+02  0.00000000000E+00 0. -1.
         11    1    3    3    0    0 -0.15815291017E+02  0.14757916791E+02  0.11405927403E+02  0.24454339454E+02  0.51100000000E-03 0. -1.
        -11    1    3    3    0    0 -0.82325937793E+01  0.14141405429E+02  0.45849450947E+01  0.16993430190E+02  0.51100000000E-03 0.  1.
         12    1    3    3    0    0  0.79840707773E+01  0.38767360381E+01  0.19213970772E+01  0.90810921818E+01  0.00000000000E+00 0. -1.
</event>
<event>
 7    1  0.1381607E-011  0.5052888E+02  0.7816164E-02  0.1300439E+00
        -11   -1    0    0    0    0  0.00000000000E+00  0.00000000000E+00  0.45593999997E+02  0.45594000000E+02  0.51100000000E-03 0.  1.
         11   -1    0    0    0    0 -0.00000000000E+00 -0.00000000000E+00 -0.45593999997E+02  0.45594000000E+02  0.51100000000E-03 0. -1.
    9900012    2    1    2    0    0  0.34134973477E+02  0.21550916758E+02  0.48503152192E+01  0.50528880665E+02  0.30000063269E+02 0.  0.
         12    1    1    2    0    0 -0.34134973477E+02 -0.21550916758E+02 -0.48503152192E+01  0.40659119335E+02  0.00000000000E+00 0. -1.
         11    1    3    3    0    0  0.87266166397E+01 -0.24136052288E+01  0.68512878240E+01  0.11354271147E+02  0.51100000000E-03 0. -1.
        -11    1    3    3    0    0  0.15429030737E+02  0.11830307939E+02  0.74720850336E+01  0.20828903726E+02  0.51100000000E-03 0.  1.
         12    1    3    3    0    0  0.99793261003E+01  0.12134214048E+02 -0.94730576385E+01  0.18345705792E+02  0.00000000000E+00 0. -1.
</event>
<event>
 7    1  0.1381607E-011  0.5052887E+02  0.7816164E-02  0.1300439E+00
        -11   -1    0    0    0    0  0.00000000000E+00  0.00000000000E+00  0.45593999997E+02  0.45594000000E+02  0.51100000000E-03 0.  1.
         11   -1    0    0    0    0 -0.00000000000E+00 -0.00000000000E+00 -0.45593999997E+02  0.45594000000E+02  0.51100000000E-03 0. -1.
    9900012    2    1    2    0    0 -0.17095282080E+02  0.26823541906E+02  0.25326147985E+02  0.50528870134E+02  0.30000031258E+02 0.  0.
         12    1    1    2    0    0  0.17095282080E+02 -0.26823541906E+02 -0.25326147985E+02  0.40659129866E+02  0.00000000000E+00 0. -1.
         11    1    3    3    0    0 -0.67627287316E+00 -0.13822561947E+01  0.26886417498E+01  0.30978657018E+01  0.51100000000E-03 0. -1.
        -11    1    3    3    0    0 -0.12391595443E+02  0.19746807507E+02  0.28158337293E+02  0.36556531615E+02  0.51100000000E-03 0.  1.
         12    1    3    3    0    0 -0.40274137632E+01  0.84589905930E+01 -0.55208310580E+01  0.10874472817E+02  0.00000000000E+00 0. -1.
</event>
<event>
 7    1  0.1381607E-011  0.5052887E+02  0.7816164E-02  0.1300439E+00
        -11   -1    0    0    0    0  0.00000000000E+00  0.00000000000E+00  0.45593999997E+02  0.45594000000E+02  0.51100000000E-03 0.  1.
         11   -1    0    0    0    0 -0.00000000000E+00 -0.00000000000E+00 -0.45593999997E+02  0.45594000000E+02  0.51100000000E-03 0. -1.
    9900012    2    1    2    0    0 -0.24323780875E+02  0.23052350313E+02  0.23024074870E+02  0.50528865791E+02  0.30000018058E+02 0.  0.
         12    1    1    2    0    0  0.24323780875E+02 -0.23052350313E+02 -0.23024074870E+02  0.40659134209E+02  0.00000000000E+00 0. -1.
         11    1    3    3    0    0 -0.17606435472E+02 -0.81674594912E-01  0.13054448592E+02  0.21918299867E+02  0.51100000000E-03 0. -1.
        -11    1    3    3    0    0 -0.24416207845E+01  0.10565054440E+02 -0.16490097426E+01  0.10968186758E+02  0.51100000000E-03 0.  1.
        -12    1    3    3    0    0 -0.42757246190E+01  0.12568970468E+02  0.11618636021E+02  0.17642379166E+02  0.00000000000E+00 0.  1.
</event>
<event>
 7    1  0.1381607E-011  0.5052887E+02  0.7816164E-02  0.1300439E+00
        -11   -1    0    0    0    0  0.00000000000E+00  0.00000000000E+00  0.45593999997E+02  0.45594000000E+02  0.51100000000E-03 0. -1.
         11   -1    0    0    0    0 -0.00000000000E+00 -0.00000000000E+00 -0.45593999997E+02  0.45594000000E+02  0.51100000000E-03 0.  1.
    9900012    2    1    2    0    0 -0.25915831400E+02  0.30841668243E+02 -0.55069077992E+01  0.50528870020E+02  0.30000030913E+02 0.  0.
         12    1    1    2    0    0  0.25915831400E+02 -0.30841668243E+02  0.55069077992E+01  0.40659129980E+02  0.00000000000E+00 0. -1.
         11    1    3    3    0    0 -0.64434408055E+01 -0.11764163558E+00 -0.99919351230E+01  0.11889934261E+02  0.51100000000E-03 0. -1.
        -11    1    3    3    0    0 -0.72549391849E+01  0.11143417457E+02 -0.39613336796E+01  0.13874511162E+02  0.51100000000E-03 0.  1.
         12    1    3    3    0    0 -0.12217451410E+02  0.19815892421E+02  0.84463610035E+01  0.24764424597E+02  0.00000000000E+00 0. -1.
</event>
<event>
 7    1  0.1381607E-011  0.5052885E+02  0.7816164E-02  0.1300439E+00
        -11   -1    0    0    0    0  0.00000000000E+00  0.00000000000E+00  0.45593999997E+02  0.45594000000E+02  0.51100000000E-03 0.  1.
         11   -1    0    0    0    0 -0.00000000000E+00 -0.00000000000E+00 -0.45593999997E+02  0.45594000000E+02  0.51100000000E-03 0. -1.
    9900012    2    1    2    0    0 -0.38570131037E+02 -0.10049119532E+02  0.80328261021E+01  0.50528854574E+02  0.29999983962E+02 0.  0.
         12    1    1    2    0    0  0.38570131037E+02  0.10049119532E+02 -0.80328261021E+01  0.40659145426E+02  0.00000000000E+00 0. -1.
         11    1    3    3    0    0 -0.12417136312E+02 -0.11292512060E+02 -0.39530708757E+01  0.17243342844E+02  0.51100000000E-03 0. -1.
        -11    1    3    3    0    0  0.16596487120E+01  0.24041421047E+01 -0.13447809053E+00  0.29244516965E+01  0.51100000000E-03 0.  1.
        -12    1    3    3    0    0 -0.27812643437E+02 -0.11607495763E+01  0.12120375068E+02  0.30361060033E+02  0.00000000000E+00 0.  1.
</event>
<event>
 7    1  0.1381607E-011  0.5052886E+02  0.7816164E-02  0.1300439E+00
        -11   -1    0    0    0    0  0.00000000000E+00  0.00000000000E+00  0.45593999997E+02  0.45594000000E+02  0.51100000000E-03 0.  1.
         11   -1    0    0    0    0 -0.00000000000E+00 -0.00000000000E+00 -0.45593999997E+02  0.45594000000E+02  0.51100000000E-03 0. -1.
    9900012    2    1    2    0    0 -0.21592584295E+02 -0.50068545781E+01  0.34086025949E+02  0.50528862598E+02  0.30000008352E+02 0.  0.
         12    1    1    2    0    0  0.21592584295E+02  0.50068545781E+01 -0.34086025949E+02  0.40659137402E+02  0.00000000000E+00 0. -1.
         11    1    3    3    0    0 -0.23769631418E+01 -0.27542175111E+01 -0.37389459820E+01  0.52168367037E+01  0.51100000000E-03 0. -1.
        -11    1    3    3    0    0 -0.96984660989E+01 -0.89837212006E+01  0.18376269026E+02  0.22637463526E+02  0.51100000000E-03 0.  1.
        -12    1    3    3    0    0 -0.95171550543E+01  0.67310841335E+01  0.19448702905E+02  0.22674562369E+02  0.00000000000E+00 0.  1.
</event>
<event>
 7    1  0.1381607E-011  0.5052882E+02  0.7816164E-02  0.1300439E+00
        -11   -1    0    0    0    0  0.00000000000E+00  0.00000000000E+00  0.45593999997E+02  0.45594000000E+02  0.51100000000E-03 0.  1.
         11   -1    0    0    0    0 -0.00000000000E+00 -0.00000000000E+00 -0.45593999997E+02  0.45594000000E+02  0.51100000000E-03 0. -1.
    9900012    2    1    2    0    0 -0.25052414355E+02 -0.29662382700E+02  0.12070164531E+02  0.50528815499E+02  0.29999865192E+02 0.  0.
         12    1    1    2    0    0  0.25052414355E+02  0.29662382700E+02 -0.12070164531E+02  0.40659184501E+02  0.00000000000E+00 0. -1.
         11    1    3    3    0    0 -0.22169615738E+02 -0.16139642134E+02  0.98775559378E+01  0.29146972772E+02  0.51100000000E-03 0. -1.
        -11    1    3    3    0    0 -0.37651352598E+01 -0.65197732113E+00  0.67025619262E+01  0.77152870710E+01  0.51100000000E-03 0.  1.
        -12    1    3    3    0    0  0.88233664278E+00 -0.12870763244E+02 -0.45099533331E+01  0.13666555656E+02  0.00000000000E+00 0.  1.
</event>
<event>
 7    1  0.1381607E-011  0.5052889E+02  0.7816164E-02  0.1300439E+00
        -11   -1    0    0    0    0  0.00000000000E+00  0.00000000000E+00  0.45593999997E+02  0.45594000000E+02  0.51100000000E-03 0.  1.
         11   -1    0    0    0    0 -0.00000000000E+00 -0.00000000000E+00 -0.45593999997E+02  0.45594000000E+02  0.51100000000E-03 0. -1.
    9900012    2    1    2    0    0  0.89719979940E+01  0.40450082323E+01  0.39450022006E+02  0.50528891846E+02  0.30000097254E+02 0.  0.
         12    1    1    2    0    0 -0.89719979940E+01 -0.40450082323E+01 -0.39450022006E+02  0.40659108154E+02  0.00000000000E+00 0. -1.
         11    1    3    3    0    0  0.21587359163E+01 -0.27803833653E+01  0.37292117789E+00  0.35397376852E+01  0.51100000000E-03 0. -1.
        -11    1    3    3    0    0  0.15149515275E+01 -0.62901753305E+01  0.28765921646E+02  0.29484566000E+02  0.51100000000E-03 0.  1.
        -12    1    3    3    0    0  0.52983105502E+01  0.13115566928E+02  0.10311179183E+02  0.17504588160E+02  0.00000000000E+00 0.  1.
</event>
<event>
 7    1  0.1381607E-011  0.5052889E+02  0.7816164E-02  0.1300439E+00
        -11   -1    0    0    0    0  0.00000000000E+00  0.00000000000E+00  0.45593999997E+02  0.45594000000E+02  0.51100000000E-03 0.  1.
         11   -1    0    0    0    0 -0.00000000000E+00 -0.00000000000E+00 -0.45593999997E+02  0.45594000000E+02  0.51100000000E-03 0. -1.
    9900012    2    1    2    0    0  0.23558213061E+02  0.69734755852E+01  0.32396669215E+02  0.50528893510E+02  0.30000102313E+02 0.  0.
         12    1    1    2    0    0 -0.23558213061E+02 -0.69734755852E+01 -0.32396669215E+02  0.40659106490E+02  0.00000000000E+00 0. -1.
         11    1    3    3    0    0 -0.23438886083E+01  0.13655763731E+01  0.14218765372E+02  0.14475216807E+02  0.51100000000E-03 0. -1.
        -11    1    3    3    0    0  0.77208263316E+01  0.86483174818E+01  0.11814371289E+02  0.16552459748E+02  0.51100000000E-03 0.  1.
         12    1    3    3    0    0  0.18181275338E+02 -0.30404182697E+01  0.63635325538E+01  0.19501216955E+02  0.00000000000E+00 0. -1.
</event>
<event>
 7    1  0.1381607E-011  0.5052886E+02  0.7816164E-02  0.1300439E+00
        -11   -1    0    0    0    0  0.00000000000E+00  0.00000000000E+00  0.45593999997E+02  0.45594000000E+02  0.51100000000E-03 0.  1.
         11   -1    0    0    0    0 -0.00000000000E+00 -0.00000000000E+00 -0.45593999997E+02  0.45594000000E+02  0.51100000000E-03 0. -1.
    9900012    2    1    2    0    0  0.37598118770E+02  0.15097875984E+02  0.34061206019E+01  0.50528855250E+02  0.29999986018E+02 0.  0.
         12    1    1    2    0    0 -0.37598118770E+02 -0.15097875984E+02 -0.34061206019E+01  0.40659144750E+02  0.00000000000E+00 0. -1.
         11    1    3    3    0    0  0.89097103824E+01  0.90775933943E+01  0.61015635406E+01  0.14107257665E+02  0.51100000000E-03 0. -1.
        -11    1    3    3    0    0  0.16571795896E+01  0.65024385890E+01 -0.62294239128E+01  0.91560730853E+01  0.51100000000E-03 0.  1.
        -12    1    3    3    0    0  0.27031228798E+02 -0.48215599934E+00  0.35339809741E+01  0.27265524500E+02  0.00000000000E+00 0.  1.
</event>
<event>
 7    1  0.1381607E-011  0.5052886E+02  0.7816164E-02  0.1300439E+00
        -11   -1    0    0    0    0  0.00000000000E+00  0.00000000000E+00  0.45593999997E+02  0.45594000000E+02  0.51100000000E-03 0.  1.
         11   -1    0    0    0    0 -0.00000000000E+00 -0.00000000000E+00 -0.45593999997E+02  0.45594000000E+02  0.51100000000E-03 0. -1.
    9900012    2    1    2    0    0 -0.28073723880E+02  0.14786493726E+01  0.29374227029E+02  0.50528860929E+02  0.30000003280E+02 0.  0.
         12    1    1    2    0    0  0.28073723880E+02 -0.14786493726E+01 -0.29374227029E+02  0.40659139071E+02  0.00000000000E+00 0. -1.
         11    1    3    3    0    0 -0.32156375260E+01  0.53519556282E+01 -0.29929262115E+01  0.69239700544E+01  0.51100000000E-03 0. -1.
        -11    1    3    3    0    0 -0.20295246629E+02 -0.32765125384E+01  0.14506359412E+02  0.25160823393E+02  0.51100000000E-03 0.  1.
         12    1    3    3    0    0 -0.45628397249E+01 -0.59679371725E+00  0.17860793828E+02  0.18444067482E+02  0.00000000000E+00 0. -1.
</event>
<event>
 7    1  0.1381607E-011  0.5052886E+02  0.7816164E-02  0.1300439E+00
        -11   -1    0    0    0    0  0.00000000000E+00  0.00000000000E+00  0.45593999997E+02  0.45594000000E+02  0.51100000000E-03 0.  1.
         11   -1    0    0    0    0 -0.00000000000E+00 -0.00000000000E+00 -0.45593999997E+02  0.45594000000E+02  0.51100000000E-03 0. -1.
    9900012    2    1    2    0    0  0.29439510650E+02 -0.11221006496E+02  0.25701551795E+02  0.50528861559E+02  0.30000005194E+02 0.  0.
         12    1    1    2    0    0 -0.29439510650E+02  0.11221006496E+02 -0.25701551795E+02  0.40659138441E+02  0.00000000000E+00 0. -1.
         11    1    3    3    0    0  0.21981361035E+02 -0.14984002860E+02  0.11271880973E+02  0.28892142109E+02  0.51100000000E-03 0. -1.
        -11    1    3    3    0    0  0.11503399556E+02  0.18777839468E+01  0.10642833876E+02  0.15783668365E+02  0.51100000000E-03 0.  1.
         12    1    3    3    0    0 -0.40452499410E+01  0.18852124180E+01  0.37868369466E+01  0.58530510852E+01  0.00000000000E+00 0. -1.
</event>
<event>
 7    1  0.1381607E-011  0.5052886E+02  0.7816164E-02  0.1300439E+00
        -11   -1    0    0    0    0  0.00000000000E+00  0.00000000000E+00  0.45593999997E+02  0.45594000000E+02  0.51100000000E-03 0. -1.
         11   -1    0    0    0    0 -0.00000000000E+00 -0.00000000000E+00 -0.45593999997E+02  0.45594000000E+02  0.51100000000E-03 0.  1.
    9900012    2    1    2    0    0 -0.36965161151E+02 -0.15093773432E+02 -0.76759573614E+01  0.50528862568E+02  0.30000008261E+02 0.  0.
         12    1    1    2    0    0  0.36965161151E+02  0.15093773432E+02  0.76759573614E+01  0.40659137432E+02  0.00000000000E+00 0. -1.
         11    1    3    3    0    0 -0.14591304084E+02 -0.16429396916E+02 -0.32847214573E+00  0.21975876140E+02  0.51100000000E-03 0. -1.
        -11    1    3    3    0    0 -0.27854531704E+01  0.32212075252E+01  0.39951525395E+01  0.58391926976E+01  0.51100000000E-03 0.  1.
        -12    1    3    3    0    0 -0.19588403896E+02 -0.18855840410E+01 -0.11342637755E+02  0.22713793730E+02  0.00000000000E+00 0.  1.
</event>
<event>
 7    1  0.1381607E-011  0.5052885E+02  0.7816164E-02  0.1300439E+00
        -11   -1    0    0    0    0  0.00000000000E+00  0.00000000000E+00  0.45593999997E+02  0.45594000000E+02  0.51100000000E-03 0. -1.
         11   -1    0    0    0    0 -0.00000000000E+00 -0.00000000000E+00 -0.45593999997E+02  0.45594000000E+02  0.51100000000E-03 0.  1.
    9900012    2    1    2    0    0 -0.40272722507E+02 -0.13131620883E+01  0.54359862727E+01  0.50528849498E+02  0.29999968534E+02 0.  0.
         12    1    1    2    0    0  0.40272722507E+02  0.13131620883E+01 -0.54359862727E+01  0.40659150502E+02  0.00000000000E+00 0. -1.
         11    1    3    3    0    0 -0.62784423535E+01 -0.55996693455E+01  0.35530743706E+01  0.91323311870E+01  0.51100000000E-03 0. -1.
        -11    1    3    3    0    0 -0.11778606399E+02 -0.52600205208E+00 -0.10256469867E+02  0.15627137334E+02  0.51100000000E-03 0.  1.
         12    1    3    3    0    0 -0.22215673755E+02  0.48125093093E+01  0.12139381769E+02  0.25769380977E+02  0.00000000000E+00 0. -1.
</event>
<event>
 7    1  0.1381607E-011  0.5052886E+02  0.7816164E-02  0.1300439E+00
        -11   -1    0    0    0    0  0.00000000000E+00  0.00000000000E+00  0.45593999997E+02  0.45594000000E+02  0.51100000000E-03 0.  1.
         11   -1    0    0    0    0 -0.00000000000E+00 -0.00000000000E+00 -0.45593999997E+02  0.45594000000E+02  0.51100000000E-03 0. -1.
    9900012    2    1    2    0    0 -0.34824217191E+02  0.16371023400E+02 -0.13131224440E+02  0.50528861231E+02  0.30000004198E+02 0.  0.
         12    1    1    2    0    0  0.34824217191E+02 -0.16371023400E+02  0.13131224440E+02  0.40659138769E+02  0.00000000000E+00 0. -1.
         11    1    3    3    0    0 -0.15178373096E+02  0.43791911484E+01 -0.12352564974E+02  0.20053582888E+02  0.51100000000E-03 0. -1.
        -11    1    3    3    0    0 -0.94629613110E+01  0.13848125721E+02 -0.72453572923E+01  0.18270561713E+02  0.51100000000E-03 0.  1.
        -12    1    3    3    0    0 -0.10182882784E+02 -0.18562934688E+01  0.64666978267E+01  0.12204716630E+02  0.00000000000E+00 0.  1.
</event>
<event>
 7    1  0.1381607E-011  0.5052886E+02  0.7816164E-02  0.1300439E+00
        -11   -1    0    0    0    0  0.00000000000E+00  0.00000000000E+00  0.45593999997E+02  0.45594000000E+02  0.51100000000E-03 0.  1.
         11   -1    0    0    0    0 -0.00000000000E+00 -0.00000000000E+00 -0.45593999997E+02  0.45594000000E+02  0.51100000000E-03 0. -1.
    9900012    2    1    2    0    0 -0.32432084736E+02 -0.22455549790E+02  0.98526197867E+01  0.50528856461E+02  0.29999989698E+02 0.  0.
         12    1    1    2    0    0  0.32432084736E+02  0.22455549790E+02 -0.98526197867E+01  0.40659143539E+02  0.00000000000E+00 0. -1.
         11    1    3    3    0    0 -0.22651641235E+02 -0.14222772721E+02  0.12540630081E+01  0.26776048790E+02  0.51100000000E-03 0. -1.
        -11    1    3    3    0    0 -0.54814732030E+01 -0.12886152831E+02  0.10070780293E+02  0.17248770948E+02  0.51100000000E-03 0.  1.
         12    1    3    3    0    0 -0.42989702982E+01  0.46533757623E+01 -0.14722235146E+01  0.65040367224E+01  0.00000000000E+00 0. -1.
</event>
<event>
 7    1  0.1381607E-011  0.5052885E+02  0.7816164E-02  0.1300439E+00
        -11   -1    0    0    0    0  0.00000000000E+00  0.00000000000E+00  0.45593999997E+02  0.45594000000E+02  0.51100000000E-03 0.  1.
         11   -1    0    0    0    0 -0.00000000000E+00 -0.00000000000E+00 -0.45593999997E+02  0.45594000000E+02  0.51100000000E-03 0. -1.
    9900012    2    1    2    0    0 -0.15793525800E+02  0.36151336249E+02  0.98392850688E+01  0.50528854652E+02  0.29999984201E+02 0.  0.
         12    1    1    2    0    0  0.15793525800E+02 -0.36151336249E+02 -0.98392850688E+01  0.40659145348E+02  0.00000000000E+00 0. -1.
         11    1    3    3    0    0 -0.13239358144E+02  0.24510800330E+02 -0.23924678294E+01  0.27960397699E+02  0.51100000000E-03 0. -1.
        -11    1    3    3    0    0  0.54285279300E+01  0.63606982979E+01  0.20812418792E+01  0.86173642342E+01  0.51100000000E-03 0.  1.
        -12    1    3    3    0    0 -0.79826955856E+01  0.52798376204E+01  0.10150511019E+02  0.13951092719E+02  0.00000000000E+00 0.  1.
</event>
<event>
 7    1  0.1381607E-011  0.5052886E+02  0.7816164E-02  0.1300439E+00
        -11   -1    0    0    0    0  0.00000000000E+00  0.00000000000E+00  0.45593999997E+02  0.45594000000E+02  0.51100000000E-03 0. -1.
         11   -1    0    0    0    0 -0.00000000000E+00 -0.00000000000E+00 -0.45593999997E+02  0.45594000000E+02  0.51100000000E-03 0.  1.
    9900012    2    1    2    0    0 -0.31571190389E+02 -0.25611761520E+02 -0.68049749283E+00  0.50528862434E+02  0.30000007855E+02 0.  0.
         12    1    1    2    0    0  0.31571190389E+02  0.25611761520E+02  0.68049749283E+00  0.40659137566E+02  0.00000000000E+00 0. -1.
         11    1    3    3    0    0  0.18683840514E+01 -0.26902649160E+01  0.55766144806E+01  0.64673807379E+01  0.51100000000E-03 0. -1.
        -11    1    3    3    0    0 -0.95196195474E+01 -0.15167442010E+01 -0.70668139944E+01  0.11952553267E+02  0.51100000000E-03 0.  1.
        -12    1    3    3    0    0 -0.23919954893E+02 -0.21404752403E+02  0.80970202096E+00  0.32108928430E+02  0.00000000000E+00 0.  1.
</event>
<event>
 7    1  0.1381607E-011  0.5052886E+02  0.7816164E-02  0.1300439E+00
        -11   -1    0    0    0    0  0.00000000000E+00  0.00000000000E+00  0.45593999997E+02  0.45594000000E+02  0.51100000000E-03 0.  1.
         11   -1    0    0    0    0 -0.00000000000E+00 -0.00000000000E+00 -0.45593999997E+02  0.45594000000E+02  0.51100000000E-03 0. -1.
    9900012    2    1    2    0    0 -0.38772647421E+02  0.23061039542E+01 -0.12022047315E+02  0.50528856808E+02  0.29999990753E+02 0.  0.
         12    1    1    2    0    0  0.38772647421E+02 -0.23061039542E+01  0.12022047315E+02  0.40659143192E+02  0.00000000000E+00 0. -1.
         11    1    3    3    0    0  0.10175686110E+01 -0.36941914688E+01 -0.34369463986E+01  0.51473388556E+01  0.51100000000E-03 0. -1.
        -11    1    3    3    0    0 -0.16593381825E+02 -0.68808053744E+01 -0.46734257408E+01  0.18561430748E+02  0.51100000000E-03 0.  1.
        -12    1    3    3    0    0 -0.23196834207E+02  0.12881100797E+02 -0.39116751760E+01  0.26820087204E+02  0.00000000000E+00 0.  1.
</event>
<event>
 7    1  0.1381607E-011  0.5052886E+02  0.7816164E-02  0.1300439E+00
        -11   -1    0    0    0    0  0.00000000000E+00  0.00000000000E+00  0.45593999997E+02  0.45594000000E+02  0.51100000000E-03 0.  1.
         11   -1    0    0    0    0 -0.00000000000E+00 -0.00000000000E+00 -0.45593999997E+02  0.45594000000E+02  0.51100000000E-03 0. -1.
    9900012    2    1    2    0    0 -0.59194589928E+01 -0.16692854718E+02  0.36598830090E+02  0.50528858870E+02  0.29999997022E+02 0.  0.
         12    1    1    2    0    0  0.59194589928E+01  0.16692854718E+02 -0.36598830090E+02  0.40659141130E+02  0.00000000000E+00 0. -1.
         11    1    3    3    0    0 -0.53153430385E+01 -0.78353632503E+01  0.12075956141E+02  0.15345178587E+02  0.51100000000E-03 0. -1.
        -11    1    3    3    0    0 -0.21390763446E+01 -0.11304986717E+01  0.26858120610E+02  0.26966874454E+02  0.51100000000E-03 0.  1.
         12    1    3    3    0    0  0.15349603903E+01 -0.77269927964E+01 -0.23352466607E+01  0.82168058297E+01  0.00000000000E+00 0. -1.
</event>
<event>
 7    1  0.1381607E-011  0.5052886E+02  0.7816164E-02  0.1300439E+00
        -11   -1    0    0    0    0  0.00000000000E+00  0.00000000000E+00  0.45593999997E+02  0.45594000000E+02  0.51100000000E-03 0.  1.
         11   -1    0    0    0    0 -0.00000000000E+00 -0.00000000000E+00 -0.45593999997E+02  0.45594000000E+02  0.51100000000E-03 0. -1.
    9900012    2    1    2    0    0 -0.26140821469E+02  0.14907089887E+02  0.27342313714E+02  0.50528855946E+02  0.29999988133E+02 0.  0.
         12    1    1    2    0    0  0.26140821469E+02 -0.14907089887E+02 -0.27342313714E+02  0.40659144054E+02  0.00000000000E+00 0. -1.
         11    1    3    3    0    0  0.17925850025E+01  0.31501898614E+00  0.11147933629E+02  0.11295531082E+02  0.51100000000E-03 0. -1.
        -11    1    3    3    0    0 -0.21637902411E+02  0.43007499794E+01  0.15849242382E+02  0.27164199887E+02  0.51100000000E-03 0.  1.
         12    1    3    3    0    0 -0.62955040599E+01  0.10291320922E+02  0.34513770275E+00  0.12069124977E+02  0.00000000000E+00 0. -1.
</event>
<event>
 7    1  0.1381607E-011  0.5052884E+02  0.7816164E-02  0.1300439E+00
        -11   -1    0    0    0    0  0.00000000000E+00  0.00000000000E+00  0.45593999997E+02  0.45594000000E+02  0.51100000000E-03 0.  1.
         11   -1    0    0    0    0 -0.00000000000E+00 -0.00000000000E+00 -0.45593999997E+02  0.45594000000E+02  0.51100000000E-03 0. -1.
    9900012    2    1    2    0    0  0.35891573600E+02 -0.49697398475E+01  0.18446253697E+02  0.50528835657E+02  0.29999926463E+02 0.  0.
         12    1    1    2    0    0 -0.35891573600E+02  0.49697398475E+01 -0.18446253697E+02  0.40659164343E+02  0.00000000000E+00 0. -1.
         11    1    3    3    0    0  0.11871131246E+02 -0.39130227504E+01  0.13974032670E+01  0.12577290656E+02  0.51100000000E-03 0. -1.
        -11    1    3    3    0    0  0.27120482618E+02 -0.62354414750E+01  0.13265786977E+02  0.30828272936E+02  0.51100000000E-03 0.  1.
        -12    1    3    3    0    0 -0.31000402640E+01  0.51787243779E+01  0.37830634534E+01  0.71232720651E+01  0.00000000000E+00 0.  1.
</event>
<event>
 7    1  0.1381607E-011  0.5052885E+02  0.7816164E-02  0.1300439E+00
        -11   -1    0    0    0    0  0.00000000000E+00  0.00000000000E+00  0.45593999997E+02  0.45594000000E+02  0.51100000000E-03 0.  1.
         11   -1    0    0    0    0 -0.00000000000E+00 -0.00000000000E+00 -0.45593999997E+02  0.45594000000E+02  0.51100000000E-03 0. -1.
    9900012    2    1    2    0    0 -0.14606406502E+02 -0.13198123874E+02  0.35575673622E+02  0.50528854186E+02  0.29999982783E+02 0.  0.
         12    1    1    2    0    0  0.14606406502E+02  0.13198123874E+02 -0.35575673622E+02  0.40659145814E+02  0.00000000000E+00 0. -1.
         11    1    3    3    0    0 -0.10579970534E+02 -0.46098651377E+01  0.39978001088E+01  0.12213477763E+02  0.51100000000E-03 0. -1.
        -11    1    3    3    0    0  0.48986883311E+00  0.58018629011E+01  0.13947384009E+02  0.15113937460E+02  0.51100000000E-03 0.  1.
        -12    1    3    3    0    0 -0.45163048005E+01 -0.14390121637E+02  0.17630489505E+02  0.23201438963E+02  0.00000000000E+00 0.  1.
</event>
<event>
 7    1  0.1381607E-011  0.5052886E+02  0.7816164E-02  0.1300439E+00
        -11   -1    0    0    0    0  0.00000000000E+00  0.00000000000E+00  0.45593999997E+02  0.45594000000E+02  0.51100000000E-03 0. -1.
         11   -1    0    0    0    0 -0.00000000000E+00 -0.00000000000E+00 -0.45593999997E+02  0.45594000000E+02  0.51100000000E-03 0.  1.
    9900012    2    1    2    0    0  0.34992669405E+02  0.44967901298E+01 -0.20210335271E+02  0.50528859757E+02  0.29999999716E+02 0.  0.
         12    1    1    2    0    0 -0.34992669405E+02 -0.44967901298E+01  0.20210335271E+02  0.40659140243E+02  0.00000000000E+00 0. -1.
         11    1    3    3    0    0  0.23087712737E+01 -0.28166255926E+01 -0.12947684535E+01  0.38652593875E+01  0.51100000000E-03 0. -1.
        -11    1    3    3    0    0  0.14402841832E+02  0.82775537923E+01 -0.22541590339E+02  0.28001482906E+02  0.51100000000E-03 0.  1.
         12    1    3    3    0    0  0.18281056299E+02 -0.96413806990E+00  0.36260235220E+01  0.18662117463E+02  0.00000000000E+00 0. -1.
</event>
<event>
 7    1  0.1381607E-011  0.5052889E+02  0.7816164E-02  0.1300439E+00
        -11   -1    0    0    0    0  0.00000000000E+00  0.00000000000E+00  0.45593999997E+02  0.45594000000E+02  0.51100000000E-03 0.  1.
         11   -1    0    0    0    0 -0.00000000000E+00 -0.00000000000E+00 -0.45593999997E+02  0.45594000000E+02  0.51100000000E-03 0. -1.
    9900012    2    1    2    0    0  0.13512289646E+02 -0.22489805500E+02  0.31061067623E+02  0.50528889769E+02  0.30000090942E+02 0.  0.
         12    1    1    2    0    0 -0.13512289646E+02  0.22489805500E+02 -0.31061067623E+02  0.40659110231E+02  0.00000000000E+00 0. -1.
         11    1    3    3    0    0  0.13871772122E+02 -0.55729494738E+01  0.89667116200E+01  0.17432318984E+02  0.51100000000E-03 0. -1.
        -11    1    3    3    0    0  0.33153986942E+01 -0.15763274667E+02  0.70789159911E+01  0.17594992145E+02  0.51100000000E-03 0.  1.
        -12    1    3    3    0    0 -0.36748811702E+01 -0.11535813598E+01  0.15015440012E+02  0.15501578639E+02  0.00000000000E+00 0.  1.
</event>
<event>
 7    1  0.1381607E-011  0.5052886E+02  0.7816164E-02  0.1300439E+00
        -11   -1    0    0    0    0  0.00000000000E+00  0.00000000000E+00  0.45593999997E+02  0.45594000000E+02  0.51100000000E-03 0.  1.
         11   -1    0    0    0    0 -0.00000000000E+00 -0.00000000000E+00 -0.45593999997E+02  0.45594000000E+02  0.51100000000E-03 0. -1.
    9900012    2    1    2    0    0  0.16130942426E+02  0.16388868937E+02  0.33531529807E+02  0.50528858104E+02  0.29999994693E+02 0.  0.
         12    1    1    2    0    0 -0.16130942426E+02 -0.16388868937E+02 -0.33531529807E+02  0.40659141896E+02  0.00000000000E+00 0. -1.
         11    1    3    3    0    0 -0.54941651106E+01  0.38625104814E+01  0.52280402713E+01  0.85110071567E+01  0.51100000000E-03 0. -1.
        -11    1    3    3    0    0  0.59615544646E+01  0.96117141161E+01  0.23311733653E+01  0.11548140517E+02  0.51100000000E-03 0.  1.
        -12    1    3    3    0    0  0.15663553072E+02  0.29146443390E+01  0.25972316170E+02  0.30469710430E+02  0.00000000000E+00 0.  1.
</event>
<event>
 7    1  0.1381607E-011  0.5052886E+02  0.7816164E-02  0.1300439E+00
        -11   -1    0    0    0    0  0.00000000000E+00  0.00000000000E+00  0.45593999997E+02  0.45594000000E+02  0.51100000000E-03 0.  1.
         11   -1    0    0    0    0 -0.00000000000E+00 -0.00000000000E+00 -0.45593999997E+02  0.45594000000E+02  0.51100000000E-03 0. -1.
    9900012    2    1    2    0    0  0.18080455037E+02 -0.25090205208E+00  0.36417024603E+02  0.50528862194E+02  0.30000007126E+02 0.  0.
         12    1    1    2    0    0 -0.18080455037E+02  0.25090205208E+00 -0.36417024603E+02  0.40659137806E+02  0.00000000000E+00 0. -1.
         11    1    3    3    0    0  0.42438428091E+01 -0.20652430167E+01  0.22459379884E-01  0.47197388902E+01  0.51100000000E-03 0. -1.
        -11    1    3    3    0    0  0.93837274423E+01 -0.37565088981E+01  0.15302944623E+01  0.10222891040E+02  0.51100000000E-03 0.  1.
         12    1    3    3    0    0  0.44528847859E+01  0.55708498628E+01  0.34864270760E+02  0.35586232264E+02  0.00000000000E+00 0. -1.
</event>
<event>
 7    1  0.1381607E-011  0.5052886E+02  0.7816164E-02  0.1300439E+00
        -11   -1    0    0    0    0  0.00000000000E+00  0.00000000000E+00  0.45593999997E+02  0.45594000000E+02  0.51100000000E-03 0.  1.
         11   -1    0    0    0    0 -0.00000000000E+00 -0.00000000000E+00 -0.45593999997E+02  0.45594000000E+02  0.51100000000E-03 0. -1.
    9900012    2    1    2    0    0 -0.14335569866E+02  0.36857304342E+02  0.94443762544E+01  0.50528859704E+02  0.29999999557E+02 0.  0.
         12    1    1    2    0    0  0.14335569866E+02 -0.36857304342E+02 -0.94443762544E+01  0.40659140296E+02  0.00000000000E+00 0. -1.
         11    1    3    3    0    0 -0.10970052444E+02  0.80507139157E+01  0.30598830799E+01  0.13947004334E+02  0.51100000000E-03 0. -1.
        -11    1    3    3    0    0 -0.74619918851E+01  0.26043395539E+02 -0.16587322916E+01  0.27142055324E+02  0.51100000000E-03 0.  1.
         12    1    3    3    0    0  0.40964744634E+01  0.27631948873E+01  0.80432254661E+01  0.94398000463E+01  0.00000000000E+00 0. -1.
</event>
<event>
 7    1  0.1381607E-011  0.5052886E+02  0.7816164E-02  0.1300439E+00
        -11   -1    0    0    0    0  0.00000000000E+00  0.00000000000E+00  0.45593999997E+02  0.45594000000E+02  0.51100000000E-03 0.  1.
         11   -1    0    0    0    0 -0.00000000000E+00 -0.00000000000E+00 -0.45593999997E+02  0.45594000000E+02  0.51100000000E-03 0. -1.
    9900012    2    1    2    0    0 -0.78042598943E+01 -0.33793538765E+01  0.39759765432E+02  0.50528862622E+02  0.30000008425E+02 0.  0.
         12    1    1    2    0    0  0.78042598943E+01  0.33793538765E+01 -0.39759765432E+02  0.40659137378E+02  0.00000000000E+00 0. -1.
         11    1    3    3    0    0 -0.63448186173E+01  0.56656973067E+01  0.81788401711E+01  0.11800435418E+02  0.51100000000E-03 0.  1.
        -11    1    3    3    0    0 -0.66611639782E+01 -0.13270068250E+02  0.26277694697E+02  0.30182495850E+02  0.51100000000E-03 0. -1.
         12    1    3    3    0    0  0.52017227012E+01  0.42250170665E+01  0.53032305642E+01  0.85459313530E+01  0.00000000000E+00 0. -1.
</event>
<event>
 7    1  0.1381607E-011  0.5052886E+02  0.7816164E-02  0.1300439E+00
        -11   -1    0    0    0    0  0.00000000000E+00  0.00000000000E+00  0.45593999997E+02  0.45594000000E+02  0.51100000000E-03 0. -1.
         11   -1    0    0    0    0 -0.00000000000E+00 -0.00000000000E+00 -0.45593999997E+02  0.45594000000E+02  0.51100000000E-03 0.  1.
    9900012    2    1    2    0    0  0.97992582250E+01  0.13880241530E+02 -0.36938855881E+02  0.50528860308E+02  0.30000001393E+02 0.  0.
         12    1    1    2    0    0 -0.97992582250E+01 -0.13880241530E+02  0.36938855881E+02  0.40659139692E+02  0.00000000000E+00 0. -1.
         11    1    3    3    0    0 -0.46846093263E+01  0.36806371252E+01 -0.21540572990E+02  0.22349249186E+02  0.51100000000E-03 0.  1.
        -11    1    3    3    0    0  0.14047179071E+01  0.10133308857E+01  0.32113069081E+01  0.36486386779E+01  0.51100000000E-03 0. -1.
        -12    1    3    3    0    0  0.13079149644E+02  0.91862735187E+01 -0.18609589799E+02  0.24530972445E+02  0.00000000000E+00 0.  1.
</event>
<event>
 7    1  0.1381607E-011  0.5052886E+02  0.7816164E-02  0.1300439E+00
        -11   -1    0    0    0    0  0.00000000000E+00  0.00000000000E+00  0.45593999997E+02  0.45594000000E+02  0.51100000000E-03 0.  1.
         11   -1    0    0    0    0 -0.00000000000E+00 -0.00000000000E+00 -0.45593999997E+02  0.45594000000E+02  0.51100000000E-03 0. -1.
    9900012    2    1    2    0    0  0.12778447398E+01  0.35385902617E+02  0.19984263165E+02  0.50528858771E+02  0.29999996721E+02 0.  0.
         12    1    1    2    0    0 -0.12778447398E+01 -0.35385902617E+02 -0.19984263165E+02  0.40659141229E+02  0.00000000000E+00 0. -1.
         11    1    3    3    0    0 -0.54818202735E+01  0.10890326439E+02  0.17329291300E+01  0.12314731304E+02  0.51100000000E-03 0. -1.
        -11    1    3    3    0    0 -0.39136179095E+01  0.13822348787E+02  0.18114238909E+02  0.23119242692E+02  0.51100000000E-03 0.  1.
         12    1    3    3    0    0  0.10673282923E+02  0.10673227391E+02  0.13709512516E+00  0.15094884775E+02  0.00000000000E+00 0. -1.
</event>
<event>
 7    1  0.1381607E-011  0.5052887E+02  0.7816164E-02  0.1300439E+00
        -11   -1    0    0    0    0  0.00000000000E+00  0.00000000000E+00  0.45593999997E+02  0.45594000000E+02  0.51100000000E-03 0.  1.
         11   -1    0    0    0    0 -0.00000000000E+00 -0.00000000000E+00 -0.45593999997E+02  0.45594000000E+02  0.51100000000E-03 0. -1.
    9900012    2    1    2    0    0  0.12181513189E+02 -0.83409103701E+01  0.37884101594E+02  0.50528865689E+02  0.30000017747E+02 0.  0.
         12    1    1    2    0    0 -0.12181513189E+02  0.83409103701E+01 -0.37884101594E+02  0.40659134311E+02  0.00000000000E+00 0. -1.
         11    1    3    3    0    0  0.55592937050E+01  0.87076152368E+01  0.14722028749E+02  0.17985172792E+02  0.51100000000E-03 0. -1.
        -11    1    3    3    0    0  0.10214084347E+02 -0.76901269352E+01  0.11895476429E+02  0.17463331042E+02  0.51100000000E-03 0.  1.
         12    1    3    3    0    0 -0.35918648630E+01 -0.93583986717E+01  0.11266596415E+02  0.15080361855E+02  0.00000000000E+00 0. -1.
</event>
<event>
 7    1  0.1381607E-011  0.5052886E+02  0.7816164E-02  0.1300439E+00
        -11   -1    0    0    0    0  0.00000000000E+00  0.00000000000E+00  0.45593999997E+02  0.45594000000E+02  0.51100000000E-03 0. -1.
         11   -1    0    0    0    0 -0.00000000000E+00 -0.00000000000E+00 -0.45593999997E+02  0.45594000000E+02  0.51100000000E-03 0.  1.
    9900012    2    1    2    0    0 -0.11493464746E+02  0.66187561952E+01 -0.38435109993E+02  0.50528863934E+02  0.30000012414E+02 0.  0.
         12    1    1    2    0    0  0.11493464746E+02 -0.66187561952E+01  0.38435109993E+02  0.40659136066E+02  0.00000000000E+00 0. -1.
         11    1    3    3    0    0 -0.14938018208E+01 -0.35873683860E+01 -0.11458390623E+02  0.12099395512E+02  0.51100000000E-03 0. -1.
        -11    1    3    3    0    0 -0.16431441880E+02  0.62116872865E+01 -0.25087454517E+02  0.30626095337E+02  0.51100000000E-03 0.  1.
         12    1    3    3    0    0  0.64317789549E+01  0.39944372947E+01 -0.18892648536E+01  0.78033730856E+01  0.00000000000E+00 0. -1.
</event>
<event>
 7    1  0.1381607E-011  0.5052886E+02  0.7816164E-02  0.1300439E+00
        -11   -1    0    0    0    0  0.00000000000E+00  0.00000000000E+00  0.45593999997E+02  0.45594000000E+02  0.51100000000E-03 0.  1.
         11   -1    0    0    0    0 -0.00000000000E+00 -0.00000000000E+00 -0.45593999997E+02  0.45594000000E+02  0.51100000000E-03 0. -1.
    9900012    2    1    2    0    0  0.13609124441E+02 -0.28381197408E+02  0.25738390790E+02  0.50528863329E+02  0.30000010575E+02 0.  0.
         12    1    1    2    0    0 -0.13609124441E+02  0.28381197408E+02 -0.25738390790E+02  0.40659136671E+02  0.00000000000E+00 0. -1.
         11    1    3    3    0    0 -0.69996447569E+01 -0.27977851476E+01  0.50148604895E+01  0.90538088363E+01  0.51100000000E-03 0. -1.
        -11    1    3    3    0    0 -0.94240262734E-01  0.16643381356E+01  0.13907982607E+01  0.21709957899E+01  0.51100000000E-03 0.  1.
         12    1    3    3    0    0  0.20703009460E+02 -0.27247750396E+02  0.19332732040E+02  0.39304058703E+02  0.00000000000E+00 0. -1.
</event>
<event>
 7    1  0.1381607E-011  0.5052885E+02  0.7816164E-02  0.1300439E+00
        -11   -1    0    0    0    0  0.00000000000E+00  0.00000000000E+00  0.45593999997E+02  0.45594000000E+02  0.51100000000E-03 0.  1.
         11   -1    0    0    0    0 -0.00000000000E+00 -0.00000000000E+00 -0.45593999997E+02  0.45594000000E+02  0.51100000000E-03 0. -1.
    9900012    2    1    2    0    0 -0.16452952717E+02 -0.13865464068E+01  0.37155674680E+02  0.50528851891E+02  0.29999975807E+02 0.  0.
         12    1    1    2    0    0  0.16452952717E+02  0.13865464068E+01 -0.37155674680E+02  0.40659148109E+02  0.00000000000E+00 0. -1.
         11    1    3    3    0    0 -0.73461102045E+01 -0.42003728387E+01  0.51423399772E+01  0.99021274392E+01  0.51100000000E-03 0. -1.
        -11    1    3    3    0    0 -0.16170961338E+02 -0.22590587608E+00  0.26914155949E+02  0.31399407873E+02  0.51100000000E-03 0.  1.
        -12    1    3    3    0    0  0.70641188249E+01  0.30397323080E+01  0.50991787536E+01  0.92273165784E+01  0.00000000000E+00 0.  1.
</event>
<event>
 7    1  0.1381607E-011  0.5052887E+02  0.7816164E-02  0.1300439E+00
        -11   -1    0    0    0    0  0.00000000000E+00  0.00000000000E+00  0.45593999997E+02  0.45594000000E+02  0.51100000000E-03 0.  1.
         11   -1    0    0    0    0 -0.00000000000E+00 -0.00000000000E+00 -0.45593999997E+02  0.45594000000E+02  0.51100000000E-03 0. -1.
    9900012    2    1    2    0    0 -0.18040233150E+02  0.47628186600E+01  0.36125202785E+02  0.50528871506E+02  0.30000035428E+02 0.  0.
         12    1    1    2    0    0  0.18040233150E+02 -0.47628186600E+01 -0.36125202785E+02  0.40659128494E+02  0.00000000000E+00 0. -1.
         11    1    3    3    0    0 -0.10820636109E+02 -0.40543882718E+01  0.24798727501E+02  0.27358748436E+02  0.51100000000E-03 0. -1.
        -11    1    3    3    0    0 -0.11116905199E+02  0.26785512557E+01  0.11037635003E+02  0.15893067821E+02  0.51100000000E-03 0.  1.
         12    1    3    3    0    0  0.38973081577E+01  0.61386556760E+01  0.28884028065E+00  0.72770552487E+01  0.00000000000E+00 0. -1.
</event>
<event>
 7    1  0.1381607E-011  0.5052886E+02  0.7816164E-02  0.1300439E+00
        -11   -1    0    0    0    0  0.00000000000E+00  0.00000000000E+00  0.45593999997E+02  0.45594000000E+02  0.51100000000E-03 0. -1.
         11   -1    0    0    0    0 -0.00000000000E+00 -0.00000000000E+00 -0.45593999997E+02  0.45594000000E+02  0.51100000000E-03 0.  1.
    9900012    2    1    2    0    0 -0.66188288964E+01  0.31703399239E+02 -0.24581530259E+02  0.50528855283E+02  0.29999986118E+02 0.  0.
         12    1    1    2    0    0  0.66188288964E+01 -0.31703399239E+02  0.24581530259E+02  0.40659144717E+02  0.00000000000E+00 0. -1.
         11    1    3    3    0    0 -0.35827042821E+01 -0.47840181608E+00 -0.13140272613E+01  0.38459467202E+01  0.51100000000E-03 0. -1.
        -11    1    3    3    0    0 -0.29292554043E+01  0.14020132754E+02  0.31107887368E+01  0.14656795915E+02  0.51100000000E-03 0.  1.
        -12    1    3    3    0    0 -0.10686921004E+00  0.18161668301E+02 -0.26378291734E+02  0.32026112648E+02  0.00000000000E+00 0.  1.
</event>
<event>
 7    1  0.1381607E-011  0.5052886E+02  0.7816164E-02  0.1300439E+00
        -11   -1    0    0    0    0  0.00000000000E+00  0.00000000000E+00  0.45593999997E+02  0.45594000000E+02  0.51100000000E-03 0.  1.
         11   -1    0    0    0    0 -0.00000000000E+00 -0.00000000000E+00 -0.45593999997E+02  0.45594000000E+02  0.51100000000E-03 0. -1.
    9900012    2    1    2    0    0  0.13226184406E+02 -0.36229683130E+02  0.12870260741E+02  0.50528861972E+02  0.30000006451E+02 0.  0.
         12    1    1    2    0    0 -0.13226184406E+02  0.36229683130E+02 -0.12870260741E+02  0.40659138028E+02  0.00000000000E+00 0. -1.
         11    1    3    3    0    0 -0.41523987679E+01 -0.62254764852E-01  0.22568165254E+01  0.47264693243E+01  0.51100000000E-03 0. -1.
        -11    1    3    3    0    0  0.14687997499E+02 -0.94505163170E+01  0.65057036349E+01  0.18637964192E+02  0.51100000000E-03 0.  1.
        -12    1    3    3    0    0  0.26905856745E+01 -0.26716912048E+02  0.41077405802E+01  0.27164428456E+02  0.00000000000E+00 0.  1.
</event>
<event>
 7    1  0.1381607E-011  0.5052893E+02  0.7816164E-02  0.1300439E+00
        -11   -1    0    0    0    0  0.00000000000E+00  0.00000000000E+00  0.45593999997E+02  0.45594000000E+02  0.51100000000E-03 0. -1.
         11   -1    0    0    0    0 -0.00000000000E+00 -0.00000000000E+00 -0.45593999997E+02  0.45594000000E+02  0.51100000000E-03 0.  1.
    9900012    2    1    2    0    0 -0.50499173080E+01 -0.31632484793E+02 -0.25040850252E+02  0.50528930405E+02  0.30000214457E+02 0.  0.
         12    1    1    2    0    0  0.50499173080E+01  0.31632484793E+02  0.25040850252E+02  0.40659069595E+02  0.00000000000E+00 0. -1.
         11    1    3    3    0    0  0.33281744714E+01  0.22865877392E+01 -0.20918873488E+01  0.45476611288E+01  0.51100000000E-03 0. -1.
        -11    1    3    3    0    0  0.17675166625E+01  0.18467480685E+01 -0.68079306678E+00  0.26453871251E+01  0.51100000000E-03 0.  1.
        -12    1    3    3    0    0 -0.10145608442E+02 -0.35765820601E+02 -0.22268169837E+02  0.43335882151E+02  0.00000000000E+00 0.  1.
</event>
<event>
 7    1  0.1381607E-011  0.5052886E+02  0.7816164E-02  0.1300439E+00
        -11   -1    0    0    0    0  0.00000000000E+00  0.00000000000E+00  0.45593999997E+02  0.45594000000E+02  0.51100000000E-03 0. -1.
         11   -1    0    0    0    0 -0.00000000000E+00 -0.00000000000E+00 -0.45593999997E+02  0.45594000000E+02  0.51100000000E-03 0.  1.
    9900012    2    1    2    0    0 -0.21581662998E+02  0.26050849844E+02 -0.22555494743E+02  0.50528864514E+02  0.30000014178E+02 0.  0.
         12    1    1    2    0    0  0.21581662998E+02 -0.26050849844E+02  0.22555494743E+02  0.40659135486E+02  0.00000000000E+00 0. -1.
         11    1    3    3    0    0 -0.31317105980E+01  0.22746103555E+01  0.28111838159E+01  0.47837452113E+01  0.51100000000E-03 0. -1.
        -11    1    3    3    0    0 -0.10254604148E+02 -0.15510792637E+01 -0.12306054350E+02  0.16093530596E+02  0.51100000000E-03 0.  1.
        -12    1    3    3    0    0 -0.81953482523E+01  0.25327318752E+02 -0.13060624209E+02  0.29651588707E+02  0.00000000000E+00 0.  1.
</event>
<event>
 7    1  0.1381607E-011  0.5052885E+02  0.7816164E-02  0.1300439E+00
        -11   -1    0    0    0    0  0.00000000000E+00  0.00000000000E+00  0.45593999997E+02  0.45594000000E+02  0.51100000000E-03 0.  1.
         11   -1    0    0    0    0 -0.00000000000E+00 -0.00000000000E+00 -0.45593999997E+02  0.45594000000E+02  0.51100000000E-03 0. -1.
    9900012    2    1    2    0    0 -0.10202364437E+02  0.30635543574E+02  0.24709139901E+02  0.50528851400E+02  0.29999974316E+02 0.  0.
         12    1    1    2    0    0  0.10202364437E+02 -0.30635543574E+02 -0.24709139901E+02  0.40659148600E+02  0.00000000000E+00 0. -1.
         11    1    3    3    0    0  0.60976416269E+01  0.62764332526E+01  0.81779985748E+00  0.87888363651E+01  0.51100000000E-03 0. -1.
        -11    1    3    3    0    0 -0.30753256664E+01  0.18135043555E+02  0.77372117348E+01  0.19954996326E+02  0.51100000000E-03 0.  1.
        -12    1    3    3    0    0 -0.13224680397E+02  0.62240667672E+01  0.16154128309E+02  0.21785018709E+02  0.00000000000E+00 0.  1.
</event>
<event>
 7    1  0.1381607E-011  0.5052885E+02  0.7816164E-02  0.1300439E+00
        -11   -1    0    0    0    0  0.00000000000E+00  0.00000000000E+00  0.45593999997E+02  0.45594000000E+02  0.51100000000E-03 0. -1.
         11   -1    0    0    0    0 -0.00000000000E+00 -0.00000000000E+00 -0.45593999997E+02  0.45594000000E+02  0.51100000000E-03 0.  1.
    9900012    2    1    2    0    0 -0.21281896720E+02  0.60749632170E+01 -0.34107797651E+02  0.50528853837E+02  0.29999981723E+02 0.  0.
         12    1    1    2    0    0  0.21281896720E+02 -0.60749632170E+01  0.34107797651E+02  0.40659146163E+02  0.00000000000E+00 0. -1.
         11    1    3    3    0    0 -0.46326322258E+01 -0.56161131223E+01  0.10196643752E+01  0.73513076144E+01  0.51100000000E-03 0. -1.
        -11    1    3    3    0    0 -0.80114199829E+01 -0.25605510019E+01 -0.12815573100E+02  0.15328998197E+02  0.51100000000E-03 0.  1.
         12    1    3    3    0    0 -0.86378445112E+01  0.14251627341E+02 -0.22311888927E+02  0.27848548026E+02  0.00000000000E+00 0. -1.
</event>
<event>
 7    1  0.1381607E-011  0.5052886E+02  0.7816164E-02  0.1300439E+00
        -11   -1    0    0    0    0  0.00000000000E+00  0.00000000000E+00  0.45593999997E+02  0.45594000000E+02  0.51100000000E-03 0.  1.
         11   -1    0    0    0    0 -0.00000000000E+00 -0.00000000000E+00 -0.45593999997E+02  0.45594000000E+02  0.51100000000E-03 0. -1.
    9900012    2    1    2    0    0  0.16513754303E+02  0.33613339438E+01  0.37002201841E+02  0.50528860951E+02  0.30000003348E+02 0.  0.
         12    1    1    2    0    0 -0.16513754303E+02 -0.33613339438E+01 -0.37002201841E+02  0.40659139049E+02  0.00000000000E+00 0. -1.
         11    1    3    3    0    0 -0.22019343100E+00  0.56186041411E+00 -0.22306696266E+01  0.23108568792E+01  0.51100000000E-03 0. -1.
        -11    1    3    3    0    0  0.15512787268E+02 -0.57137214261E+01  0.14350762708E+02  0.21891495425E+02  0.51100000000E-03 0.  1.
         12    1    3    3    0    0  0.12211604659E+01  0.85131949558E+01  0.24882108760E+02  0.26326508648E+02  0.00000000000E+00 0. -1.
</event>
<event>
 7    1  0.1381607E-011  0.5052886E+02  0.7816164E-02  0.1300439E+00
        -11   -1    0    0    0    0  0.00000000000E+00  0.00000000000E+00  0.45593999997E+02  0.45594000000E+02  0.51100000000E-03 0. -1.
         11   -1    0    0    0    0 -0.00000000000E+00 -0.00000000000E+00 -0.45593999997E+02  0.45594000000E+02  0.51100000000E-03 0.  1.
    9900012    2    1    2    0    0 -0.26587482422E+02  0.30714709357E+02  0.16964016380E+01  0.50528863623E+02  0.30000011468E+02 0.  0.
         12    1    1    2    0    0  0.26587482422E+02 -0.30714709357E+02 -0.16964016380E+01  0.40659136377E+02  0.00000000000E+00 0. -1.
         11    1    3    3    0    0  0.23198982417E+01 -0.16528964752E+01 -0.43335640733E+01  0.51859205980E+01  0.51100000000E-03 0. -1.
        -11    1    3    3    0    0 -0.14131969315E+02  0.10968315466E+02 -0.23010354015E+01  0.18036387251E+02  0.51100000000E-03 0.  1.
        -12    1    3    3    0    0 -0.14775411349E+02  0.21399290365E+02  0.83310011128E+01  0.27306555774E+02  0.00000000000E+00 0.  1.
</event>
<event>
 7    1  0.1381607E-011  0.5052884E+02  0.7816164E-02  0.1300439E+00
        -11   -1    0    0    0    0  0.00000000000E+00  0.00000000000E+00  0.45593999997E+02  0.45594000000E+02  0.51100000000E-03 0.  1.
         11   -1    0    0    0    0 -0.00000000000E+00 -0.00000000000E+00 -0.45593999997E+02  0.45594000000E+02  0.51100000000E-03 0. -1.
    9900012    2    1    2    0    0 -0.75264792998E+01 -0.23821242167E+01  0.39885400254E+02  0.50528836705E+02  0.29999929649E+02 0.  0.
         12    1    1    2    0    0  0.75264792998E+01  0.23821242167E+01 -0.39885400254E+02  0.40659163295E+02  0.00000000000E+00 0. -1.
         11    1    3    3    0    0 -0.50659361874E+01 -0.12467659025E+01  0.27052038776E+01  0.58767561589E+01  0.51100000000E-03 0. -1.
        -11    1    3    3    0    0 -0.99446078649E+01  0.80121550484E+01  0.16950478232E+02  0.21222831259E+02  0.51100000000E-03 0.  1.
         12    1    3    3    0    0  0.74840647526E+01 -0.91475133626E+01  0.20229718145E+02  0.23429249287E+02  0.00000000000E+00 0. -1.
</event>
<event>
 7    1  0.1381607E-011  0.5052886E+02  0.7816164E-02  0.1300439E+00
        -11   -1    0    0    0    0  0.00000000000E+00  0.00000000000E+00  0.45593999997E+02  0.45594000000E+02  0.51100000000E-03 0.  1.
         11   -1    0    0    0    0 -0.00000000000E+00 -0.00000000000E+00 -0.45593999997E+02  0.45594000000E+02  0.51100000000E-03 0. -1.
    9900012    2    1    2    0    0  0.84446237597E+01  0.64667922343E+01  0.39243275303E+02  0.50528859223E+02  0.29999998094E+02 0.  0.
         12    1    1    2    0    0 -0.84446237597E+01 -0.64667922343E+01 -0.39243275303E+02  0.40659140777E+02  0.00000000000E+00 0. -1.
         11    1    3    3    0    0  0.20590881511E+01 -0.11742577832E+01  0.47624659750E+00  0.24177544206E+01  0.51100000000E-03 0. -1.
        -11    1    3    3    0    0  0.12733150986E+01 -0.98372236064E+01  0.10156677630E+02  0.14196844733E+02  0.51100000000E-03 0.  1.
        -12    1    3    3    0    0  0.51122205100E+01  0.17478273624E+02  0.28610351075E+02  0.33914260069E+02  0.00000000000E+00 0.  1.
</event>
<event>
 7    1  0.1381607E-011  0.5052886E+02  0.7816164E-02  0.1300439E+00
        -11   -1    0    0    0    0  0.00000000000E+00  0.00000000000E+00  0.45593999997E+02  0.45594000000E+02  0.51100000000E-03 0.  1.
         11   -1    0    0    0    0 -0.00000000000E+00 -0.00000000000E+00 -0.45593999997E+02  0.45594000000E+02  0.51100000000E-03 0. -1.
    9900012    2    1    2    0    0  0.14302892127E+02 -0.17980561901E+02  0.33545372039E+02  0.50528864314E+02  0.30000013568E+02 0.  0.
         12    1    1    2    0    0 -0.14302892127E+02  0.17980561901E+02 -0.33545372039E+02  0.40659135686E+02  0.00000000000E+00 0. -1.
         11    1    3    3    0    0  0.53823942929E+01 -0.92553534855E+01  0.15205446079E+02  0.18596702051E+02  0.51100000000E-03 0. -1.
        -11    1    3    3    0    0  0.12857984291E+02 -0.11205701849E+02  0.49542894743E+01  0.17760644651E+02  0.51100000000E-03 0.  1.
         12    1    3    3    0    0 -0.39374864567E+01  0.24804934337E+01  0.13385636486E+02  0.14171517611E+02  0.00000000000E+00 0. -1.
</event>
<event>
 7    1  0.1381607E-011  0.5052885E+02  0.7816164E-02  0.1300439E+00
        -11   -1    0    0    0    0  0.00000000000E+00  0.00000000000E+00  0.45593999997E+02  0.45594000000E+02  0.51100000000E-03 0.  1.
         11   -1    0    0    0    0 -0.00000000000E+00 -0.00000000000E+00 -0.45593999997E+02  0.45594000000E+02  0.51100000000E-03 0. -1.
    9900012    2    1    2    0    0 -0.22649507686E+02  0.24330362367E+02  0.23413657705E+02  0.50528854676E+02  0.29999984274E+02 0.  0.
         12    1    1    2    0    0  0.22649507686E+02 -0.24330362367E+02 -0.23413657705E+02  0.40659145324E+02  0.00000000000E+00 0. -1.
         11    1    3    3    0    0 -0.19937413900E+02  0.14457985060E+02  0.43033736889E+01  0.25001056586E+02  0.51100000000E-03 0. -1.
        -11    1    3    3    0    0 -0.76414342412E+01  0.83492762379E+01  0.10223511543E+02  0.15251954612E+02  0.51100000000E-03 0.  1.
         12    1    3    3    0    0  0.49293404559E+01  0.15231010688E+01  0.88867724736E+01  0.10275843478E+02  0.00000000000E+00 0. -1.
</event>
<event>
 7    1  0.1381607E-011  0.5052883E+02  0.7816164E-02  0.1300439E+00
        -11   -1    0    0    0    0  0.00000000000E+00  0.00000000000E+00  0.45593999997E+02  0.45594000000E+02  0.51100000000E-03 0. -1.
         11   -1    0    0    0    0 -0.00000000000E+00 -0.00000000000E+00 -0.45593999997E+02  0.45594000000E+02  0.51100000000E-03 0.  1.
    9900012    2    1    2    0    0  0.12381200920E+02 -0.17313803977E+02 -0.34642548145E+02  0.50528830230E+02  0.29999909967E+02 0.  0.
         12    1    1    2    0    0 -0.12381200920E+02  0.17313803977E+02  0.34642548145E+02  0.40659169770E+02  0.00000000000E+00 0. -1.
         11    1    3    3    0    0  0.11236504045E+02 -0.55276586478E+01 -0.46057939333E+01  0.13342689807E+02  0.51100000000E-03 0. -1.
        -11    1    3    3    0    0  0.83089788148E+01 -0.21463744406E+01 -0.65119416354E+01  0.10772717220E+02  0.51100000000E-03 0.  1.
         12    1    3    3    0    0 -0.71642819396E+01 -0.96397708887E+01 -0.23524812577E+02  0.26413423202E+02  0.00000000000E+00 0. -1.
</event>
<event>
 7    1  0.1381607E-011  0.5052886E+02  0.7816164E-02  0.1300439E+00
        -11   -1    0    0    0    0  0.00000000000E+00  0.00000000000E+00  0.45593999997E+02  0.45594000000E+02  0.51100000000E-03 0. -1.
         11   -1    0    0    0    0 -0.00000000000E+00 -0.00000000000E+00 -0.45593999997E+02  0.45594000000E+02  0.51100000000E-03 0.  1.
    9900012    2    1    2    0    0  0.15616291813E+02  0.36783975810E+02  0.74990995550E+01  0.50528856618E+02  0.29999990177E+02 0.  0.
         12    1    1    2    0    0 -0.15616291813E+02 -0.36783975810E+02 -0.74990995550E+01  0.40659143382E+02  0.00000000000E+00 0. -1.
         11    1    3    3    0    0 -0.18604378754E+01  0.79223093605E+01  0.46557329869E+01  0.93755034317E+01  0.51100000000E-03 0. -1.
        -11    1    3    3    0    0  0.28084854359E+00  0.18495548278E+02 -0.56658850117E+01  0.19345966898E+02  0.51100000000E-03 0.  1.
        -12    1    3    3    0    0  0.17195881144E+02  0.10366118172E+02  0.85092515798E+01  0.21807386289E+02  0.00000000000E+00 0.  1.
</event>
<event>
 7    1  0.1381607E-011  0.5052885E+02  0.7816164E-02  0.1300439E+00
        -11   -1    0    0    0    0  0.00000000000E+00  0.00000000000E+00  0.45593999997E+02  0.45594000000E+02  0.51100000000E-03 0.  1.
         11   -1    0    0    0    0 -0.00000000000E+00 -0.00000000000E+00 -0.45593999997E+02  0.45594000000E+02  0.51100000000E-03 0. -1.
    9900012    2    1    2    0    0  0.68507333396E+01  0.81587458280E+01  0.39238613972E+02  0.50528849650E+02  0.29999968995E+02 0.  0.
         12    1    1    2    0    0 -0.68507333396E+01 -0.81587458280E+01 -0.39238613972E+02  0.40659150350E+02  0.00000000000E+00 0. -1.
         11    1    3    3    0    0  0.81766877542E+01  0.10803873630E+00  0.26205991982E+02  0.27452211405E+02  0.51100000000E-03 0. -1.
        -11    1    3    3    0    0 -0.75411459112E+01 -0.90303201165E+00  0.81288408758E+01  0.11124855177E+02  0.51100000000E-03 0.  1.
         12    1    3    3    0    0  0.62151914966E+01  0.89537391033E+01  0.49037811138E+01  0.11951783067E+02  0.00000000000E+00 0. -1.
</event>
<event>
 7    1  0.1381607E-011  0.5052884E+02  0.7816164E-02  0.1300439E+00
        -11   -1    0    0    0    0  0.00000000000E+00  0.00000000000E+00  0.45593999997E+02  0.45594000000E+02  0.51100000000E-03 0.  1.
         11   -1    0    0    0    0 -0.00000000000E+00 -0.00000000000E+00 -0.45593999997E+02  0.45594000000E+02  0.51100000000E-03 0. -1.
    9900012    2    1    2    0    0  0.74004607466E+01  0.31803718359E+02  0.24226505857E+02  0.50528844736E+02  0.29999954060E+02 0.  0.
         12    1    1    2    0    0 -0.74004607466E+01 -0.31803718359E+02 -0.24226505857E+02  0.40659155264E+02  0.00000000000E+00 0. -1.
         11    1    3    3    0    0  0.56357825640E+01  0.41480768537E+01  0.18638699989E+02  0.19909036246E+02  0.51100000000E-03 0. -1.
        -11    1    3    3    0    0 -0.10702561004E+01  0.12379316595E+02  0.81681921946E+01  0.14869845039E+02  0.51100000000E-03 0.  1.
         12    1    3    3    0    0  0.28349342830E+01  0.15276324910E+02 -0.25803863262E+01  0.15749963452E+02  0.00000000000E+00 0. -1.
</event>
<event>
 7    1  0.1381607E-011  0.5052890E+02  0.7816164E-02  0.1300439E+00
        -11   -1    0    0    0    0  0.00000000000E+00  0.00000000000E+00  0.45593999997E+02  0.45594000000E+02  0.51100000000E-03 0. -1.
         11   -1    0    0    0    0 -0.00000000000E+00 -0.00000000000E+00 -0.45593999997E+02  0.45594000000E+02  0.51100000000E-03 0.  1.
    9900012    2    1    2    0    0  0.16736833943E+02 -0.14575237209E+02 -0.34067629201E+02  0.50528898811E+02  0.30000118427E+02 0.  0.
         12    1    1    2    0    0 -0.16736833943E+02  0.14575237209E+02  0.34067629201E+02  0.40659101189E+02  0.00000000000E+00 0. -1.
         11    1    3    3    0    0  0.32205303391E+01  0.33433435371E+01 -0.47356968585E+01  0.66314844996E+01  0.51100000000E-03 0. -1.
        -11    1    3    3    0    0 -0.25053678247E+01 -0.24540509936E+01  0.30164042012E+01  0.46257895307E+01  0.51100000000E-03 0.  1.
        -12    1    3    3    0    0  0.16021671428E+02 -0.15464529753E+02 -0.32348336543E+02  0.39271624781E+02  0.00000000000E+00 0.  1.
</event>
<event>
 7    1  0.1381607E-011  0.5052886E+02  0.7816164E-02  0.1300439E+00
        -11   -1    0    0    0    0  0.00000000000E+00  0.00000000000E+00  0.45593999997E+02  0.45594000000E+02  0.51100000000E-03 0.  1.
         11   -1    0    0    0    0 -0.00000000000E+00 -0.00000000000E+00 -0.45593999997E+02  0.45594000000E+02  0.51100000000E-03 0. -1.
    9900012    2    1    2    0    0 -0.63116691204E+01 -0.34504988701E+02  0.20560496511E+02  0.50528862907E+02  0.30000009292E+02 0.  0.
         12    1    1    2    0    0  0.63116691204E+01  0.34504988701E+02 -0.20560496511E+02  0.40659137093E+02  0.00000000000E+00 0. -1.
         11    1    3    3    0    0  0.63065505318E+01 -0.14556468885E+02  0.10540195566E+02  0.19046235556E+02  0.51100000000E-03 0. -1.
        -11    1    3    3    0    0  0.34160586527E+01 -0.20169852495E+00  0.41468020356E+01  0.53764399371E+01  0.51100000000E-03 0.  1.
        -12    1    3    3    0    0 -0.16034278305E+02 -0.19746821291E+02  0.58734989094E+01  0.26106187414E+02  0.00000000000E+00 0.  1.
</event>
<event>
 7    1  0.1381607E-011  0.5052885E+02  0.7816164E-02  0.1300439E+00
        -11   -1    0    0    0    0  0.00000000000E+00  0.00000000000E+00  0.45593999997E+02  0.45594000000E+02  0.51100000000E-03 0. -1.
         11   -1    0    0    0    0 -0.00000000000E+00 -0.00000000000E+00 -0.45593999997E+02  0.45594000000E+02  0.51100000000E-03 0.  1.
    9900012    2    1    2    0    0  0.31742704723E+02 -0.13642169761E+02 -0.21434982534E+02  0.50528848813E+02  0.29999966453E+02 0.  0.
         12    1    1    2    0    0 -0.31742704723E+02  0.13642169761E+02  0.21434982534E+02  0.40659151187E+02  0.00000000000E+00 0. -1.
         11    1    3    3    0    0  0.14672636064E+02 -0.92423149428E+01 -0.13921646621E+02  0.22237780453E+02  0.51100000000E-03 0.  1.
        -11    1    3    3    0    0  0.73445596820E+01  0.13856264632E+01 -0.13543097554E+02  0.15468613682E+02  0.51100000000E-03 0. -1.
        -12    1    3    3    0    0  0.97255089778E+01 -0.57854812817E+01  0.60297616411E+01  0.12822454679E+02  0.00000000000E+00 0.  1.
</event>
<event>
 7    1  0.1381607E-011  0.5052887E+02  0.7816164E-02  0.1300439E+00
        -11   -1    0    0    0    0  0.00000000000E+00  0.00000000000E+00  0.45593999997E+02  0.45594000000E+02  0.51100000000E-03 0.  1.
         11   -1    0    0    0    0 -0.00000000000E+00 -0.00000000000E+00 -0.45593999997E+02  0.45594000000E+02  0.51100000000E-03 0. -1.
    9900012    2    1    2    0    0  0.35264025165E+02 -0.14784801825E+02  0.13821118846E+02  0.50528866192E+02  0.30000019279E+02 0.  0.
         12    1    1    2    0    0 -0.35264025165E+02  0.14784801825E+02 -0.13821118846E+02  0.40659133808E+02  0.00000000000E+00 0. -1.
         11    1    3    3    0    0  0.28218504449E+01 -0.80330543579E+01  0.36296061178E+01  0.92556384481E+01  0.51100000000E-03 0. -1.
        -11    1    3    3    0    0  0.23525748404E+02 -0.10170590707E+02  0.15886769270E+02  0.30154455581E+02  0.51100000000E-03 0.  1.
        -12    1    3    3    0    0  0.89164263162E+01  0.34188432398E+01 -0.56952565417E+01  0.11118772164E+02  0.00000000000E+00 0.  1.
</event>
<event>
 7    1  0.1381607E-011  0.5052887E+02  0.7816164E-02  0.1300439E+00
        -11   -1    0    0    0    0  0.00000000000E+00  0.00000000000E+00  0.45593999997E+02  0.45594000000E+02  0.51100000000E-03 0.  1.
         11   -1    0    0    0    0 -0.00000000000E+00 -0.00000000000E+00 -0.45593999997E+02  0.45594000000E+02  0.51100000000E-03 0. -1.
    9900012    2    1    2    0    0 -0.15225501639E+02 -0.35054768466E+02  0.13874885223E+02  0.50528866558E+02  0.30000020389E+02 0.  0.
         12    1    1    2    0    0  0.15225501639E+02  0.35054768466E+02 -0.13874885223E+02  0.40659133442E+02  0.00000000000E+00 0. -1.
         11    1    3    3    0    0 -0.11025654261E+02 -0.77554767338E+01 -0.12907326053E+01  0.13541730398E+02  0.51100000000E-03 0. -1.
        -11    1    3    3    0    0 -0.99744047592E+01 -0.17575768132E+02  0.30914294922E+01  0.20443906483E+02  0.51100000000E-03 0.  1.
        -12    1    3    3    0    0  0.57745573817E+01 -0.97235235998E+01  0.12074188336E+02  0.16543229676E+02  0.00000000000E+00 0.  1.
</event>
<event>
 7    1  0.1381607E-011  0.5052886E+02  0.7816164E-02  0.1300439E+00
        -11   -1    0    0    0    0  0.00000000000E+00  0.00000000000E+00  0.45593999997E+02  0.45594000000E+02  0.51100000000E-03 0.  1.
         11   -1    0    0    0    0 -0.00000000000E+00 -0.00000000000E+00 -0.45593999997E+02  0.45594000000E+02  0.51100000000E-03 0. -1.
    9900012    2    1    2    0    0 -0.61323428646E+01 -0.38528649767E+02  0.11450043898E+02  0.50528856045E+02  0.29999988434E+02 0.  0.
         12    1    1    2    0    0  0.61323428646E+01  0.38528649767E+02 -0.11450043898E+02  0.40659143955E+02  0.00000000000E+00 0. -1.
         11    1    3    3    0    0 -0.77196762535E+01 -0.46751944340E+01 -0.35371723995E+01  0.96934221666E+01  0.51100000000E-03 0. -1.
        -11    1    3    3    0    0  0.34177816386E+01 -0.81434840681E+01 -0.30861194573E+01  0.93553031839E+01  0.51100000000E-03 0.  1.
        -12    1    3    3    0    0 -0.18304482497E+01 -0.25709971265E+02  0.18073335754E+02  0.31480130694E+02  0.00000000000E+00 0.  1.
</event>
<event>
 7    1  0.1381607E-011  0.5052888E+02  0.7816164E-02  0.1300439E+00
        -11   -1    0    0    0    0  0.00000000000E+00  0.00000000000E+00  0.45593999997E+02  0.45594000000E+02  0.51100000000E-03 0.  1.
         11   -1    0    0    0    0 -0.00000000000E+00 -0.00000000000E+00 -0.45593999997E+02  0.45594000000E+02  0.51100000000E-03 0. -1.
    9900012    2    1    2    0    0  0.29554315978E+02 -0.26799174527E+02 -0.78428856894E+01  0.50528877971E+02  0.30000055081E+02 0.  0.
         12    1    1    2    0    0 -0.29554315978E+02  0.26799174527E+02  0.78428856894E+01  0.40659122029E+02  0.00000000000E+00 0. -1.
         11    1    3    3    0    0  0.62439595674E+01 -0.11142810677E+02 -0.14082675825E+02  0.19012391210E+02  0.51100000000E-03 0. -1.
        -11    1    3    3    0    0  0.70974164982E+01  0.15175393474E+01  0.19111808235E+01  0.75052554268E+01  0.51100000000E-03 0.  1.
        -12    1    3    3    0    0  0.16212939912E+02 -0.17173903197E+02  0.43286093123E+01  0.24011231334E+02  0.00000000000E+00 0.  1.
</event>
<event>
 7    1  0.1381607E-011  0.5052885E+02  0.7816164E-02  0.1300439E+00
        -11   -1    0    0    0    0  0.00000000000E+00  0.00000000000E+00  0.45593999997E+02  0.45594000000E+02  0.51100000000E-03 0. -1.
         11   -1    0    0    0    0 -0.00000000000E+00 -0.00000000000E+00 -0.45593999997E+02  0.45594000000E+02  0.51100000000E-03 0.  1.
    9900012    2    1    2    0    0  0.26035224473E+02 -0.28300796500E+02 -0.13205995281E+02  0.50528852108E+02  0.29999976468E+02 0.  0.
         12    1    1    2    0    0 -0.26035224473E+02  0.28300796500E+02  0.13205995281E+02  0.40659147892E+02  0.00000000000E+00 0. -1.
         11    1    3    3    0    0 -0.35396816542E+01 -0.98346893178E+01 -0.24052776602E+01  0.10725475331E+02  0.51100000000E-03 0. -1.
        -11    1    3    3    0    0  0.70800574422E+01  0.73095294704E+00 -0.70076080065E+01  0.99883970600E+01  0.51100000000E-03 0.  1.
        -12    1    3    3    0    0  0.22494848685E+02 -0.19197060129E+02 -0.37931096146E+01  0.29814979717E+02  0.00000000000E+00 0.  1.
</event>
<event>
 7    1  0.1381607E-011  0.5052882E+02  0.7816164E-02  0.1300439E+00
        -11   -1    0    0    0    0  0.00000000000E+00  0.00000000000E+00  0.45593999997E+02  0.45594000000E+02  0.51100000000E-03 0.  1.
         11   -1    0    0    0    0 -0.00000000000E+00 -0.00000000000E+00 -0.45593999997E+02  0.45594000000E+02  0.51100000000E-03 0. -1.
    9900012    2    1    2    0    0  0.39963301419E+01 -0.18393785668E+02  0.36039801323E+02  0.50528815487E+02  0.29999865155E+02 0.  0.
         12    1    1    2    0    0 -0.39963301419E+01  0.18393785668E+02 -0.36039801323E+02  0.40659184513E+02  0.00000000000E+00 0. -1.
         11    1    3    3    0    0 -0.47822810441E+01  0.29281708190E+01  0.62375558490E+01  0.83875800777E+01  0.51100000000E-03 0. -1.
        -11    1    3    3    0    0  0.53026683578E+01 -0.23511141138E+02  0.29395904503E+02  0.38013303607E+02  0.51100000000E-03 0.  1.
         12    1    3    3    0    0  0.34759428283E+01  0.21891846507E+01  0.40634097109E+00  0.41279318024E+01  0.00000000000E+00 0. -1.
</event>
<event>
 7    1  0.1381607E-011  0.5052886E+02  0.7816164E-02  0.1300439E+00
        -11   -1    0    0    0    0  0.00000000000E+00  0.00000000000E+00  0.45593999997E+02  0.45594000000E+02  0.51100000000E-03 0.  1.
         11   -1    0    0    0    0 -0.00000000000E+00 -0.00000000000E+00 -0.45593999997E+02  0.45594000000E+02  0.51100000000E-03 0. -1.
    9900012    2    1    2    0    0 -0.82346285368E+01  0.18143898237E+02  0.35442281076E+02  0.50528862795E+02  0.30000008952E+02 0.  0.
         12    1    1    2    0    0  0.82346285368E+01 -0.18143898237E+02 -0.35442281076E+02  0.40659137205E+02  0.00000000000E+00 0. -1.
         11    1    3    3    0    0 -0.11433245012E+02  0.32723442281E+00  0.37820708199E+01  0.12047001030E+02  0.51100000000E-03 0. -1.
        -11    1    3    3    0    0  0.80760068317E+00  0.30538513652E+01  0.17844124194E+02  0.18121561620E+02  0.51100000000E-03 0.  1.
        -12    1    3    3    0    0  0.23910157924E+01  0.14762812449E+02  0.13816086062E+02  0.20360300145E+02  0.00000000000E+00 0.  1.
</event>
<event>
 7    1  0.1381607E-011  0.5052887E+02  0.7816164E-02  0.1300439E+00
        -11   -1    0    0    0    0  0.00000000000E+00  0.00000000000E+00  0.45593999997E+02  0.45594000000E+02  0.51100000000E-03 0.  1.
         11   -1    0    0    0    0 -0.00000000000E+00 -0.00000000000E+00 -0.45593999997E+02  0.45594000000E+02  0.51100000000E-03 0. -1.
    9900012    2    1    2    0    0  0.33881669931E+02 -0.54023590139E+01  0.21817702119E+02  0.50528866143E+02  0.30000019129E+02 0.  0.
         12    1    1    2    0    0 -0.33881669931E+02  0.54023590139E+01 -0.21817702119E+02  0.40659133857E+02  0.00000000000E+00 0. -1.
         11    1    3    3    0    0  0.98676702468E+01 -0.92040030863E-02 -0.27721784810E+01  0.10249681683E+02  0.51100000000E-03 0. -1.
        -11    1    3    3    0    0  0.26947965342E+02 -0.76420695233E+01  0.23047099025E+02  0.36273445334E+02  0.51100000000E-03 0.  1.
         12    1    3    3    0    0 -0.29339656573E+01  0.22489145125E+01  0.15427815746E+01  0.40057391265E+01  0.00000000000E+00 0. -1.
</event>
<event>
 7    1  0.1381607E-011  0.5052886E+02  0.7816164E-02  0.1300439E+00
        -11   -1    0    0    0    0  0.00000000000E+00  0.00000000000E+00  0.45593999997E+02  0.45594000000E+02  0.51100000000E-03 0.  1.
         11   -1    0    0    0    0 -0.00000000000E+00 -0.00000000000E+00 -0.45593999997E+02  0.45594000000E+02  0.51100000000E-03 0. -1.
    9900012    2    1    2    0    0 -0.33820852088E+02 -0.22565121442E+02 -0.36225360866E+00  0.50528856265E+02  0.29999989102E+02 0.  0.
         12    1    1    2    0    0  0.33820852088E+02  0.22565121442E+02  0.36225360866E+00  0.40659143735E+02  0.00000000000E+00 0. -1.
         11    1    3    3    0    0 -0.16424827766E+02 -0.17274660640E+02 -0.12300731053E+02  0.26823438483E+02  0.51100000000E-03 0. -1.
        -11    1    3    3    0    0 -0.22334338975E+01  0.16906247133E+01 -0.55464114902E+00  0.28555325180E+01  0.51100000000E-03 0.  1.
         12    1    3    3    0    0 -0.15162590424E+02 -0.69810855149E+01  0.12493118593E+02  0.20849885263E+02  0.00000000000E+00 0. -1.
</event>
<event>
 7    1  0.1381607E-011  0.5052892E+02  0.7816164E-02  0.1300439E+00
        -11   -1    0    0    0    0  0.00000000000E+00  0.00000000000E+00  0.45593999997E+02  0.45594000000E+02  0.51100000000E-03 0. -1.
         11   -1    0    0    0    0 -0.00000000000E+00 -0.00000000000E+00 -0.45593999997E+02  0.45594000000E+02  0.51100000000E-03 0.  1.
    9900012    2    1    2    0    0  0.37479056681E+02  0.10260648887E+02 -0.11966628362E+02  0.50528919838E+02  0.30000182339E+02 0.  0.
         12    1    1    2    0    0 -0.37479056681E+02 -0.10260648887E+02  0.11966628362E+02  0.40659080162E+02  0.00000000000E+00 0. -1.
         11    1    3    3    0    0 -0.32105955946E+00 -0.16800667822E+01 -0.32020684293E+01  0.36302818238E+01  0.51100000000E-03 0. -1.
        -11    1    3    3    0    0 -0.28856622122E+01 -0.28022662605E-01  0.15172718196E+01  0.32603597514E+01  0.51100000000E-03 0.  1.
        -12    1    3    3    0    0  0.40685778453E+02  0.11968738332E+02 -0.10281831752E+02  0.43638278263E+02  0.00000000000E+00 0.  1.
</event>
<event>
 7    1  0.1381607E-011  0.5052887E+02  0.7816164E-02  0.1300439E+00
        -11   -1    0    0    0    0  0.00000000000E+00  0.00000000000E+00  0.45593999997E+02  0.45594000000E+02  0.51100000000E-03 0.  1.
         11   -1    0    0    0    0 -0.00000000000E+00 -0.00000000000E+00 -0.45593999997E+02  0.45594000000E+02  0.51100000000E-03 0. -1.
    9900012    2    1    2    0    0 -0.96802748881E+01  0.38988877939E+02  0.62709505401E+01  0.50528866395E+02  0.30000019894E+02 0.  0.
         12    1    1    2    0    0  0.96802748881E+01 -0.38988877939E+02 -0.62709505401E+01  0.40659133605E+02  0.00000000000E+00 0. -1.
         11    1    3    3    0    0 -0.37862779149E+01  0.41824708105E+01 -0.68293181345E+00  0.56829005493E+01  0.51100000000E-03 0. -1.
        -11    1    3    3    0    0 -0.87466136738E+01  0.38168430390E+02  0.86846282136E+01  0.40109289407E+02  0.51100000000E-03 0.  1.
         12    1    3    3    0    0  0.28526167007E+01 -0.33620232621E+01 -0.17307458600E+01  0.47366764390E+01  0.00000000000E+00 0. -1.
</event>
<event>
 7    1  0.1381607E-011  0.5052886E+02  0.7816164E-02  0.1300439E+00
        -11   -1    0    0    0    0  0.00000000000E+00  0.00000000000E+00  0.45593999997E+02  0.45594000000E+02  0.51100000000E-03 0.  1.
         11   -1    0    0    0    0 -0.00000000000E+00 -0.00000000000E+00 -0.45593999997E+02  0.45594000000E+02  0.51100000000E-03 0. -1.
    9900012    2    1    2    0    0 -0.33014257757E+02 -0.23108630110E+02 -0.54051528118E+01  0.50528859850E+02  0.30000000000E+02 0.  0.
         12    1    1    2    0    0  0.33014257757E+02  0.23108630110E+02  0.54051528118E+01  0.40659140150E+02  0.00000000000E+00 0. -1.
         11    1    3    3    0    0 -0.17014758770E-01 -0.60305679343E+01 -0.69690239398E+01  0.92160367864E+01  0.51100000000E-03 0. -1.
        -11    1    3    3    0    0 -0.18746873846E+02  0.30406628162E+00 -0.36890605423E+00  0.18752968491E+02  0.51100000000E-03 0.  1.
         12    1    3    3    0    0 -0.14250369153E+02 -0.17382128457E+02  0.19327771823E+01  0.22559854573E+02  0.00000000000E+00 0. -1.
</event>
<event>
 7    1  0.1381607E-011  0.5052886E+02  0.7816164E-02  0.1300439E+00
        -11   -1    0    0    0    0  0.00000000000E+00  0.00000000000E+00  0.45593999997E+02  0.45594000000E+02  0.51100000000E-03 0.  1.
         11   -1    0    0    0    0 -0.00000000000E+00 -0.00000000000E+00 -0.45593999997E+02  0.45594000000E+02  0.51100000000E-03 0. -1.
    9900012    2    1    2    0    0  0.51747294140E+01  0.34808390623E+02  0.20365752847E+02  0.50528858699E+02  0.29999996502E+02 0.  0.
         12    1    1    2    0    0 -0.51747294140E+01 -0.34808390623E+02 -0.20365752847E+02  0.40659141301E+02  0.00000000000E+00 0. -1.
         11    1    3    3    0    0 -0.22146323586E+00  0.19159861084E+02  0.16862890973E+02  0.25524623698E+02  0.51100000000E-03 0. -1.
        -11    1    3    3    0    0  0.42037172622E+01  0.19860120412E+02  0.36449492758E+01  0.20624773383E+02  0.51100000000E-03 0.  1.
         12    1    3    3    0    0  0.11924753877E+01 -0.42115908731E+01 -0.14208740141E+00  0.43794616178E+01  0.00000000000E+00 0. -1.
</event>
<event>
 7    1  0.1381607E-011  0.5052886E+02  0.7816164E-02  0.1300439E+00
        -11   -1    0    0    0    0  0.00000000000E+00  0.00000000000E+00  0.45593999997E+02  0.45594000000E+02  0.51100000000E-03 0.  1.
         11   -1    0    0    0    0 -0.00000000000E+00 -0.00000000000E+00 -0.45593999997E+02  0.45594000000E+02  0.51100000000E-03 0. -1.
    9900012    2    1    2    0    0  0.17280685015E+02 -0.14583365804E+02  0.33791555714E+02  0.50528857482E+02  0.29999992802E+02 0.  0.
         12    1    1    2    0    0 -0.17280685015E+02  0.14583365804E+02 -0.33791555714E+02  0.40659142518E+02  0.00000000000E+00 0. -1.
         11    1    3    3    0    0  0.72284346832E+01  0.46950495383E+01  0.11561075594E+02  0.14420548786E+02  0.51100000000E-03 0. -1.
        -11    1    3    3    0    0  0.60765030925E+01  0.17574854916E+01  0.87941712295E+01  0.10832824791E+02  0.51100000000E-03 0.  1.
         12    1    3    3    0    0  0.39757472389E+01 -0.21035900834E+02  0.13436308890E+02  0.25275483904E+02  0.00000000000E+00 0. -1.
</event>
<event>
 7    1  0.1381607E-011  0.5052886E+02  0.7816164E-02  0.1300439E+00
        -11   -1    0    0    0    0  0.00000000000E+00  0.00000000000E+00  0.45593999997E+02  0.45594000000E+02  0.51100000000E-03 0. -1.
         11   -1    0    0    0    0 -0.00000000000E+00 -0.00000000000E+00 -0.45593999997E+02  0.45594000000E+02  0.51100000000E-03 0.  1.
    9900012    2    1    2    0    0  0.18263551126E+02  0.22606712351E+02 -0.28434921683E+02  0.50528861861E+02  0.30000006114E+02 0.  0.
         12    1    1    2    0    0 -0.18263551126E+02 -0.22606712351E+02  0.28434921683E+02  0.40659138139E+02  0.00000000000E+00 0. -1.
         11    1    3    3    0    0  0.51401508977E+01  0.33195812491E+00 -0.12107414191E+02  0.13157538756E+02  0.51100000000E-03 0. -1.
        -11    1    3    3    0    0  0.13130952072E+02  0.19118365963E+02 -0.21294454079E+02  0.31486308043E+02  0.51100000000E-03 0.  1.
         12    1    3    3    0    0 -0.75518431127E-02  0.31563882629E+01  0.49669465865E+01  0.58850150629E+01  0.00000000000E+00 0. -1.
</event>
<event>
 7    1  0.1381607E-011  0.5052886E+02  0.7816164E-02  0.1300439E+00
        -11   -1    0    0    0    0  0.00000000000E+00  0.00000000000E+00  0.45593999997E+02  0.45594000000E+02  0.51100000000E-03 0.  1.
         11   -1    0    0    0    0 -0.00000000000E+00 -0.00000000000E+00 -0.45593999997E+02  0.45594000000E+02  0.51100000000E-03 0. -1.
    9900012    2    1    2    0    0  0.14268734717E+02  0.28950619786E+02  0.24727117323E+02  0.50528861943E+02  0.30000006362E+02 0.  0.
         12    1    1    2    0    0 -0.14268734717E+02 -0.28950619786E+02 -0.24727117323E+02  0.40659138057E+02  0.00000000000E+00 0. -1.
         11    1    3    3    0    0 -0.15895983819E+01  0.14551842578E+02  0.59032962884E+01  0.15783911200E+02  0.51100000000E-03 0.  1.
        -11    1    3    3    0    0  0.14039658025E+02 -0.51014308825E+00  0.10772261048E+02  0.17703498293E+02  0.51100000000E-03 0. -1.
         12    1    3    3    0    0  0.18186750737E+01  0.14908920296E+02  0.80515599861E+01  0.17041452450E+02  0.00000000000E+00 0. -1.
</event>
<event>
 7    1  0.1381607E-011  0.5052886E+02  0.7816164E-02  0.1300439E+00
        -11   -1    0    0    0    0  0.00000000000E+00  0.00000000000E+00  0.45593999997E+02  0.45594000000E+02  0.51100000000E-03 0.  1.
         11   -1    0    0    0    0 -0.00000000000E+00 -0.00000000000E+00 -0.45593999997E+02  0.45594000000E+02  0.51100000000E-03 0. -1.
    9900012    2    1    2    0    0  0.36896004016E+02 -0.11404381108E+02 -0.12719694553E+02  0.50528860187E+02  0.30000001025E+02 0.  0.
         12    1    1    2    0    0 -0.36896004016E+02  0.11404381108E+02  0.12719694553E+02  0.40659139813E+02  0.00000000000E+00 0. -1.
         11    1    3    3    0    0  0.21733425091E-01  0.20854142772E+01  0.39553755787E+01  0.44715121916E+01  0.51100000000E-03 0. -1.
        -11    1    3    3    0    0  0.12754932898E+02 -0.98335070212E+01  0.67855689494E+00  0.16119758475E+02  0.51100000000E-03 0.  1.
         12    1    3    3    0    0  0.24119337693E+02 -0.36562883637E+01 -0.17353627026E+02  0.29937589521E+02  0.00000000000E+00 0. -1.
</event>
<event>
 7    1  0.1381607E-011  0.5052886E+02  0.7816164E-02  0.1300439E+00
        -11   -1    0    0    0    0  0.00000000000E+00  0.00000000000E+00  0.45593999997E+02  0.45594000000E+02  0.51100000000E-03 0.  1.
         11   -1    0    0    0    0 -0.00000000000E+00 -0.00000000000E+00 -0.45593999997E+02  0.45594000000E+02  0.51100000000E-03 0. -1.
    9900012    2    1    2    0    0  0.85252235409E+01  0.87119911917E+01  0.38789015760E+02  0.50528856248E+02  0.29999989053E+02 0.  0.
         12    1    1    2    0    0 -0.85252235409E+01 -0.87119911917E+01 -0.38789015760E+02  0.40659143752E+02  0.00000000000E+00 0. -1.
         11    1    3    3    0    0  0.68593350548E+01  0.23057430469E+01  0.12090951268E+01  0.73368140006E+01  0.51100000000E-03 0. -1.
        -11    1    3    3    0    0  0.87086956746E+01 -0.35969810523E+00  0.28692935456E+02  0.29987585905E+02  0.51100000000E-03 0.  1.
         12    1    3    3    0    0 -0.70428071885E+01  0.67659462501E+01  0.88869851775E+01  0.13204456342E+02  0.00000000000E+00 0. -1.
</event>
<event>
 7    1  0.1381607E-011  0.5052887E+02  0.7816164E-02  0.1300439E+00
        -11   -1    0    0    0    0  0.00000000000E+00  0.00000000000E+00  0.45593999997E+02  0.45594000000E+02  0.51100000000E-03 0.  1.
         11   -1    0    0    0    0 -0.00000000000E+00 -0.00000000000E+00 -0.45593999997E+02  0.45594000000E+02  0.51100000000E-03 0. -1.
    9900012    2    1    2    0    0  0.25309851557E+02  0.15159491109E+02  0.27977959051E+02  0.50528868809E+02  0.30000027233E+02 0.  0.
         12    1    1    2    0    0 -0.25309851557E+02 -0.15159491109E+02 -0.27977959051E+02  0.40659131191E+02  0.00000000000E+00 0. -1.
         11    1    3    3    0    0  0.10508171662E+02  0.19405264047E+01  0.22934909890E+02  0.25302122566E+02  0.51100000000E-03 0. -1.
        -11    1    3    3    0    0  0.36698576982E+01  0.12300766593E+02 -0.31078139881E+00  0.12840299827E+02  0.51100000000E-03 0.  1.
         12    1    3    3    0    0  0.11131822196E+02  0.91819811128E+00  0.53538305602E+01  0.12386446417E+02  0.00000000000E+00 0. -1.
</event>
<event>
 7    1  0.1381607E-011  0.5052886E+02  0.7816164E-02  0.1300439E+00
        -11   -1    0    0    0    0  0.00000000000E+00  0.00000000000E+00  0.45593999997E+02  0.45594000000E+02  0.51100000000E-03 0.  1.
         11   -1    0    0    0    0 -0.00000000000E+00 -0.00000000000E+00 -0.45593999997E+02  0.45594000000E+02  0.51100000000E-03 0. -1.
    9900012    2    1    2    0    0 -0.22380653472E+02 -0.30383843301E+02  0.15135856736E+02  0.50528859051E+02  0.29999997572E+02 0.  0.
         12    1    1    2    0    0  0.22380653472E+02  0.30383843301E+02 -0.15135856736E+02  0.40659140949E+02  0.00000000000E+00 0. -1.
         11    1    3    3    0    0  0.47138005455E+01 -0.49504213527E+01  0.13168178867E+01  0.69613645760E+01  0.51100000000E-03 0. -1.
        -11    1    3    3    0    0 -0.29339782056E+01 -0.90118502126E+01  0.10534777843E+02  0.14170505172E+02  0.51100000000E-03 0.  1.
         12    1    3    3    0    0 -0.24160475812E+02 -0.16421571736E+02  0.32842610066E+01  0.29396989303E+02  0.00000000000E+00 0. -1.
</event>
<event>
 7    1  0.1381607E-011  0.5052887E+02  0.7816164E-02  0.1300439E+00
        -11   -1    0    0    0    0  0.00000000000E+00  0.00000000000E+00  0.45593999997E+02  0.45594000000E+02  0.51100000000E-03 0.  1.
         11   -1    0    0    0    0 -0.00000000000E+00 -0.00000000000E+00 -0.45593999997E+02  0.45594000000E+02  0.51100000000E-03 0. -1.
    9900012    2    1    2    0    0 -0.14344482154E+02 -0.34583772714E+02  0.15854452497E+02  0.50528866126E+02  0.30000019077E+02 0.  0.
         12    1    1    2    0    0  0.14344482154E+02  0.34583772714E+02 -0.15854452497E+02  0.40659133874E+02  0.00000000000E+00 0. -1.
         11    1    3    3    0    0  0.20037675301E+01 -0.13500588822E+01  0.79928963053E+00  0.25449179701E+01  0.51100000000E-03 0. -1.
        -11    1    3    3    0    0 -0.21085676019E+02 -0.17912240575E+02  0.15925892125E+02  0.31923159866E+02  0.51100000000E-03 0.  1.
        -12    1    3    3    0    0  0.47374263354E+01 -0.15321473257E+02 -0.87072925831E+00  0.16060788290E+02  0.00000000000E+00 0.  1.
</event>
<event>
 7    1  0.1381607E-011  0.5052888E+02  0.7816164E-02  0.1300439E+00
        -11   -1    0    0    0    0  0.00000000000E+00  0.00000000000E+00  0.45593999997E+02  0.45594000000E+02  0.51100000000E-03 0.  1.
         11   -1    0    0    0    0 -0.00000000000E+00 -0.00000000000E+00 -0.45593999997E+02  0.45594000000E+02  0.51100000000E-03 0. -1.
    9900012    2    1    2    0    0 -0.18391712567E+01 -0.39720556019E+02 -0.84887510540E+01  0.50528880287E+02  0.30000062119E+02 0.  0.
         12    1    1    2    0    0  0.18391712567E+01  0.39720556019E+02  0.84887510540E+01  0.40659119713E+02  0.00000000000E+00 0. -1.
         11    1    3    3    0    0 -0.51208541530E+00  0.46239109125E+00 -0.13217263982E+01  0.14909721415E+01  0.51100000000E-03 0. -1.
        -11    1    3    3    0    0 -0.59798449823E+01 -0.29731619561E+02  0.67026388396E+01  0.31058865327E+02  0.51100000000E-03 0.  1.
        -12    1    3    3    0    0  0.46527591410E+01 -0.10451327550E+02 -0.13869663495E+02  0.17979042818E+02  0.00000000000E+00 0.  1.
</event>
<event>
 7    1  0.1381607E-011  0.5052881E+02  0.7816164E-02  0.1300439E+00
        -11   -1    0    0    0    0  0.00000000000E+00  0.00000000000E+00  0.45593999997E+02  0.45594000000E+02  0.51100000000E-03 0.  1.
         11   -1    0    0    0    0 -0.00000000000E+00 -0.00000000000E+00 -0.45593999997E+02  0.45594000000E+02  0.51100000000E-03 0. -1.
    9900012    2    1    2    0    0  0.33285804342E+02 -0.22389299394E+01  0.23242461739E+02  0.50528811547E+02  0.29999853179E+02 0.  0.
         12    1    1    2    0    0 -0.33285804342E+02  0.22389299394E+01 -0.23242461739E+02  0.40659188453E+02  0.00000000000E+00 0. -1.
         11    1    3    3    0    0 -0.51964267053E+00 -0.40917033114E+01 -0.19836928117E+01  0.45768004027E+01  0.51100000000E-03 0. -1.
        -11    1    3    3    0    0  0.18455873037E+02  0.17471964368E+01  0.27600848372E+01  0.18742732285E+02  0.51100000000E-03 0.  1.
        -12    1    3    3    0    0  0.15349573975E+02  0.10557693518E+00  0.22466069713E+02  0.27209278860E+02  0.00000000000E+00 0.  1.
</event>
<event>
 7    1  0.1381607E-011  0.5052885E+02  0.7816164E-02  0.1300439E+00
        -11   -1    0    0    0    0  0.00000000000E+00  0.00000000000E+00  0.45593999997E+02  0.45594000000E+02  0.51100000000E-03 0.  1.
         11   -1    0    0    0    0 -0.00000000000E+00 -0.00000000000E+00 -0.45593999997E+02  0.45594000000E+02  0.51100000000E-03 0. -1.
    9900012    2    1    2    0    0  0.11856950287E+01  0.22422988360E+02  0.33896467326E+02  0.50528846334E+02  0.29999958915E+02 0.  0.
         12    1    1    2    0    0 -0.11856950287E+01 -0.22422988360E+02 -0.33896467326E+02  0.40659153666E+02  0.00000000000E+00 0. -1.
         11    1    3    3    0    0 -0.57114876432E+01  0.20462455244E+01 -0.16350633740E+01  0.62834420776E+01  0.51100000000E-03 0. -1.
        -11    1    3    3    0    0  0.44166860913E+01 -0.12557503197E+01  0.62117840189E+01  0.77246544164E+01  0.51100000000E-03 0.  1.
        -12    1    3    3    0    0  0.24804965806E+01  0.21632493155E+02  0.29319746681E+02  0.36520749840E+02  0.00000000000E+00 0.  1.
</event>
<event>
 7    1  0.1381607E-011  0.5052885E+02  0.7816164E-02  0.1300439E+00
        -11   -1    0    0    0    0  0.00000000000E+00  0.00000000000E+00  0.45593999997E+02  0.45594000000E+02  0.51100000000E-03 0.  1.
         11   -1    0    0    0    0 -0.00000000000E+00 -0.00000000000E+00 -0.45593999997E+02  0.45594000000E+02  0.51100000000E-03 0. -1.
    9900012    2    1    2    0    0  0.24183034359E+01  0.36592096816E+01  0.40421879363E+02  0.50528851727E+02  0.29999975310E+02 0.  0.
         12    1    1    2    0    0 -0.24183034359E+01 -0.36592096816E+01 -0.40421879363E+02  0.40659148273E+02  0.00000000000E+00 0. -1.
         11    1    3    3    0    0  0.42799323374E+01 -0.81441253918E+00 -0.20064681989E+00  0.43613470401E+01  0.51100000000E-03 0. -1.
        -11    1    3    3    0    0  0.24987992024E+01 -0.13931520531E+01 -0.16263903285E+01  0.32908989439E+01  0.51100000000E-03 0.  1.
        -12    1    3    3    0    0 -0.43604281039E+01  0.58667742740E+01  0.42248916512E+02  0.42876605743E+02  0.00000000000E+00 0.  1.
</event>
<event>
 7    1  0.1381607E-011  0.5052886E+02  0.7816164E-02  0.1300439E+00
        -11   -1    0    0    0    0  0.00000000000E+00  0.00000000000E+00  0.45593999997E+02  0.45594000000E+02  0.51100000000E-03 0.  1.
         11   -1    0    0    0    0 -0.00000000000E+00 -0.00000000000E+00 -0.45593999997E+02  0.45594000000E+02  0.51100000000E-03 0. -1.
    9900012    2    1    2    0    0 -0.14423409555E+02 -0.21222913482E+01  0.37955589675E+02  0.50528860175E+02  0.30000000988E+02 0.  0.
         12    1    1    2    0    0  0.14423409555E+02  0.21222913482E+01 -0.37955589675E+02  0.40659139825E+02  0.00000000000E+00 0. -1.
         11    1    3    3    0    0 -0.17644697234E+01  0.15592548768E+01  0.10685375913E+02  0.10941749761E+02  0.51100000000E-03 0. -1.
        -11    1    3    3    0    0  0.37316406264E+01 -0.98800020112E+01  0.14340619577E+02  0.17809911611E+02  0.51100000000E-03 0.  1.
         12    1    3    3    0    0 -0.16390580458E+02  0.61984557862E+01  0.12929594186E+02  0.21777198802E+02  0.00000000000E+00 0. -1.
</event>
<event>
 7    1  0.1381607E-011  0.5052885E+02  0.7816164E-02  0.1300439E+00
        -11   -1    0    0    0    0  0.00000000000E+00  0.00000000000E+00  0.45593999997E+02  0.45594000000E+02  0.51100000000E-03 0. -1.
         11   -1    0    0    0    0 -0.00000000000E+00 -0.00000000000E+00 -0.45593999997E+02  0.45594000000E+02  0.51100000000E-03 0.  1.
    9900012    2    1    2    0    0  0.30024202895E+01 -0.22432671291E+02 -0.33777609060E+02  0.50528854132E+02  0.29999982621E+02 0.  0.
         12    1    1    2    0    0 -0.30024202895E+01  0.22432671291E+02  0.33777609060E+02  0.40659145868E+02  0.00000000000E+00 0. -1.
         11    1    3    3    0    0  0.62090237710E+00  0.39610803722E+01 -0.80412746790E+01  0.89854202017E+01  0.51100000000E-03 0. -1.
        -11    1    3    3    0    0  0.10177594385E+02 -0.16806281816E+02 -0.11805222049E+02  0.22921557622E+02  0.51100000000E-03 0.  1.
         12    1    3    3    0    0 -0.77960764724E+01 -0.95874698475E+01 -0.13931112332E+02  0.18621876309E+02  0.00000000000E+00 0. -1.
</event>
<event>
 7    1  0.1381607E-011  0.5052886E+02  0.7816164E-02  0.1300439E+00
        -11   -1    0    0    0    0  0.00000000000E+00  0.00000000000E+00  0.45593999997E+02  0.45594000000E+02  0.51100000000E-03 0.  1.
         11   -1    0    0    0    0 -0.00000000000E+00 -0.00000000000E+00 -0.45593999997E+02  0.45594000000E+02  0.51100000000E-03 0. -1.
    9900012    2    1    2    0    0 -0.22809702221E+02  0.12012366398E+02  0.31441792985E+02  0.50528858248E+02  0.29999995131E+02 0.  0.
         12    1    1    2    0    0  0.22809702221E+02 -0.12012366398E+02 -0.31441792985E+02  0.40659141752E+02  0.00000000000E+00 0. -1.
         11    1    3    3    0    0 -0.15377344789E+02  0.79902029607E+01  0.18772993893E+01  0.17430729456E+02  0.51100000000E-03 0. -1.
        -11    1    3    3    0    0 -0.18414507224E+01 -0.42638176402E+01  0.67888863542E+01  0.82255735255E+01  0.51100000000E-03 0.  1.
         12    1    3    3    0    0 -0.55909067094E+01  0.82859810775E+01  0.22775607242E+02  0.24872555266E+02  0.00000000000E+00 0. -1.
</event>
<event>
 7    1  0.1381607E-011  0.5052886E+02  0.7816164E-02  0.1300439E+00
        -11   -1    0    0    0    0  0.00000000000E+00  0.00000000000E+00  0.45593999997E+02  0.45594000000E+02  0.51100000000E-03 0. -1.
         11   -1    0    0    0    0 -0.00000000000E+00 -0.00000000000E+00 -0.45593999997E+02  0.45594000000E+02  0.51100000000E-03 0.  1.
    9900012    2    1    2    0    0  0.14871162624E+02  0.16731697196E+02 -0.33942080348E+02  0.50528856044E+02  0.29999988432E+02 0.  0.
         12    1    1    2    0    0 -0.14871162624E+02 -0.16731697196E+02  0.33942080348E+02  0.40659143956E+02  0.00000000000E+00 0. -1.
         11    1    3    3    0    0 -0.17367785715E+01 -0.24650979536E+01 -0.25870826985E+01  0.39731731497E+01  0.51100000000E-03 0. -1.
        -11    1    3    3    0    0  0.14176193187E+01  0.93321577895E+01 -0.26012010189E+02  0.27671709161E+02  0.51100000000E-03 0.  1.
         12    1    3    3    0    0  0.15190321877E+02  0.98646373599E+01 -0.53429874608E+01  0.18883973734E+02  0.00000000000E+00 0. -1.
</event>
<event>
 7    1  0.1381607E-011  0.5052886E+02  0.7816164E-02  0.1300439E+00
        -11   -1    0    0    0    0  0.00000000000E+00  0.00000000000E+00  0.45593999997E+02  0.45594000000E+02  0.51100000000E-03 0.  1.
         11   -1    0    0    0    0 -0.00000000000E+00 -0.00000000000E+00 -0.45593999997E+02  0.45594000000E+02  0.51100000000E-03 0. -1.
    9900012    2    1    2    0    0  0.19684748374E+02 -0.30891594702E+02 -0.17646119181E+02  0.50528862480E+02  0.30000007993E+02 0.  0.
         12    1    1    2    0    0 -0.19684748374E+02  0.30891594702E+02  0.17646119181E+02  0.40659137520E+02  0.00000000000E+00 0. -1.
         11    1    3    3    0    0  0.24308464813E+01 -0.11152805925E+02  0.29544041565E+01  0.11790784486E+02  0.51100000000E-03 0. -1.
        -11    1    3    3    0    0 -0.16092398798E+01 -0.12475354129E+02 -0.73464464011E+01  0.14566893582E+02  0.51100000000E-03 0.  1.
         12    1    3    3    0    0  0.18863141773E+02 -0.72634346471E+01 -0.13254076936E+02  0.24171184411E+02  0.00000000000E+00 0. -1.
</event>
<event>
 7    1  0.1381607E-011  0.5052889E+02  0.7816164E-02  0.1300439E+00
        -11   -1    0    0    0    0  0.00000000000E+00  0.00000000000E+00  0.45593999997E+02  0.45594000000E+02  0.51100000000E-03 0. -1.
         11   -1    0    0    0    0 -0.00000000000E+00 -0.00000000000E+00 -0.45593999997E+02  0.45594000000E+02  0.51100000000E-03 0.  1.
    9900012    2    1    2    0    0  0.10317026723E+02 -0.18358884480E+02 -0.34780366027E+02  0.50528886130E+02  0.30000079880E+02 0.  0.
         12    1    1    2    0    0 -0.10317026723E+02  0.18358884480E+02  0.34780366027E+02  0.40659113870E+02  0.00000000000E+00 0. -1.
         11    1    3    3    0    0  0.47021220666E+00 -0.11522536787E+02 -0.37766404772E+01  0.12134783355E+02  0.51100000000E-03 0. -1.
        -11    1    3    3    0    0 -0.78841448500E+00  0.26299501765E+01 -0.20544993235E+02  0.20727638134E+02  0.51100000000E-03 0.  1.
         12    1    3    3    0    0  0.10635229001E+02 -0.94662978697E+01 -0.10458732315E+02  0.17666464640E+02  0.00000000000E+00 0. -1.
</event>
<event>
 7    1  0.1381607E-011  0.5052888E+02  0.7816164E-02  0.1300439E+00
        -11   -1    0    0    0    0  0.00000000000E+00  0.00000000000E+00  0.45593999997E+02  0.45594000000E+02  0.51100000000E-03 0. -1.
         11   -1    0    0    0    0 -0.00000000000E+00 -0.00000000000E+00 -0.45593999997E+02  0.45594000000E+02  0.51100000000E-03 0.  1.
    9900012    2    1    2    0    0  0.35688629035E+02  0.84953347801E+01 -0.17530394800E+02  0.50528884205E+02  0.30000074029E+02 0.  0.
         12    1    1    2    0    0 -0.35688629035E+02 -0.84953347801E+01  0.17530394800E+02  0.40659115795E+02  0.00000000000E+00 0. -1.
         11    1    3    3    0    0  0.91405164174E+00  0.52196407587E+01  0.19794533829E+01  0.56567107059E+01  0.51100000000E-03 0. -1.
        -11    1    3    3    0    0  0.10716001695E+02 -0.24745136774E+01  0.30290896698E+01  0.11407510454E+02  0.51100000000E-03 0.  1.
        -12    1    3    3    0    0  0.24058575698E+02  0.57502076988E+01 -0.22538937853E+02  0.33464663045E+02  0.00000000000E+00 0.  1.
</event>
<event>
 7    1  0.1381607E-011  0.5052891E+02  0.7816164E-02  0.1300439E+00
        -11   -1    0    0    0    0  0.00000000000E+00  0.00000000000E+00  0.45593999997E+02  0.45594000000E+02  0.51100000000E-03 0. -1.
         11   -1    0    0    0    0 -0.00000000000E+00 -0.00000000000E+00 -0.45593999997E+02  0.45594000000E+02  0.51100000000E-03 0.  1.
    9900012    2    1    2    0    0 -0.11791547367E+02 -0.38343030395E+02 -0.66281697679E+01  0.50528914869E+02  0.30000167236E+02 0.  0.
         12    1    1    2    0    0  0.11791547367E+02  0.38343030395E+02  0.66281697679E+01  0.40659085131E+02  0.00000000000E+00 0. -1.
         11    1    3    3    0    0  0.17594854781E+01 -0.14242319590E+02  0.49446816888E+01  0.15178581413E+02  0.51100000000E-03 0. -1.
        -11    1    3    3    0    0  0.40779865014E+01 -0.92595298784E+01 -0.55142370408E+01  0.11522832893E+02  0.51100000000E-03 0.  1.
         12    1    3    3    0    0 -0.17629019347E+02 -0.14841180926E+02 -0.60586144160E+01  0.23827500563E+02  0.00000000000E+00 0. -1.
</event>
<event>
 7    1  0.1381607E-011  0.5052876E+02  0.7816164E-02  0.1300439E+00
        -11   -1    0    0    0    0  0.00000000000E+00  0.00000000000E+00  0.45593999997E+02  0.45594000000E+02  0.51100000000E-03 0. -1.
         11   -1    0    0    0    0 -0.00000000000E+00 -0.00000000000E+00 -0.45593999997E+02  0.45594000000E+02  0.51100000000E-03 0.  1.
    9900012    2    1    2    0    0 -0.14873316182E+02 -0.17457443250E+02 -0.33573735640E+02  0.50528762625E+02  0.29999704474E+02 0.  0.
         12    1    1    2    0    0  0.14873316182E+02  0.17457443250E+02  0.33573735640E+02  0.40659237375E+02  0.00000000000E+00 0. -1.
         11    1    3    3    0    0  0.42504353650E+01 -0.42521277988E+01 -0.10386987368E+02  0.12001512340E+02  0.51100000000E-03 0. -1.
        -11    1    3    3    0    0 -0.13365210064E+01  0.24662506647E+01  0.23672793159E+01  0.36705166342E+01  0.51100000000E-03 0.  1.
        -12    1    3    3    0    0 -0.17787230541E+02 -0.15671566116E+02 -0.25554027588E+02  0.34856733651E+02  0.00000000000E+00 0.  1.
</event>
<event>
 7    1  0.1381607E-011  0.5052887E+02  0.7816164E-02  0.1300439E+00
        -11   -1    0    0    0    0  0.00000000000E+00  0.00000000000E+00  0.45593999997E+02  0.45594000000E+02  0.51100000000E-03 0.  1.
         11   -1    0    0    0    0 -0.00000000000E+00 -0.00000000000E+00 -0.45593999997E+02  0.45594000000E+02  0.51100000000E-03 0. -1.
    9900012    2    1    2    0    0  0.37748822249E+02 -0.54004843988E+01  0.14107668368E+02  0.50528866713E+02  0.30000020860E+02 0.  0.
         12    1    1    2    0    0 -0.37748822249E+02  0.54004843988E+01 -0.14107668368E+02  0.40659133287E+02  0.00000000000E+00 0. -1.
         11    1    3    3    0    0  0.10929605449E+02  0.13588689316E+00 -0.36583760354E+01  0.11526424250E+02  0.51100000000E-03 0. -1.
        -11    1    3    3    0    0  0.48100530844E+01  0.41767463375E+01 -0.31658656356E+01  0.71136858327E+01  0.51100000000E-03 0.  1.
        -12    1    3    3    0    0  0.22009163715E+02 -0.97131176295E+01  0.20931910039E+02  0.31888756630E+02  0.00000000000E+00 0.  1.
</event>
<event>
 7    1  0.1381607E-011  0.5052887E+02  0.7816164E-02  0.1300439E+00
        -11   -1    0    0    0    0  0.00000000000E+00  0.00000000000E+00  0.45593999997E+02  0.45594000000E+02  0.51100000000E-03 0.  1.
         11   -1    0    0    0    0 -0.00000000000E+00 -0.00000000000E+00 -0.45593999997E+02  0.45594000000E+02  0.51100000000E-03 0. -1.
    9900012    2    1    2    0    0 -0.23270064051E+02  0.21045924649E+02  0.25859976297E+02  0.50528865733E+02  0.30000017882E+02 0.  0.
         12    1    1    2    0    0  0.23270064051E+02 -0.21045924649E+02 -0.25859976297E+02  0.40659134267E+02  0.00000000000E+00 0. -1.
         11    1    3    3    0    0  0.29098365124E+01 -0.32595512485E+00  0.55985372786E+01  0.63179913891E+01  0.51100000000E-03 0. -1.
        -11    1    3    3    0    0 -0.68872116191E+01  0.18455356514E+02  0.11625567787E+02  0.22873296540E+02  0.51100000000E-03 0.  1.
         12    1    3    3    0    0 -0.19292688944E+02  0.29165232590E+01  0.86358712320E+01  0.21337577804E+02  0.00000000000E+00 0. -1.
</event>
<event>
 7    1  0.1381607E-011  0.5052886E+02  0.7816164E-02  0.1300439E+00
        -11   -1    0    0    0    0  0.00000000000E+00  0.00000000000E+00  0.45593999997E+02  0.45594000000E+02  0.51100000000E-03 0.  1.
         11   -1    0    0    0    0 -0.00000000000E+00 -0.00000000000E+00 -0.45593999997E+02  0.45594000000E+02  0.51100000000E-03 0. -1.
    9900012    2    1    2    0    0 -0.13704144920E+01  0.30736559638E+02  0.26581035624E+02  0.50528860940E+02  0.30000003312E+02 0.  0.
         12    1    1    2    0    0  0.13704144920E+01 -0.30736559638E+02 -0.26581035624E+02  0.40659139060E+02  0.00000000000E+00 0. -1.
         11    1    3    3    0    0  0.61126549768E+01  0.40008318403E+01  0.50930183943E+01  0.89056186145E+01  0.51100000000E-03 0. -1.
        -11    1    3    3    0    0 -0.56186244126E+01  0.30680301703E+02  0.17812844798E+02  0.35918620421E+02  0.51100000000E-03 0.  1.
         12    1    3    3    0    0 -0.18644450562E+01 -0.39445739054E+01  0.36751724319E+01  0.57046219040E+01  0.00000000000E+00 0. -1.
</event>
<event>
 7    1  0.1381607E-011  0.5052889E+02  0.7816164E-02  0.1300439E+00
        -11   -1    0    0    0    0  0.00000000000E+00  0.00000000000E+00  0.45593999997E+02  0.45594000000E+02  0.51100000000E-03 0.  1.
         11   -1    0    0    0    0 -0.00000000000E+00 -0.00000000000E+00 -0.45593999997E+02  0.45594000000E+02  0.51100000000E-03 0. -1.
    9900012    2    1    2    0    0 -0.63231170790E+01 -0.21707129396E+02  0.33793222906E+02  0.50528890435E+02  0.30000092967E+02 0.  0.
         12    1    1    2    0    0  0.63231170790E+01  0.21707129396E+02 -0.33793222906E+02  0.40659109565E+02  0.00000000000E+00 0. -1.
         11    1    3    3    0    0 -0.46283591270E+01  0.66593205366E+00  0.15180814331E+02  0.15884656047E+02  0.51100000000E-03 0. -1.
        -11    1    3    3    0    0  0.80084580830E+01 -0.60788591072E+01  0.84200453949E+01  0.13114308736E+02  0.51100000000E-03 0.  1.
        -12    1    3    3    0    0 -0.97032160351E+01 -0.16294202342E+02  0.10192363181E+02  0.21529925652E+02  0.00000000000E+00 0.  1.
</event>
<event>
 7    1  0.1381607E-011  0.5052887E+02  0.7816164E-02  0.1300439E+00
        -11   -1    0    0    0    0  0.00000000000E+00  0.00000000000E+00  0.45593999997E+02  0.45594000000E+02  0.51100000000E-03 0.  1.
         11   -1    0    0    0    0 -0.00000000000E+00 -0.00000000000E+00 -0.45593999997E+02  0.45594000000E+02  0.51100000000E-03 0. -1.
    9900012    2    1    2    0    0  0.23258026749E+02 -0.17970048892E+02  0.28094603993E+02  0.50528865245E+02  0.30000016400E+02 0.  0.
         12    1    1    2    0    0 -0.23258026749E+02  0.17970048892E+02 -0.28094603993E+02  0.40659134755E+02  0.00000000000E+00 0. -1.
         11    1    3    3    0    0  0.16597029779E+02 -0.10426551886E+01  0.27569243434E+01  0.16856724457E+02  0.51100000000E-03 0. -1.
        -11    1    3    3    0    0  0.82489200009E+01 -0.43373727153E+01  0.87174389575E+01  0.12761317545E+02  0.51100000000E-03 0.  1.
         12    1    3    3    0    0 -0.15879230302E+01 -0.12590020988E+02  0.16620240693E+02  0.20910823243E+02  0.00000000000E+00 0. -1.
</event>
<event>
 7    1  0.1381607E-011  0.5052886E+02  0.7816164E-02  0.1300439E+00
        -11   -1    0    0    0    0  0.00000000000E+00  0.00000000000E+00  0.45593999997E+02  0.45594000000E+02  0.51100000000E-03 0. -1.
         11   -1    0    0    0    0 -0.00000000000E+00 -0.00000000000E+00 -0.45593999997E+02  0.45594000000E+02  0.51100000000E-03 0.  1.
    9900012    2    1    2    0    0  0.83124778138E+01  0.39111025420E+02 -0.73753926025E+01  0.50528855729E+02  0.29999987475E+02 0.  0.
         12    1    1    2    0    0 -0.83124778138E+01 -0.39111025420E+02  0.73753926025E+01  0.40659144271E+02  0.00000000000E+00 0. -1.
         11    1    3    3    0    0 -0.62519822047E+01  0.65095567012E+01  0.37744701827E+01  0.97830585890E+01  0.51100000000E-03 0. -1.
        -11    1    3    3    0    0  0.27777348041E+01  0.20182022531E+02 -0.10908775985E+00  0.20372573340E+02  0.51100000000E-03 0.  1.
         12    1    3    3    0    0  0.11786725214E+02  0.12419446188E+02 -0.11040775025E+02  0.20373223801E+02  0.00000000000E+00 0. -1.
</event>
<event>
 7    1  0.1381607E-011  0.5052886E+02  0.7816164E-02  0.1300439E+00
        -11   -1    0    0    0    0  0.00000000000E+00  0.00000000000E+00  0.45593999997E+02  0.45594000000E+02  0.51100000000E-03 0. -1.
         11   -1    0    0    0    0 -0.00000000000E+00 -0.00000000000E+00 -0.45593999997E+02  0.45594000000E+02  0.51100000000E-03 0.  1.
    9900012    2    1    2    0    0  0.23554586461E+02 -0.13727334997E+02 -0.30164675725E+02  0.50528856735E+02  0.29999990532E+02 0.  0.
         12    1    1    2    0    0 -0.23554586461E+02  0.13727334997E+02  0.30164675725E+02  0.40659143265E+02  0.00000000000E+00 0. -1.
         11    1    3    3    0    0  0.32487802016E+01 -0.57142218761E+01 -0.17291935561E+01  0.67968386080E+01  0.51100000000E-03 0.  1.
        -11    1    3    3    0    0  0.21944707156E+02 -0.32621099986E+01 -0.94883170983E+01  0.24129643500E+02  0.51100000000E-03 0. -1.
         12    1    3    3    0    0 -0.16389008967E+01 -0.47510031218E+01 -0.18947165071E+02  0.19602374627E+02  0.00000000000E+00 0. -1.
</event>
<event>
 7    1  0.1381607E-011  0.5052890E+02  0.7816164E-02  0.1300439E+00
        -11   -1    0    0    0    0  0.00000000000E+00  0.00000000000E+00  0.45593999997E+02  0.45594000000E+02  0.51100000000E-03 0.  1.
         11   -1    0    0    0    0 -0.00000000000E+00 -0.00000000000E+00 -0.45593999997E+02  0.45594000000E+02  0.51100000000E-03 0. -1.
    9900012    2    1    2    0    0  0.13220796268E+02  0.11272358653E+02  0.36760121861E+02  0.50528904059E+02  0.30000134376E+02 0.  0.
         12    1    1    2    0    0 -0.13220796268E+02 -0.11272358653E+02 -0.36760121861E+02  0.40659095941E+02  0.00000000000E+00 0. -1.
         11    1    3    3    0    0 -0.55967904149E+00  0.94391177942E+01  0.97428622954E+01  0.13576949264E+02  0.51100000000E-03 0. -1.
        -11    1    3    3    0    0  0.12954738628E+02  0.69789855413E+01  0.28016185579E+02  0.31645507529E+02  0.51100000000E-03 0.  1.
         12    1    3    3    0    0  0.82573668132E+00 -0.51457446821E+01 -0.99892601357E+00  0.53064472654E+01  0.00000000000E+00 0. -1.
</event>
<event>
 7    1  0.1381607E-011  0.5052887E+02  0.7816164E-02  0.1300439E+00
        -11   -1    0    0    0    0  0.00000000000E+00  0.00000000000E+00  0.45593999997E+02  0.45594000000E+02  0.51100000000E-03 0. -1.
         11   -1    0    0    0    0 -0.00000000000E+00 -0.00000000000E+00 -0.45593999997E+02  0.45594000000E+02  0.51100000000E-03 0.  1.
    9900012    2    1    2    0    0  0.10465963088E+02 -0.38639314624E+01 -0.39098577801E+02  0.50528866515E+02  0.30000020258E+02 0.  0.
         12    1    1    2    0    0 -0.10465963088E+02  0.38639314624E+01  0.39098577801E+02  0.40659133485E+02  0.00000000000E+00 0. -1.
         11    1    3    3    0    0  0.13474374208E+02  0.68499144232E+01 -0.16120610560E+02  0.22098736910E+02  0.51100000000E-03 0. -1.
        -11    1    3    3    0    0 -0.14142870184E+01  0.24266060985E+01 -0.78040337143E+01  0.82940682058E+01  0.51100000000E-03 0.  1.
        -12    1    3    3    0    0 -0.15941241021E+01 -0.13140451984E+02 -0.15173933527E+02  0.20136061399E+02  0.00000000000E+00 0.  1.
</event>
<event>
 7    1  0.1381607E-011  0.5052886E+02  0.7816164E-02  0.1300439E+00
        -11   -1    0    0    0    0  0.00000000000E+00  0.00000000000E+00  0.45593999997E+02  0.45594000000E+02  0.51100000000E-03 0.  1.
         11   -1    0    0    0    0 -0.00000000000E+00 -0.00000000000E+00 -0.45593999997E+02  0.45594000000E+02  0.51100000000E-03 0. -1.
    9900012    2    1    2    0    0  0.53981215437E+01 -0.16538418008E+02  0.36749243745E+02  0.50528857089E+02  0.29999991608E+02 0.  0.
         12    1    1    2    0    0 -0.53981215437E+01  0.16538418008E+02 -0.36749243745E+02  0.40659142911E+02  0.00000000000E+00 0. -1.
         11    1    3    3    0    0  0.39146293898E+01 -0.12608721274E+02  0.57552317955E+01  0.14402321643E+02  0.51100000000E-03 0. -1.
        -11    1    3    3    0    0  0.77667273304E+01 -0.44159484457E+00  0.52174057304E+01  0.93668768674E+01  0.51100000000E-03 0.  1.
        -12    1    3    3    0    0 -0.62832351765E+01 -0.34881018901E+01  0.25776606219E+02  0.26759658579E+02  0.00000000000E+00 0.  1.
</event>
<event>
 7    1  0.1381607E-011  0.5052887E+02  0.7816164E-02  0.1300439E+00
        -11   -1    0    0    0    0  0.00000000000E+00  0.00000000000E+00  0.45593999997E+02  0.45594000000E+02  0.51100000000E-03 0. -1.
         11   -1    0    0    0    0 -0.00000000000E+00 -0.00000000000E+00 -0.45593999997E+02  0.45594000000E+02  0.51100000000E-03 0.  1.
    9900012    2    1    2    0    0  0.27252248489E+02 -0.73440662887E+01 -0.29266786250E+02  0.50528866527E+02  0.30000020296E+02 0.  0.
         12    1    1    2    0    0 -0.27252248489E+02  0.73440662887E+01  0.29266786250E+02  0.40659133473E+02  0.00000000000E+00 0. -1.
         11    1    3    3    0    0 -0.25527565332E+01 -0.39087533535E+01 -0.30011585969E+01  0.55499434125E+01  0.51100000000E-03 0. -1.
        -11    1    3    3    0    0  0.14726565373E+02 -0.10095997123E+02 -0.59572602085E+01  0.18822588425E+02  0.51100000000E-03 0.  1.
         12    1    3    3    0    0  0.15078439650E+02  0.66606841874E+01 -0.20308367444E+02  0.26156334689E+02  0.00000000000E+00 0. -1.
</event>
<event>
 7    1  0.1381607E-011  0.5052886E+02  0.7816164E-02  0.1300439E+00
        -11   -1    0    0    0    0  0.00000000000E+00  0.00000000000E+00  0.45593999997E+02  0.45594000000E+02  0.51100000000E-03 0. -1.
         11   -1    0    0    0    0 -0.00000000000E+00 -0.00000000000E+00 -0.45593999997E+02  0.45594000000E+02  0.51100000000E-03 0.  1.
    9900012    2    1    2    0    0  0.30279059978E+02  0.18530270731E+02 -0.19823556872E+02  0.50528858180E+02  0.29999994924E+02 0.  0.
         12    1    1    2    0    0 -0.30279059978E+02 -0.18530270731E+02  0.19823556872E+02  0.40659141820E+02  0.00000000000E+00 0. -1.
         11    1    3    3    0    0 -0.16007352191E+01  0.38447520173E+01 -0.15860370974E+01  0.44564543363E+01  0.51100000000E-03 0. -1.
        -11    1    3    3    0    0  0.96712362784E+01  0.90989754760E+01 -0.18975397528E+02  0.23160092346E+02  0.51100000000E-03 0.  1.
        -12    1    3    3    0    0  0.22208558918E+02  0.55865432373E+01  0.73787775405E+00  0.22912311497E+02  0.00000000000E+00 0.  1.
</event>
<event>
 7    1  0.1381607E-011  0.5052885E+02  0.7816164E-02  0.1300439E+00
        -11   -1    0    0    0    0  0.00000000000E+00  0.00000000000E+00  0.45593999997E+02  0.45594000000E+02  0.51100000000E-03 0. -1.
         11   -1    0    0    0    0 -0.00000000000E+00 -0.00000000000E+00 -0.45593999997E+02  0.45594000000E+02  0.51100000000E-03 0.  1.
    9900012    2    1    2    0    0 -0.38401300585E+02 -0.10223185141E+02 -0.86019013457E+01  0.50528854562E+02  0.29999983926E+02 0.  0.
         12    1    1    2    0    0  0.38401300585E+02  0.10223185141E+02  0.86019013457E+01  0.40659145438E+02  0.00000000000E+00 0. -1.
         11    1    3    3    0    0 -0.61421828965E+00 -0.55279994915E+01 -0.64361390315E+01  0.85064639175E+01  0.51100000000E-03 0. -1.
        -11    1    3    3    0    0 -0.16375110384E+02 -0.36635401594E+01 -0.96013270728E+01  0.19332647217E+02  0.51100000000E-03 0.  1.
         12    1    3    3    0    0 -0.21411971911E+02 -0.10316454898E+01  0.74355647586E+01  0.22689743427E+02  0.00000000000E+00 0. -1.
</event>
<event>
 7    1  0.1381607E-011  0.5052882E+02  0.7816164E-02  0.1300439E+00
        -11   -1    0    0    0    0  0.00000000000E+00  0.00000000000E+00  0.45593999997E+02  0.45594000000E+02  0.51100000000E-03 0. -1.
         11   -1    0    0    0    0 -0.00000000000E+00 -0.00000000000E+00 -0.45593999997E+02  0.45594000000E+02  0.51100000000E-03 0.  1.
    9900012    2    1    2    0    0 -0.38771493201E+02  0.10893341052E+02  0.55924702122E+01  0.50528815461E+02  0.29999865074E+02 0.  0.
         12    1    1    2    0    0  0.38771493201E+02 -0.10893341052E+02 -0.55924702122E+01  0.40659184539E+02  0.00000000000E+00 0. -1.
         11    1    3    3    0    0 -0.10761480555E+01  0.66865741273E+01  0.92011817129E+00  0.68348362019E+01  0.51100000000E-03 0. -1.
        -11    1    3    3    0    0 -0.20380861589E+01 -0.40730368966E+01 -0.40147357142E+01  0.60713695217E+01  0.51100000000E-03 0.  1.
         12    1    3    3    0    0 -0.35657258987E+02  0.82798038213E+01  0.86870877552E+01  0.37622609737E+02  0.00000000000E+00 0. -1.
</event>
<event>
 7    1  0.1381607E-011  0.5052886E+02  0.7816164E-02  0.1300439E+00
        -11   -1    0    0    0    0  0.00000000000E+00  0.00000000000E+00  0.45593999997E+02  0.45594000000E+02  0.51100000000E-03 0. -1.
         11   -1    0    0    0    0 -0.00000000000E+00 -0.00000000000E+00 -0.45593999997E+02  0.45594000000E+02  0.51100000000E-03 0.  1.
    9900012    2    1    2    0    0  0.36555714580E+02  0.71070548775E+01  0.16319774128E+02  0.50528861727E+02  0.30000005706E+02 0.  0.
         12    1    1    2    0    0 -0.36555714580E+02 -0.71070548775E+01 -0.16319774128E+02  0.40659138273E+02  0.00000000000E+00 0. -1.
         11    1    3    3    0    0  0.47110276097E+01 -0.19650970041E+01  0.70620828420E+01  0.87136904755E+01  0.51100000000E-03 0. -1.
        -11    1    3    3    0    0  0.21509431533E+02  0.15989899518E+02  0.11522950133E+02  0.29173805228E+02  0.51100000000E-03 0.  1.
         12    1    3    3    0    0  0.10335255437E+02 -0.69177476359E+01 -0.22652588468E+01  0.12641366023E+02  0.00000000000E+00 0. -1.
</event>
<event>
 7    1  0.1381607E-011  0.5052882E+02  0.7816164E-02  0.1300439E+00
        -11   -1    0    0    0    0  0.00000000000E+00  0.00000000000E+00  0.45593999997E+02  0.45594000000E+02  0.51100000000E-03 0.  1.
         11   -1    0    0    0    0 -0.00000000000E+00 -0.00000000000E+00 -0.45593999997E+02  0.45594000000E+02  0.51100000000E-03 0. -1.
    9900012    2    1    2    0    0 -0.19213437260E+02 -0.46590621449E+01  0.35528942088E+02  0.50528821980E+02  0.29999884889E+02 0.  0.
         12    1    1    2    0    0  0.19213437260E+02  0.46590621449E+01 -0.35528942088E+02  0.40659178020E+02  0.00000000000E+00 0. -1.
         11    1    3    3    0    0 -0.17080686451E+02 -0.44204305180E+00  0.77650335955E+01  0.18768084577E+02  0.51100000000E-03 0. -1.
        -11    1    3    3    0    0  0.29830104590E+01  0.23630094842E+01  0.13097037643E+01  0.40246104697E+01  0.51100000000E-03 0.  1.
        -12    1    3    3    0    0 -0.51157612681E+01 -0.65800285773E+01  0.26454204728E+02  0.27736126933E+02  0.00000000000E+00 0.  1.
</event>
<event>
 7    1  0.1381607E-011  0.5052891E+02  0.7816164E-02  0.1300439E+00
        -11   -1    0    0    0    0  0.00000000000E+00  0.00000000000E+00  0.45593999997E+02  0.45594000000E+02  0.51100000000E-03 0.  1.
         11   -1    0    0    0    0 -0.00000000000E+00 -0.00000000000E+00 -0.45593999997E+02  0.45594000000E+02  0.51100000000E-03 0. -1.
    9900012    2    1    2    0    0  0.38219257945E+02  0.12110901635E+02  0.67657849149E+01  0.50528911695E+02  0.30000157587E+02 0.  0.
         12    1    1    2    0    0 -0.38219257945E+02 -0.12110901635E+02 -0.67657849149E+01  0.40659088305E+02  0.00000000000E+00 0. -1.
         11    1    3    3    0    0  0.36011153130E+01  0.12352104466E+01 -0.33246870318E+01  0.50544357218E+01  0.51100000000E-03 0. -1.
        -11    1    3    3    0    0  0.44049973212E+01 -0.67640834841E+01  0.63872350625E+01  0.10293376452E+02  0.51100000000E-03 0.  1.
        -12    1    3    3    0    0  0.30213145311E+02  0.17639774673E+02  0.37032368842E+01  0.35181099521E+02  0.00000000000E+00 0.  1.
</event>
<event>
 7    1  0.1381607E-011  0.5052886E+02  0.7816164E-02  0.1300439E+00
        -11   -1    0    0    0    0  0.00000000000E+00  0.00000000000E+00  0.45593999997E+02  0.45594000000E+02  0.51100000000E-03 0.  1.
         11   -1    0    0    0    0 -0.00000000000E+00 -0.00000000000E+00 -0.45593999997E+02  0.45594000000E+02  0.51100000000E-03 0. -1.
    9900012    2    1    2    0    0  0.25597325617E+02  0.31220844561E+02  0.48167648754E+01  0.50528862802E+02  0.30000008973E+02 0.  0.
         12    1    1    2    0    0 -0.25597325617E+02 -0.31220844561E+02 -0.48167648754E+01  0.40659137198E+02  0.00000000000E+00 0. -1.
         11    1    3    3    0    0  0.15216254324E+02  0.25179785069E+02  0.15921822309E+01  0.29463384332E+02  0.51100000000E-03 0.  1.
        -11    1    3    3    0    0  0.38620528320E+01  0.65949875939E+01 -0.60277880642E+01  0.97336294695E+01  0.51100000000E-03 0. -1.
        -12    1    3    3    0    0  0.65190184606E+01 -0.55392810248E+00  0.92523707087E+01  0.11331849000E+02  0.00000000000E+00 0.  1.
</event>
<event>
 7    1  0.1381607E-011  0.5052884E+02  0.7816164E-02  0.1300439E+00
        -11   -1    0    0    0    0  0.00000000000E+00  0.00000000000E+00  0.45593999997E+02  0.45594000000E+02  0.51100000000E-03 0.  1.
         11   -1    0    0    0    0 -0.00000000000E+00 -0.00000000000E+00 -0.45593999997E+02  0.45594000000E+02  0.51100000000E-03 0. -1.
    9900012    2    1    2    0    0 -0.10647296251E+02  0.31618065604E+02 -0.23240057920E+02  0.50528840120E+02  0.29999940030E+02 0.  0.
         12    1    1    2    0    0  0.10647296251E+02 -0.31618065604E+02  0.23240057920E+02  0.40659159880E+02  0.00000000000E+00 0. -1.
         11    1    3    3    0    0 -0.24469549938E+01  0.18156812837E+01 -0.14765593993E+02  0.15076705658E+02  0.51100000000E-03 0.  1.
        -11    1    3    3    0    0 -0.28448019839E+01  0.55843400539E+00 -0.46460458778E+01  0.54763573135E+01  0.51100000000E-03 0. -1.
        -12    1    3    3    0    0 -0.53555392731E+01  0.29243950315E+02 -0.38284180490E+01  0.29975777149E+02  0.00000000000E+00 0.  1.
</event>
<event>
 7    1  0.1381607E-011  0.5052886E+02  0.7816164E-02  0.1300439E+00
        -11   -1    0    0    0    0  0.00000000000E+00  0.00000000000E+00  0.45593999997E+02  0.45594000000E+02  0.51100000000E-03 0. -1.
         11   -1    0    0    0    0 -0.00000000000E+00 -0.00000000000E+00 -0.45593999997E+02  0.45594000000E+02  0.51100000000E-03 0.  1.
    9900012    2    1    2    0    0  0.33497532912E+02 -0.10744242028E+02 -0.20387313669E+02  0.50528855806E+02  0.29999987707E+02 0.  0.
         12    1    1    2    0    0 -0.33497532912E+02  0.10744242028E+02  0.20387313669E+02  0.40659144194E+02  0.00000000000E+00 0. -1.
         11    1    3    3    0    0  0.43046965351E+01 -0.84394715689E+01 -0.11361895496E+02  0.14793504052E+02  0.51100000000E-03 0. -1.
        -11    1    3    3    0    0  0.13023883962E+02 -0.99761537292E+01 -0.20740897296E+01  0.16536234310E+02  0.51100000000E-03 0.  1.
         12    1    3    3    0    0  0.16168952415E+02  0.76713832704E+01 -0.69513284436E+01  0.19199117443E+02  0.00000000000E+00 0. -1.
</event>
<event>
 7    1  0.1381607E-011  0.5052886E+02  0.7816164E-02  0.1300439E+00
        -11   -1    0    0    0    0  0.00000000000E+00  0.00000000000E+00  0.45593999997E+02  0.45594000000E+02  0.51100000000E-03 0.  1.
         11   -1    0    0    0    0 -0.00000000000E+00 -0.00000000000E+00 -0.45593999997E+02  0.45594000000E+02  0.51100000000E-03 0. -1.
    9900012    2    1    2    0    0  0.15064115168E+02 -0.28769160388E+01  0.37655829451E+02  0.50528859535E+02  0.29999999043E+02 0.  0.
         12    1    1    2    0    0 -0.15064115168E+02  0.28769160388E+01 -0.37655829451E+02  0.40659140465E+02  0.00000000000E+00 0. -1.
         11    1    3    3    0    0  0.10377989547E+02  0.40018094850E+01  0.14449422379E+02  0.18234663515E+02  0.51100000000E-03 0.  1.
        -11    1    3    3    0    0 -0.76117927090E+01  0.41407364547E+00  0.11590525076E+02  0.13872675194E+02  0.51100000000E-03 0. -1.
         12    1    3    3    0    0  0.12297918331E+02 -0.72927991694E+01  0.11615881996E+02  0.18421520826E+02  0.00000000000E+00 0. -1.
</event>
<event>
 7    1  0.1381607E-011  0.5052886E+02  0.7816164E-02  0.1300439E+00
        -11   -1    0    0    0    0  0.00000000000E+00  0.00000000000E+00  0.45593999997E+02  0.45594000000E+02  0.51100000000E-03 0. -1.
         11   -1    0    0    0    0 -0.00000000000E+00 -0.00000000000E+00 -0.45593999997E+02  0.45594000000E+02  0.51100000000E-03 0.  1.
    9900012    2    1    2    0    0 -0.58213413185E+01 -0.14772762612E+02 -0.37430510178E+02  0.50528860534E+02  0.30000002079E+02 0.  0.
         12    1    1    2    0    0  0.58213413185E+01  0.14772762612E+02  0.37430510178E+02  0.40659139466E+02  0.00000000000E+00 0. -1.
         11    1    3    3    0    0 -0.49947701485E+00  0.26100341332E+01 -0.53687529709E+01  0.59904310519E+01  0.51100000000E-03 0. -1.
        -11    1    3    3    0    0 -0.82153774647E+01 -0.16715914800E+01 -0.26221154345E+02  0.27528813640E+02  0.51100000000E-03 0.  1.
        -12    1    3    3    0    0  0.28935131610E+01 -0.15711205266E+02 -0.58406028616E+01  0.17009615842E+02  0.00000000000E+00 0.  1.
</event>
<event>
 7    1  0.1381607E-011  0.5052886E+02  0.7816164E-02  0.1300439E+00
        -11   -1    0    0    0    0  0.00000000000E+00  0.00000000000E+00  0.45593999997E+02  0.45594000000E+02  0.51100000000E-03 0.  1.
         11   -1    0    0    0    0 -0.00000000000E+00 -0.00000000000E+00 -0.45593999997E+02  0.45594000000E+02  0.51100000000E-03 0. -1.
    9900012    2    1    2    0    0 -0.85286276563E+01  0.35812254618E+02 -0.17260081411E+02  0.50528862272E+02  0.30000007361E+02 0.  0.
         12    1    1    2    0    0  0.85286276563E+01 -0.35812254618E+02  0.17260081411E+02  0.40659137728E+02  0.00000000000E+00 0. -1.
         11    1    3    3    0    0 -0.86556944613E+01  0.94938508496E+00 -0.59535245629E+01  0.10548309515E+02  0.51100000000E-03 0. -1.
        -11    1    3    3    0    0 -0.56647577562E+01  0.21000950726E+02 -0.12184383476E+02  0.24931678900E+02  0.51100000000E-03 0.  1.
         12    1    3    3    0    0  0.57918245613E+01  0.13861918807E+02  0.87782662848E+00  0.15048873857E+02  0.00000000000E+00 0. -1.
</event>
<event>
 7    1  0.1381607E-011  0.5052887E+02  0.7816164E-02  0.1300439E+00
        -11   -1    0    0    0    0  0.00000000000E+00  0.00000000000E+00  0.45593999997E+02  0.45594000000E+02  0.51100000000E-03 0.  1.
         11   -1    0    0    0    0 -0.00000000000E+00 -0.00000000000E+00 -0.45593999997E+02  0.45594000000E+02  0.51100000000E-03 0. -1.
    9900012    2    1    2    0    0  0.29133752864E+02  0.22852137890E+02 -0.16797897449E+02  0.50528866699E+02  0.30000020817E+02 0.  0.
         12    1    1    2    0    0 -0.29133752864E+02 -0.22852137890E+02  0.16797897449E+02  0.40659133301E+02  0.00000000000E+00 0. -1.
         11    1    3    3    0    0  0.72297766476E+00 -0.31986381914E+00 -0.22916984410E+01  0.24242300988E+01  0.51100000000E-03 0. -1.
        -11    1    3    3    0    0  0.53590931962E-01 -0.55010706956E+01 -0.11227212729E+01  0.56147265386E+01  0.51100000000E-03 0.  1.
        -12    1    3    3    0    0  0.28357184268E+02  0.28673072405E+02 -0.13383477735E+02  0.42489910061E+02  0.00000000000E+00 0.  1.
</event>
<event>
 7    1  0.1381607E-011  0.5052886E+02  0.7816164E-02  0.1300439E+00
        -11   -1    0    0    0    0  0.00000000000E+00  0.00000000000E+00  0.45593999997E+02  0.45594000000E+02  0.51100000000E-03 0. -1.
         11   -1    0    0    0    0 -0.00000000000E+00 -0.00000000000E+00 -0.45593999997E+02  0.45594000000E+02  0.51100000000E-03 0.  1.
    9900012    2    1    2    0    0 -0.37631393686E+01  0.18452701522E+02 -0.36034740451E+02  0.50528856739E+02  0.29999990543E+02 0.  0.
         12    1    1    2    0    0  0.37631393686E+01 -0.18452701522E+02  0.36034740451E+02  0.40659143261E+02  0.00000000000E+00 0. -1.
         11    1    3    3    0    0  0.41673622586E+01 -0.49831618554E+01 -0.12320389639E+02  0.13928058421E+02  0.51100000000E-03 0. -1.
        -11    1    3    3    0    0  0.30570276043E+01  0.52330517112E+01 -0.24706360041E+01  0.65447910976E+01  0.51100000000E-03 0.  1.
         12    1    3    3    0    0 -0.10987529231E+02  0.18202811666E+02 -0.21243714808E+02  0.30056007220E+02  0.00000000000E+00 0. -1.
</event>
<event>
 7    1  0.1381607E-011  0.5052881E+02  0.7816164E-02  0.1300439E+00
        -11   -1    0    0    0    0  0.00000000000E+00  0.00000000000E+00  0.45593999997E+02  0.45594000000E+02  0.51100000000E-03 0.  1.
         11   -1    0    0    0    0 -0.00000000000E+00 -0.00000000000E+00 -0.45593999997E+02  0.45594000000E+02  0.51100000000E-03 0. -1.
    9900012    2    1    2    0    0  0.29636925513E+02 -0.26872742520E+02  0.72579924313E+01  0.50528805486E+02  0.29999834754E+02 0.  0.
         12    1    1    2    0    0 -0.29636925513E+02  0.26872742520E+02 -0.72579924313E+01  0.40659194514E+02  0.00000000000E+00 0. -1.
         11    1    3    3    0    0  0.13073124462E+02 -0.25074604763E+02  0.78725576945E+01  0.29353356744E+02  0.51100000000E-03 0. -1.
        -11    1    3    3    0    0 -0.78937471809E+00  0.33209863525E-01 -0.34127178853E+01  0.35029785849E+01  0.51100000000E-03 0.  1.
         12    1    3    3    0    0  0.17353175769E+02 -0.18313476213E+01  0.27981526221E+01  0.17672470157E+02  0.00000000000E+00 0. -1.
</event>
<event>
 7    1  0.1381607E-011  0.5052887E+02  0.7816164E-02  0.1300439E+00
        -11   -1    0    0    0    0  0.00000000000E+00  0.00000000000E+00  0.45593999997E+02  0.45594000000E+02  0.51100000000E-03 0.  1.
         11   -1    0    0    0    0 -0.00000000000E+00 -0.00000000000E+00 -0.45593999997E+02  0.45594000000E+02  0.51100000000E-03 0. -1.
    9900012    2    1    2    0    0 -0.39878791381E+02  0.18043277031E+01 -0.77195486504E+01  0.50528867793E+02  0.30000024143E+02 0.  0.
         12    1    1    2    0    0  0.39878791381E+02 -0.18043277031E+01  0.77195486504E+01  0.40659132207E+02  0.00000000000E+00 0. -1.
         11    1    3    3    0    0 -0.15908196996E+02 -0.64553900582E+01 -0.78953422451E+01  0.18896539945E+02  0.51100000000E-03 0. -1.
        -11    1    3    3    0    0  0.22838063451E+01 -0.84699962588E+00 -0.27688719899E+01  0.36877950249E+01  0.51100000000E-03 0.  1.
        -12    1    3    3    0    0 -0.26254400730E+02  0.91067173872E+01  0.29446655847E+01  0.27944532823E+02  0.00000000000E+00 0.  1.
</event>
<event>
 7    1  0.1381607E-011  0.5052891E+02  0.7816164E-02  0.1300439E+00
        -11   -1    0    0    0    0  0.00000000000E+00  0.00000000000E+00  0.45593999997E+02  0.45594000000E+02  0.51100000000E-03 0. -1.
         11   -1    0    0    0    0 -0.00000000000E+00 -0.00000000000E+00 -0.45593999997E+02  0.45594000000E+02  0.51100000000E-03 0.  1.
    9900012    2    1    2    0    0  0.36356967683E+01 -0.12355859906E+01 -0.40477361376E+02  0.50528908179E+02  0.30000146900E+02 0.  0.
         12    1    1    2    0    0 -0.36356967683E+01  0.12355859906E+01  0.40477361376E+02  0.40659091821E+02  0.00000000000E+00 0. -1.
         11    1    3    3    0    0  0.71483445044E+01 -0.87256588716E+00 -0.26041078886E+02  0.27018474979E+02  0.51100000000E-03 0. -1.
        -11    1    3    3    0    0  0.82866187982E+00  0.75299379661E+01 -0.11978782085E+02  0.14173138918E+02  0.51100000000E-03 0.  1.
         12    1    3    3    0    0 -0.43413096160E+01 -0.78929580695E+01 -0.24575004052E+01  0.93372942821E+01  0.00000000000E+00 0. -1.
</event>
<event>
 7    1  0.1381607E-011  0.5052886E+02  0.7816164E-02  0.1300439E+00
        -11   -1    0    0    0    0  0.00000000000E+00  0.00000000000E+00  0.45593999997E+02  0.45594000000E+02  0.51100000000E-03 0.  1.
         11   -1    0    0    0    0 -0.00000000000E+00 -0.00000000000E+00 -0.45593999997E+02  0.45594000000E+02  0.51100000000E-03 0. -1.
    9900012    2    1    2    0    0 -0.27378282021E+02 -0.25099965657E+02 -0.16540471484E+02  0.50528858355E+02  0.29999995455E+02 0.  0.
         12    1    1    2    0    0  0.27378282021E+02  0.25099965657E+02  0.16540471484E+02  0.40659141645E+02  0.00000000000E+00 0. -1.
         11    1    3    3    0    0 -0.60032302366E+01 -0.26558924376E+01  0.52027487189E+01  0.83762242333E+01  0.51100000000E-03 0. -1.
        -11    1    3    3    0    0 -0.19961819693E+02 -0.94634853174E+01 -0.88370625094E+01  0.23793391391E+02  0.51100000000E-03 0.  1.
         12    1    3    3    0    0 -0.14132320911E+01 -0.12980587902E+02 -0.12906157694E+02  0.18359242731E+02  0.00000000000E+00 0. -1.
</event>
<event>
 7    1  0.1381607E-011  0.5052885E+02  0.7816164E-02  0.1300439E+00
        -11   -1    0    0    0    0  0.00000000000E+00  0.00000000000E+00  0.45593999997E+02  0.45594000000E+02  0.51100000000E-03 0.  1.
         11   -1    0    0    0    0 -0.00000000000E+00 -0.00000000000E+00 -0.45593999997E+02  0.45594000000E+02  0.51100000000E-03 0. -1.
    9900012    2    1    2    0    0 -0.68202760106E+01  0.30842535599E+02  0.25600548638E+02  0.50528852719E+02  0.29999978326E+02 0.  0.
         12    1    1    2    0    0  0.68202760106E+01 -0.30842535599E+02 -0.25600548638E+02  0.40659147281E+02  0.00000000000E+00 0. -1.
         11    1    3    3    0    0  0.10538305341E+02  0.91018444481E+01  0.71260769658E+01  0.15642264063E+02  0.51100000000E-03 0. -1.
        -11    1    3    3    0    0 -0.29392722883E+01  0.10212071732E+02  0.37384209278E+01  0.11265057565E+02  0.51100000000E-03 0.  1.
        -12    1    3    3    0    0 -0.14419309064E+02  0.11528619419E+02  0.14736050745E+02  0.23621531092E+02  0.00000000000E+00 0.  1.
</event>
<event>
 7    1  0.1381607E-011  0.5052884E+02  0.7816164E-02  0.1300439E+00
        -11   -1    0    0    0    0  0.00000000000E+00  0.00000000000E+00  0.45593999997E+02  0.45594000000E+02  0.51100000000E-03 0.  1.
         11   -1    0    0    0    0 -0.00000000000E+00 -0.00000000000E+00 -0.45593999997E+02  0.45594000000E+02  0.51100000000E-03 0. -1.
    9900012    2    1    2    0    0 -0.39185945334E+00  0.49614798180E+01  0.40353402690E+02  0.50528844272E+02  0.29999952651E+02 0.  0.
         12    1    1    2    0    0  0.39185945334E+00 -0.49614798180E+01 -0.40353402690E+02  0.40659155728E+02  0.00000000000E+00 0. -1.
         11    1    3    3    0    0 -0.12202122317E+01 -0.57234951621E+01  0.82135082151E+01  0.10085089599E+02  0.51100000000E-03 0. -1.
        -11    1    3    3    0    0 -0.11757941917E+01  0.38805447363E+01  0.33044968729E+02  0.33292808203E+02  0.51100000000E-03 0.  1.
        -12    1    3    3    0    0  0.20041469701E+01  0.68044302438E+01 -0.90507425459E+00  0.71509464707E+01  0.00000000000E+00 0.  1.
</event>
<event>
 7    1  0.1381607E-011  0.5052887E+02  0.7816164E-02  0.1300439E+00
        -11   -1    0    0    0    0  0.00000000000E+00  0.00000000000E+00  0.45593999997E+02  0.45594000000E+02  0.51100000000E-03 0. -1.
         11   -1    0    0    0    0 -0.00000000000E+00 -0.00000000000E+00 -0.45593999997E+02  0.45594000000E+02  0.51100000000E-03 0.  1.
    9900012    2    1    2    0    0  0.26049961618E+02  0.11017222870E+01 -0.31198560963E+02  0.50528874352E+02  0.30000044081E+02 0.  0.
         12    1    1    2    0    0 -0.26049961618E+02 -0.11017222870E+01  0.31198560963E+02  0.40659125648E+02  0.00000000000E+00 0. -1.
         11    1    3    3    0    0  0.81406213416E+01  0.94702315471E+01 -0.11240207317E+02  0.16801704145E+02  0.51100000000E-03 0. -1.
        -11    1    3    3    0    0  0.17099345629E+02  0.14541423766E+01 -0.10825077757E+02  0.20290008864E+02  0.51100000000E-03 0.  1.
         12    1    3    3    0    0  0.80999464711E+00 -0.98226516367E+01 -0.91332758894E+01  0.13437161344E+02  0.00000000000E+00 0. -1.
</event>
<event>
 7    1  0.1381607E-011  0.5052886E+02  0.7816164E-02  0.1300439E+00
        -11   -1    0    0    0    0  0.00000000000E+00  0.00000000000E+00  0.45593999997E+02  0.45594000000E+02  0.51100000000E-03 0. -1.
         11   -1    0    0    0    0 -0.00000000000E+00 -0.00000000000E+00 -0.45593999997E+02  0.45594000000E+02  0.51100000000E-03 0.  1.
    9900012    2    1    2    0    0  0.37638424131E+02 -0.46498356696E+01 -0.14659254688E+02  0.50528859689E+02  0.29999999512E+02 0.  0.
         12    1    1    2    0    0 -0.37638424131E+02  0.46498356696E+01  0.14659254688E+02  0.40659140311E+02  0.00000000000E+00 0. -1.
         11    1    3    3    0    0  0.18545398341E+02 -0.58162494105E+01  0.10950443925E+01  0.19466886739E+02  0.51100000000E-03 0. -1.
        -11    1    3    3    0    0  0.21806357302E+02  0.45667344526E+01 -0.11944357310E+02  0.25279239588E+02  0.51100000000E-03 0.  1.
         12    1    3    3    0    0 -0.27133315126E+01 -0.34003207116E+01 -0.38099417705E+01  0.57827333618E+01  0.00000000000E+00 0. -1.
</event>
<event>
 7    1  0.1381607E-011  0.5052886E+02  0.7816164E-02  0.1300439E+00
        -11   -1    0    0    0    0  0.00000000000E+00  0.00000000000E+00  0.45593999997E+02  0.45594000000E+02  0.51100000000E-03 0.  1.
         11   -1    0    0    0    0 -0.00000000000E+00 -0.00000000000E+00 -0.45593999997E+02  0.45594000000E+02  0.51100000000E-03 0. -1.
    9900012    2    1    2    0    0  0.78206559919E+01 -0.18049267889E+02  0.35584084370E+02  0.50528858446E+02  0.29999995732E+02 0.  0.
         12    1    1    2    0    0 -0.78206559919E+01  0.18049267889E+02 -0.35584084370E+02  0.40659141554E+02  0.00000000000E+00 0. -1.
         11    1    3    3    0    0 -0.46616897269E+01  0.54141180746E+00  0.14196496378E+01  0.49030483590E+01  0.51100000000E-03 0. -1.
        -11    1    3    3    0    0  0.85364523118E+01 -0.83731760344E+01  0.26298965742E+01  0.12243261462E+02  0.51100000000E-03 0.  1.
         12    1    3    3    0    0  0.39458934070E+01 -0.10217503662E+02  0.31534538158E+02  0.33382548625E+02  0.00000000000E+00 0. -1.
</event>
<event>
 7    1  0.1381607E-011  0.5052882E+02  0.7816164E-02  0.1300439E+00
        -11   -1    0    0    0    0  0.00000000000E+00  0.00000000000E+00  0.45593999997E+02  0.45594000000E+02  0.51100000000E-03 0.  1.
         11   -1    0    0    0    0 -0.00000000000E+00 -0.00000000000E+00 -0.45593999997E+02  0.45594000000E+02  0.51100000000E-03 0. -1.
    9900012    2    1    2    0    0 -0.81701653489E+01 -0.12023302641E+02  0.37971797639E+02  0.50528821157E+02  0.29999882389E+02 0.  0.
         12    1    1    2    0    0  0.81701653489E+01  0.12023302641E+02 -0.37971797639E+02  0.40659178843E+02  0.00000000000E+00 0. -1.
         11    1    3    3    0    0  0.35879867736E+00 -0.37000722079E+01  0.28079619663E+02  0.28324623767E+02  0.51100000000E-03 0. -1.
        -11    1    3    3    0    0  0.20633630978E+01 -0.63805023628E+01 -0.11232789024E+01  0.67992671244E+01  0.51100000000E-03 0.  1.
         12    1    3    3    0    0 -0.10592327124E+02 -0.19427280701E+01  0.11015456879E+02  0.15404930266E+02  0.00000000000E+00 0. -1.
</event>
<event>
 7    1  0.1381607E-011  0.5052886E+02  0.7816164E-02  0.1300439E+00
        -11   -1    0    0    0    0  0.00000000000E+00  0.00000000000E+00  0.45593999997E+02  0.45594000000E+02  0.51100000000E-03 0.  1.
         11   -1    0    0    0    0 -0.00000000000E+00 -0.00000000000E+00 -0.45593999997E+02  0.45594000000E+02  0.51100000000E-03 0. -1.
    9900012    2    1    2    0    0 -0.18714647262E+02 -0.36071186879E+02 -0.13406064246E+01  0.50528858708E+02  0.29999996529E+02 0.  0.
         12    1    1    2    0    0  0.18714647262E+02  0.36071186879E+02  0.13406064246E+01  0.40659141292E+02  0.00000000000E+00 0. -1.
         11    1    3    3    0    0 -0.17550667720E+02 -0.33495226332E+02 -0.67434493766E+01  0.38411329504E+02  0.51100000000E-03 0. -1.
        -11    1    3    3    0    0 -0.37643641765E+01 -0.56691074782E+01  0.33462369301E+01  0.75833052890E+01  0.51100000000E-03 0.  1.
         12    1    3    3    0    0  0.26003846341E+01  0.30931469318E+01  0.20566060219E+01  0.45342239155E+01  0.00000000000E+00 0. -1.
</event>
<event>
 7    1  0.1381607E-011  0.5052887E+02  0.7816164E-02  0.1300439E+00
        -11   -1    0    0    0    0  0.00000000000E+00  0.00000000000E+00  0.45593999997E+02  0.45594000000E+02  0.51100000000E-03 0.  1.
         11   -1    0    0    0    0 -0.00000000000E+00 -0.00000000000E+00 -0.45593999997E+02  0.45594000000E+02  0.51100000000E-03 0. -1.
    9900012    2    1    2    0    0 -0.69641990095E+00  0.15502065421E+02  0.37581452893E+02  0.50528872679E+02  0.30000038994E+02 0.  0.
         12    1    1    2    0    0  0.69641990095E+00 -0.15502065421E+02 -0.37581452893E+02  0.40659127321E+02  0.00000000000E+00 0. -1.
         11    1    3    3    0    0 -0.15113465568E+01  0.13073055693E+01 -0.33658172950E+01  0.39143253047E+01  0.51100000000E-03 0. -1.
        -11    1    3    3    0    0 -0.72154069040E+01  0.65734182870E+01  0.11105426130E+02  0.14785209317E+02  0.51100000000E-03 0.  1.
        -12    1    3    3    0    0  0.80303335599E+01  0.76213415649E+01  0.29841844058E+02  0.31829338057E+02  0.00000000000E+00 0.  1.
</event>
<event>
 7    1  0.1381607E-011  0.5052886E+02  0.7816164E-02  0.1300439E+00
        -11   -1    0    0    0    0  0.00000000000E+00  0.00000000000E+00  0.45593999997E+02  0.45594000000E+02  0.51100000000E-03 0.  1.
         11   -1    0    0    0    0 -0.00000000000E+00 -0.00000000000E+00 -0.45593999997E+02  0.45594000000E+02  0.51100000000E-03 0. -1.
    9900012    2    1    2    0    0 -0.89369976155E+01  0.11485163534E+02  0.37965600477E+02  0.50528859240E+02  0.29999998145E+02 0.  0.
         12    1    1    2    0    0  0.89369976155E+01 -0.11485163534E+02 -0.37965600477E+02  0.40659140760E+02  0.00000000000E+00 0. -1.
         11    1    3    3    0    0  0.49061649765E+01 -0.61508944399E+01  0.11995954973E+02  0.14345971322E+02  0.51100000000E-03 0. -1.
        -11    1    3    3    0    0  0.58144444721E+00  0.66575599363E+01  0.43710496310E+01  0.79854403190E+01  0.51100000000E-03 0.  1.
         12    1    3    3    0    0 -0.14424607039E+02  0.10978498038E+02  0.21598595873E+02  0.28197447599E+02  0.00000000000E+00 0. -1.
</event>
<event>
 7    1  0.1381607E-011  0.5052886E+02  0.7816164E-02  0.1300439E+00
        -11   -1    0    0    0    0  0.00000000000E+00  0.00000000000E+00  0.45593999997E+02  0.45594000000E+02  0.51100000000E-03 0.  1.
         11   -1    0    0    0    0 -0.00000000000E+00 -0.00000000000E+00 -0.45593999997E+02  0.45594000000E+02  0.51100000000E-03 0. -1.
    9900012    2    1    2    0    0  0.15870893851E+02  0.68807507729E+01  0.36795860384E+02  0.50528863951E+02  0.30000012466E+02 0.  0.
         12    1    1    2    0    0 -0.15870893851E+02 -0.68807507729E+01 -0.36795860384E+02  0.40659136049E+02  0.00000000000E+00 0. -1.
         11    1    3    3    0    0  0.28801497732E+01 -0.25470088210E+01  0.12213178633E+01  0.40341212469E+01  0.51100000000E-03 0. -1.
        -11    1    3    3    0    0  0.11401300049E+02 -0.16316373987E+01  0.33106042299E+02  0.35052274111E+02  0.51100000000E-03 0.  1.
         12    1    3    3    0    0  0.15894440289E+01  0.11059396993E+02  0.24685002224E+01  0.11442468593E+02  0.00000000000E+00 0. -1.
</event>
<event>
 7    1  0.1381607E-011  0.5052890E+02  0.7816164E-02  0.1300439E+00
        -11   -1    0    0    0    0  0.00000000000E+00  0.00000000000E+00  0.45593999997E+02  0.45594000000E+02  0.51100000000E-03 0.  1.
         11   -1    0    0    0    0 -0.00000000000E+00 -0.00000000000E+00 -0.45593999997E+02  0.45594000000E+02  0.51100000000E-03 0. -1.
    9900012    2    1    2    0    0  0.32795580755E+02 -0.38290942011E+00 -0.24030512332E+02  0.50528901883E+02  0.30000127764E+02 0.  0.
         12    1    1    2    0    0 -0.32795580755E+02  0.38290942011E+00  0.24030512332E+02  0.40659098117E+02  0.00000000000E+00 0. -1.
         11    1    3    3    0    0  0.11872713970E+02  0.74437230328E+01 -0.17892485693E+01  0.14126986951E+02  0.51100000000E-03 0.  1.
        -11    1    3    3    0    0 -0.50776588100E+00 -0.38535307481E+01 -0.11428568394E+02  0.12071441555E+02  0.51100000000E-03 0. -1.
         12    1    3    3    0    0  0.21430632666E+02 -0.39731017049E+01 -0.10812695369E+02  0.24330473378E+02  0.00000000000E+00 0. -1.
</event>
<event>
 7    1  0.1381607E-011  0.5052884E+02  0.7816164E-02  0.1300439E+00
        -11   -1    0    0    0    0  0.00000000000E+00  0.00000000000E+00  0.45593999997E+02  0.45594000000E+02  0.51100000000E-03 0.  1.
         11   -1    0    0    0    0 -0.00000000000E+00 -0.00000000000E+00 -0.45593999997E+02  0.45594000000E+02  0.51100000000E-03 0. -1.
    9900012    2    1    2    0    0 -0.21754796879E+02 -0.88882616338E+01  0.33179730674E+02  0.50528844700E+02  0.29999953949E+02 0.  0.
         12    1    1    2    0    0  0.21754796879E+02  0.88882616338E+01 -0.33179730674E+02  0.40659155300E+02  0.00000000000E+00 0. -1.
         11    1    3    3    0    0 -0.44378638341E+00  0.27358643875E+01 -0.20183107675E+01  0.34286263891E+01  0.51100000000E-03 0. -1.
        -11    1    3    3    0    0  0.72426547968E+00 -0.54863548765E+01  0.52103665595E+00  0.55584287144E+01  0.51100000000E-03 0.  1.
        -12    1    3    3    0    0 -0.22035275975E+02 -0.61377711448E+01  0.34677004786E+02  0.41541789596E+02  0.00000000000E+00 0.  1.
</event>
<event>
 7    1  0.1381607E-011  0.5052886E+02  0.7816164E-02  0.1300439E+00
        -11   -1    0    0    0    0  0.00000000000E+00  0.00000000000E+00  0.45593999997E+02  0.45594000000E+02  0.51100000000E-03 0.  1.
         11   -1    0    0    0    0 -0.00000000000E+00 -0.00000000000E+00 -0.45593999997E+02  0.45594000000E+02  0.51100000000E-03 0. -1.
    9900012    2    1    2    0    0 -0.11028735417E+02  0.16296419821E+02  0.35580326986E+02  0.50528856228E+02  0.29999988990E+02 0.  0.
         12    1    1    2    0    0  0.11028735417E+02 -0.16296419821E+02 -0.35580326986E+02  0.40659143772E+02  0.00000000000E+00 0. -1.
         11    1    3    3    0    0 -0.18543694056E+02  0.87939514690E+01  0.25757290644E+02  0.32933876074E+02  0.51100000000E-03 0.  1.
        -11    1    3    3    0    0  0.27203504463E+01  0.68443155937E+01  0.10375655995E+02  0.12723961650E+02  0.51100000000E-03 0. -1.
        -12    1    3    3    0    0  0.47946081931E+01  0.65815275796E+00 -0.55261965290E+00  0.48710185032E+01  0.00000000000E+00 0.  1.
</event>
<event>
 7    1  0.1381607E-011  0.5052887E+02  0.7816164E-02  0.1300439E+00
        -11   -1    0    0    0    0  0.00000000000E+00  0.00000000000E+00  0.45593999997E+02  0.45594000000E+02  0.51100000000E-03 0.  1.
         11   -1    0    0    0    0 -0.00000000000E+00 -0.00000000000E+00 -0.45593999997E+02  0.45594000000E+02  0.51100000000E-03 0. -1.
    9900012    2    1    2    0    0 -0.17288239026E+02 -0.23382293778E+02  0.28417417337E+02  0.50528874591E+02  0.30000044806E+02 0.  0.
         12    1    1    2    0    0  0.17288239026E+02  0.23382293778E+02 -0.28417417337E+02  0.40659125409E+02  0.00000000000E+00 0. -1.
         11    1    3    3    0    0  0.37865538564E+01 -0.68817768517E+01  0.95514092694E+01  0.12366335837E+02  0.51100000000E-03 0. -1.
        -11    1    3    3    0    0 -0.89686395346E+01 -0.15101519402E+02  0.19133689611E+02  0.25972879350E+02  0.51100000000E-03 0.  1.
        -12    1    3    3    0    0 -0.12106153348E+02 -0.13989975240E+01 -0.26768154349E+00  0.12189659403E+02  0.00000000000E+00 0.  1.
</event>
<event>
 7    1  0.1381607E-011  0.5052884E+02  0.7816164E-02  0.1300439E+00
        -11   -1    0    0    0    0  0.00000000000E+00  0.00000000000E+00  0.45593999997E+02  0.45594000000E+02  0.51100000000E-03 0.  1.
         11   -1    0    0    0    0 -0.00000000000E+00 -0.00000000000E+00 -0.45593999997E+02  0.45594000000E+02  0.51100000000E-03 0. -1.
    9900012    2    1    2    0    0 -0.39255844591E+02 -0.92172397112E+01  0.52142324344E+01  0.50528842823E+02  0.29999948245E+02 0.  0.
         12    1    1    2    0    0  0.39255844591E+02  0.92172397112E+01 -0.52142324344E+01  0.40659157177E+02  0.00000000000E+00 0. -1.
         11    1    3    3    0    0 -0.40299383775E+01  0.70842352237E+01  0.27278492883E+01  0.85946468242E+01  0.51100000000E-03 0. -1.
        -11    1    3    3    0    0 -0.14857738866E+02 -0.21466124458E+01  0.72599531655E+01  0.16675349155E+02  0.51100000000E-03 0.  1.
         12    1    3    3    0    0 -0.20368167347E+02 -0.14154862489E+02 -0.47735700193E+01  0.25258846844E+02  0.00000000000E+00 0. -1.
</event>
<event>
 7    1  0.1381607E-011  0.5052886E+02  0.7816164E-02  0.1300439E+00
        -11   -1    0    0    0    0  0.00000000000E+00  0.00000000000E+00  0.45593999997E+02  0.45594000000E+02  0.51100000000E-03 0. -1.
         11   -1    0    0    0    0 -0.00000000000E+00 -0.00000000000E+00 -0.45593999997E+02  0.45594000000E+02  0.51100000000E-03 0.  1.
    9900012    2    1    2    0    0  0.15709350087E+02  0.17964689875E+01 -0.37458707197E+02  0.50528859259E+02  0.29999998203E+02 0.  0.
         12    1    1    2    0    0 -0.15709350087E+02 -0.17964689875E+01  0.37458707197E+02  0.40659140741E+02  0.00000000000E+00 0. -1.
         11    1    3    3    0    0  0.15659078775E+02 -0.37277119128E+01 -0.35636315145E+02  0.39103063071E+02  0.51100000000E-03 0.  1.
        -11    1    3    3    0    0  0.40666902045E+01 -0.28725348515E+00  0.18750686443E+00  0.40811325474E+01  0.51100000000E-03 0. -1.
        -12    1    3    3    0    0 -0.40164188921E+01  0.58114343855E+01 -0.20098989162E+01  0.73446636401E+01  0.00000000000E+00 0.  1.
</event>
<event>
 7    1  0.1381607E-011  0.5052886E+02  0.7816164E-02  0.1300439E+00
        -11   -1    0    0    0    0  0.00000000000E+00  0.00000000000E+00  0.45593999997E+02  0.45594000000E+02  0.51100000000E-03 0.  1.
         11   -1    0    0    0    0 -0.00000000000E+00 -0.00000000000E+00 -0.45593999997E+02  0.45594000000E+02  0.51100000000E-03 0. -1.
    9900012    2    1    2    0    0 -0.57670411561E+01  0.15429901827E+01  0.40218479274E+02  0.50528860099E+02  0.30000000756E+02 0.  0.
         12    1    1    2    0    0  0.57670411561E+01 -0.15429901827E+01 -0.40218479274E+02  0.40659139901E+02  0.00000000000E+00 0. -1.
         11    1    3    3    0    0  0.33255417105E+01  0.23525521339E+00  0.65491178932E+01  0.73488446795E+01  0.51100000000E-03 0.  1.
        -11    1    3    3    0    0 -0.10052109842E+02 -0.93785915133E+01  0.27645887892E+02  0.30875524427E+02  0.51100000000E-03 0. -1.
         12    1    3    3    0    0  0.95952697582E+00  0.10686326483E+02  0.60234734891E+01  0.12304490992E+02  0.00000000000E+00 0. -1.
</event>
<event>
 7    1  0.1381607E-011  0.5052887E+02  0.7816164E-02  0.1300439E+00
        -11   -1    0    0    0    0  0.00000000000E+00  0.00000000000E+00  0.45593999997E+02  0.45594000000E+02  0.51100000000E-03 0.  1.
         11   -1    0    0    0    0 -0.00000000000E+00 -0.00000000000E+00 -0.45593999997E+02  0.45594000000E+02  0.51100000000E-03 0. -1.
    9900012    2    1    2    0    0 -0.20703618557E+02  0.25114306636E+02  0.24367939679E+02  0.50528871832E+02  0.30000036422E+02 0.  0.
         12    1    1    2    0    0  0.20703618557E+02 -0.25114306636E+02 -0.24367939679E+02  0.40659128168E+02  0.00000000000E+00 0. -1.
         11    1    3    3    0    0 -0.15481542675E+02  0.20730505142E+01  0.10262354790E+02  0.18689345311E+02  0.51100000000E-03 0. -1.
        -11    1    3    3    0    0 -0.12853583408E+01  0.46816168788E+01  0.12000013782E+02  0.12944883688E+02  0.51100000000E-03 0.  1.
         12    1    3    3    0    0 -0.39367175403E+01  0.18359639243E+02  0.21055711070E+01  0.18894642834E+02  0.00000000000E+00 0. -1.
</event>
<event>
 7    1  0.1381607E-011  0.5052886E+02  0.7816164E-02  0.1300439E+00
        -11   -1    0    0    0    0  0.00000000000E+00  0.00000000000E+00  0.45593999997E+02  0.45594000000E+02  0.51100000000E-03 0. -1.
         11   -1    0    0    0    0 -0.00000000000E+00 -0.00000000000E+00 -0.45593999997E+02  0.45594000000E+02  0.51100000000E-03 0.  1.
    9900012    2    1    2    0    0  0.13182618699E+02 -0.26285476058E+02 -0.28079496547E+02  0.50528858178E+02  0.29999994917E+02 0.  0.
         12    1    1    2    0    0 -0.13182618699E+02  0.26285476058E+02  0.28079496547E+02  0.40659141822E+02  0.00000000000E+00 0. -1.
         11    1    3    3    0    0 -0.35205000924E+01 -0.77141797235E+00  0.25610116984E+01  0.44212880215E+01  0.51100000000E-03 0. -1.
        -11    1    3    3    0    0 -0.16571147921E+01 -0.10704790436E+02 -0.10592794237E+02  0.15150770862E+02  0.51100000000E-03 0.  1.
         12    1    3    3    0    0  0.18360233583E+02 -0.14809267650E+02 -0.20047714009E+02  0.30956799294E+02  0.00000000000E+00 0. -1.
</event>
<event>
 7    1  0.1381607E-011  0.5052884E+02  0.7816164E-02  0.1300439E+00
        -11   -1    0    0    0    0  0.00000000000E+00  0.00000000000E+00  0.45593999997E+02  0.45594000000E+02  0.51100000000E-03 0.  1.
         11   -1    0    0    0    0 -0.00000000000E+00 -0.00000000000E+00 -0.45593999997E+02  0.45594000000E+02  0.51100000000E-03 0. -1.
    9900012    2    1    2    0    0 -0.39213537143E+02 -0.10004126235E+02 -0.39221715592E+01  0.50528837850E+02  0.29999933129E+02 0.  0.
         12    1    1    2    0    0  0.39213537143E+02  0.10004126235E+02  0.39221715592E+01  0.40659162150E+02  0.00000000000E+00 0. -1.
         11    1    3    3    0    0 -0.19684620035E+02  0.88361734468E+00  0.48313411620E+01  0.20288097575E+02  0.51100000000E-03 0. -1.
        -11    1    3    3    0    0 -0.17459592539E+02 -0.17751237984E+01 -0.16731023530E+00  0.17550396836E+02  0.51100000000E-03 0.  1.
         12    1    3    3    0    0 -0.20693245685E+01 -0.91126197814E+01 -0.85862024859E+01  0.12690343438E+02  0.00000000000E+00 0. -1.
</event>
<event>
 7    1  0.1381607E-011  0.5052888E+02  0.7816164E-02  0.1300439E+00
        -11   -1    0    0    0    0  0.00000000000E+00  0.00000000000E+00  0.45593999997E+02  0.45594000000E+02  0.51100000000E-03 0.  1.
         11   -1    0    0    0    0 -0.00000000000E+00 -0.00000000000E+00 -0.45593999997E+02  0.45594000000E+02  0.51100000000E-03 0. -1.
    9900012    2    1    2    0    0 -0.18009056878E+02 -0.71194064569E+01  0.35751250240E+02  0.50528880830E+02  0.30000063771E+02 0.  0.
         12    1    1    2    0    0  0.18009056878E+02  0.71194064569E+01 -0.35751250240E+02  0.40659119170E+02  0.00000000000E+00 0. -1.
         11    1    3    3    0    0  0.68281125881E+01  0.31663288635E+01  0.64099976715E+01  0.98861939288E+01  0.51100000000E-03 0. -1.
        -11    1    3    3    0    0 -0.12518238934E+02 -0.34380996111E+01  0.86222407137E+01  0.15584282792E+02  0.51100000000E-03 0.  1.
        -12    1    3    3    0    0 -0.12318930532E+02 -0.68476357093E+01  0.20719011855E+02  0.25058404109E+02  0.00000000000E+00 0.  1.
</event>
<event>
 7    1  0.1381607E-011  0.5052886E+02  0.7816164E-02  0.1300439E+00
        -11   -1    0    0    0    0  0.00000000000E+00  0.00000000000E+00  0.45593999997E+02  0.45594000000E+02  0.51100000000E-03 0.  1.
         11   -1    0    0    0    0 -0.00000000000E+00 -0.00000000000E+00 -0.45593999997E+02  0.45594000000E+02  0.51100000000E-03 0. -1.
    9900012    2    1    2    0    0 -0.63315264801E+01 -0.15911828504E+02  0.36876702454E+02  0.50528859603E+02  0.29999999250E+02 0.  0.
         12    1    1    2    0    0  0.63315264801E+01  0.15911828504E+02 -0.36876702454E+02  0.40659140397E+02  0.00000000000E+00 0. -1.
         11    1    3    3    0    0 -0.53677151800E+01 -0.11037436238E+01  0.27920289592E+01  0.61502879779E+01  0.51100000000E-03 0. -1.
        -11    1    3    3    0    0 -0.94930858051E+01 -0.16441175117E+02  0.27778017079E+02  0.33645938097E+02  0.51100000000E-03 0.  1.
         12    1    3    3    0    0  0.85292745050E+01  0.16330902368E+01  0.63066564161E+01  0.10732633528E+02  0.00000000000E+00 0. -1.
</event>
<event>
 7    1  0.1381607E-011  0.5052887E+02  0.7816164E-02  0.1300439E+00
        -11   -1    0    0    0    0  0.00000000000E+00  0.00000000000E+00  0.45593999997E+02  0.45594000000E+02  0.51100000000E-03 0.  1.
         11   -1    0    0    0    0 -0.00000000000E+00 -0.00000000000E+00 -0.45593999997E+02  0.45594000000E+02  0.51100000000E-03 0. -1.
    9900012    2    1    2    0    0  0.18044147218E+02 -0.33584519966E+01  0.36280768582E+02  0.50528872887E+02  0.30000039629E+02 0.  0.
         12    1    1    2    0    0 -0.18044147218E+02  0.33584519966E+01 -0.36280768582E+02  0.40659127113E+02  0.00000000000E+00 0. -1.
         11    1    3    3    0    0  0.10306422548E+02 -0.21881983208E+01  0.71377443104E+01  0.12726270142E+02  0.51100000000E-03 0. -1.
        -11    1    3    3    0    0  0.11575203605E+02  0.55772058588E+00  0.39241998916E+01  0.12235020874E+02  0.51100000000E-03 0.  1.
         12    1    3    3    0    0 -0.38374789343E+01 -0.17279742618E+01  0.25218824380E+02  0.25567581871E+02  0.00000000000E+00 0. -1.
</event>
<event>
 7    1  0.1381607E-011  0.5052887E+02  0.7816164E-02  0.1300439E+00
        -11   -1    0    0    0    0  0.00000000000E+00  0.00000000000E+00  0.45593999997E+02  0.45594000000E+02  0.51100000000E-03 0.  1.
         11   -1    0    0    0    0 -0.00000000000E+00 -0.00000000000E+00 -0.45593999997E+02  0.45594000000E+02  0.51100000000E-03 0. -1.
    9900012    2    1    2    0    0  0.10288342940E+02  0.92218060830E+01  0.38239679968E+02  0.50528870251E+02  0.30000031614E+02 0.  0.
         12    1    1    2    0    0 -0.10288342940E+02 -0.92218060830E+01 -0.38239679968E+02  0.40659129749E+02  0.00000000000E+00 0. -1.
         11    1    3    3    0    0  0.24721179686E+01 -0.49070804690E+01  0.10555711160E+02  0.11900161526E+02  0.51100000000E-03 0. -1.
        -11    1    3    3    0    0  0.16550717451E+01  0.81485032489E+01  0.28794389559E+02  0.29970889844E+02  0.51100000000E-03 0.  1.
         12    1    3    3    0    0  0.61611532266E+01  0.59803833031E+01 -0.11104207512E+01  0.86578188811E+01  0.00000000000E+00 0. -1.
</event>
<event>
 7    1  0.1381607E-011  0.5052886E+02  0.7816164E-02  0.1300439E+00
        -11   -1    0    0    0    0  0.00000000000E+00  0.00000000000E+00  0.45593999997E+02  0.45594000000E+02  0.51100000000E-03 0. -1.
         11   -1    0    0    0    0 -0.00000000000E+00 -0.00000000000E+00 -0.45593999997E+02  0.45594000000E+02  0.51100000000E-03 0.  1.
    9900012    2    1    2    0    0  0.25748603793E+02  0.13698216828E+02 -0.28329030216E+02  0.50528859643E+02  0.29999999370E+02 0.  0.
         12    1    1    2    0    0 -0.25748603793E+02 -0.13698216828E+02  0.28329030216E+02  0.40659140357E+02  0.00000000000E+00 0. -1.
         11    1    3    3    0    0 -0.25823198518E+01 -0.19400335900E+01  0.19357791204E+01  0.37655473986E+01  0.51100000000E-03 0. -1.
        -11    1    3    3    0    0  0.65818682326E+01  0.35539065862E+01 -0.16987774301E+02  0.18561673346E+02  0.51100000000E-03 0.  1.
         12    1    3    3    0    0  0.21749055413E+02  0.12084343832E+02 -0.13277035036E+02  0.28201638898E+02  0.00000000000E+00 0. -1.
</event>
<event>
 7    1  0.1381607E-011  0.5052887E+02  0.7816164E-02  0.1300439E+00
        -11   -1    0    0    0    0  0.00000000000E+00  0.00000000000E+00  0.45593999997E+02  0.45594000000E+02  0.51100000000E-03 0. -1.
         11   -1    0    0    0    0 -0.00000000000E+00 -0.00000000000E+00 -0.45593999997E+02  0.45594000000E+02  0.51100000000E-03 0.  1.
    9900012    2    1    2    0    0  0.12133413738E+02  0.74177463022E+01 -0.38090977257E+02  0.50528865263E+02  0.30000016454E+02 0.  0.
         12    1    1    2    0    0 -0.12133413738E+02 -0.74177463022E+01  0.38090977257E+02  0.40659134737E+02  0.00000000000E+00 0. -1.
         11    1    3    3    0    0  0.31157539927E+01  0.12503587521E+02 -0.20838981874E+01  0.13053361856E+02  0.51100000000E-03 0. -1.
        -11    1    3    3    0    0  0.14578234990E+01 -0.51090830786E+00 -0.48999263747E+01  0.51376604980E+01  0.51100000000E-03 0.  1.
         12    1    3    3    0    0  0.75598362461E+01 -0.45749329109E+01 -0.31107152695E+02  0.32337842909E+02  0.00000000000E+00 0. -1.
</event>
<event>
 7    1  0.1381607E-011  0.5052886E+02  0.7816164E-02  0.1300439E+00
        -11   -1    0    0    0    0  0.00000000000E+00  0.00000000000E+00  0.45593999997E+02  0.45594000000E+02  0.51100000000E-03 0.  1.
         11   -1    0    0    0    0 -0.00000000000E+00 -0.00000000000E+00 -0.45593999997E+02  0.45594000000E+02  0.51100000000E-03 0. -1.
    9900012    2    1    2    0    0  0.39043490755E+02 -0.11253596561E+02 -0.14588216593E+01  0.50528858758E+02  0.29999996680E+02 0.  0.
         12    1    1    2    0    0 -0.39043490755E+02  0.11253596561E+02  0.14588216593E+01  0.40659141242E+02  0.00000000000E+00 0. -1.
         11    1    3    3    0    0  0.23712186164E+02 -0.91709652746E+01 -0.77001464087E+01  0.26564386530E+02  0.51100000000E-03 0. -1.
        -11    1    3    3    0    0  0.44536335680E+01  0.28469487486E+01 -0.52078439327E+01  0.74203509232E+01  0.51100000000E-03 0.  1.
        -12    1    3    3    0    0  0.10877671023E+02 -0.49295800354E+01  0.11449168682E+02  0.16544121304E+02  0.00000000000E+00 0.  1.
</event>
<event>
 7    1  0.1381607E-011  0.5052879E+02  0.7816164E-02  0.1300439E+00
        -11   -1    0    0    0    0  0.00000000000E+00  0.00000000000E+00  0.45593999997E+02  0.45594000000E+02  0.51100000000E-03 0. -1.
         11   -1    0    0    0    0 -0.00000000000E+00 -0.00000000000E+00 -0.45593999997E+02  0.45594000000E+02  0.51100000000E-03 0.  1.
    9900012    2    1    2    0    0  0.26291065698E+02 -0.27492400332E+02 -0.14356860198E+02  0.50528786453E+02  0.29999776900E+02 0.  0.
         12    1    1    2    0    0 -0.26291065698E+02  0.27492400332E+02  0.14356860198E+02  0.40659213547E+02  0.00000000000E+00 0. -1.
         11    1    3    3    0    0 -0.34925642247E+01 -0.76206794797E+01 -0.26965098910E+01  0.88059029321E+01  0.51100000000E-03 0. -1.
        -11    1    3    3    0    0  0.41267194668E+01 -0.24474506981E+01 -0.94886693486E+01  0.10632717185E+02  0.51100000000E-03 0.  1.
        -12    1    3    3    0    0  0.25656910456E+02 -0.17424270154E+02 -0.21716809581E+01  0.31090166335E+02  0.00000000000E+00 0.  1.
</event>
<event>
 7    1  0.1381607E-011  0.5052886E+02  0.7816164E-02  0.1300439E+00
        -11   -1    0    0    0    0  0.00000000000E+00  0.00000000000E+00  0.45593999997E+02  0.45594000000E+02  0.51100000000E-03 0. -1.
         11   -1    0    0    0    0 -0.00000000000E+00 -0.00000000000E+00 -0.45593999997E+02  0.45594000000E+02  0.51100000000E-03 0.  1.
    9900012    2    1    2    0    0  0.30603890039E+02 -0.23312780586E+02 -0.13156057715E+02  0.50528859837E+02  0.29999999961E+02 0.  0.
         12    1    1    2    0    0 -0.30603890039E+02  0.23312780586E+02  0.13156057715E+02  0.40659140163E+02  0.00000000000E+00 0. -1.
         11    1    3    3    0    0  0.24821704159E+02 -0.13540718085E+02  0.33299091603E+01  0.28470271142E+02  0.51100000000E-03 0. -1.
        -11    1    3    3    0    0  0.43911875509E+01  0.17006031807E+00 -0.68830644960E+01  0.81662736751E+01  0.51100000000E-03 0.  1.
        -12    1    3    3    0    0  0.13909983285E+01 -0.99421228190E+01 -0.96029023798E+01  0.13892315020E+02  0.00000000000E+00 0.  1.
</event>
<event>
 7    1  0.1381607E-011  0.5052886E+02  0.7816164E-02  0.1300439E+00
        -11   -1    0    0    0    0  0.00000000000E+00  0.00000000000E+00  0.45593999997E+02  0.45594000000E+02  0.51100000000E-03 0.  1.
         11   -1    0    0    0    0 -0.00000000000E+00 -0.00000000000E+00 -0.45593999997E+02  0.45594000000E+02  0.51100000000E-03 0. -1.
    9900012    2    1    2    0    0 -0.37117548689E+02 -0.14307379186E+02 -0.84114119817E+01  0.50528863618E+02  0.30000011452E+02 0.  0.
         12    1    1    2    0    0  0.37117548689E+02  0.14307379186E+02  0.84114119817E+01  0.40659136382E+02  0.00000000000E+00 0. -1.
         11    1    3    3    0    0 -0.70586752981E+01  0.14644157577E+01 -0.16877396482E+01  0.74039094981E+01  0.51100000000E-03 0. -1.
        -11    1    3    3    0    0 -0.12555755333E+01 -0.87675442895E+01  0.61754177999E+01  0.10797318558E+02  0.51100000000E-03 0.  1.
         12    1    3    3    0    0 -0.28803297857E+02 -0.70042506542E+01 -0.12899090133E+02  0.32327635561E+02  0.00000000000E+00 0. -1.
</event>
<event>
 7    1  0.1381607E-011  0.5052886E+02  0.7816164E-02  0.1300439E+00
        -11   -1    0    0    0    0  0.00000000000E+00  0.00000000000E+00  0.45593999997E+02  0.45594000000E+02  0.51100000000E-03 0.  1.
         11   -1    0    0    0    0 -0.00000000000E+00 -0.00000000000E+00 -0.45593999997E+02  0.45594000000E+02  0.51100000000E-03 0. -1.
    9900012    2    1    2    0    0 -0.38108947150E+02  0.11623466401E+02 -0.81097838808E+01  0.50528863036E+02  0.30000009683E+02 0.  0.
         12    1    1    2    0    0  0.38108947150E+02 -0.11623466401E+02  0.81097838808E+01  0.40659136964E+02  0.00000000000E+00 0. -1.
         11    1    3    3    0    0 -0.23102394924E+02  0.13993021663E+02 -0.11462438067E+02  0.29341315464E+02  0.51100000000E-03 0. -1.
        -11    1    3    3    0    0 -0.52998600471E+01  0.51111004037E+01  0.48869307302E+01  0.88370784809E+01  0.51100000000E-03 0.  1.
         12    1    3    3    0    0 -0.97066921795E+01 -0.74806556650E+01 -0.15342765442E+01  0.12350469091E+02  0.00000000000E+00 0. -1.
</event>
<event>
 7    1  0.1381607E-011  0.5052886E+02  0.7816164E-02  0.1300439E+00
        -11   -1    0    0    0    0  0.00000000000E+00  0.00000000000E+00  0.45593999997E+02  0.45594000000E+02  0.51100000000E-03 0.  1.
         11   -1    0    0    0    0 -0.00000000000E+00 -0.00000000000E+00 -0.45593999997E+02  0.45594000000E+02  0.51100000000E-03 0. -1.
    9900012    2    1    2    0    0  0.43776996665E+01  0.18735327231E+02  0.35818833375E+02  0.50528861234E+02  0.30000004207E+02 0.  0.
         12    1    1    2    0    0 -0.43776996665E+01 -0.18735327231E+02 -0.35818833375E+02  0.40659138766E+02  0.00000000000E+00 0. -1.
         11    1    3    3    0    0  0.48444026595E+01  0.97144980531E+01  0.81378331238E+01  0.13567020224E+02  0.51100000000E-03 0. -1.
        -11    1    3    3    0    0 -0.89125709696E-01 -0.39293909949E+01 -0.21205409891E+01  0.44659546942E+01  0.51100000000E-03 0.  1.
         12    1    3    3    0    0 -0.37757728325E+00  0.12950220173E+02  0.29801541241E+02  0.32495886316E+02  0.00000000000E+00 0. -1.
</event>
<event>
 7    1  0.1381607E-011  0.5052887E+02  0.7816164E-02  0.1300439E+00
        -11   -1    0    0    0    0  0.00000000000E+00  0.00000000000E+00  0.45593999997E+02  0.45594000000E+02  0.51100000000E-03 0. -1.
         11   -1    0    0    0    0 -0.00000000000E+00 -0.00000000000E+00 -0.45593999997E+02  0.45594000000E+02  0.51100000000E-03 0.  1.
    9900012    2    1    2    0    0  0.32043854089E+02 -0.95889912459E+01 -0.23117256824E+02  0.50528869401E+02  0.30000029032E+02 0.  0.
         12    1    1    2    0    0 -0.32043854089E+02  0.95889912459E+01  0.23117256824E+02  0.40659130599E+02  0.00000000000E+00 0. -1.
         11    1    3    3    0    0  0.11705931097E+01  0.13357103942E+01  0.92763747666E+00  0.20037270360E+01  0.51100000000E-03 0. -1.
        -11    1    3    3    0    0  0.34840747156E+02 -0.11538925617E+02 -0.24988479588E+02  0.44400997502E+02  0.51100000000E-03 0.  1.
         12    1    3    3    0    0 -0.39674861769E+01  0.61422397700E+00  0.94358528780E+00  0.41241448632E+01  0.00000000000E+00 0. -1.
</event>
<event>
 7    1  0.1381607E-011  0.5052886E+02  0.7816164E-02  0.1300439E+00
        -11   -1    0    0    0    0  0.00000000000E+00  0.00000000000E+00  0.45593999997E+02  0.45594000000E+02  0.51100000000E-03 0. -1.
         11   -1    0    0    0    0 -0.00000000000E+00 -0.00000000000E+00 -0.45593999997E+02  0.45594000000E+02  0.51100000000E-03 0.  1.
    9900012    2    1    2    0    0 -0.28806530437E+02  0.28671129127E+02  0.11470414016E+01  0.50528861480E+02  0.30000004955E+02 0.  0.
         12    1    1    2    0    0  0.28806530437E+02 -0.28671129127E+02 -0.11470414016E+01  0.40659138520E+02  0.00000000000E+00 0. -1.
         11    1    3    3    0    0  0.22180785941E+01  0.66746825756E+01 -0.11375158598E+01  0.71249703667E+01  0.51100000000E-03 0. -1.
        -11    1    3    3    0    0 -0.13736124655E+02  0.21948547279E+02 -0.47309515423E+00  0.25896788748E+02  0.51100000000E-03 0.  1.
        -12    1    3    3    0    0 -0.17288484376E+02  0.47899272074E-01  0.27576524157E+01  0.17507102365E+02  0.00000000000E+00 0.  1.
</event>
<event>
 7    1  0.1381607E-011  0.5052886E+02  0.7816164E-02  0.1300439E+00
        -11   -1    0    0    0    0  0.00000000000E+00  0.00000000000E+00  0.45593999997E+02  0.45594000000E+02  0.51100000000E-03 0.  1.
         11   -1    0    0    0    0 -0.00000000000E+00 -0.00000000000E+00 -0.45593999997E+02  0.45594000000E+02  0.51100000000E-03 0. -1.
    9900012    2    1    2    0    0 -0.80531598422E+01  0.18189633934E+02  0.35460530146E+02  0.50528863704E+02  0.30000011715E+02 0.  0.
         12    1    1    2    0    0  0.80531598422E+01 -0.18189633934E+02 -0.35460530146E+02  0.40659136296E+02  0.00000000000E+00 0. -1.
         11    1    3    3    0    0 -0.67471445969E+00  0.36217066927E+00  0.71173994451E+01  0.71584762567E+01  0.51100000000E-03 0. -1.
        -11    1    3    3    0    0 -0.16743407379E+02  0.13408254889E+02  0.13759517229E+02  0.25484256012E+02  0.51100000000E-03 0.  1.
        -12    1    3    3    0    0  0.93649619960E+01  0.44192083752E+01  0.14583613472E+02  0.17886131436E+02  0.00000000000E+00 0.  1.
</event>
<event>
 7    1  0.1381607E-011  0.5052886E+02  0.7816164E-02  0.1300439E+00
        -11   -1    0    0    0    0  0.00000000000E+00  0.00000000000E+00  0.45593999997E+02  0.45594000000E+02  0.51100000000E-03 0.  1.
         11   -1    0    0    0    0 -0.00000000000E+00 -0.00000000000E+00 -0.45593999997E+02  0.45594000000E+02  0.51100000000E-03 0. -1.
    9900012    2    1    2    0    0 -0.11388562562E+02 -0.36212587702E+02 -0.14564166675E+02  0.50528858147E+02  0.29999994824E+02 0.  0.
         12    1    1    2    0    0  0.11388562562E+02  0.36212587702E+02  0.14564166675E+02  0.40659141853E+02  0.00000000000E+00 0. -1.
         11    1    3    3    0    0 -0.26810667634E+01  0.18879646018E+01 -0.28463929879E+01  0.43421748732E+01  0.51100000000E-03 0. -1.
        -11    1    3    3    0    0 -0.11238347208E+01 -0.77883826105E+01  0.63331422728E+01  0.10101019725E+02  0.51100000000E-03 0.  1.
         12    1    3    3    0    0 -0.75836610777E+01 -0.30312169693E+02 -0.18050915959E+02  0.36085663550E+02  0.00000000000E+00 0. -1.
</event>
<event>
 7    1  0.1381607E-011  0.5052883E+02  0.7816164E-02  0.1300439E+00
        -11   -1    0    0    0    0  0.00000000000E+00  0.00000000000E+00  0.45593999997E+02  0.45594000000E+02  0.51100000000E-03 0.  1.
         11   -1    0    0    0    0 -0.00000000000E+00 -0.00000000000E+00 -0.45593999997E+02  0.45594000000E+02  0.51100000000E-03 0. -1.
    9900012    2    1    2    0    0 -0.28902891376E+02 -0.15079918816E+02  0.24297872740E+02  0.50528834968E+02  0.29999924368E+02 0.  0.
         12    1    1    2    0    0  0.28902891376E+02  0.15079918816E+02 -0.24297872740E+02  0.40659165032E+02  0.00000000000E+00 0. -1.
         11    1    3    3    0    0 -0.15064976260E+02 -0.14877509029E+02  0.21241908343E+02  0.29991873148E+02  0.51100000000E-03 0.  1.
        -11    1    3    3    0    0  0.21466959504E+01 -0.32116419649E+01 -0.47678626962E+00  0.38923351632E+01  0.51100000000E-03 0. -1.
         12    1    3    3    0    0 -0.15984611067E+02  0.30092321784E+01  0.35327506670E+01  0.16644626657E+02  0.00000000000E+00 0. -1.
</event>
<event>
 7    1  0.1381607E-011  0.5052886E+02  0.7816164E-02  0.1300439E+00
        -11   -1    0    0    0    0  0.00000000000E+00  0.00000000000E+00  0.45593999997E+02  0.45594000000E+02  0.51100000000E-03 0.  1.
         11   -1    0    0    0    0 -0.00000000000E+00 -0.00000000000E+00 -0.45593999997E+02  0.45594000000E+02  0.51100000000E-03 0. -1.
    9900012    2    1    2    0    0  0.38567422235E+02  0.93768488124E+01  0.88201007964E+01  0.50528861672E+02  0.30000005538E+02 0.  0.
         12    1    1    2    0    0 -0.38567422235E+02 -0.93768488124E+01 -0.88201007964E+01  0.40659138328E+02  0.00000000000E+00 0. -1.
         11    1    3    3    0    0  0.12626081912E+02  0.37163174113E+01 -0.10141959017E+00  0.13162038054E+02  0.51100000000E-03 0. -1.
        -11    1    3    3    0    0  0.28066734282E+02  0.11178949847E+02  0.61266598428E+01  0.30826067768E+02  0.51100000000E-03 0.  1.
         12    1    3    3    0    0 -0.21253939592E+01 -0.55184184455E+01  0.27948605438E+01  0.65407558493E+01  0.00000000000E+00 0. -1.
</event>
<event>
 7    1  0.1381607E-011  0.5052888E+02  0.7816164E-02  0.1300439E+00
        -11   -1    0    0    0    0  0.00000000000E+00  0.00000000000E+00  0.45593999997E+02  0.45594000000E+02  0.51100000000E-03 0. -1.
         11   -1    0    0    0    0 -0.00000000000E+00 -0.00000000000E+00 -0.45593999997E+02  0.45594000000E+02  0.51100000000E-03 0.  1.
    9900012    2    1    2    0    0 -0.21374847387E+01  0.27281108673E+02 -0.30072185792E+02  0.50528879378E+02  0.30000059358E+02 0.  0.
         12    1    1    2    0    0  0.21374847387E+01 -0.27281108673E+02  0.30072185792E+02  0.40659120622E+02  0.00000000000E+00 0. -1.
         11    1    3    3    0    0  0.62398292380E+01  0.15295021666E+01 -0.41041099714E+01  0.76235532868E+01  0.51100000000E-03 0. -1.
        -11    1    3    3    0    0  0.42966320971E+00  0.24787519300E+02 -0.15704627475E+02  0.29346908660E+02  0.51100000000E-03 0.  1.
         12    1    3    3    0    0 -0.88069771864E+01  0.96408720645E+00 -0.10263448345E+02  0.13558417431E+02  0.00000000000E+00 0. -1.
</event>
<event>
 7    1  0.1381607E-011  0.5052886E+02  0.7816164E-02  0.1300439E+00
        -11   -1    0    0    0    0  0.00000000000E+00  0.00000000000E+00  0.45593999997E+02  0.45594000000E+02  0.51100000000E-03 0.  1.
         11   -1    0    0    0    0 -0.00000000000E+00 -0.00000000000E+00 -0.45593999997E+02  0.45594000000E+02  0.51100000000E-03 0. -1.
    9900012    2    1    2    0    0 -0.36765154376E+02  0.10451481049E+02 -0.13865637694E+02  0.50528856612E+02  0.29999990157E+02 0.  0.
         12    1    1    2    0    0  0.36765154376E+02 -0.10451481049E+02  0.13865637694E+02  0.40659143388E+02  0.00000000000E+00 0. -1.
         11    1    3    3    0    0  0.34178211839E+01  0.86650637809E+00  0.18777405018E+01  0.39947771655E+01  0.51100000000E-03 0. -1.
        -11    1    3    3    0    0 -0.41513031000E+01  0.35621904168E+01 -0.71551344614E+01  0.90065791184E+01  0.51100000000E-03 0.  1.
        -12    1    3    3    0    0 -0.36031672460E+02  0.60227842546E+01 -0.85882437348E+01  0.37527500328E+02  0.00000000000E+00 0.  1.
</event>
<event>
 7    1  0.1381607E-011  0.5052886E+02  0.7816164E-02  0.1300439E+00
        -11   -1    0    0    0    0  0.00000000000E+00  0.00000000000E+00  0.45593999997E+02  0.45594000000E+02  0.51100000000E-03 0.  1.
         11   -1    0    0    0    0 -0.00000000000E+00 -0.00000000000E+00 -0.45593999997E+02  0.45594000000E+02  0.51100000000E-03 0. -1.
    9900012    2    1    2    0    0 -0.11848103411E+02 -0.37307088228E+02  0.10998615273E+02  0.50528856817E+02  0.29999990780E+02 0.  0.
         12    1    1    2    0    0  0.11848103411E+02  0.37307088228E+02 -0.10998615273E+02  0.40659143183E+02  0.00000000000E+00 0. -1.
         11    1    3    3    0    0 -0.74624196221E+01 -0.17511504844E+01 -0.25630273668E+01  0.80822858264E+01  0.51100000000E-03 0. -1.
        -11    1    3    3    0    0 -0.59489573137E+01 -0.15163761433E+02 -0.24503102712E+01  0.16472212195E+02  0.51100000000E-03 0.  1.
         12    1    3    3    0    0  0.15632735248E+01 -0.20392176310E+02  0.16011952911E+02  0.25974358795E+02  0.00000000000E+00 0. -1.
</event>
<event>
 7    1  0.1381607E-011  0.5052887E+02  0.7816164E-02  0.1300439E+00
        -11   -1    0    0    0    0  0.00000000000E+00  0.00000000000E+00  0.45593999997E+02  0.45594000000E+02  0.51100000000E-03 0. -1.
         11   -1    0    0    0    0 -0.00000000000E+00 -0.00000000000E+00 -0.45593999997E+02  0.45594000000E+02  0.51100000000E-03 0.  1.
    9900012    2    1    2    0    0  0.30892198838E+02  0.26198251635E+02 -0.35339370035E+01  0.50528867587E+02  0.30000023519E+02 0.  0.
         12    1    1    2    0    0 -0.30892198838E+02 -0.26198251635E+02  0.35339370035E+01  0.40659132413E+02  0.00000000000E+00 0. -1.
         11    1    3    3    0    0  0.54530959530E+01 -0.52338240394E+00 -0.98296828832E+01  0.11253126253E+02  0.51100000000E-03 0. -1.
        -11    1    3    3    0    0  0.14923062974E+02  0.82711372528E+01 -0.21466216343E+00  0.17063282219E+02  0.51100000000E-03 0.  1.
         12    1    3    3    0    0  0.10516039911E+02  0.18450496786E+02  0.65104080431E+01  0.22212459116E+02  0.00000000000E+00 0. -1.
</event>
<event>
 7    1  0.1381607E-011  0.5052888E+02  0.7816164E-02  0.1300439E+00
        -11   -1    0    0    0    0  0.00000000000E+00  0.00000000000E+00  0.45593999997E+02  0.45594000000E+02  0.51100000000E-03 0.  1.
         11   -1    0    0    0    0 -0.00000000000E+00 -0.00000000000E+00 -0.45593999997E+02  0.45594000000E+02  0.51100000000E-03 0. -1.
    9900012    2    1    2    0    0 -0.31672293503E+02  0.18466171642E+02 -0.17579257338E+02  0.50528880981E+02  0.30000064229E+02 0.  0.
         12    1    1    2    0    0  0.31672293503E+02 -0.18466171642E+02  0.17579257338E+02  0.40659119019E+02  0.00000000000E+00 0. -1.
         11    1    3    3    0    0 -0.26706514949E+02  0.11514155599E+02 -0.18987353312E+02  0.34732309251E+02  0.51100000000E-03 0. -1.
        -11    1    3    3    0    0 -0.16031354244E+00 -0.97111764287E+00 -0.46319346504E+01  0.47353551899E+01  0.51100000000E-03 0.  1.
        -12    1    3    3    0    0 -0.48054650118E+01  0.79231336862E+01  0.60400306248E+01  0.11061216540E+02  0.00000000000E+00 0.  1.
</event>
<event>
 7    1  0.1381607E-011  0.5052886E+02  0.7816164E-02  0.1300439E+00
        -11   -1    0    0    0    0  0.00000000000E+00  0.00000000000E+00  0.45593999997E+02  0.45594000000E+02  0.51100000000E-03 0.  1.
         11   -1    0    0    0    0 -0.00000000000E+00 -0.00000000000E+00 -0.45593999997E+02  0.45594000000E+02  0.51100000000E-03 0. -1.
    9900012    2    1    2    0    0 -0.36579016504E+02  0.58825780229E+01  0.16749215061E+02  0.50528863539E+02  0.30000011212E+02 0.  0.
         12    1    1    2    0    0  0.36579016504E+02 -0.58825780229E+01 -0.16749215061E+02  0.40659136461E+02  0.00000000000E+00 0. -1.
         11    1    3    3    0    0 -0.13983910278E+02 -0.28113175105E+01 -0.37407670268E+00  0.14268608427E+02  0.51100000000E-03 0. -1.
        -11    1    3    3    0    0 -0.25375509754E+02  0.11495312983E+02  0.13741446990E+02  0.31062615496E+02  0.51100000000E-03 0.  1.
         12    1    3    3    0    0  0.27804035269E+01 -0.28014174496E+01  0.33818447737E+01  0.51976396155E+01  0.00000000000E+00 0. -1.
</event>
<event>
 7    1  0.1381607E-011  0.5052886E+02  0.7816164E-02  0.1300439E+00
        -11   -1    0    0    0    0  0.00000000000E+00  0.00000000000E+00  0.45593999997E+02  0.45594000000E+02  0.51100000000E-03 0. -1.
         11   -1    0    0    0    0 -0.00000000000E+00 -0.00000000000E+00 -0.45593999997E+02  0.45594000000E+02  0.51100000000E-03 0.  1.
    9900012    2    1    2    0    0 -0.23413117237E+02 -0.13579195830E+02 -0.30341337880E+02  0.50528863235E+02  0.30000010289E+02 0.  0.
         12    1    1    2    0    0  0.23413117237E+02  0.13579195830E+02  0.30341337880E+02  0.40659136765E+02  0.00000000000E+00 0. -1.
         11    1    3    3    0    0  0.20243952472E+01  0.32923357153E+01 -0.12825429990E+02  0.13395122443E+02  0.51100000000E-03 0. -1.
        -11    1    3    3    0    0 -0.74720086470E+01 -0.35824514272E+01 -0.11162007468E+02  0.13901628768E+02  0.51100000000E-03 0.  1.
         12    1    3    3    0    0 -0.17965503837E+02 -0.13289080118E+02 -0.63539004224E+01  0.23232112024E+02  0.00000000000E+00 0. -1.
</event>
<event>
 7    1  0.1381607E-011  0.5052885E+02  0.7816164E-02  0.1300439E+00
        -11   -1    0    0    0    0  0.00000000000E+00  0.00000000000E+00  0.45593999997E+02  0.45594000000E+02  0.51100000000E-03 0. -1.
         11   -1    0    0    0    0 -0.00000000000E+00 -0.00000000000E+00 -0.45593999997E+02  0.45594000000E+02  0.51100000000E-03 0.  1.
    9900012    2    1    2    0    0 -0.29007096481E+02  0.25853138383E+02  0.11973708241E+02  0.50528854663E+02  0.29999984235E+02 0.  0.
         12    1    1    2    0    0  0.29007096481E+02 -0.25853138383E+02 -0.11973708241E+02  0.40659145337E+02  0.00000000000E+00 0. -1.
         11    1    3    3    0    0 -0.22165631838E+02  0.91554190104E+01  0.87912035709E+01  0.25542556499E+02  0.51100000000E-03 0. -1.
        -11    1    3    3    0    0 -0.10656630784E+02  0.94551961681E+01 -0.32056288710E+01  0.14602759019E+02  0.51100000000E-03 0.  1.
         12    1    3    3    0    0  0.38151661413E+01  0.72425232042E+01  0.63881335407E+01  0.10383539145E+02  0.00000000000E+00 0. -1.
</event>
<event>
 7    1  0.1381607E-011  0.5052885E+02  0.7816164E-02  0.1300439E+00
        -11   -1    0    0    0    0  0.00000000000E+00  0.00000000000E+00  0.45593999997E+02  0.45594000000E+02  0.51100000000E-03 0.  1.
         11   -1    0    0    0    0 -0.00000000000E+00 -0.00000000000E+00 -0.45593999997E+02  0.45594000000E+02  0.51100000000E-03 0. -1.
    9900012    2    1    2    0    0 -0.39719033895E+02  0.64761880736E+01  0.57985797745E+01  0.50528853515E+02  0.29999980744E+02 0.  0.
         12    1    1    2    0    0  0.39719033895E+02 -0.64761880736E+01 -0.57985797745E+01  0.40659146485E+02  0.00000000000E+00 0. -1.
         11    1    3    3    0    0 -0.54359224730E+01 -0.12055202731E+00 -0.67818855517E+01  0.86923965523E+01  0.51100000000E-03 0. -1.
        -11    1    3    3    0    0  0.15437850900E+01 -0.15770042857E+01  0.32405254367E+01  0.39206147845E+01  0.51100000000E-03 0.  1.
        -12    1    3    3    0    0 -0.35826896512E+02  0.81737443867E+01  0.93399398895E+01  0.37915842178E+02  0.00000000000E+00 0.  1.
</event>
<event>
 7    1  0.1381607E-011  0.5052886E+02  0.7816164E-02  0.1300439E+00
        -11   -1    0    0    0    0  0.00000000000E+00  0.00000000000E+00  0.45593999997E+02  0.45594000000E+02  0.51100000000E-03 0. -1.
         11   -1    0    0    0    0 -0.00000000000E+00 -0.00000000000E+00 -0.45593999997E+02  0.45594000000E+02  0.51100000000E-03 0.  1.
    9900012    2    1    2    0    0 -0.39031384622E+02 -0.11141840219E+02 -0.23613842093E+01  0.50528859277E+02  0.29999998258E+02 0.  0.
         12    1    1    2    0    0  0.39031384622E+02  0.11141840219E+02  0.23613842093E+01  0.40659140723E+02  0.00000000000E+00 0. -1.
         11    1    3    3    0    0 -0.13232398699E+01 -0.57058486158E+01  0.35622158438E+01  0.68554397495E+01  0.51100000000E-03 0. -1.
        -11    1    3    3    0    0 -0.20659557003E+02 -0.12074371908E+02 -0.80680567315E+01  0.25252748211E+02  0.51100000000E-03 0.  1.
        -12    1    3    3    0    0 -0.17048587749E+02  0.66383803046E+01  0.21444566783E+01  0.18420671316E+02  0.00000000000E+00 0.  1.
</event>
<event>
 7    1  0.1381607E-011  0.5052887E+02  0.7816164E-02  0.1300439E+00
        -11   -1    0    0    0    0  0.00000000000E+00  0.00000000000E+00  0.45593999997E+02  0.45594000000E+02  0.51100000000E-03 0.  1.
         11   -1    0    0    0    0 -0.00000000000E+00 -0.00000000000E+00 -0.45593999997E+02  0.45594000000E+02  0.51100000000E-03 0. -1.
    9900012    2    1    2    0    0  0.28696044440E+02 -0.18500180033E+02  0.22078158038E+02  0.50528871995E+02  0.30000036916E+02 0.  0.
         12    1    1    2    0    0 -0.28696044440E+02  0.18500180033E+02 -0.22078158038E+02  0.40659128005E+02  0.00000000000E+00 0. -1.
         11    1    3    3    0    0  0.76490879117E+01  0.15124099881E+01  0.18363408540E+02  0.19950205596E+02  0.51100000000E-03 0. -1.
        -11    1    3    3    0    0  0.13210869088E+00 -0.11352619442E+01  0.20601448445E+01  0.23559434267E+01  0.51100000000E-03 0.  1.
        -12    1    3    3    0    0  0.20914847838E+02 -0.18877328077E+02  0.16546046532E+01  0.28222722972E+02  0.00000000000E+00 0.  1.
</event>
<event>
 7    1  0.1381607E-011  0.5052886E+02  0.7816164E-02  0.1300439E+00
        -11   -1    0    0    0    0  0.00000000000E+00  0.00000000000E+00  0.45593999997E+02  0.45594000000E+02  0.51100000000E-03 0. -1.
         11   -1    0    0    0    0 -0.00000000000E+00 -0.00000000000E+00 -0.45593999997E+02  0.45594000000E+02  0.51100000000E-03 0.  1.
    9900012    2    1    2    0    0  0.57099230032E+01  0.38717774323E+02  0.11022532987E+02  0.50528862002E+02  0.30000006542E+02 0.  0.
         12    1    1    2    0    0 -0.57099230032E+01 -0.38717774323E+02 -0.11022532987E+02  0.40659137998E+02  0.00000000000E+00 0. -1.
         11    1    3    3    0    0 -0.22159133509E+01  0.75718187082E+01  0.91726217390E+01  0.12098747884E+02  0.51100000000E-03 0. -1.
        -11    1    3    3    0    0  0.64413256752E+01  0.35823447792E+01 -0.62489471111E+01  0.96629814669E+01  0.51100000000E-03 0.  1.
        -12    1    3    3    0    0  0.14845106789E+01  0.27563610836E+02  0.80988583593E+01  0.28767132652E+02  0.00000000000E+00 0.  1.
</event>
<event>
 7    1  0.1381607E-011  0.5052886E+02  0.7816164E-02  0.1300439E+00
        -11   -1    0    0    0    0  0.00000000000E+00  0.00000000000E+00  0.45593999997E+02  0.45594000000E+02  0.51100000000E-03 0.  1.
         11   -1    0    0    0    0 -0.00000000000E+00 -0.00000000000E+00 -0.45593999997E+02  0.45594000000E+02  0.51100000000E-03 0. -1.
    9900012    2    1    2    0    0  0.59211594098E+01 -0.83863064119E+01  0.39341776993E+02  0.50528859810E+02  0.29999999880E+02 0.  0.
         12    1    1    2    0    0 -0.59211594098E+01  0.83863064119E+01 -0.39341776993E+02  0.40659140190E+02  0.00000000000E+00 0. -1.
         11    1    3    3    0    0  0.99649759388E+01 -0.69715875361E+01  0.15900184592E+02  0.20017983129E+02  0.51100000000E-03 0. -1.
        -11    1    3    3    0    0  0.63053205381E+01  0.41449797968E+01  0.69206354461E+01  0.10238804610E+02  0.51100000000E-03 0.  1.
         12    1    3    3    0    0 -0.10349137067E+02 -0.55596986725E+01  0.16520956955E+02  0.20272072072E+02  0.00000000000E+00 0. -1.
</event>
<event>
 7    1  0.1381607E-011  0.5052884E+02  0.7816164E-02  0.1300439E+00
        -11   -1    0    0    0    0  0.00000000000E+00  0.00000000000E+00  0.45593999997E+02  0.45594000000E+02  0.51100000000E-03 0.  1.
         11   -1    0    0    0    0 -0.00000000000E+00 -0.00000000000E+00 -0.45593999997E+02  0.45594000000E+02  0.51100000000E-03 0. -1.
    9900012    2    1    2    0    0 -0.15313726402E+02 -0.21619617862E+02  0.30842331334E+02  0.50528837503E+02  0.29999932074E+02 0.  0.
         12    1    1    2    0    0  0.15313726402E+02  0.21619617862E+02 -0.30842331334E+02  0.40659162497E+02  0.00000000000E+00 0. -1.
         11    1    3    3    0    0 -0.76868864608E+01  0.29038423100E+01  0.61820373782E+01  0.10282903774E+02  0.51100000000E-03 0. -1.
        -11    1    3    3    0    0  0.55456922059E+01 -0.25162858776E+01  0.57985636510E+01  0.84089082131E+01  0.51100000000E-03 0.  1.
         12    1    3    3    0    0 -0.13172532148E+02 -0.22007174294E+02  0.18861730305E+02  0.31837025516E+02  0.00000000000E+00 0. -1.
</event>
<event>
 7    1  0.1381607E-011  0.5052885E+02  0.7816164E-02  0.1300439E+00
        -11   -1    0    0    0    0  0.00000000000E+00  0.00000000000E+00  0.45593999997E+02  0.45594000000E+02  0.51100000000E-03 0.  1.
         11   -1    0    0    0    0 -0.00000000000E+00 -0.00000000000E+00 -0.45593999997E+02  0.45594000000E+02  0.51100000000E-03 0. -1.
    9900012    2    1    2    0    0 -0.28947876839E+02 -0.10577383489E+02  0.26519910881E+02  0.50528852344E+02  0.29999977185E+02 0.  0.
         12    1    1    2    0    0  0.28947876839E+02  0.10577383489E+02 -0.26519910881E+02  0.40659147656E+02  0.00000000000E+00 0. -1.
         11    1    3    3    0    0 -0.77076723963E+01  0.63368013275E+01  0.48240132964E+01  0.11083066786E+02  0.51100000000E-03 0. -1.
        -11    1    3    3    0    0  0.21313643433E+00 -0.15381001362E+00  0.96870992073E+01  0.96906643721E+01  0.51100000000E-03 0.  1.
         12    1    3    3    0    0 -0.21453340877E+02 -0.16760374803E+02  0.12008798377E+02  0.29755121186E+02  0.00000000000E+00 0. -1.
</event>
<event>
 7    1  0.1381607E-011  0.5052886E+02  0.7816164E-02  0.1300439E+00
        -11   -1    0    0    0    0  0.00000000000E+00  0.00000000000E+00  0.45593999997E+02  0.45594000000E+02  0.51100000000E-03 0.  1.
         11   -1    0    0    0    0 -0.00000000000E+00 -0.00000000000E+00 -0.45593999997E+02  0.45594000000E+02  0.51100000000E-03 0. -1.
    9900012    2    1    2    0    0 -0.35070133121E+02  0.61150753044E+01  0.19643247903E+02  0.50528861159E+02  0.30000003979E+02 0.  0.
         12    1    1    2    0    0  0.35070133121E+02 -0.61150753044E+01 -0.19643247903E+02  0.40659138841E+02  0.00000000000E+00 0. -1.
         11    1    3    3    0    0 -0.93685237606E+01  0.42116632451E+01 -0.30849527385E+01  0.10724937221E+02  0.51100000000E-03 0. -1.
        -11    1    3    3    0    0 -0.24876822684E+02  0.71963798184E+01  0.22714663284E+02  0.34447062541E+02  0.51100000000E-03 0.  1.
         12    1    3    3    0    0 -0.82478667566E+00 -0.52929677592E+01  0.13537357867E-01  0.53568613964E+01  0.00000000000E+00 0. -1.
</event>
<event>
 7    1  0.1381607E-011  0.5052886E+02  0.7816164E-02  0.1300439E+00
        -11   -1    0    0    0    0  0.00000000000E+00  0.00000000000E+00  0.45593999997E+02  0.45594000000E+02  0.51100000000E-03 0. -1.
         11   -1    0    0    0    0 -0.00000000000E+00 -0.00000000000E+00 -0.45593999997E+02  0.45594000000E+02  0.51100000000E-03 0.  1.
    9900012    2    1    2    0    0  0.20354688703E+02  0.32490803036E+02 -0.13535132884E+02  0.50528862573E+02  0.30000008276E+02 0.  0.
         12    1    1    2    0    0 -0.20354688703E+02 -0.32490803036E+02  0.13535132884E+02  0.40659137427E+02  0.00000000000E+00 0. -1.
         11    1    3    3    0    0  0.50473298324E+01  0.11364437264E+02 -0.37433417477E+00  0.12440502366E+02  0.51100000000E-03 0. -1.
        -11    1    3    3    0    0  0.17462065906E+02  0.63247575011E+01 -0.13767227726E+02  0.23118452861E+02  0.51100000000E-03 0.  1.
         12    1    3    3    0    0 -0.21547070353E+01  0.14801608270E+02  0.60642901677E+00  0.14969907346E+02  0.00000000000E+00 0. -1.
</event>
<event>
 7    1  0.1381607E-011  0.5052886E+02  0.7816164E-02  0.1300439E+00
        -11   -1    0    0    0    0  0.00000000000E+00  0.00000000000E+00  0.45593999997E+02  0.45594000000E+02  0.51100000000E-03 0. -1.
         11   -1    0    0    0    0 -0.00000000000E+00 -0.00000000000E+00 -0.45593999997E+02  0.45594000000E+02  0.51100000000E-03 0.  1.
    9900012    2    1    2    0    0  0.40378084103E+02  0.34578081032E+01 -0.32893440100E+01  0.50528857157E+02  0.29999991815E+02 0.  0.
         12    1    1    2    0    0 -0.40378084103E+02 -0.34578081032E+01  0.32893440100E+01  0.40659142843E+02  0.00000000000E+00 0. -1.
         11    1    3    3    0    0 -0.36168116058E+01  0.10605455207E+01 -0.12927652727E+01  0.39846361572E+01  0.51100000000E-03 0. -1.
        -11    1    3    3    0    0  0.20058769255E+02  0.13400042544E+01 -0.83313459480E+01  0.21761460452E+02  0.51100000000E-03 0.  1.
        -12    1    3    3    0    0  0.23936126454E+02  0.10572583281E+01  0.63347672107E+01  0.24782760548E+02  0.00000000000E+00 0.  1.
</event>
<event>
 7    1  0.1381607E-011  0.5052888E+02  0.7816164E-02  0.1300439E+00
        -11   -1    0    0    0    0  0.00000000000E+00  0.00000000000E+00  0.45593999997E+02  0.45594000000E+02  0.51100000000E-03 0. -1.
         11   -1    0    0    0    0 -0.00000000000E+00 -0.00000000000E+00 -0.45593999997E+02  0.45594000000E+02  0.51100000000E-03 0.  1.
    9900012    2    1    2    0    0 -0.38336352513E+02  0.43317323931E+01  0.12834479765E+02  0.50528884166E+02  0.30000073912E+02 0.  0.
         12    1    1    2    0    0  0.38336352513E+02 -0.43317323931E+01 -0.12834479765E+02  0.40659115834E+02  0.00000000000E+00 0. -1.
         11    1    3    3    0    0 -0.72261249455E+01  0.56803190310E+01 -0.81875186684E+01  0.12309279761E+02  0.51100000000E-03 0. -1.
        -11    1    3    3    0    0 -0.10291273734E+02  0.65702767435E+00  0.10825981765E+02  0.14951383945E+02  0.51100000000E-03 0.  1.
        -12    1    3    3    0    0 -0.20818953834E+02 -0.20056143122E+01  0.10196016668E+02  0.23268220460E+02  0.00000000000E+00 0.  1.
</event>
<event>
 7    1  0.1381607E-011  0.5052883E+02  0.7816164E-02  0.1300439E+00
        -11   -1    0    0    0    0  0.00000000000E+00  0.00000000000E+00  0.45593999997E+02  0.45594000000E+02  0.51100000000E-03 0.  1.
         11   -1    0    0    0    0 -0.00000000000E+00 -0.00000000000E+00 -0.45593999997E+02  0.45594000000E+02  0.51100000000E-03 0. -1.
    9900012    2    1    2    0    0 -0.59276604538E+01 -0.37263059345E+02  0.15149110503E+02  0.50528827613E+02  0.29999902012E+02 0.  0.
         12    1    1    2    0    0  0.59276604538E+01  0.37263059345E+02 -0.15149110503E+02  0.40659172387E+02  0.00000000000E+00 0. -1.
         11    1    3    3    0    0  0.46277017156E+00  0.29243715558E+01 -0.24936011478E+00  0.29712431667E+01  0.51100000000E-03 0. -1.
        -11    1    3    3    0    0 -0.21895551179E+01 -0.20426518852E+02 -0.23353107429E+01  0.20675843406E+02  0.51100000000E-03 0.  1.
        -12    1    3    3    0    0 -0.42008755074E+01 -0.19760912048E+02  0.17733781360E+02  0.26881741040E+02  0.00000000000E+00 0.  1.
</event>
<event>
 7    1  0.1381607E-011  0.5052885E+02  0.7816164E-02  0.1300439E+00
        -11   -1    0    0    0    0  0.00000000000E+00  0.00000000000E+00  0.45593999997E+02  0.45594000000E+02  0.51100000000E-03 0.  1.
         11   -1    0    0    0    0 -0.00000000000E+00 -0.00000000000E+00 -0.45593999997E+02  0.45594000000E+02  0.51100000000E-03 0. -1.
    9900012    2    1    2    0    0 -0.19027014726E+02  0.26121894038E+02  0.24673591562E+02  0.50528846565E+02  0.29999959618E+02 0.  0.
         12    1    1    2    0    0  0.19027014726E+02 -0.26121894038E+02 -0.24673591562E+02  0.40659153435E+02  0.00000000000E+00 0. -1.
         11    1    3    3    0    0 -0.51791931053E+01  0.37836175387E+01 -0.44660671414E+01  0.78157251022E+01  0.51100000000E-03 0. -1.
        -11    1    3    3    0    0 -0.16892241748E+02  0.12864198400E+02  0.20900679860E+02  0.29793855921E+02  0.51100000000E-03 0.  1.
         12    1    3    3    0    0  0.30444201279E+01  0.94740780994E+01  0.82389788433E+01  0.12919265541E+02  0.00000000000E+00 0. -1.
</event>
<event>
 7    1  0.1381607E-011  0.5052886E+02  0.7816164E-02  0.1300439E+00
        -11   -1    0    0    0    0  0.00000000000E+00  0.00000000000E+00  0.45593999997E+02  0.45594000000E+02  0.51100000000E-03 0.  1.
         11   -1    0    0    0    0 -0.00000000000E+00 -0.00000000000E+00 -0.45593999997E+02  0.45594000000E+02  0.51100000000E-03 0. -1.
    9900012    2    1    2    0    0  0.11740470280E+02 -0.14466713881E+02  0.36139193628E+02  0.50528858728E+02  0.29999996589E+02 0.  0.
         12    1    1    2    0    0 -0.11740470280E+02  0.14466713881E+02 -0.36139193628E+02  0.40659141272E+02  0.00000000000E+00 0. -1.
         11    1    3    3    0    0 -0.87923667037E+00 -0.64107093356E+01  0.14576163256E+01  0.66328649105E+01  0.51100000000E-03 0. -1.
        -11    1    3    3    0    0  0.38323511840E+01 -0.14045357401E+02  0.27336313910E+02  0.30971487510E+02  0.51100000000E-03 0.  1.
        -12    1    3    3    0    0  0.87873557661E+01  0.59893528556E+01  0.73452633927E+01  0.12924506308E+02  0.00000000000E+00 0.  1.
</event>
<event>
 7    1  0.1381607E-011  0.5052887E+02  0.7816164E-02  0.1300439E+00
        -11   -1    0    0    0    0  0.00000000000E+00  0.00000000000E+00  0.45593999997E+02  0.45594000000E+02  0.51100000000E-03 0.  1.
         11   -1    0    0    0    0 -0.00000000000E+00 -0.00000000000E+00 -0.45593999997E+02  0.45594000000E+02  0.51100000000E-03 0. -1.
    9900012    2    1    2    0    0  0.69796675141E+01 -0.33208114674E+02  0.22397997809E+02  0.50528868865E+02  0.30000027402E+02 0.  0.
         12    1    1    2    0    0 -0.69796675141E+01  0.33208114674E+02 -0.22397997809E+02  0.40659131135E+02  0.00000000000E+00 0. -1.
         11    1    3    3    0    0  0.97921971865E+01 -0.18453628208E+01 -0.12126631158E+01  0.10038079586E+02  0.51100000000E-03 0. -1.
        -11    1    3    3    0    0 -0.43372585456E+01 -0.55857873025E+01  0.49950337152E+01  0.86581287561E+01  0.51100000000E-03 0.  1.
        -12    1    3    3    0    0  0.15247288731E+01 -0.25776964550E+02  0.18615627210E+02  0.31832660523E+02  0.00000000000E+00 0.  1.
</event>
<event>
 7    1  0.1381607E-011  0.5052886E+02  0.7816164E-02  0.1300439E+00
        -11   -1    0    0    0    0  0.00000000000E+00  0.00000000000E+00  0.45593999997E+02  0.45594000000E+02  0.51100000000E-03 0.  1.
         11   -1    0    0    0    0 -0.00000000000E+00 -0.00000000000E+00 -0.45593999997E+02  0.45594000000E+02  0.51100000000E-03 0. -1.
    9900012    2    1    2    0    0  0.24985035182E+02 -0.30977030737E+02 -0.83268885663E+01  0.50528862164E+02  0.30000007035E+02 0.  0.
         12    1    1    2    0    0 -0.24985035182E+02  0.30977030737E+02  0.83268885663E+01  0.40659137836E+02  0.00000000000E+00 0. -1.
         11    1    3    3    0    0 -0.83182420779E+00 -0.54578004478E+01 -0.46346266999E+01  0.72082787231E+01  0.51100000000E-03 0. -1.
        -11    1    3    3    0    0  0.39355603927E+01 -0.15954921803E+02  0.60749590087E+01  0.17520082550E+02  0.51100000000E-03 0.  1.
         12    1    3    3    0    0  0.21881298997E+02 -0.95643084864E+01 -0.97672208750E+01  0.25800500891E+02  0.00000000000E+00 0. -1.
</event>
<event>
 7    1  0.1381607E-011  0.5052889E+02  0.7816164E-02  0.1300439E+00
        -11   -1    0    0    0    0  0.00000000000E+00  0.00000000000E+00  0.45593999997E+02  0.45594000000E+02  0.51100000000E-03 0. -1.
         11   -1    0    0    0    0 -0.00000000000E+00 -0.00000000000E+00 -0.45593999997E+02  0.45594000000E+02  0.51100000000E-03 0.  1.
    9900012    2    1    2    0    0  0.25116278620E+02  0.24878856126E+02 -0.20084282038E+02  0.50528888858E+02  0.30000088174E+02 0.  0.
         12    1    1    2    0    0 -0.25116278620E+02 -0.24878856126E+02  0.20084282038E+02  0.40659111142E+02  0.00000000000E+00 0. -1.
         11    1    3    3    0    0 -0.13942062392E+01  0.65316666848E+01 -0.20824533174E+01  0.69959340190E+01  0.51100000000E-03 0. -1.
        -11    1    3    3    0    0  0.10051403596E+02 -0.23600811835E+01  0.18129488997E+01  0.10482722997E+02  0.51100000000E-03 0.  1.
        -12    1    3    3    0    0  0.16459081263E+02  0.20707270624E+02 -0.19814777620E+02  0.33050231843E+02  0.00000000000E+00 0.  1.
</event>
<event>
 7    1  0.1381607E-011  0.5052884E+02  0.7816164E-02  0.1300439E+00
        -11   -1    0    0    0    0  0.00000000000E+00  0.00000000000E+00  0.45593999997E+02  0.45594000000E+02  0.51100000000E-03 0.  1.
         11   -1    0    0    0    0 -0.00000000000E+00 -0.00000000000E+00 -0.45593999997E+02  0.45594000000E+02  0.51100000000E-03 0. -1.
    9900012    2    1    2    0    0 -0.14726494794E+02  0.35374358681E+02  0.13599729362E+02  0.50528836953E+02  0.29999930401E+02 0.  0.
         12    1    1    2    0    0  0.14726494794E+02 -0.35374358681E+02 -0.13599729362E+02  0.40659163047E+02  0.00000000000E+00 0. -1.
         11    1    3    3    0    0 -0.46182171686E+01 -0.12816792232E+01 -0.89831813241E-02  0.47927771079E+01  0.51100000000E-03 0. -1.
        -11    1    3    3    0    0 -0.15543320498E+02  0.16061305285E+02  0.75436960750E+01  0.23589567404E+02  0.51100000000E-03 0.  1.
         12    1    3    3    0    0  0.54350428730E+01  0.20594732618E+02  0.60650164685E+01  0.22146492441E+02  0.00000000000E+00 0. -1.
</event>
<event>
 7    1  0.1381607E-011  0.5052885E+02  0.7816164E-02  0.1300439E+00
        -11   -1    0    0    0    0  0.00000000000E+00  0.00000000000E+00  0.45593999997E+02  0.45594000000E+02  0.51100000000E-03 0.  1.
         11   -1    0    0    0    0 -0.00000000000E+00 -0.00000000000E+00 -0.45593999997E+02  0.45594000000E+02  0.51100000000E-03 0. -1.
    9900012    2    1    2    0    0 -0.36266519646E+02  0.15081839735E+02  0.10509231950E+02  0.50528852282E+02  0.29999976995E+02 0.  0.
         12    1    1    2    0    0  0.36266519646E+02 -0.15081839735E+02 -0.10509231950E+02  0.40659147718E+02  0.00000000000E+00 0. -1.
         11    1    3    3    0    0 -0.75458783005E+01  0.50467792162E+01  0.86482249158E+01  0.12538024336E+02  0.51100000000E-03 0. -1.
        -11    1    3    3    0    0 -0.28045588704E+02  0.14721702495E+02 -0.22026522323E+01  0.31751145605E+02  0.51100000000E-03 0.  1.
         12    1    3    3    0    0 -0.67505264199E+00 -0.46866419769E+01  0.40636592663E+01  0.62396823414E+01  0.00000000000E+00 0. -1.
</event>
<event>
 7    1  0.1381607E-011  0.5052886E+02  0.7816164E-02  0.1300439E+00
        -11   -1    0    0    0    0  0.00000000000E+00  0.00000000000E+00  0.45593999997E+02  0.45594000000E+02  0.51100000000E-03 0.  1.
         11   -1    0    0    0    0 -0.00000000000E+00 -0.00000000000E+00 -0.45593999997E+02  0.45594000000E+02  0.51100000000E-03 0. -1.
    9900012    2    1    2    0    0 -0.36141867685E+01 -0.24259297511E+02  0.32428223144E+02  0.50528861815E+02  0.30000005972E+02 0.  0.
         12    1    1    2    0    0  0.36141867685E+01  0.24259297511E+02 -0.32428223144E+02  0.40659138185E+02  0.00000000000E+00 0. -1.
         11    1    3    3    0    0  0.11798591118E+02 -0.12802287022E+02  0.11136041792E+02  0.20666802666E+02  0.51100000000E-03 0. -1.
        -11    1    3    3    0    0 -0.63942942481E+01 -0.15137041705E+01  0.31327141928E+01  0.72795740069E+01  0.51100000000E-03 0.  1.
        -12    1    3    3    0    0 -0.90184836389E+01 -0.99433063187E+01  0.18159467159E+02  0.22582485142E+02  0.00000000000E+00 0.  1.
</event>
<event>
 7    1  0.1381607E-011  0.5052886E+02  0.7816164E-02  0.1300439E+00
        -11   -1    0    0    0    0  0.00000000000E+00  0.00000000000E+00  0.45593999997E+02  0.45594000000E+02  0.51100000000E-03 0.  1.
         11   -1    0    0    0    0 -0.00000000000E+00 -0.00000000000E+00 -0.45593999997E+02  0.45594000000E+02  0.51100000000E-03 0. -1.
    9900012    2    1    2    0    0  0.70673398718E+01  0.27362208837E+02  0.29232313390E+02  0.50528856976E+02  0.29999991265E+02 0.  0.
         12    1    1    2    0    0 -0.70673398718E+01 -0.27362208837E+02 -0.29232313390E+02  0.40659143024E+02  0.00000000000E+00 0. -1.
         11    1    3    3    0    0  0.65940305529E+01  0.40621476170E+01  0.68616489588E+01  0.10347198118E+02  0.51100000000E-03 0. -1.
        -11    1    3    3    0    0  0.64363233755E+01  0.24390785047E+02  0.11474661972E+02  0.27712894498E+02  0.51100000000E-03 0.  1.
         12    1    3    3    0    0 -0.59630140566E+01 -0.10907238271E+01  0.10896002458E+02  0.12468764361E+02  0.00000000000E+00 0. -1.
</event>
<event>
 7    1  0.1381607E-011  0.5052887E+02  0.7816164E-02  0.1300439E+00
        -11   -1    0    0    0    0  0.00000000000E+00  0.00000000000E+00  0.45593999997E+02  0.45594000000E+02  0.51100000000E-03 0. -1.
         11   -1    0    0    0    0 -0.00000000000E+00 -0.00000000000E+00 -0.45593999997E+02  0.45594000000E+02  0.51100000000E-03 0.  1.
    9900012    2    1    2    0    0  0.15787768974E+02 -0.32537977402E+02 -0.18579333424E+02  0.50528865072E+02  0.30000015874E+02 0.  0.
         12    1    1    2    0    0 -0.15787768974E+02  0.32537977402E+02  0.18579333424E+02  0.40659134928E+02  0.00000000000E+00 0. -1.
         11    1    3    3    0    0  0.90065690734E+01 -0.79896859863E+01  0.60729860386E+01  0.13484603380E+02  0.51100000000E-03 0. -1.
        -11    1    3    3    0    0 -0.23228593345E+01 -0.11414858547E+02 -0.11112736196E+02  0.16099303624E+02  0.51100000000E-03 0.  1.
        -12    1    3    3    0    0  0.91040592357E+01 -0.13133432868E+02 -0.13539583266E+02  0.20944958069E+02  0.00000000000E+00 0.  1.
</event>
<event>
 7    1  0.1381607E-011  0.5052885E+02  0.7816164E-02  0.1300439E+00
        -11   -1    0    0    0    0  0.00000000000E+00  0.00000000000E+00  0.45593999997E+02  0.45594000000E+02  0.51100000000E-03 0.  1.
         11   -1    0    0    0    0 -0.00000000000E+00 -0.00000000000E+00 -0.45593999997E+02  0.45594000000E+02  0.51100000000E-03 0. -1.
    9900012    2    1    2    0    0  0.32314667306E+02  0.15226455102E+00  0.24676012393E+02  0.50528849797E+02  0.29999969444E+02 0.  0.
         12    1    1    2    0    0 -0.32314667306E+02 -0.15226455102E+00 -0.24676012393E+02  0.40659150203E+02  0.00000000000E+00 0. -1.
         11    1    3    3    0    0  0.94382190008E+01 -0.11754531016E+02  0.61311944592E+01  0.16273921564E+02  0.51100000000E-03 0. -1.
        -11    1    3    3    0    0  0.13299719229E+02 -0.25018022193E+00  0.78933750172E+01  0.15467724174E+02  0.51100000000E-03 0.  1.
         12    1    3    3    0    0  0.95767290764E+01  0.12156975789E+02  0.10651442917E+02  0.18787204059E+02  0.00000000000E+00 0. -1.
</event>
<event>
 7    1  0.1381607E-011  0.5052886E+02  0.7816164E-02  0.1300439E+00
        -11   -1    0    0    0    0  0.00000000000E+00  0.00000000000E+00  0.45593999997E+02  0.45594000000E+02  0.51100000000E-03 0. -1.
         11   -1    0    0    0    0 -0.00000000000E+00 -0.00000000000E+00 -0.45593999997E+02  0.45594000000E+02  0.51100000000E-03 0.  1.
    9900012    2    1    2    0    0  0.29550778746E+01  0.25148323301E+02 -0.31811875134E+02  0.50528855276E+02  0.29999986098E+02 0.  0.
         12    1    1    2    0    0 -0.29550778746E+01 -0.25148323301E+02  0.31811875134E+02  0.40659144724E+02  0.00000000000E+00 0. -1.
         11    1    3    3    0    0  0.80811722809E+01  0.10988131473E+02 -0.62895621191E+01  0.15020085573E+02  0.51100000000E-03 0. -1.
        -11    1    3    3    0    0  0.75406523228E+01  0.50052546392E+01 -0.89183163297E+01  0.12706312521E+02  0.51100000000E-03 0.  1.
        -12    1    3    3    0    0 -0.12666746729E+02  0.91549371882E+01 -0.16603996686E+02  0.22802457182E+02  0.00000000000E+00 0.  1.
</event>
<event>
 7    1  0.1381607E-011  0.5052886E+02  0.7816164E-02  0.1300439E+00
        -11   -1    0    0    0    0  0.00000000000E+00  0.00000000000E+00  0.45593999997E+02  0.45594000000E+02  0.51100000000E-03 0.  1.
         11   -1    0    0    0    0 -0.00000000000E+00 -0.00000000000E+00 -0.45593999997E+02  0.45594000000E+02  0.51100000000E-03 0. -1.
    9900012    2    1    2    0    0  0.11090613201E+02 -0.35616796613E+02  0.16174291970E+02  0.50528860524E+02  0.30000002049E+02 0.  0.
         12    1    1    2    0    0 -0.11090613201E+02  0.35616796613E+02 -0.16174291970E+02  0.40659139476E+02  0.00000000000E+00 0. -1.
         11    1    3    3    0    0  0.51080326250E+01 -0.43271272744E+00 -0.29371549318E+01  0.59081398898E+01  0.51100000000E-03 0. -1.
        -11    1    3    3    0    0 -0.26227577153E+01 -0.17695675012E+02  0.84616588391E+00  0.17908985709E+02  0.51100000000E-03 0.  1.
        -12    1    3    3    0    0  0.86053382915E+01 -0.17488408874E+02  0.18265281018E+02  0.26711734925E+02  0.00000000000E+00 0.  1.
</event>
<event>
 7    1  0.1381607E-011  0.5052890E+02  0.7816164E-02  0.1300439E+00
        -11   -1    0    0    0    0  0.00000000000E+00  0.00000000000E+00  0.45593999997E+02  0.45594000000E+02  0.51100000000E-03 0.  1.
         11   -1    0    0    0    0 -0.00000000000E+00 -0.00000000000E+00 -0.45593999997E+02  0.45594000000E+02  0.51100000000E-03 0. -1.
    9900012    2    1    2    0    0 -0.30332531982E+02 -0.16020489554E+02  0.21827600946E+02  0.50528895915E+02  0.30000109622E+02 0.  0.
         12    1    1    2    0    0  0.30332531982E+02  0.16020489554E+02 -0.21827600946E+02  0.40659104085E+02  0.00000000000E+00 0. -1.
         11    1    3    3    0    0 -0.11252850433E+02 -0.34773565499E+01  0.14900727629E+01  0.11871771921E+02  0.51100000000E-03 0. -1.
        -11    1    3    3    0    0 -0.11811077992E+02  0.11346932773E+01  0.19891345424E+02  0.23161492076E+02  0.51100000000E-03 0.  1.
         12    1    3    3    0    0 -0.72686035563E+01 -0.13677826282E+02  0.44618275899E+00  0.15495631917E+02  0.00000000000E+00 0. -1.
</event>
<event>
 7    1  0.1381607E-011  0.5052885E+02  0.7816164E-02  0.1300439E+00
        -11   -1    0    0    0    0  0.00000000000E+00  0.00000000000E+00  0.45593999997E+02  0.45594000000E+02  0.51100000000E-03 0.  1.
         11   -1    0    0    0    0 -0.00000000000E+00 -0.00000000000E+00 -0.45593999997E+02  0.45594000000E+02  0.51100000000E-03 0. -1.
    9900012    2    1    2    0    0  0.34335089862E+02 -0.19491634675E+02  0.97130904075E+01  0.50528851664E+02  0.29999975118E+02 0.  0.
         12    1    1    2    0    0 -0.34335089862E+02  0.19491634675E+02 -0.97130904075E+01  0.40659148336E+02  0.00000000000E+00 0. -1.
         11    1    3    3    0    0  0.74595921174E+01  0.34956730387E+01 -0.22082649117E+01  0.85288732394E+01  0.51100000000E-03 0. -1.
        -11    1    3    3    0    0  0.14054365079E+02 -0.13067188105E+02 -0.36357662433E+01  0.19531906696E+02  0.51100000000E-03 0.  1.
        -12    1    3    3    0    0  0.12821132666E+02 -0.99201196083E+01  0.15557121563E+02  0.22468071728E+02  0.00000000000E+00 0.  1.
</event>
<event>
 7    1  0.1381607E-011  0.5052886E+02  0.7816164E-02  0.1300439E+00
        -11   -1    0    0    0    0  0.00000000000E+00  0.00000000000E+00  0.45593999997E+02  0.45594000000E+02  0.51100000000E-03 0.  1.
         11   -1    0    0    0    0 -0.00000000000E+00 -0.00000000000E+00 -0.45593999997E+02  0.45594000000E+02  0.51100000000E-03 0. -1.
    9900012    2    1    2    0    0 -0.59878254220E+01  0.24260753433E+02  0.32073780986E+02  0.50528860349E+02  0.30000001518E+02 0.  0.
         12    1    1    2    0    0  0.59878254220E+01 -0.24260753433E+02 -0.32073780986E+02  0.40659139651E+02  0.00000000000E+00 0. -1.
         11    1    3    3    0    0 -0.46958189999E+00  0.12335983744E+02  0.60955371716E+01  0.13767809404E+02  0.51100000000E-03 0. -1.
        -11    1    3    3    0    0 -0.12118354655E+02  0.13904878453E+02  0.14883573013E+02  0.23700652106E+02  0.51100000000E-03 0.  1.
        -12    1    3    3    0    0  0.66001111329E+01 -0.19801087646E+01  0.11094670801E+02  0.13060398840E+02  0.00000000000E+00 0.  1.
</event>
<event>
 7    1  0.1381607E-011  0.5052885E+02  0.7816164E-02  0.1300439E+00
        -11   -1    0    0    0    0  0.00000000000E+00  0.00000000000E+00  0.45593999997E+02  0.45594000000E+02  0.51100000000E-03 0.  1.
         11   -1    0    0    0    0 -0.00000000000E+00 -0.00000000000E+00 -0.45593999997E+02  0.45594000000E+02  0.51100000000E-03 0. -1.
    9900012    2    1    2    0    0  0.29390538681E+02  0.75421797903E+01 -0.27064332514E+02  0.50528851775E+02  0.29999975455E+02 0.  0.
         12    1    1    2    0    0 -0.29390538681E+02 -0.75421797903E+01  0.27064332514E+02  0.40659148225E+02  0.00000000000E+00 0. -1.
         11    1    3    3    0    0  0.18072748111E+01  0.44874273077E+01 -0.15639176523E+02  0.16370311196E+02  0.51100000000E-03 0. -1.
        -11    1    3    3    0    0  0.55005508262E+00  0.61036402841E+00  0.32151668810E+01  0.33184941125E+01  0.51100000000E-03 0.  1.
        -12    1    3    3    0    0  0.27033208787E+02  0.24443884542E+01 -0.14640322872E+02  0.30840046466E+02  0.00000000000E+00 0.  1.
</event>
<event>
 7    1  0.1381607E-011  0.5052886E+02  0.7816164E-02  0.1300439E+00
        -11   -1    0    0    0    0  0.00000000000E+00  0.00000000000E+00  0.45593999997E+02  0.45594000000E+02  0.51100000000E-03 0. -1.
         11   -1    0    0    0    0 -0.00000000000E+00 -0.00000000000E+00 -0.45593999997E+02  0.45594000000E+02  0.51100000000E-03 0.  1.
    9900012    2    1    2    0    0  0.30602625669E+02  0.11515791621E+02 -0.24166741255E+02  0.50528861576E+02  0.30000005247E+02 0.  0.
         12    1    1    2    0    0 -0.30602625669E+02 -0.11515791621E+02  0.24166741255E+02  0.40659138424E+02  0.00000000000E+00 0. -1.
         11    1    3    3    0    0  0.33885768284E+01  0.11376489910E+02 -0.14589836629E+02  0.18808782755E+02  0.51100000000E-03 0. -1.
        -11    1    3    3    0    0  0.14142604178E+02  0.37590262895E+01 -0.10673239130E+02  0.18112469886E+02  0.51100000000E-03 0.  1.
        -12    1    3    3    0    0  0.13071444663E+02 -0.36197245785E+01  0.10963345045E+01  0.13607608936E+02  0.00000000000E+00 0.  1.
</event>
<event>
 7    1  0.1381607E-011  0.5052887E+02  0.7816164E-02  0.1300439E+00
        -11   -1    0    0    0    0  0.00000000000E+00  0.00000000000E+00  0.45593999997E+02  0.45594000000E+02  0.51100000000E-03 0.  1.
         11   -1    0    0    0    0 -0.00000000000E+00 -0.00000000000E+00 -0.45593999997E+02  0.45594000000E+02  0.51100000000E-03 0. -1.
    9900012    2    1    2    0    0 -0.74264063208E+01  0.38179442273E+02 -0.11846684371E+02  0.50528865065E+02  0.30000015850E+02 0.  0.
         12    1    1    2    0    0  0.74264063208E+01 -0.38179442273E+02  0.11846684371E+02  0.40659134935E+02  0.00000000000E+00 0. -1.
         11    1    3    3    0    0  0.46804265511E+01  0.94010762706E+01 -0.95494364004E+01  0.14194307435E+02  0.51100000000E-03 0. -1.
        -11    1    3    3    0    0 -0.48007460549E+01  0.12347980289E+01 -0.57935650582E+01  0.76247809936E+01  0.51100000000E-03 0.  1.
         12    1    3    3    0    0 -0.73060868170E+01  0.27543567973E+02  0.34963170872E+01  0.28709776635E+02  0.00000000000E+00 0. -1.
</event>
<event>
 7    1  0.1381607E-011  0.5052885E+02  0.7816164E-02  0.1300439E+00
        -11   -1    0    0    0    0  0.00000000000E+00  0.00000000000E+00  0.45593999997E+02  0.45594000000E+02  0.51100000000E-03 0. -1.
         11   -1    0    0    0    0 -0.00000000000E+00 -0.00000000000E+00 -0.45593999997E+02  0.45594000000E+02  0.51100000000E-03 0.  1.
    9900012    2    1    2    0    0  0.15189135776E+02  0.15804909525E+02 -0.34244140941E+02  0.50528853433E+02  0.29999980496E+02 0.  0.
         12    1    1    2    0    0 -0.15189135776E+02 -0.15804909525E+02  0.34244140941E+02  0.40659146567E+02  0.00000000000E+00 0. -1.
         11    1    3    3    0    0 -0.17645020181E+01  0.85780715007E+01 -0.15013646990E+02  0.17381207502E+02  0.51100000000E-03 0. -1.
        -11    1    3    3    0    0  0.86328244776E+01  0.13786464945E+02 -0.13257005225E+02  0.20984290837E+02  0.51100000000E-03 0.  1.
         12    1    3    3    0    0  0.83208133168E+01 -0.65596269200E+01 -0.59734887258E+01  0.12163355094E+02  0.00000000000E+00 0. -1.
</event>
<event>
 7    1  0.1381607E-011  0.5052885E+02  0.7816164E-02  0.1300439E+00
        -11   -1    0    0    0    0  0.00000000000E+00  0.00000000000E+00  0.45593999997E+02  0.45594000000E+02  0.51100000000E-03 0.  1.
         11   -1    0    0    0    0 -0.00000000000E+00 -0.00000000000E+00 -0.45593999997E+02  0.45594000000E+02  0.51100000000E-03 0. -1.
    9900012    2    1    2    0    0 -0.91894453427E+01  0.39533885866E+02  0.24068308155E+01  0.50528845164E+02  0.29999955360E+02 0.  0.
         12    1    1    2    0    0  0.91894453427E+01 -0.39533885866E+02 -0.24068308155E+01  0.40659154836E+02  0.00000000000E+00 0. -1.
         11    1    3    3    0    0 -0.38044529607E+01  0.18246845190E+01  0.54547919997E+01  0.68962375209E+01  0.51100000000E-03 0. -1.
        -11    1    3    3    0    0 -0.38873133567E+01  0.86266397282E+00 -0.53669766330E+01  0.66828012618E+01  0.51100000000E-03 0.  1.
        -12    1    3    3    0    0 -0.14976790253E+01  0.36846537375E+02  0.23190154488E+01  0.36949806381E+02  0.00000000000E+00 0.  1.
</event>
<event>
 7    1  0.1381607E-011  0.5052886E+02  0.7816164E-02  0.1300439E+00
        -11   -1    0    0    0    0  0.00000000000E+00  0.00000000000E+00  0.45593999997E+02  0.45594000000E+02  0.51100000000E-03 0.  1.
         11   -1    0    0    0    0 -0.00000000000E+00 -0.00000000000E+00 -0.45593999997E+02  0.45594000000E+02  0.51100000000E-03 0. -1.
    9900012    2    1    2    0    0 -0.92733468772E+01  0.17193402274E+02  0.35658902703E+02  0.50528863437E+02  0.30000010902E+02 0.  0.
         12    1    1    2    0    0  0.92733468772E+01 -0.17193402274E+02 -0.35658902703E+02  0.40659136563E+02  0.00000000000E+00 0. -1.
         11    1    3    3    0    0 -0.40787069792E+01  0.31928776049E+01  0.24390387850E+02  0.24934340532E+02  0.51100000000E-03 0. -1.
        -11    1    3    3    0    0 -0.88110466292E+01  0.71843444787E+00  0.66938813948E+01  0.11088676167E+02  0.51100000000E-03 0.  1.
         12    1    3    3    0    0  0.36164067311E+01  0.13282090221E+02  0.45746334585E+01  0.14505846738E+02  0.00000000000E+00 0. -1.
</event>
<event>
 7    1  0.1381607E-011  0.5052886E+02  0.7816164E-02  0.1300439E+00
        -11   -1    0    0    0    0  0.00000000000E+00  0.00000000000E+00  0.45593999997E+02  0.45594000000E+02  0.51100000000E-03 0.  1.
         11   -1    0    0    0    0 -0.00000000000E+00 -0.00000000000E+00 -0.45593999997E+02  0.45594000000E+02  0.51100000000E-03 0. -1.
    9900012    2    1    2    0    0  0.31046602133E+02 -0.22971325278E+02  0.12711892739E+02  0.50528861962E+02  0.30000006419E+02 0.  0.
         12    1    1    2    0    0 -0.31046602133E+02  0.22971325278E+02 -0.12711892739E+02  0.40659138038E+02  0.00000000000E+00 0. -1.
         11    1    3    3    0    0  0.13316185207E+02 -0.23672180515E+01 -0.70420956543E+01  0.15248462914E+02  0.51100000000E-03 0. -1.
        -11    1    3    3    0    0  0.89141605054E+01 -0.48591199390E+01  0.28272282704E+01  0.10538810372E+02  0.51100000000E-03 0.  1.
        -12    1    3    3    0    0  0.88162564204E+01 -0.15744987287E+02  0.16926760123E+02  0.24741588676E+02  0.00000000000E+00 0.  1.
</event>
<event>
 7    1  0.1381607E-011  0.5052883E+02  0.7816164E-02  0.1300439E+00
        -11   -1    0    0    0    0  0.00000000000E+00  0.00000000000E+00  0.45593999997E+02  0.45594000000E+02  0.51100000000E-03 0.  1.
         11   -1    0    0    0    0 -0.00000000000E+00 -0.00000000000E+00 -0.45593999997E+02  0.45594000000E+02  0.51100000000E-03 0. -1.
    9900012    2    1    2    0    0 -0.32613700281E+02 -0.10100223688E+02  0.22079410355E+02  0.50528827281E+02  0.29999901004E+02 0.  0.
         12    1    1    2    0    0  0.32613700281E+02  0.10100223688E+02 -0.22079410355E+02  0.40659172719E+02  0.00000000000E+00 0. -1.
         11    1    3    3    0    0 -0.73812801602E+01 -0.34952187404E+00 -0.19397487866E+01  0.76399010438E+01  0.51100000000E-03 0. -1.
        -11    1    3    3    0    0 -0.14046099315E+02  0.67602492840E+01  0.10433388998E+02  0.18757651308E+02  0.51100000000E-03 0.  1.
        -12    1    3    3    0    0 -0.11186320805E+02 -0.16510951098E+02  0.13585770144E+02  0.24131274929E+02  0.00000000000E+00 0.  1.
</event>
<event>
 7    1  0.1381607E-011  0.5052886E+02  0.7816164E-02  0.1300439E+00
        -11   -1    0    0    0    0  0.00000000000E+00  0.00000000000E+00  0.45593999997E+02  0.45594000000E+02  0.51100000000E-03 0.  1.
         11   -1    0    0    0    0 -0.00000000000E+00 -0.00000000000E+00 -0.45593999997E+02  0.45594000000E+02  0.51100000000E-03 0. -1.
    9900012    2    1    2    0    0  0.24526992417E+01 -0.32971545429E+02  0.23664897631E+02  0.50528856853E+02  0.29999990890E+02 0.  0.
         12    1    1    2    0    0 -0.24526992417E+01  0.32971545429E+02 -0.23664897631E+02  0.40659143147E+02  0.00000000000E+00 0. -1.
         11    1    3    3    0    0 -0.33603408460E+01 -0.20566727882E+02  0.30281182410E+01  0.21058292588E+02  0.51100000000E-03 0. -1.
        -11    1    3    3    0    0 -0.51287717127E+01 -0.73861757540E+01  0.92489135923E+01  0.12899701332E+02  0.51100000000E-03 0.  1.
        -12    1    3    3    0    0  0.10941811800E+02 -0.50186417933E+01  0.11387865798E+02  0.16570862933E+02  0.00000000000E+00 0.  1.
</event>
<event>
 7    1  0.1381607E-011  0.5052886E+02  0.7816164E-02  0.1300439E+00
        -11   -1    0    0    0    0  0.00000000000E+00  0.00000000000E+00  0.45593999997E+02  0.45594000000E+02  0.51100000000E-03 0.  1.
         11   -1    0    0    0    0 -0.00000000000E+00 -0.00000000000E+00 -0.45593999997E+02  0.45594000000E+02  0.51100000000E-03 0. -1.
    9900012    2    1    2    0    0  0.11331657628E+02  0.17407716451E+02  0.34953263662E+02  0.50528859610E+02  0.29999999271E+02 0.  0.
         12    1    1    2    0    0 -0.11331657628E+02 -0.17407716451E+02 -0.34953263662E+02  0.40659140390E+02  0.00000000000E+00 0. -1.
         11    1    3    3    0    0  0.96895274552E+01  0.43535001940E+01  0.80775884372E+01  0.13344936923E+02  0.51100000000E-03 0. -1.
        -11    1    3    3    0    0  0.10584852962E+02  0.12835600838E+02  0.19116102517E+02  0.25342003409E+02  0.51100000000E-03 0.  1.
        -12    1    3    3    0    0 -0.89427227891E+01  0.21861541850E+00  0.77595727082E+01  0.11841919278E+02  0.00000000000E+00 0.  1.
</event>
<event>
 7    1  0.1381607E-011  0.5052886E+02  0.7816164E-02  0.1300439E+00
        -11   -1    0    0    0    0  0.00000000000E+00  0.00000000000E+00  0.45593999997E+02  0.45594000000E+02  0.51100000000E-03 0. -1.
         11   -1    0    0    0    0 -0.00000000000E+00 -0.00000000000E+00 -0.45593999997E+02  0.45594000000E+02  0.51100000000E-03 0.  1.
    9900012    2    1    2    0    0 -0.39506552107E+02  0.95032237326E+01  0.14444782935E+01  0.50528862796E+02  0.30000008954E+02 0.  0.
         12    1    1    2    0    0  0.39506552107E+02 -0.95032237326E+01 -0.14444782935E+01  0.40659137204E+02  0.00000000000E+00 0. -1.
         11    1    3    3    0    0 -0.22681304242E+01 -0.39497735817E+01 -0.50025356683E+01  0.67653891493E+01  0.51100000000E-03 0. -1.
        -11    1    3    3    0    0 -0.92634442500E+01 -0.39988058439E+01  0.34159879617E+01  0.10652268377E+02  0.51100000000E-03 0.  1.
        -12    1    3    3    0    0 -0.27974977432E+02  0.17451803158E+02  0.30310260000E+01  0.33111205270E+02  0.00000000000E+00 0.  1.
</event>
<event>
 7    1  0.1381607E-011  0.5052887E+02  0.7816164E-02  0.1300439E+00
        -11   -1    0    0    0    0  0.00000000000E+00  0.00000000000E+00  0.45593999997E+02  0.45594000000E+02  0.51100000000E-03 0.  1.
         11   -1    0    0    0    0 -0.00000000000E+00 -0.00000000000E+00 -0.45593999997E+02  0.45594000000E+02  0.51100000000E-03 0. -1.
    9900012    2    1    2    0    0  0.13517065357E+02 -0.19191445429E+02  0.33198524750E+02  0.50528872131E+02  0.30000037328E+02 0.  0.
         12    1    1    2    0    0 -0.13517065357E+02  0.19191445429E+02 -0.33198524750E+02  0.40659127869E+02  0.00000000000E+00 0. -1.
         11    1    3    3    0    0  0.29617160012E-01 -0.48191466690E+01  0.49476726016E+01  0.69068456061E+01  0.51100000000E-03 0. -1.
        -11    1    3    3    0    0  0.27142030161E+01 -0.43805572012E+01  0.28464296970E+02  0.28927018196E+02  0.51100000000E-03 0.  1.
         12    1    3    3    0    0  0.10773245181E+02 -0.99917415587E+01 -0.21344482175E+00  0.14695008329E+02  0.00000000000E+00 0. -1.
</event>
<event>
 7    1  0.1381607E-011  0.5052885E+02  0.7816164E-02  0.1300439E+00
        -11   -1    0    0    0    0  0.00000000000E+00  0.00000000000E+00  0.45593999997E+02  0.45594000000E+02  0.51100000000E-03 0. -1.
         11   -1    0    0    0    0 -0.00000000000E+00 -0.00000000000E+00 -0.45593999997E+02  0.45594000000E+02  0.51100000000E-03 0.  1.
    9900012    2    1    2    0    0  0.43141596577E+01 -0.19283740735E+02 -0.35534371465E+02  0.50528853603E+02  0.29999981012E+02 0.  0.
         12    1    1    2    0    0 -0.43141596577E+01  0.19283740735E+02  0.35534371465E+02  0.40659146397E+02  0.00000000000E+00 0. -1.
         11    1    3    3    0    0 -0.43255598659E+01 -0.45779023923E+01 -0.16170588030E+02  0.17353834619E+02  0.51100000000E-03 0. -1.
        -11    1    3    3    0    0  0.26547611256E+00 -0.17932047432E+02 -0.13627201664E+02  0.22523974519E+02  0.51100000000E-03 0.  1.
         12    1    3    3    0    0  0.83742434111E+01  0.32262090893E+01 -0.57365817712E+01  0.10651044466E+02  0.00000000000E+00 0. -1.
</event>
<event>
 7    1  0.1381607E-011  0.5052886E+02  0.7816164E-02  0.1300439E+00
        -11   -1    0    0    0    0  0.00000000000E+00  0.00000000000E+00  0.45593999997E+02  0.45594000000E+02  0.51100000000E-03 0. -1.
         11   -1    0    0    0    0 -0.00000000000E+00 -0.00000000000E+00 -0.45593999997E+02  0.45594000000E+02  0.51100000000E-03 0.  1.
    9900012    2    1    2    0    0  0.81088812052E+01  0.38614950103E+02  0.98131151420E+01  0.50528861364E+02  0.30000004601E+02 0.  0.
         12    1    1    2    0    0 -0.81088812052E+01 -0.38614950103E+02 -0.98131151420E+01  0.40659138636E+02  0.00000000000E+00 0. -1.
         11    1    3    3    0    0  0.93140134870E+01  0.40818573509E+01 -0.10598603923E+01  0.10224270682E+02  0.51100000000E-03 0. -1.
        -11    1    3    3    0    0  0.63286364650E+01  0.10271551589E+02  0.85646670762E+01  0.14795605224E+02  0.51100000000E-03 0.  1.
        -12    1    3    3    0    0 -0.75337687468E+01  0.24261541163E+02  0.23083084582E+01  0.25508985458E+02  0.00000000000E+00 0.  1.
</event>
<event>
 7    1  0.1381607E-011  0.5052886E+02  0.7816164E-02  0.1300439E+00
        -11   -1    0    0    0    0  0.00000000000E+00  0.00000000000E+00  0.45593999997E+02  0.45594000000E+02  0.51100000000E-03 0.  1.
         11   -1    0    0    0    0 -0.00000000000E+00 -0.00000000000E+00 -0.45593999997E+02  0.45594000000E+02  0.51100000000E-03 0. -1.
    9900012    2    1    2    0    0  0.92000221953E+01  0.29289773935E+02  0.26657728785E+02  0.50528858721E+02  0.29999996569E+02 0.  0.
         12    1    1    2    0    0 -0.92000221953E+01 -0.29289773935E+02 -0.26657728785E+02  0.40659141279E+02  0.00000000000E+00 0. -1.
         11    1    3    3    0    0  0.56315737185E+01  0.17421511095E+02  0.10609952861E+01  0.18339830496E+02  0.51100000000E-03 0. -1.
        -11    1    3    3    0    0  0.76562323522E+00 -0.33590377835E+01  0.20532488178E+01  0.40106289704E+01  0.51100000000E-03 0.  1.
        -12    1    3    3    0    0  0.28028252416E+01  0.15227300623E+02  0.23543484681E+02  0.28178399255E+02  0.00000000000E+00 0.  1.
</event>
<event>
 7    1  0.1381607E-011  0.5052885E+02  0.7816164E-02  0.1300439E+00
        -11   -1    0    0    0    0  0.00000000000E+00  0.00000000000E+00  0.45593999997E+02  0.45594000000E+02  0.51100000000E-03 0. -1.
         11   -1    0    0    0    0 -0.00000000000E+00 -0.00000000000E+00 -0.45593999997E+02  0.45594000000E+02  0.51100000000E-03 0.  1.
    9900012    2    1    2    0    0 -0.31889327261E+02  0.89411409919E+01 -0.23585871477E+02  0.50528849385E+02  0.29999968191E+02 0.  0.
         12    1    1    2    0    0  0.31889327261E+02 -0.89411409919E+01  0.23585871477E+02  0.40659150615E+02  0.00000000000E+00 0. -1.
         11    1    3    3    0    0 -0.25458072243E+02  0.26789585022E+01 -0.15191051380E+01  0.25643672547E+02  0.51100000000E-03 0. -1.
        -11    1    3    3    0    0 -0.42823127666E+01  0.27647709083E+00 -0.13820387339E+02  0.14471273223E+02  0.51100000000E-03 0.  1.
        -12    1    3    3    0    0 -0.21489422510E+01  0.59857053988E+01 -0.82463789993E+01  0.10413903616E+02  0.00000000000E+00 0.  1.
</event>
<event>
 7    1  0.1381607E-011  0.5052883E+02  0.7816164E-02  0.1300439E+00
        -11   -1    0    0    0    0  0.00000000000E+00  0.00000000000E+00  0.45593999997E+02  0.45594000000E+02  0.51100000000E-03 0.  1.
         11   -1    0    0    0    0 -0.00000000000E+00 -0.00000000000E+00 -0.45593999997E+02  0.45594000000E+02  0.51100000000E-03 0. -1.
    9900012    2    1    2    0    0  0.80854831958E+01  0.49649094713E+00  0.39844026709E+02  0.50528831217E+02  0.29999912966E+02 0.  0.
         12    1    1    2    0    0 -0.80854831958E+01 -0.49649094713E+00 -0.39844026709E+02  0.40659168783E+02  0.00000000000E+00 0. -1.
         11    1    3    3    0    0 -0.27273173494E+01  0.49270757590E+01 -0.74922338666E+00  0.56811681372E+01  0.51100000000E-03 0. -1.
        -11    1    3    3    0    0  0.79758393826E+01 -0.38491374008E+01  0.74352051912E+01  0.11563396953E+02  0.51100000000E-03 0.  1.
        -12    1    3    3    0    0  0.28369611626E+01 -0.58144741101E+00  0.33158044904E+02  0.33284266127E+02  0.00000000000E+00 0.  1.
</event>
<event>
 7    1  0.1381607E-011  0.5052886E+02  0.7816164E-02  0.1300439E+00
        -11   -1    0    0    0    0  0.00000000000E+00  0.00000000000E+00  0.45593999997E+02  0.45594000000E+02  0.51100000000E-03 0.  1.
         11   -1    0    0    0    0 -0.00000000000E+00 -0.00000000000E+00 -0.45593999997E+02  0.45594000000E+02  0.51100000000E-03 0. -1.
    9900012    2    1    2    0    0 -0.12602608610E+02  0.17001309697E+02  0.34717361656E+02  0.50528862337E+02  0.30000007559E+02 0.  0.
         12    1    1    2    0    0  0.12602608610E+02 -0.17001309697E+02 -0.34717361656E+02  0.40659137663E+02  0.00000000000E+00 0. -1.
         11    1    3    3    0    0  0.17753273709E+01  0.50253913008E+01 -0.26462832424E+01  0.59505596594E+01  0.51100000000E-03 0. -1.
        -11    1    3    3    0    0  0.25714053545E+01  0.51092395270E+01  0.12169766008E+02  0.13446920056E+02  0.51100000000E-03 0.  1.
        -12    1    3    3    0    0 -0.16949341335E+02  0.68666788688E+01  0.25193878891E+02  0.31131382622E+02  0.00000000000E+00 0.  1.
</event>
<event>
 7    1  0.1381607E-011  0.5052887E+02  0.7816164E-02  0.1300439E+00
        -11   -1    0    0    0    0  0.00000000000E+00  0.00000000000E+00  0.45593999997E+02  0.45594000000E+02  0.51100000000E-03 0. -1.
         11   -1    0    0    0    0 -0.00000000000E+00 -0.00000000000E+00 -0.45593999997E+02  0.45594000000E+02  0.51100000000E-03 0.  1.
    9900012    2    1    2    0    0 -0.29631731920E+02 -0.18370985559E+02 -0.20919662503E+02  0.50528869092E+02  0.30000028091E+02 0.  0.
         12    1    1    2    0    0  0.29631731920E+02  0.18370985559E+02  0.20919662503E+02  0.40659130908E+02  0.00000000000E+00 0. -1.
         11    1    3    3    0    0 -0.21200236719E+01  0.56336699469E+01  0.16808003079E+01  0.62496261789E+01  0.51100000000E-03 0. -1.
        -11    1    3    3    0    0 -0.97039976955E+01 -0.27401082996E+01 -0.38191121963E+01  0.10782457187E+02  0.51100000000E-03 0.  1.
        -12    1    3    3    0    0 -0.17807710553E+02 -0.21264547206E+02 -0.18781350615E+02  0.33496785725E+02  0.00000000000E+00 0.  1.
</event>
<event>
 7    1  0.1381607E-011  0.5052886E+02  0.7816164E-02  0.1300439E+00
        -11   -1    0    0    0    0  0.00000000000E+00  0.00000000000E+00  0.45593999997E+02  0.45594000000E+02  0.51100000000E-03 0. -1.
         11   -1    0    0    0    0 -0.00000000000E+00 -0.00000000000E+00 -0.45593999997E+02  0.45594000000E+02  0.51100000000E-03 0.  1.
    9900012    2    1    2    0    0 -0.35553097714E+02 -0.90718065483E+01 -0.17517000203E+02  0.50528859241E+02  0.29999998150E+02 0.  0.
         12    1    1    2    0    0  0.35553097714E+02  0.90718065483E+01  0.17517000203E+02  0.40659140759E+02  0.00000000000E+00 0. -1.
         11    1    3    3    0    0 -0.70208837753E+01  0.51439720196E+01  0.35832424230E+01  0.94123792767E+01  0.51100000000E-03 0. -1.
        -11    1    3    3    0    0 -0.17136448042E+01 -0.38688836874E+01 -0.89672514655E+01  0.99154646188E+01  0.51100000000E-03 0.  1.
         12    1    3    3    0    0 -0.26818569135E+02 -0.10346894881E+02 -0.12132991160E+02  0.31201015346E+02  0.00000000000E+00 0. -1.
</event>
<event>
 7    1  0.1381607E-011  0.5052886E+02  0.7816164E-02  0.1300439E+00
        -11   -1    0    0    0    0  0.00000000000E+00  0.00000000000E+00  0.45593999997E+02  0.45594000000E+02  0.51100000000E-03 0.  1.
         11   -1    0    0    0    0 -0.00000000000E+00 -0.00000000000E+00 -0.45593999997E+02  0.45594000000E+02  0.51100000000E-03 0. -1.
    9900012    2    1    2    0    0 -0.37746745684E+02 -0.14231189483E+02 -0.50815381100E+01  0.50528860887E+02  0.30000003153E+02 0.  0.
         12    1    1    2    0    0  0.37746745684E+02  0.14231189483E+02  0.50815381100E+01  0.40659139113E+02  0.00000000000E+00 0. -1.
         11    1    3    3    0    0 -0.83259567602E+00 -0.33148318729E+01 -0.22691617439E+01  0.41024896327E+01  0.51100000000E-03 0. -1.
        -11    1    3    3    0    0 -0.58296494405E+01 -0.43011275615E+00  0.96920866627E+01  0.11318407738E+02  0.51100000000E-03 0.  1.
        -12    1    3    3    0    0 -0.31084500567E+02 -0.10486244854E+02 -0.12504463029E+02  0.35107963517E+02  0.00000000000E+00 0.  1.
</event>
<event>
 7    1  0.1381607E-011  0.5052880E+02  0.7816164E-02  0.1300439E+00
        -11   -1    0    0    0    0  0.00000000000E+00  0.00000000000E+00  0.45593999997E+02  0.45594000000E+02  0.51100000000E-03 0.  1.
         11   -1    0    0    0    0 -0.00000000000E+00 -0.00000000000E+00 -0.45593999997E+02  0.45594000000E+02  0.51100000000E-03 0. -1.
    9900012    2    1    2    0    0  0.19886349912E+02 -0.35356052292E+02  0.27664820312E+01  0.50528797237E+02  0.29999809680E+02 0.  0.
         12    1    1    2    0    0 -0.19886349912E+02  0.35356052292E+02 -0.27664820312E+01  0.40659202763E+02  0.00000000000E+00 0. -1.
         11    1    3    3    0    0  0.32978655630E+01 -0.18203390010E+02  0.57571908154E+01  0.19374843779E+02  0.51100000000E-03 0. -1.
        -11    1    3    3    0    0  0.72311346368E+01 -0.18747830118E+02  0.24013958561E+01  0.20237024104E+02  0.51100000000E-03 0.  1.
         12    1    3    3    0    0  0.93573497126E+01  0.15951678355E+01 -0.53921046403E+01  0.10916929354E+02  0.00000000000E+00 0. -1.
</event>
<event>
 7    1  0.1381607E-011  0.5052886E+02  0.7816164E-02  0.1300439E+00
        -11   -1    0    0    0    0  0.00000000000E+00  0.00000000000E+00  0.45593999997E+02  0.45594000000E+02  0.51100000000E-03 0.  1.
         11   -1    0    0    0    0 -0.00000000000E+00 -0.00000000000E+00 -0.45593999997E+02  0.45594000000E+02  0.51100000000E-03 0. -1.
    9900012    2    1    2    0    0  0.36161431883E+02 -0.18213175811E+02  0.37143807102E+01  0.50528861383E+02  0.30000004661E+02 0.  0.
         12    1    1    2    0    0 -0.36161431883E+02  0.18213175811E+02 -0.37143807102E+01  0.40659138617E+02  0.00000000000E+00 0. -1.
         11    1    3    3    0    0  0.42040149934E+01 -0.17728126578E+01  0.36354064292E+01  0.58337626752E+01  0.51100000000E-03 0. -1.
        -11    1    3    3    0    0  0.16450933351E+02 -0.38533107004E+00  0.11052557405E+02  0.19822732244E+02  0.51100000000E-03 0.  1.
         12    1    3    3    0    0  0.15506483539E+02 -0.16055032083E+02 -0.10973583124E+02  0.24872366464E+02  0.00000000000E+00 0. -1.
</event>
<event>
 7    1  0.1381607E-011  0.5052886E+02  0.7816164E-02  0.1300439E+00
        -11   -1    0    0    0    0  0.00000000000E+00  0.00000000000E+00  0.45593999997E+02  0.45594000000E+02  0.51100000000E-03 0. -1.
         11   -1    0    0    0    0 -0.00000000000E+00 -0.00000000000E+00 -0.45593999997E+02  0.45594000000E+02  0.51100000000E-03 0.  1.
    9900012    2    1    2    0    0 -0.12463069336E+02 -0.66631145705E+01 -0.38124013837E+02  0.50528860509E+02  0.30000002004E+02 0.  0.
         12    1    1    2    0    0  0.12463069336E+02  0.66631145705E+01  0.38124013837E+02  0.40659139491E+02  0.00000000000E+00 0. -1.
         11    1    3    3    0    0 -0.64313928601E+01  0.68262784114E+01 -0.89348906174E+01  0.12953499978E+02  0.51100000000E-03 0. -1.
        -11    1    3    3    0    0 -0.32823812717E+01 -0.10304649159E+02 -0.31120392328E+02  0.32945995812E+02  0.51100000000E-03 0.  1.
         12    1    3    3    0    0 -0.27492952046E+01 -0.31847438226E+01  0.19312691083E+01  0.46293647195E+01  0.00000000000E+00 0. -1.
</event>
<event>
 7    1  0.1381607E-011  0.5052887E+02  0.7816164E-02  0.1300439E+00
        -11   -1    0    0    0    0  0.00000000000E+00  0.00000000000E+00  0.45593999997E+02  0.45594000000E+02  0.51100000000E-03 0.  1.
         11   -1    0    0    0    0 -0.00000000000E+00 -0.00000000000E+00 -0.45593999997E+02  0.45594000000E+02  0.51100000000E-03 0. -1.
    9900012    2    1    2    0    0 -0.26758632424E+02 -0.14718901149E+02  0.26842027989E+02  0.50528869085E+02  0.30000028070E+02 0.  0.
         12    1    1    2    0    0  0.26758632424E+02  0.14718901149E+02 -0.26842027989E+02  0.40659130915E+02  0.00000000000E+00 0. -1.
         11    1    3    3    0    0 -0.12287958470E+01  0.38264865385E+01  0.35034071231E+01  0.53315851484E+01  0.51100000000E-03 0. -1.
        -11    1    3    3    0    0 -0.25206396311E+01 -0.71247956430E+01  0.17198901907E+02  0.18786126907E+02  0.51100000000E-03 0.  1.
         12    1    3    3    0    0 -0.23009196946E+02 -0.11420592044E+02  0.61397189584E+01  0.26411157029E+02  0.00000000000E+00 0. -1.
</event>
<event>
 7    1  0.1381607E-011  0.5052887E+02  0.7816164E-02  0.1300439E+00
        -11   -1    0    0    0    0  0.00000000000E+00  0.00000000000E+00  0.45593999997E+02  0.45594000000E+02  0.51100000000E-03 0. -1.
         11   -1    0    0    0    0 -0.00000000000E+00 -0.00000000000E+00 -0.45593999997E+02  0.45594000000E+02  0.51100000000E-03 0.  1.
    9900012    2    1    2    0    0 -0.12600639336E+02  0.37683047593E+02 -0.86242051917E+01  0.50528866921E+02  0.30000021492E+02 0.  0.
         12    1    1    2    0    0  0.12600639336E+02 -0.37683047593E+02  0.86242051917E+01  0.40659133079E+02  0.00000000000E+00 0. -1.
         11    1    3    3    0    0 -0.33816773853E+01  0.59536613118E+01 -0.32293313980E+01  0.75703636962E+01  0.51100000000E-03 0. -1.
        -11    1    3    3    0    0 -0.15642698488E+02  0.25551908894E+02 -0.11569742750E+02  0.32116242179E+02  0.51100000000E-03 0.  1.
         12    1    3    3    0    0  0.64237365372E+01  0.61774773868E+01  0.61748689559E+01  0.10842261046E+02  0.00000000000E+00 0. -1.
</event>
<event>
 7    1  0.1381607E-011  0.5052886E+02  0.7816164E-02  0.1300439E+00
        -11   -1    0    0    0    0  0.00000000000E+00  0.00000000000E+00  0.45593999997E+02  0.45594000000E+02  0.51100000000E-03 0.  1.
         11   -1    0    0    0    0 -0.00000000000E+00 -0.00000000000E+00 -0.45593999997E+02  0.45594000000E+02  0.51100000000E-03 0. -1.
    9900012    2    1    2    0    0 -0.28643307239E+02  0.11876614736E+02  0.26299668385E+02  0.50528860999E+02  0.30000003491E+02 0.  0.
         12    1    1    2    0    0  0.28643307239E+02 -0.11876614736E+02 -0.26299668385E+02  0.40659139001E+02  0.00000000000E+00 0. -1.
         11    1    3    3    0    0 -0.39074180585E+01 -0.45692434703E+01  0.20533910920E+01  0.63531344242E+01  0.51100000000E-03 0. -1.
        -11    1    3    3    0    0  0.20618873997E+01  0.86740820165E+01  0.73653479774E+01  0.11564576498E+02  0.51100000000E-03 0.  1.
         12    1    3    3    0    0 -0.26797776580E+02  0.77717761900E+01  0.16880929316E+02  0.32611150077E+02  0.00000000000E+00 0. -1.
</event>
<event>
 7    1  0.1381607E-011  0.5052885E+02  0.7816164E-02  0.1300439E+00
        -11   -1    0    0    0    0  0.00000000000E+00  0.00000000000E+00  0.45593999997E+02  0.45594000000E+02  0.51100000000E-03 0.  1.
         11   -1    0    0    0    0 -0.00000000000E+00 -0.00000000000E+00 -0.45593999997E+02  0.45594000000E+02  0.51100000000E-03 0. -1.
    9900012    2    1    2    0    0  0.28626148282E+02 -0.28038243402E+02  0.68968620693E+01  0.50528853858E+02  0.29999981788E+02 0.  0.
         12    1    1    2    0    0 -0.28626148282E+02  0.28038243402E+02 -0.68968620693E+01  0.40659146142E+02  0.00000000000E+00 0. -1.
         11    1    3    3    0    0 -0.11517491379E+01 -0.80617405490E+00 -0.30034273548E+01  0.33161753301E+01  0.51100000000E-03 0. -1.
        -11    1    3    3    0    0  0.23314877060E+02 -0.13706686819E+02 -0.32907872550E+01  0.27244926810E+02  0.51100000000E-03 0.  1.
        -12    1    3    3    0    0  0.64630203602E+01 -0.13525382529E+02  0.13191076679E+02  0.19967751718E+02  0.00000000000E+00 0.  1.
</event>
<event>
 7    1  0.1381607E-011  0.5052886E+02  0.7816164E-02  0.1300439E+00
        -11   -1    0    0    0    0  0.00000000000E+00  0.00000000000E+00  0.45593999997E+02  0.45594000000E+02  0.51100000000E-03 0. -1.
         11   -1    0    0    0    0 -0.00000000000E+00 -0.00000000000E+00 -0.45593999997E+02  0.45594000000E+02  0.51100000000E-03 0.  1.
    9900012    2    1    2    0    0  0.36707079589E+02  0.17485882778E+02  0.59409770112E-02  0.50528858055E+02  0.29999994542E+02 0.  0.
         12    1    1    2    0    0 -0.36707079589E+02 -0.17485882778E+02 -0.59409770112E-02  0.40659141945E+02  0.00000000000E+00 0. -1.
         11    1    3    3    0    0  0.54108678055E+01  0.34624356844E+01  0.11499934651E+02  0.13172488319E+02  0.51100000000E-03 0. -1.
        -11    1    3    3    0    0  0.47336542928E+01 -0.12421444303E+01 -0.12310354419E+01  0.50463704055E+01  0.51100000000E-03 0.  1.
        -12    1    3    3    0    0  0.26562557490E+02  0.15265591524E+02 -0.10262958232E+02  0.32309999330E+02  0.00000000000E+00 0.  1.
</event>
<event>
 7    1  0.1381607E-011  0.5052886E+02  0.7816164E-02  0.1300439E+00
        -11   -1    0    0    0    0  0.00000000000E+00  0.00000000000E+00  0.45593999997E+02  0.45594000000E+02  0.51100000000E-03 0.  1.
         11   -1    0    0    0    0 -0.00000000000E+00 -0.00000000000E+00 -0.45593999997E+02  0.45594000000E+02  0.51100000000E-03 0. -1.
    9900012    2    1    2    0    0 -0.34592234236E+02 -0.19254079599E+02 -0.92641040331E+01  0.50528857434E+02  0.29999992657E+02 0.  0.
         12    1    1    2    0    0  0.34592234236E+02  0.19254079599E+02  0.92641040331E+01  0.40659142566E+02  0.00000000000E+00 0. -1.
         11    1    3    3    0    0 -0.20251223863E+02 -0.92617941078E+01 -0.12851046461E+02  0.25710742763E+02  0.51100000000E-03 0. -1.
        -11    1    3    3    0    0 -0.12731945924E+02  0.15144725847E+01  0.30899275101E+01  0.13188772744E+02  0.51100000000E-03 0.  1.
        -12    1    3    3    0    0 -0.16090644491E+01 -0.11506758076E+02  0.49701491735E+00  0.11629341927E+02  0.00000000000E+00 0.  1.
</event>
<event>
 7    1  0.1381607E-011  0.5052885E+02  0.7816164E-02  0.1300439E+00
        -11   -1    0    0    0    0  0.00000000000E+00  0.00000000000E+00  0.45593999997E+02  0.45594000000E+02  0.51100000000E-03 0.  1.
         11   -1    0    0    0    0 -0.00000000000E+00 -0.00000000000E+00 -0.45593999997E+02  0.45594000000E+02  0.51100000000E-03 0. -1.
    9900012    2    1    2    0    0 -0.32332455944E+01  0.15487853524E+02  0.37454497264E+02  0.50528845444E+02  0.29999956213E+02 0.  0.
         12    1    1    2    0    0  0.32332455944E+01 -0.15487853524E+02 -0.37454497264E+02  0.40659154556E+02  0.00000000000E+00 0. -1.
         11    1    3    3    0    0  0.34816009624E+01  0.25433104597E+01  0.39160908524E+01  0.58245807730E+01  0.51100000000E-03 0. -1.
        -11    1    3    3    0    0 -0.18514107304E+01 -0.76495663226E+01  0.13115015816E+02  0.15295333495E+02  0.51100000000E-03 0.  1.
        -12    1    3    3    0    0 -0.48634358264E+01  0.20594109387E+02  0.20423390596E+02  0.29408931176E+02  0.00000000000E+00 0.  1.
</event>
<event>
 7    1  0.1381607E-011  0.5052886E+02  0.7816164E-02  0.1300439E+00
        -11   -1    0    0    0    0  0.00000000000E+00  0.00000000000E+00  0.45593999997E+02  0.45594000000E+02  0.51100000000E-03 0.  1.
         11   -1    0    0    0    0 -0.00000000000E+00 -0.00000000000E+00 -0.45593999997E+02  0.45594000000E+02  0.51100000000E-03 0. -1.
    9900012    2    1    2    0    0  0.28295281278E+02  0.16125010129E+02  0.24341875178E+02  0.50528858575E+02  0.29999996124E+02 0.  0.
         12    1    1    2    0    0 -0.28295281278E+02 -0.16125010129E+02 -0.24341875178E+02  0.40659141425E+02  0.00000000000E+00 0. -1.
         11    1    3    3    0    0  0.11496202441E+02  0.95316284141E+01 -0.24920294672E+00  0.14935752849E+02  0.51100000000E-03 0. -1.
        -11    1    3    3    0    0  0.59766506140E+01  0.12013427335E+02  0.10649965587E+02  0.17130807225E+02  0.51100000000E-03 0.  1.
         12    1    3    3    0    0  0.10822428222E+02 -0.54200456199E+01  0.13941112538E+02  0.18462298501E+02  0.00000000000E+00 0. -1.
</event>
<event>
 7    1  0.1381607E-011  0.5052886E+02  0.7816164E-02  0.1300439E+00
        -11   -1    0    0    0    0  0.00000000000E+00  0.00000000000E+00  0.45593999997E+02  0.45594000000E+02  0.51100000000E-03 0.  1.
         11   -1    0    0    0    0 -0.00000000000E+00 -0.00000000000E+00 -0.45593999997E+02  0.45594000000E+02  0.51100000000E-03 0. -1.
    9900012    2    1    2    0    0 -0.15324936549E+02 -0.10520015953E+02  0.36161319330E+02  0.50528862877E+02  0.30000009201E+02 0.  0.
         12    1    1    2    0    0  0.15324936549E+02  0.10520015953E+02 -0.36161319330E+02  0.40659137123E+02  0.00000000000E+00 0. -1.
         11    1    3    3    0    0 -0.71991865977E+01 -0.64634543023E+01  0.25648789539E+01  0.10009152486E+02  0.51100000000E-03 0. -1.
        -11    1    3    3    0    0 -0.13462661775E+02  0.28185596691E+01  0.23093030056E+02  0.26878905821E+02  0.51100000000E-03 0.  1.
        -12    1    3    3    0    0  0.53369118231E+01 -0.68751213196E+01  0.10503410320E+02  0.13640804570E+02  0.00000000000E+00 0.  1.
</event>
<event>
 7    1  0.1381607E-011  0.5052886E+02  0.7816164E-02  0.1300439E+00
        -11   -1    0    0    0    0  0.00000000000E+00  0.00000000000E+00  0.45593999997E+02  0.45594000000E+02  0.51100000000E-03 0.  1.
         11   -1    0    0    0    0 -0.00000000000E+00 -0.00000000000E+00 -0.45593999997E+02  0.45594000000E+02  0.51100000000E-03 0. -1.
    9900012    2    1    2    0    0 -0.24530573626E+02 -0.13271232007E+02  0.29585312253E+02  0.50528863973E+02  0.30000012531E+02 0.  0.
         12    1    1    2    0    0  0.24530573626E+02  0.13271232007E+02 -0.29585312253E+02  0.40659136027E+02  0.00000000000E+00 0. -1.
         11    1    3    3    0    0 -0.85757163689E+01 -0.16568578324E+02  0.13358467056E+02  0.22945791363E+02  0.51100000000E-03 0. -1.
        -11    1    3    3    0    0 -0.13067903005E+02 -0.30870960878E+01  0.15547717429E+02  0.20543411808E+02  0.51100000000E-03 0.  1.
         12    1    3    3    0    0 -0.28869542523E+01  0.63844424049E+01  0.67912776779E+00  0.70396608016E+01  0.00000000000E+00 0. -1.
</event>
<event>
 7    1  0.1381607E-011  0.5052886E+02  0.7816164E-02  0.1300439E+00
        -11   -1    0    0    0    0  0.00000000000E+00  0.00000000000E+00  0.45593999997E+02  0.45594000000E+02  0.51100000000E-03 0.  1.
         11   -1    0    0    0    0 -0.00000000000E+00 -0.00000000000E+00 -0.45593999997E+02  0.45594000000E+02  0.51100000000E-03 0. -1.
    9900012    2    1    2    0    0  0.19936024328E+02  0.20929273016E+02  0.28595205182E+02  0.50528864564E+02  0.30000014329E+02 0.  0.
         12    1    1    2    0    0 -0.19936024328E+02 -0.20929273016E+02 -0.28595205182E+02  0.40659135436E+02  0.00000000000E+00 0. -1.
         11    1    3    3    0    0  0.79788150201E+01 -0.55368059319E-01 -0.70806458130E+00  0.80103626921E+01  0.51100000000E-03 0. -1.
        -11    1    3    3    0    0  0.13159175055E+02  0.22425014849E+02  0.19404383960E+02  0.32443416839E+02  0.51100000000E-03 0.  1.
         12    1    3    3    0    0 -0.12019657469E+01 -0.14403737732E+01  0.98988858036E+01  0.10075085033E+02  0.00000000000E+00 0. -1.
</event>
<event>
 7    1  0.1381607E-011  0.5052887E+02  0.7816164E-02  0.1300439E+00
        -11   -1    0    0    0    0  0.00000000000E+00  0.00000000000E+00  0.45593999997E+02  0.45594000000E+02  0.51100000000E-03 0.  1.
         11   -1    0    0    0    0 -0.00000000000E+00 -0.00000000000E+00 -0.45593999997E+02  0.45594000000E+02  0.51100000000E-03 0. -1.
    9900012    2    1    2    0    0 -0.83276257024E+01  0.32632537425E+02  0.22780100948E+02  0.50528870056E+02  0.30000031022E+02 0.  0.
         12    1    1    2    0    0  0.83276257024E+01 -0.32632537425E+02 -0.22780100948E+02  0.40659129944E+02  0.00000000000E+00 0. -1.
         11    1    3    3    0    0  0.66851980780E+01  0.11000048077E+02  0.65776887262E+01  0.14455411453E+02  0.51100000000E-03 0.  1.
        -11    1    3    3    0    0 -0.74563126618E+01  0.48978750796E+01 -0.30889031917E+01  0.94407151209E+01  0.51100000000E-03 0. -1.
        -12    1    3    3    0    0 -0.75565111187E+01  0.16734614269E+02  0.19291315413E+02  0.26632743482E+02  0.00000000000E+00 0.  1.
</event>
<event>
 7    1  0.1381607E-011  0.5052886E+02  0.7816164E-02  0.1300439E+00
        -11   -1    0    0    0    0  0.00000000000E+00  0.00000000000E+00  0.45593999997E+02  0.45594000000E+02  0.51100000000E-03 0.  1.
         11   -1    0    0    0    0 -0.00000000000E+00 -0.00000000000E+00 -0.45593999997E+02  0.45594000000E+02  0.51100000000E-03 0. -1.
    9900012    2    1    2    0    0 -0.12959395721E+02 -0.77639814345E+01  0.37748382503E+02  0.50528859247E+02  0.29999998168E+02 0.  0.
         12    1    1    2    0    0  0.12959395721E+02  0.77639814345E+01 -0.37748382503E+02  0.40659140753E+02  0.00000000000E+00 0. -1.
         11    1    3    3    0    0 -0.40710535498E+01  0.82467724992E+00 -0.34494695849E-01  0.41538848946E+01  0.51100000000E-03 0. -1.
        -11    1    3    3    0    0 -0.11912886398E+00 -0.11176841900E+02  0.48286564740E+01  0.12175874102E+02  0.51100000000E-03 0.  1.
        -12    1    3    3    0    0 -0.87692133070E+01  0.25881832153E+01  0.32954220725E+02  0.34199100251E+02  0.00000000000E+00 0.  1.
</event>
<event>
 7    1  0.1381607E-011  0.5052886E+02  0.7816164E-02  0.1300439E+00
        -11   -1    0    0    0    0  0.00000000000E+00  0.00000000000E+00  0.45593999997E+02  0.45594000000E+02  0.51100000000E-03 0.  1.
         11   -1    0    0    0    0 -0.00000000000E+00 -0.00000000000E+00 -0.45593999997E+02  0.45594000000E+02  0.51100000000E-03 0. -1.
    9900012    2    1    2    0    0  0.86353228931E+01  0.83673052810E+01  0.38840508738E+02  0.50528859353E+02  0.29999998489E+02 0.  0.
         12    1    1    2    0    0 -0.86353228931E+01 -0.83673052810E+01 -0.38840508738E+02  0.40659140647E+02  0.00000000000E+00 0. -1.
         11    1    3    3    0    0  0.16149015109E+01  0.44014618702E+01  0.19305586304E+02  0.19866716797E+02  0.51100000000E-03 0. -1.
        -11    1    3    3    0    0  0.27994050129E+01 -0.51783780585E+00  0.23280899117E+02  0.23454319184E+02  0.51100000000E-03 0.  1.
         12    1    3    3    0    0  0.42210163694E+01  0.44836812167E+01 -0.37459766833E+01  0.72078233716E+01  0.00000000000E+00 0. -1.
</event>
<event>
 7    1  0.1381607E-011  0.5052887E+02  0.7816164E-02  0.1300439E+00
        -11   -1    0    0    0    0  0.00000000000E+00  0.00000000000E+00  0.45593999997E+02  0.45594000000E+02  0.51100000000E-03 0. -1.
         11   -1    0    0    0    0 -0.00000000000E+00 -0.00000000000E+00 -0.45593999997E+02  0.45594000000E+02  0.51100000000E-03 0.  1.
    9900012    2    1    2    0    0 -0.15656759704E+01  0.18979374317E+02 -0.35923483002E+02  0.50528872836E+02  0.30000039472E+02 0.  0.
         12    1    1    2    0    0  0.15656759704E+01 -0.18979374317E+02  0.35923483002E+02  0.40659127164E+02  0.00000000000E+00 0. -1.
         11    1    3    3    0    0  0.42347820799E+01  0.77172767973E+01 -0.79334633430E+01  0.11850298786E+02  0.51100000000E-03 0. -1.
        -11    1    3    3    0    0  0.35388094898E+01  0.12652334494E+02 -0.54180197909E+01  0.14211251861E+02  0.51100000000E-03 0.  1.
        -12    1    3    3    0    0 -0.93392675402E+01 -0.13902369737E+01 -0.22571999869E+02  0.24467322189E+02  0.00000000000E+00 0.  1.
</event>
<event>
 7    1  0.1381607E-011  0.5052886E+02  0.7816164E-02  0.1300439E+00
        -11   -1    0    0    0    0  0.00000000000E+00  0.00000000000E+00  0.45593999997E+02  0.45594000000E+02  0.51100000000E-03 0.  1.
         11   -1    0    0    0    0 -0.00000000000E+00 -0.00000000000E+00 -0.45593999997E+02  0.45594000000E+02  0.51100000000E-03 0. -1.
    9900012    2    1    2    0    0  0.14138345388E+02  0.17910863409E+02  0.33652253577E+02  0.50528855774E+02  0.29999987612E+02 0.  0.
         12    1    1    2    0    0 -0.14138345388E+02 -0.17910863409E+02 -0.33652253577E+02  0.40659144226E+02  0.00000000000E+00 0. -1.
         11    1    3    3    0    0  0.33542584791E+01  0.68212193589E+01  0.69931165366E+01  0.10328783212E+02  0.51100000000E-03 0. -1.
        -11    1    3    3    0    0  0.13614162837E+02  0.18015111442E+02  0.20744528470E+02  0.30663090708E+02  0.51100000000E-03 0.  1.
         12    1    3    3    0    0 -0.28300759288E+01 -0.69254673921E+01  0.59146085699E+01  0.95369818547E+01  0.00000000000E+00 0. -1.
</event>
<event>
 7    1  0.1381607E-011  0.5052887E+02  0.7816164E-02  0.1300439E+00
        -11   -1    0    0    0    0  0.00000000000E+00  0.00000000000E+00  0.45593999997E+02  0.45594000000E+02  0.51100000000E-03 0. -1.
         11   -1    0    0    0    0 -0.00000000000E+00 -0.00000000000E+00 -0.45593999997E+02  0.45594000000E+02  0.51100000000E-03 0.  1.
    9900012    2    1    2    0    0  0.24292849833E+02 -0.24714435210E+02 -0.21265444711E+02  0.50528868190E+02  0.30000025351E+02 0.  0.
         12    1    1    2    0    0 -0.24292849833E+02  0.24714435210E+02  0.21265444711E+02  0.40659131810E+02  0.00000000000E+00 0. -1.
         11    1    3    3    0    0  0.29558593883E+01  0.14456606520E+01 -0.41702575475E+01  0.53120700031E+01  0.51100000000E-03 0. -1.
        -11    1    3    3    0    0  0.12090804654E+02 -0.72511550165E+01  0.47538468180E+01  0.14878369066E+02  0.51100000000E-03 0.  1.
        -12    1    3    3    0    0  0.92461857915E+01 -0.18908940845E+02 -0.21849033982E+02  0.30338429121E+02  0.00000000000E+00 0.  1.
</event>
<event>
 7    1  0.1381607E-011  0.5052887E+02  0.7816164E-02  0.1300439E+00
        -11   -1    0    0    0    0  0.00000000000E+00  0.00000000000E+00  0.45593999997E+02  0.45594000000E+02  0.51100000000E-03 0.  1.
         11   -1    0    0    0    0 -0.00000000000E+00 -0.00000000000E+00 -0.45593999997E+02  0.45594000000E+02  0.51100000000E-03 0. -1.
    9900012    2    1    2    0    0  0.52607920410E+01  0.98897642851E+01  0.39085564109E+02  0.50528871969E+02  0.30000036837E+02 0.  0.
         12    1    1    2    0    0 -0.52607920410E+01 -0.98897642851E+01 -0.39085564109E+02  0.40659128031E+02  0.00000000000E+00 0. -1.
         11    1    3    3    0    0  0.29564199523E+01  0.61972560008E+01  0.25660907341E+02  0.26563670054E+02  0.51100000000E-03 0. -1.
        -11    1    3    3    0    0 -0.68080602883E+01 -0.71828458666E+00  0.11898030617E+02  0.13726935217E+02  0.51100000000E-03 0.  1.
         12    1    3    3    0    0  0.91124323770E+01  0.44107928709E+01  0.15266261511E+01  0.10238266698E+02  0.00000000000E+00 0. -1.
</event>
<event>
 7    1  0.1381607E-011  0.5052886E+02  0.7816164E-02  0.1300439E+00
        -11   -1    0    0    0    0  0.00000000000E+00  0.00000000000E+00  0.45593999997E+02  0.45594000000E+02  0.51100000000E-03 0.  1.
         11   -1    0    0    0    0 -0.00000000000E+00 -0.00000000000E+00 -0.45593999997E+02  0.45594000000E+02  0.51100000000E-03 0. -1.
    9900012    2    1    2    0    0 -0.60163757065E+01 -0.80605997338E+01  0.39395373355E+02  0.50528862202E+02  0.30000007150E+02 0.  0.
         12    1    1    2    0    0  0.60163757065E+01  0.80605997338E+01 -0.39395373355E+02  0.40659137798E+02  0.00000000000E+00 0. -1.
         11    1    3    3    0    0  0.21932099201E+01  0.61432675983E+01  0.93833124615E+01  0.11427880799E+02  0.51100000000E-03 0. -1.
        -11    1    3    3    0    0  0.33485906189E+01  0.13025239642E+01  0.12515124902E+02  0.13020675074E+02  0.51100000000E-03 0.  1.
         12    1    3    3    0    0 -0.11558176245E+02 -0.15506391296E+02  0.17496935991E+02  0.26080306329E+02  0.00000000000E+00 0. -1.
</event>
<event>
 7    1  0.1381607E-011  0.5052886E+02  0.7816164E-02  0.1300439E+00
        -11   -1    0    0    0    0  0.00000000000E+00  0.00000000000E+00  0.45593999997E+02  0.45594000000E+02  0.51100000000E-03 0.  1.
         11   -1    0    0    0    0 -0.00000000000E+00 -0.00000000000E+00 -0.45593999997E+02  0.45594000000E+02  0.51100000000E-03 0. -1.
    9900012    2    1    2    0    0 -0.24610504321E+01  0.16233128136E+02  0.37196694259E+02  0.50528864716E+02  0.30000014790E+02 0.  0.
         12    1    1    2    0    0  0.24610504321E+01 -0.16233128136E+02 -0.37196694259E+02  0.40659135284E+02  0.00000000000E+00 0. -1.
         11    1    3    3    0    0  0.21479222740E+01  0.66609089292E-01 -0.30386592188E+01  0.37217545560E+01  0.51100000000E-03 0. -1.
        -11    1    3    3    0    0 -0.14955246490E+01 -0.35650612636E+01  0.79806922580E+01  0.88677903091E+01  0.51100000000E-03 0.  1.
        -12    1    3    3    0    0 -0.31134480571E+01  0.19731580310E+02  0.32254661219E+02  0.37939319850E+02  0.00000000000E+00 0.  1.
</event>
<event>
 7    1  0.1381607E-011  0.5052885E+02  0.7816164E-02  0.1300439E+00
        -11   -1    0    0    0    0  0.00000000000E+00  0.00000000000E+00  0.45593999997E+02  0.45594000000E+02  0.51100000000E-03 0. -1.
         11   -1    0    0    0    0 -0.00000000000E+00 -0.00000000000E+00 -0.45593999997E+02  0.45594000000E+02  0.51100000000E-03 0.  1.
    9900012    2    1    2    0    0 -0.20476074692E+02  0.32721262192E+02 -0.12775593930E+02  0.50528850544E+02  0.29999971714E+02 0.  0.
         12    1    1    2    0    0  0.20476074692E+02 -0.32721262192E+02  0.12775593930E+02  0.40659149456E+02  0.00000000000E+00 0. -1.
         11    1    3    3    0    0  0.24633847482E+01  0.23224476562E+01 -0.58923030220E+01  0.67956797082E+01  0.51100000000E-03 0. -1.
        -11    1    3    3    0    0  0.28337773080E+01 -0.20951810643E+00 -0.18807597764E+01  0.34075576687E+01  0.51100000000E-03 0.  1.
         12    1    3    3    0    0 -0.25773236748E+02  0.30608332642E+02 -0.50025311316E+01  0.40325613167E+02  0.00000000000E+00 0. -1.
</event>
<event>
 7    1  0.1381607E-011  0.5052887E+02  0.7816164E-02  0.1300439E+00
        -11   -1    0    0    0    0  0.00000000000E+00  0.00000000000E+00  0.45593999997E+02  0.45594000000E+02  0.51100000000E-03 0.  1.
         11   -1    0    0    0    0 -0.00000000000E+00 -0.00000000000E+00 -0.45593999997E+02  0.45594000000E+02  0.51100000000E-03 0. -1.
    9900012    2    1    2    0    0  0.31153881037E+02  0.55094847700E+01  0.25539115222E+02  0.50528866556E+02  0.30000020384E+02 0.  0.
         12    1    1    2    0    0 -0.31153881037E+02 -0.55094847700E+01 -0.25539115222E+02  0.40659133444E+02  0.00000000000E+00 0. -1.
         11    1    3    3    0    0  0.71328344913E+01 -0.24584225883E+01 -0.17609232381E+01  0.77473879737E+01  0.51100000000E-03 0. -1.
        -11    1    3    3    0    0  0.12456317224E+02  0.10910018604E+02  0.46808260001E+01  0.17207512227E+02  0.51100000000E-03 0.  1.
         12    1    3    3    0    0  0.11564729321E+02 -0.29421112456E+01  0.22619212460E+02  0.25573966356E+02  0.00000000000E+00 0. -1.
</event>
<event>
 7    1  0.1381607E-011  0.5052886E+02  0.7816164E-02  0.1300439E+00
        -11   -1    0    0    0    0  0.00000000000E+00  0.00000000000E+00  0.45593999997E+02  0.45594000000E+02  0.51100000000E-03 0. -1.
         11   -1    0    0    0    0 -0.00000000000E+00 -0.00000000000E+00 -0.45593999997E+02  0.45594000000E+02  0.51100000000E-03 0.  1.
    9900012    2    1    2    0    0 -0.20460085957E+02 -0.14281918114E+02 -0.32102605731E+02  0.50528860842E+02  0.30000003014E+02 0.  0.
         12    1    1    2    0    0  0.20460085957E+02  0.14281918114E+02  0.32102605731E+02  0.40659139158E+02  0.00000000000E+00 0. -1.
         11    1    3    3    0    0 -0.16122935625E+02 -0.11173512319E+02 -0.63438582058E+01  0.20616521722E+02  0.51100000000E-03 0. -1.
        -11    1    3    3    0    0 -0.62036163479E+01  0.36008177411E+01 -0.75345834042E+01  0.10402917453E+02  0.51100000000E-03 0.  1.
        -12    1    3    3    0    0  0.18664660162E+01 -0.67092235360E+01 -0.18224164121E+02  0.19509421666E+02  0.00000000000E+00 0.  1.
</event>
<event>
 7    1  0.1381607E-011  0.5052885E+02  0.7816164E-02  0.1300439E+00
        -11   -1    0    0    0    0  0.00000000000E+00  0.00000000000E+00  0.45593999997E+02  0.45594000000E+02  0.51100000000E-03 0.  1.
         11   -1    0    0    0    0 -0.00000000000E+00 -0.00000000000E+00 -0.45593999997E+02  0.45594000000E+02  0.51100000000E-03 0. -1.
    9900012    2    1    2    0    0  0.39579528179E+02  0.92953427881E+01 -0.47341068820E+00  0.50528848926E+02  0.29999966795E+02 0.  0.
         12    1    1    2    0    0 -0.39579528179E+02 -0.92953427881E+01  0.47341068820E+00  0.40659151074E+02  0.00000000000E+00 0. -1.
         11    1    3    3    0    0  0.20930971276E+02  0.74589918697E+01 -0.18400806740E+01  0.22296367763E+02  0.51100000000E-03 0.  1.
        -11    1    3    3    0    0  0.95246230659E+01 -0.96291826748E+01  0.46520458028E+00  0.13551974730E+02  0.51100000000E-03 0. -1.
         12    1    3    3    0    0  0.91239338371E+01  0.11465533593E+02  0.90146540553E+00  0.14680506433E+02  0.00000000000E+00 0. -1.
</event>
<event>
 7    1  0.1381607E-011  0.5052888E+02  0.7816164E-02  0.1300439E+00
        -11   -1    0    0    0    0  0.00000000000E+00  0.00000000000E+00  0.45593999997E+02  0.45594000000E+02  0.51100000000E-03 0. -1.
         11   -1    0    0    0    0 -0.00000000000E+00 -0.00000000000E+00 -0.45593999997E+02  0.45594000000E+02  0.51100000000E-03 0.  1.
    9900012    2    1    2    0    0 -0.11400762476E+01 -0.39926149014E+02 -0.76004594375E+01  0.50528878851E+02  0.30000057756E+02 0.  0.
         12    1    1    2    0    0  0.11400762476E+01  0.39926149014E+02  0.76004594375E+01  0.40659121149E+02  0.00000000000E+00 0. -1.
         11    1    3    3    0    0  0.43004046249E+01 -0.24993707546E+02 -0.80718195545E+01  0.26614529265E+02  0.51100000000E-03 0.  1.
        -11    1    3    3    0    0  0.27986259645E+01 -0.35850873926E+01  0.70777508660E+01  0.84130681968E+01  0.51100000000E-03 0. -1.
         12    1    3    3    0    0 -0.82391068370E+01 -0.11347354075E+02 -0.66063907489E+01  0.15501281389E+02  0.00000000000E+00 0. -1.
</event>
<event>
 7    1  0.1381607E-011  0.5052885E+02  0.7816164E-02  0.1300439E+00
        -11   -1    0    0    0    0  0.00000000000E+00  0.00000000000E+00  0.45593999997E+02  0.45594000000E+02  0.51100000000E-03 0.  1.
         11   -1    0    0    0    0 -0.00000000000E+00 -0.00000000000E+00 -0.45593999997E+02  0.45594000000E+02  0.51100000000E-03 0. -1.
    9900012    2    1    2    0    0  0.30269574922E+01 -0.11742340387E+02  0.38808777438E+02  0.50528852990E+02  0.29999979147E+02 0.  0.
         12    1    1    2    0    0 -0.30269574922E+01  0.11742340387E+02 -0.38808777438E+02  0.40659147010E+02  0.00000000000E+00 0. -1.
         11    1    3    3    0    0 -0.22174473755E+01 -0.31065868042E+01  0.23145919561E+02  0.23458506922E+02  0.51100000000E-03 0. -1.
        -11    1    3    3    0    0 -0.19417246834E+01 -0.74654817503E+01  0.17868783647E+02  0.19462711574E+02  0.51100000000E-03 0.  1.
        -12    1    3    3    0    0  0.71861295511E+01 -0.11702718321E+01 -0.22059257703E+01  0.76076344938E+01  0.00000000000E+00 0.  1.
</event>
<event>
 7    1  0.1381607E-011  0.5052886E+02  0.7816164E-02  0.1300439E+00
        -11   -1    0    0    0    0  0.00000000000E+00  0.00000000000E+00  0.45593999997E+02  0.45594000000E+02  0.51100000000E-03 0.  1.
         11   -1    0    0    0    0 -0.00000000000E+00 -0.00000000000E+00 -0.45593999997E+02  0.45594000000E+02  0.51100000000E-03 0. -1.
    9900012    2    1    2    0    0  0.29148468102E+02 -0.11683812696E+02  0.25826742451E+02  0.50528864526E+02  0.30000014215E+02 0.  0.
         12    1    1    2    0    0 -0.29148468102E+02  0.11683812696E+02 -0.25826742451E+02  0.40659135474E+02  0.00000000000E+00 0. -1.
         11    1    3    3    0    0  0.38438751185E+01 -0.10195087343E+01  0.94765511015E+01  0.10277149168E+02  0.51100000000E-03 0. -1.
        -11    1    3    3    0    0  0.90220622755E+01 -0.17049914765E+02  0.87671581086E+01  0.21188682422E+02  0.51100000000E-03 0.  1.
        -12    1    3    3    0    0  0.16282530708E+02  0.63856108038E+01  0.75830332411E+01  0.19063032937E+02  0.00000000000E+00 0.  1.
</event>
<event>
 7    1  0.1381607E-011  0.5052886E+02  0.7816164E-02  0.1300439E+00
        -11   -1    0    0    0    0  0.00000000000E+00  0.00000000000E+00  0.45593999997E+02  0.45594000000E+02  0.51100000000E-03 0.  1.
         11   -1    0    0    0    0 -0.00000000000E+00 -0.00000000000E+00 -0.45593999997E+02  0.45594000000E+02  0.51100000000E-03 0. -1.
    9900012    2    1    2    0    0 -0.64364264522E+01 -0.39385264562E+02  0.77806579337E+01  0.50528864643E+02  0.30000014568E+02 0.  0.
         12    1    1    2    0    0  0.64364264522E+01  0.39385264562E+02 -0.77806579337E+01  0.40659135357E+02  0.00000000000E+00 0. -1.
         11    1    3    3    0    0  0.53833451428E+01 -0.63236565491E+01  0.84478145262E+00  0.83476160094E+01  0.51100000000E-03 0. -1.
        -11    1    3    3    0    0 -0.63936696294E+01 -0.26631051506E+02  0.14391991649E+02  0.30938993835E+02  0.51100000000E-03 0.  1.
         12    1    3    3    0    0 -0.54261019657E+01 -0.64305565077E+01 -0.74561151684E+01  0.11242254798E+02  0.00000000000E+00 0. -1.
</event>
<event>
 7    1  0.1381607E-011  0.5052885E+02  0.7816164E-02  0.1300439E+00
        -11   -1    0    0    0    0  0.00000000000E+00  0.00000000000E+00  0.45593999997E+02  0.45594000000E+02  0.51100000000E-03 0.  1.
         11   -1    0    0    0    0 -0.00000000000E+00 -0.00000000000E+00 -0.45593999997E+02  0.45594000000E+02  0.51100000000E-03 0. -1.
    9900012    2    1    2    0    0  0.36055446531E+02  0.50998974149E+01 -0.18087619559E+02  0.50528853926E+02  0.29999981993E+02 0.  0.
         12    1    1    2    0    0 -0.36055446531E+02 -0.50998974149E+01  0.18087619559E+02  0.40659146074E+02  0.00000000000E+00 0. -1.
         11    1    3    3    0    0 -0.52249317203E-01  0.19682708431E+01 -0.75222369395E+01  0.77756587462E+01  0.51100000000E-03 0. -1.
        -11    1    3    3    0    0  0.17834587062E+02  0.11454965938E+02 -0.72489929257E+01  0.22401710627E+02  0.51100000000E-03 0.  1.
         12    1    3    3    0    0  0.18273108786E+02 -0.83233393660E+01 -0.33163896934E+01  0.20351484553E+02  0.00000000000E+00 0. -1.
</event>
<event>
 7    1  0.1381607E-011  0.5052887E+02  0.7816164E-02  0.1300439E+00
        -11   -1    0    0    0    0  0.00000000000E+00  0.00000000000E+00  0.45593999997E+02  0.45594000000E+02  0.51100000000E-03 0.  1.
         11   -1    0    0    0    0 -0.00000000000E+00 -0.00000000000E+00 -0.45593999997E+02  0.45594000000E+02  0.51100000000E-03 0. -1.
    9900012    2    1    2    0    0  0.48014761996E+01 -0.17807623242E+02  0.36235327752E+02  0.50528873147E+02  0.30000040416E+02 0.  0.
         12    1    1    2    0    0 -0.48014761996E+01  0.17807623242E+02 -0.36235327752E+02  0.40659126853E+02  0.00000000000E+00 0. -1.
         11    1    3    3    0    0 -0.57162127250E+01 -0.41883583169E+00  0.15244920624E+02  0.16286746651E+02  0.51100000000E-03 0. -1.
        -11    1    3    3    0    0  0.67270798983E+01 -0.24698839741E+00  0.13637849005E+02  0.15208732129E+02  0.51100000000E-03 0.  1.
        -12    1    3    3    0    0  0.37906090263E+01 -0.17141799012E+02  0.73525581226E+01  0.19033394367E+02  0.00000000000E+00 0.  1.
</event>
<event>
 7    1  0.1381607E-011  0.5052886E+02  0.7816164E-02  0.1300439E+00
        -11   -1    0    0    0    0  0.00000000000E+00  0.00000000000E+00  0.45593999997E+02  0.45594000000E+02  0.51100000000E-03 0.  1.
         11   -1    0    0    0    0 -0.00000000000E+00 -0.00000000000E+00 -0.45593999997E+02  0.45594000000E+02  0.51100000000E-03 0. -1.
    9900012    2    1    2    0    0 -0.33971934544E+02  0.18250619023E+02  0.12883656057E+02  0.50528855582E+02  0.29999987029E+02 0.  0.
         12    1    1    2    0    0  0.33971934544E+02 -0.18250619023E+02 -0.12883656057E+02  0.40659144418E+02  0.00000000000E+00 0. -1.
         11    1    3    3    0    0  0.20214907894E+01  0.22597301872E+01  0.37341138759E+00  0.30548718232E+01  0.51100000000E-03 0. -1.
        -11    1    3    3    0    0 -0.97031494858E+01  0.17396040653E+00  0.13677064055E+02  0.16770314654E+02  0.51100000000E-03 0.  1.
         12    1    3    3    0    0 -0.26290275847E+02  0.15816928429E+02 -0.11668193853E+01  0.30703669106E+02  0.00000000000E+00 0. -1.
</event>
<event>
 7    1  0.1381607E-011  0.5052885E+02  0.7816164E-02  0.1300439E+00
        -11   -1    0    0    0    0  0.00000000000E+00  0.00000000000E+00  0.45593999997E+02  0.45594000000E+02  0.51100000000E-03 0. -1.
         11   -1    0    0    0    0 -0.00000000000E+00 -0.00000000000E+00 -0.45593999997E+02  0.45594000000E+02  0.51100000000E-03 0.  1.
    9900012    2    1    2    0    0  0.20369743081E+02 -0.17406740165E+02 -0.30581786927E+02  0.50528846934E+02  0.29999960742E+02 0.  0.
         12    1    1    2    0    0 -0.20369743081E+02  0.17406740165E+02  0.30581786927E+02  0.40659153066E+02  0.00000000000E+00 0. -1.
         11    1    3    3    0    0 -0.47800107124E+01 -0.48511913910E+01 -0.34613932714E+01  0.76396206688E+01  0.51100000000E-03 0. -1.
        -11    1    3    3    0    0  0.61612946565E+01 -0.12670219258E+02 -0.95671188077E+01  0.17030142995E+02  0.51100000000E-03 0.  1.
         12    1    3    3    0    0  0.18988459137E+02  0.11467048409E+00 -0.17553274848E+02  0.25859083271E+02  0.00000000000E+00 0. -1.
</event>
<event>
 7    1  0.1381607E-011  0.5052885E+02  0.7816164E-02  0.1300439E+00
        -11   -1    0    0    0    0  0.00000000000E+00  0.00000000000E+00  0.45593999997E+02  0.45594000000E+02  0.51100000000E-03 0.  1.
         11   -1    0    0    0    0 -0.00000000000E+00 -0.00000000000E+00 -0.45593999997E+02  0.45594000000E+02  0.51100000000E-03 0. -1.
    9900012    2    1    2    0    0 -0.38094472881E+01 -0.11779695139E+02  0.38728453636E+02  0.50528853092E+02  0.29999979460E+02 0.  0.
         12    1    1    2    0    0  0.38094472881E+01  0.11779695139E+02 -0.38728453636E+02  0.40659146908E+02  0.00000000000E+00 0. -1.
         11    1    3    3    0    0 -0.34274534511E+01 -0.11838872630E+02  0.31530719682E+01  0.12721957609E+02  0.51100000000E-03 0. -1.
        -11    1    3    3    0    0  0.56992603991E+01  0.22730395329E+01  0.14091000788E+02  0.15368948607E+02  0.51100000000E-03 0.  1.
        -12    1    3    3    0    0 -0.60812542360E+01 -0.22138620417E+01  0.21484380880E+02  0.22437946876E+02  0.00000000000E+00 0.  1.
</event>
<event>
 7    1  0.1381607E-011  0.5052886E+02  0.7816164E-02  0.1300439E+00
        -11   -1    0    0    0    0  0.00000000000E+00  0.00000000000E+00  0.45593999997E+02  0.45594000000E+02  0.51100000000E-03 0.  1.
         11   -1    0    0    0    0 -0.00000000000E+00 -0.00000000000E+00 -0.45593999997E+02  0.45594000000E+02  0.51100000000E-03 0. -1.
    9900012    2    1    2    0    0 -0.15894868230E+01 -0.40593125700E+02  0.16844237322E+01  0.50528860735E+02  0.30000002691E+02 0.  0.
         12    1    1    2    0    0  0.15894868230E+01  0.40593125700E+02 -0.16844237322E+01  0.40659139265E+02  0.00000000000E+00 0. -1.
         11    1    3    3    0    0  0.45367747038E+01 -0.19879119015E+02 -0.65593379643E+01  0.21419304664E+02  0.51100000000E-03 0. -1.
        -11    1    3    3    0    0  0.86435497827E+00 -0.12365907705E+01  0.82792572611E+01  0.84156026118E+01  0.51100000000E-03 0.  1.
         12    1    3    3    0    0 -0.69906165050E+01 -0.19477415915E+02 -0.35495564616E-01  0.20693953459E+02  0.00000000000E+00 0. -1.
</event>
<event>
 7    1  0.1381607E-011  0.5052887E+02  0.7816164E-02  0.1300439E+00
        -11   -1    0    0    0    0  0.00000000000E+00  0.00000000000E+00  0.45593999997E+02  0.45594000000E+02  0.51100000000E-03 0.  1.
         11   -1    0    0    0    0 -0.00000000000E+00 -0.00000000000E+00 -0.45593999997E+02  0.45594000000E+02  0.51100000000E-03 0. -1.
    9900012    2    1    2    0    0 -0.20342341816E+02 -0.27210705661E+02  0.22336783138E+02  0.50528865060E+02  0.30000015835E+02 0.  0.
         12    1    1    2    0    0  0.20342341816E+02  0.27210705661E+02 -0.22336783138E+02  0.40659134940E+02  0.00000000000E+00 0. -1.
         11    1    3    3    0    0 -0.40437893461E+01  0.52677995108E+01 -0.33176447566E+00  0.66492113735E+01  0.51100000000E-03 0. -1.
        -11    1    3    3    0    0 -0.49595452690E+01 -0.59073760668E+01  0.91980010041E+01  0.12004057814E+02  0.51100000000E-03 0.  1.
        -12    1    3    3    0    0 -0.11339007201E+02 -0.26571129106E+02  0.13470546610E+02  0.31875595872E+02  0.00000000000E+00 0.  1.
</event>
<event>
 7    1  0.1381607E-011  0.5052885E+02  0.7816164E-02  0.1300439E+00
        -11   -1    0    0    0    0  0.00000000000E+00  0.00000000000E+00  0.45593999997E+02  0.45594000000E+02  0.51100000000E-03 0.  1.
         11   -1    0    0    0    0 -0.00000000000E+00 -0.00000000000E+00 -0.45593999997E+02  0.45594000000E+02  0.51100000000E-03 0. -1.
    9900012    2    1    2    0    0 -0.32307340518E+02  0.17668353575E+02  0.17240402400E+02  0.50528850423E+02  0.29999971346E+02 0.  0.
         12    1    1    2    0    0  0.32307340518E+02 -0.17668353575E+02 -0.17240402400E+02  0.40659149577E+02  0.00000000000E+00 0. -1.
         11    1    3    3    0    0 -0.92500268971E+01  0.79784356468E+00  0.11593108061E+02  0.14852599326E+02  0.51100000000E-03 0. -1.
        -11    1    3    3    0    0 -0.13847148353E+02  0.15203429161E+02  0.12509649237E+02  0.24070294972E+02  0.51100000000E-03 0.  1.
        -12    1    3    3    0    0 -0.92101652679E+01  0.16670808495E+01 -0.68623548983E+01  0.11605956125E+02  0.00000000000E+00 0.  1.
</event>
<event>
 7    1  0.1381607E-011  0.5052873E+02  0.7816164E-02  0.1300439E+00
        -11   -1    0    0    0    0  0.00000000000E+00  0.00000000000E+00  0.45593999997E+02  0.45594000000E+02  0.51100000000E-03 0. -1.
         11   -1    0    0    0    0 -0.00000000000E+00 -0.00000000000E+00 -0.45593999997E+02  0.45594000000E+02  0.51100000000E-03 0.  1.
    9900012    2    1    2    0    0 -0.36209343842E+02 -0.14349206142E+02  0.11668747586E+02  0.50528733300E+02  0.29999615335E+02 0.  0.
         12    1    1    2    0    0  0.36209343842E+02  0.14349206142E+02 -0.11668747586E+02  0.40659266700E+02  0.00000000000E+00 0. -1.
         11    1    3    3    0    0  0.31843644292E+01  0.50552005378E+00 -0.18818512879E+01  0.37332414700E+01  0.51100000000E-03 0. -1.
        -11    1    3    3    0    0 -0.77867498023E-01 -0.69371956173E+00 -0.20688302440E+01  0.21834305616E+01  0.51100000000E-03 0.  1.
        -12    1    3    3    0    0 -0.39315840773E+02 -0.14161006634E+02  0.15619429118E+02  0.44612061268E+02  0.00000000000E+00 0.  1.
</event>
<event>
 7    1  0.1381607E-011  0.5052885E+02  0.7816164E-02  0.1300439E+00
        -11   -1    0    0    0    0  0.00000000000E+00  0.00000000000E+00  0.45593999997E+02  0.45594000000E+02  0.51100000000E-03 0.  1.
         11   -1    0    0    0    0 -0.00000000000E+00 -0.00000000000E+00 -0.45593999997E+02  0.45594000000E+02  0.51100000000E-03 0. -1.
    9900012    2    1    2    0    0 -0.19550005805E+02 -0.67225393852E+01  0.35011014899E+02  0.50528850636E+02  0.29999971994E+02 0.  0.
         12    1    1    2    0    0  0.19550005805E+02  0.67225393852E+01 -0.35011014899E+02  0.40659149364E+02  0.00000000000E+00 0. -1.
         11    1    3    3    0    0 -0.80628016872E+01 -0.78013061751E+01  0.13454519870E+02  0.17518369053E+02  0.51100000000E-03 0. -1.
        -11    1    3    3    0    0 -0.65334199478E+01 -0.70926542537E+01  0.23553560216E+00  0.96460768117E+01  0.51100000000E-03 0.  1.
         12    1    3    3    0    0 -0.49537841699E+01  0.81714210435E+01  0.21320959426E+02  0.23364404771E+02  0.00000000000E+00 0. -1.
</event>
<event>
 7    1  0.1381607E-011  0.5052886E+02  0.7816164E-02  0.1300439E+00
        -11   -1    0    0    0    0  0.00000000000E+00  0.00000000000E+00  0.45593999997E+02  0.45594000000E+02  0.51100000000E-03 0.  1.
         11   -1    0    0    0    0 -0.00000000000E+00 -0.00000000000E+00 -0.45593999997E+02  0.45594000000E+02  0.51100000000E-03 0. -1.
    9900012    2    1    2    0    0 -0.38003069750E+02  0.12135264468E+02  0.78528770503E+01  0.50528860412E+02  0.30000001707E+02 0.  0.
         12    1    1    2    0    0  0.38003069750E+02 -0.12135264468E+02 -0.78528770503E+01  0.40659139588E+02  0.00000000000E+00 0. -1.
         11    1    3    3    0    0 -0.66960653841E+01 -0.60649727707E+01  0.53048985281E+01  0.10476790300E+02  0.51100000000E-03 0. -1.
        -11    1    3    3    0    0 -0.79476179045E+01  0.95975152384E+01  0.76770182297E+01  0.14636035606E+02  0.51100000000E-03 0.  1.
         12    1    3    3    0    0 -0.23359386461E+02  0.86027220006E+01 -0.51290397075E+01  0.25416034505E+02  0.00000000000E+00 0. -1.
</event>
<event>
 7    1  0.1381607E-011  0.5052887E+02  0.7816164E-02  0.1300439E+00
        -11   -1    0    0    0    0  0.00000000000E+00  0.00000000000E+00  0.45593999997E+02  0.45594000000E+02  0.51100000000E-03 0. -1.
         11   -1    0    0    0    0 -0.00000000000E+00 -0.00000000000E+00 -0.45593999997E+02  0.45594000000E+02  0.51100000000E-03 0.  1.
    9900012    2    1    2    0    0 -0.33172718822E+02  0.76558982878E+01 -0.22228880995E+02  0.50528865689E+02  0.30000017747E+02 0.  0.
         12    1    1    2    0    0  0.33172718822E+02 -0.76558982878E+01  0.22228880995E+02  0.40659134311E+02  0.00000000000E+00 0. -1.
         11    1    3    3    0    0 -0.63047274177E+01 -0.62722831002E+01 -0.87766767630E+01  0.12494846072E+02  0.51100000000E-03 0. -1.
        -11    1    3    3    0    0 -0.10613833980E+02  0.98814156715E+01 -0.15420911756E+02  0.21168381305E+02  0.51100000000E-03 0.  1.
        -12    1    3    3    0    0 -0.16254157424E+02  0.40467657166E+01  0.19687075239E+01  0.16865638311E+02  0.00000000000E+00 0.  1.
</event>
<event>
 7    1  0.1381607E-011  0.5052886E+02  0.7816164E-02  0.1300439E+00
        -11   -1    0    0    0    0  0.00000000000E+00  0.00000000000E+00  0.45593999997E+02  0.45594000000E+02  0.51100000000E-03 0.  1.
         11   -1    0    0    0    0 -0.00000000000E+00 -0.00000000000E+00 -0.45593999997E+02  0.45594000000E+02  0.51100000000E-03 0. -1.
    9900012    2    1    2    0    0  0.26541854568E+02 -0.19869572082E+02  0.23534981520E+02  0.50528864572E+02  0.30000014354E+02 0.  0.
         12    1    1    2    0    0 -0.26541854568E+02  0.19869572082E+02 -0.23534981520E+02  0.40659135428E+02  0.00000000000E+00 0. -1.
         11    1    3    3    0    0  0.13910998941E+02 -0.13695962134E+02  0.80008336195E+01  0.21097597237E+02  0.51100000000E-03 0. -1.
        -11    1    3    3    0    0  0.13690150577E+02 -0.12331662061E+02  0.13564068920E+02  0.22879555895E+02  0.51100000000E-03 0.  1.
         12    1    3    3    0    0 -0.10592949504E+01  0.61580521126E+01  0.19700789798E+01  0.65517114405E+01  0.00000000000E+00 0. -1.
</event>
<event>
 7    1  0.1381607E-011  0.5052886E+02  0.7816164E-02  0.1300439E+00
        -11   -1    0    0    0    0  0.00000000000E+00  0.00000000000E+00  0.45593999997E+02  0.45594000000E+02  0.51100000000E-03 0. -1.
         11   -1    0    0    0    0 -0.00000000000E+00 -0.00000000000E+00 -0.45593999997E+02  0.45594000000E+02  0.51100000000E-03 0.  1.
    9900012    2    1    2    0    0 -0.40520439151E+02 -0.18995974603E+01  0.27660367611E+01  0.50528863034E+02  0.30000009677E+02 0.  0.
         12    1    1    2    0    0  0.40520439151E+02  0.18995974603E+01 -0.27660367611E+01  0.40659136966E+02  0.00000000000E+00 0. -1.
         11    1    3    3    0    0 -0.12490524940E+02  0.40093715164E+01  0.10156386184E+02  0.16590372323E+02  0.51100000000E-03 0. -1.
        -11    1    3    3    0    0 -0.71854901256E+01 -0.51495531858E+01  0.45100498231E+01  0.99241985080E+01  0.51100000000E-03 0.  1.
         12    1    3    3    0    0 -0.20844424086E+02 -0.75941579098E+00 -0.11900399246E+02  0.24014292203E+02  0.00000000000E+00 0. -1.
</event>
<event>
 7    1  0.1381607E-011  0.5052886E+02  0.7816164E-02  0.1300439E+00
        -11   -1    0    0    0    0  0.00000000000E+00  0.00000000000E+00  0.45593999997E+02  0.45594000000E+02  0.51100000000E-03 0.  1.
         11   -1    0    0    0    0 -0.00000000000E+00 -0.00000000000E+00 -0.45593999997E+02  0.45594000000E+02  0.51100000000E-03 0. -1.
    9900012    2    1    2    0    0 -0.14935984435E+02  0.32140339871E+02  0.19926876616E+02  0.50528862162E+02  0.30000007027E+02 0.  0.
         12    1    1    2    0    0  0.14935984435E+02 -0.32140339871E+02 -0.19926876616E+02  0.40659137838E+02  0.00000000000E+00 0. -1.
         11    1    3    3    0    0 -0.98032065757E+01  0.10513891123E+02 -0.10341211296E+01  0.14412292409E+02  0.51100000000E-03 0. -1.
        -11    1    3    3    0    0  0.19748922483E+01  0.99677529485E+01 -0.10486066755E+01  0.10215472307E+02  0.51100000000E-03 0.  1.
        -12    1    3    3    0    0 -0.71076701075E+01  0.11658695800E+02  0.22009604422E+02  0.25901097446E+02  0.00000000000E+00 0.  1.
</event>
<event>
 7    1  0.1381607E-011  0.5052886E+02  0.7816164E-02  0.1300439E+00
        -11   -1    0    0    0    0  0.00000000000E+00  0.00000000000E+00  0.45593999997E+02  0.45594000000E+02  0.51100000000E-03 0. -1.
         11   -1    0    0    0    0 -0.00000000000E+00 -0.00000000000E+00 -0.45593999997E+02  0.45594000000E+02  0.51100000000E-03 0.  1.
    9900012    2    1    2    0    0  0.36902966317E+02 -0.11294856841E+02 -0.12796992826E+02  0.50528859091E+02  0.29999997694E+02 0.  0.
         12    1    1    2    0    0 -0.36902966317E+02  0.11294856841E+02  0.12796992826E+02  0.40659140909E+02  0.00000000000E+00 0. -1.
         11    1    3    3    0    0  0.41252431357E+01  0.35683230048E+01  0.32849945665E+01  0.63672403409E+01  0.51100000000E-03 0. -1.
        -11    1    3    3    0    0  0.39535040876E+01  0.27049635065E+01 -0.82012846071E+01  0.94977940391E+01  0.51100000000E-03 0.  1.
        -12    1    3    3    0    0  0.28824219094E+02 -0.17568143352E+02 -0.78807027853E+01  0.34663824711E+02  0.00000000000E+00 0.  1.
</event>
<event>
 7    1  0.1381607E-011  0.5052886E+02  0.7816164E-02  0.1300439E+00
        -11   -1    0    0    0    0  0.00000000000E+00  0.00000000000E+00  0.45593999997E+02  0.45594000000E+02  0.51100000000E-03 0. -1.
         11   -1    0    0    0    0 -0.00000000000E+00 -0.00000000000E+00 -0.45593999997E+02  0.45594000000E+02  0.51100000000E-03 0.  1.
    9900012    2    1    2    0    0 -0.31222858328E+02 -0.19845605215E+02 -0.16865668901E+02  0.50528859380E+02  0.29999998570E+02 0.  0.
         12    1    1    2    0    0  0.31222858328E+02  0.19845605215E+02  0.16865668901E+02  0.40659140620E+02  0.00000000000E+00 0. -1.
         11    1    3    3    0    0 -0.92714702159E+01 -0.42585533636E+01  0.51260069766E+01  0.11418028924E+02  0.51100000000E-03 0. -1.
        -11    1    3    3    0    0 -0.35998890816E+01 -0.74777261810E-02 -0.12876198535E+02  0.13369956855E+02  0.51100000000E-03 0.  1.
         12    1    3    3    0    0 -0.18351499031E+02 -0.15579574125E+02 -0.91154773423E+01  0.25740873601E+02  0.00000000000E+00 0. -1.
</event>
<event>
 7    1  0.1381607E-011  0.5052886E+02  0.7816164E-02  0.1300439E+00
        -11   -1    0    0    0    0  0.00000000000E+00  0.00000000000E+00  0.45593999997E+02  0.45594000000E+02  0.51100000000E-03 0.  1.
         11   -1    0    0    0    0 -0.00000000000E+00 -0.00000000000E+00 -0.45593999997E+02  0.45594000000E+02  0.51100000000E-03 0. -1.
    9900012    2    1    2    0    0  0.59283899424E+01  0.35487253367E+02  0.18938703826E+02  0.50528862510E+02  0.30000008084E+02 0.  0.
         12    1    1    2    0    0 -0.59283899424E+01 -0.35487253367E+02 -0.18938703826E+02  0.40659137490E+02  0.00000000000E+00 0. -1.
         11    1    3    3    0    0 -0.42828065744E+01  0.21199917112E+02  0.50573167688E+01  0.22211604419E+02  0.51100000000E-03 0. -1.
        -11    1    3    3    0    0  0.85596538175E+01  0.17770323010E+02  0.79995559225E+01  0.21284852562E+02  0.51100000000E-03 0.  1.
         12    1    3    3    0    0  0.16515426992E+01 -0.34829867552E+01  0.58818311344E+01  0.70324055285E+01  0.00000000000E+00 0. -1.
</event>
<event>
 7    1  0.1381607E-011  0.5052886E+02  0.7816164E-02  0.1300439E+00
        -11   -1    0    0    0    0  0.00000000000E+00  0.00000000000E+00  0.45593999997E+02  0.45594000000E+02  0.51100000000E-03 0.  1.
         11   -1    0    0    0    0 -0.00000000000E+00 -0.00000000000E+00 -0.45593999997E+02  0.45594000000E+02  0.51100000000E-03 0. -1.
    9900012    2    1    2    0    0 -0.11801275800E+02  0.15978721036E+02  0.35476417069E+02  0.50528858291E+02  0.29999995262E+02 0.  0.
         12    1    1    2    0    0  0.11801275800E+02 -0.15978721036E+02 -0.35476417069E+02  0.40659141709E+02  0.00000000000E+00 0. -1.
         11    1    3    3    0    0 -0.69462776125E+01  0.78708106972E+01  0.99505777635E+01  0.14464246672E+02  0.51100000000E-03 0. -1.
        -11    1    3    3    0    0 -0.51072463954E+01 -0.23689224391E+01 -0.24876620190E+01  0.61550159908E+01  0.51100000000E-03 0.  1.
        -12    1    3    3    0    0  0.25224820795E+00  0.10476832778E+02  0.28013501324E+02  0.29909595628E+02  0.00000000000E+00 0.  1.
</event>
<event>
 7    1  0.1381607E-011  0.5052886E+02  0.7816164E-02  0.1300439E+00
        -11   -1    0    0    0    0  0.00000000000E+00  0.00000000000E+00  0.45593999997E+02  0.45594000000E+02  0.51100000000E-03 0. -1.
         11   -1    0    0    0    0 -0.00000000000E+00 -0.00000000000E+00 -0.45593999997E+02  0.45594000000E+02  0.51100000000E-03 0.  1.
    9900012    2    1    2    0    0  0.67286301113E+00 -0.26942823756E+02 -0.30443344174E+02  0.50528859563E+02  0.29999999128E+02 0.  0.
         12    1    1    2    0    0 -0.67286301113E+00  0.26942823756E+02  0.30443344174E+02  0.40659140437E+02  0.00000000000E+00 0. -1.
         11    1    3    3    0    0  0.45170999466E+01  0.25637816245E+01 -0.42505791443E-01  0.51941289115E+01  0.51100000000E-03 0. -1.
        -11    1    3    3    0    0  0.60591041651E+01 -0.96774218360E+01 -0.11500870161E+02  0.16206025157E+02  0.51100000000E-03 0.  1.
        -12    1    3    3    0    0 -0.99033411006E+01 -0.19829183545E+02 -0.18899968221E+02  0.29128705495E+02  0.00000000000E+00 0.  1.
</event>
<event>
 7    1  0.1381607E-011  0.5052886E+02  0.7816164E-02  0.1300439E+00
        -11   -1    0    0    0    0  0.00000000000E+00  0.00000000000E+00  0.45593999997E+02  0.45594000000E+02  0.51100000000E-03 0.  1.
         11   -1    0    0    0    0 -0.00000000000E+00 -0.00000000000E+00 -0.45593999997E+02  0.45594000000E+02  0.51100000000E-03 0. -1.
    9900012    2    1    2    0    0 -0.90224597884E+01  0.38873373158E+02  0.77860067410E+01  0.50528858072E+02  0.29999994596E+02 0.  0.
         12    1    1    2    0    0  0.90224597884E+01 -0.38873373158E+02 -0.77860067410E+01  0.40659141928E+02  0.00000000000E+00 0. -1.
         11    1    3    3    0    0 -0.43387039843E+01  0.12489833349E+02 -0.55086922404E+01  0.14323616157E+02  0.51100000000E-03 0.  1.
        -11    1    3    3    0    0 -0.65225377067E+01 -0.52544846579E+00  0.12305975160E+01  0.66583755326E+01  0.51100000000E-03 0. -1.
        -12    1    3    3    0    0  0.18387819026E+01  0.26908988275E+02  0.12064101465E+02  0.29546866383E+02  0.00000000000E+00 0.  1.
</event>
<event>
 7    1  0.1381607E-011  0.5052886E+02  0.7816164E-02  0.1300439E+00
        -11   -1    0    0    0    0  0.00000000000E+00  0.00000000000E+00  0.45593999997E+02  0.45594000000E+02  0.51100000000E-03 0.  1.
         11   -1    0    0    0    0 -0.00000000000E+00 -0.00000000000E+00 -0.45593999997E+02  0.45594000000E+02  0.51100000000E-03 0. -1.
    9900012    2    1    2    0    0  0.82310279506E+01 -0.99248741427E+01  0.38560507298E+02  0.50528859933E+02  0.30000000252E+02 0.  0.
         12    1    1    2    0    0 -0.82310279506E+01  0.99248741427E+01 -0.38560507298E+02  0.40659140067E+02  0.00000000000E+00 0. -1.
         11    1    3    3    0    0  0.27693585371E-01 -0.49226721641E+01 -0.11685371790E+00  0.49241367997E+01  0.51100000000E-03 0. -1.
        -11    1    3    3    0    0  0.15756784787E+02 -0.14728603995E+01  0.25430321866E+02  0.29952409838E+02  0.51100000000E-03 0.  1.
         12    1    3    3    0    0 -0.75534504222E+01 -0.35293415790E+01  0.13247039150E+02  0.15652313296E+02  0.00000000000E+00 0. -1.
</event>
<event>
 7    1  0.1381607E-011  0.5052885E+02  0.7816164E-02  0.1300439E+00
        -11   -1    0    0    0    0  0.00000000000E+00  0.00000000000E+00  0.45593999997E+02  0.45594000000E+02  0.51100000000E-03 0.  1.
         11   -1    0    0    0    0 -0.00000000000E+00 -0.00000000000E+00 -0.45593999997E+02  0.45594000000E+02  0.51100000000E-03 0. -1.
    9900012    2    1    2    0    0  0.12785403163E+02 -0.11326144413E+02  0.36897399470E+02  0.50528853809E+02  0.29999981637E+02 0.  0.
         12    1    1    2    0    0 -0.12785403163E+02  0.11326144413E+02 -0.36897399470E+02  0.40659146191E+02  0.00000000000E+00 0. -1.
         11    1    3    3    0    0  0.77122302405E+01  0.19200972894E+01  0.80067694928E+01  0.11281561366E+02  0.51100000000E-03 0. -1.
        -11    1    3    3    0    0 -0.56738256625E+01 -0.50568451868E+01  0.23502686072E+02  0.24701016857E+02  0.51100000000E-03 0.  1.
         12    1    3    3    0    0  0.10746998586E+02 -0.81893965159E+01  0.53879439053E+01  0.14546275586E+02  0.00000000000E+00 0. -1.
</event>
<event>
 7    1  0.1381607E-011  0.5052886E+02  0.7816164E-02  0.1300439E+00
        -11   -1    0    0    0    0  0.00000000000E+00  0.00000000000E+00  0.45593999997E+02  0.45594000000E+02  0.51100000000E-03 0.  1.
         11   -1    0    0    0    0 -0.00000000000E+00 -0.00000000000E+00 -0.45593999997E+02  0.45594000000E+02  0.51100000000E-03 0. -1.
    9900012    2    1    2    0    0 -0.20131624763E+02  0.30032876851E+02  0.18598654911E+02  0.50528856231E+02  0.29999988998E+02 0.  0.
         12    1    1    2    0    0  0.20131624763E+02 -0.30032876851E+02 -0.18598654911E+02  0.40659143769E+02  0.00000000000E+00 0. -1.
         11    1    3    3    0    0 -0.33410500448E+01  0.18158290817E+02  0.18503005956E+01  0.18555585503E+02  0.51100000000E-03 0. -1.
        -11    1    3    3    0    0 -0.10840342849E+02  0.15567065492E+02  0.16205822476E+02  0.24949453772E+02  0.51100000000E-03 0.  1.
        -12    1    3    3    0    0 -0.59502318690E+01 -0.36924794575E+01  0.54253183975E+00  0.70238169563E+01  0.00000000000E+00 0.  1.
</event>
<event>
 7    1  0.1381607E-011  0.5052889E+02  0.7816164E-02  0.1300439E+00
        -11   -1    0    0    0    0  0.00000000000E+00  0.00000000000E+00  0.45593999997E+02  0.45594000000E+02  0.51100000000E-03 0. -1.
         11   -1    0    0    0    0 -0.00000000000E+00 -0.00000000000E+00 -0.45593999997E+02  0.45594000000E+02  0.51100000000E-03 0.  1.
    9900012    2    1    2    0    0 -0.39428052317E+02 -0.44109400679E+01 -0.88957986657E+01  0.50528893570E+02  0.30000102495E+02 0.  0.
         12    1    1    2    0    0  0.39428052317E+02  0.44109400679E+01  0.88957986657E+01  0.40659106430E+02  0.00000000000E+00 0. -1.
         11    1    3    3    0    0 -0.87238899775E+01 -0.19433006552E+01 -0.61758256609E+01  0.10863861957E+02  0.51100000000E-03 0.  1.
        -11    1    3    3    0    0 -0.19295604598E+01  0.30508758302E+01  0.77516252238E+01  0.85509496999E+01  0.51100000000E-03 0. -1.
         12    1    3    3    0    0 -0.28774601880E+02 -0.55185152429E+01 -0.10471598229E+02  0.31114081913E+02  0.00000000000E+00 0. -1.
</event>
<event>
 7    1  0.1381607E-011  0.5052886E+02  0.7816164E-02  0.1300439E+00
        -11   -1    0    0    0    0  0.00000000000E+00  0.00000000000E+00  0.45593999997E+02  0.45594000000E+02  0.51100000000E-03 0.  1.
         11   -1    0    0    0    0 -0.00000000000E+00 -0.00000000000E+00 -0.45593999997E+02  0.45594000000E+02  0.51100000000E-03 0. -1.
    9900012    2    1    2    0    0 -0.24842693237E+02 -0.32145476110E+02  0.16354700501E+01  0.50528858299E+02  0.29999995285E+02 0.  0.
         12    1    1    2    0    0  0.24842693237E+02  0.32145476110E+02 -0.16354700501E+01  0.40659141701E+02  0.00000000000E+00 0. -1.
         11    1    3    3    0    0  0.48060708840E+01 -0.74203272722E+01  0.12565698956E+01  0.89296440205E+01  0.51100000000E-03 0. -1.
        -11    1    3    3    0    0 -0.14211714545E+02 -0.18958742311E+02 -0.50937136750E+01  0.24235359696E+02  0.51100000000E-03 0.  1.
        -12    1    3    3    0    0 -0.15437049576E+02 -0.57664065266E+01  0.54726138295E+01  0.17363854583E+02  0.00000000000E+00 0.  1.
</event>
<event>
 7    1  0.1381607E-011  0.5052886E+02  0.7816164E-02  0.1300439E+00
        -11   -1    0    0    0    0  0.00000000000E+00  0.00000000000E+00  0.45593999997E+02  0.45594000000E+02  0.51100000000E-03 0.  1.
         11   -1    0    0    0    0 -0.00000000000E+00 -0.00000000000E+00 -0.45593999997E+02  0.45594000000E+02  0.51100000000E-03 0. -1.
    9900012    2    1    2    0    0  0.56132814243E+01  0.99280685549E+01  0.39026787481E+02  0.50528860625E+02  0.30000002357E+02 0.  0.
         12    1    1    2    0    0 -0.56132814243E+01 -0.99280685549E+01 -0.39026787481E+02  0.40659139375E+02  0.00000000000E+00 0. -1.
         11    1    3    3    0    0 -0.67937063292E+01  0.79010638770E+01  0.10819562330E+02  0.15021457497E+02  0.51100000000E-03 0. -1.
        -11    1    3    3    0    0  0.47599479708E+01  0.34463107371E+01 -0.37241294595E+00  0.58883659911E+01  0.51100000000E-03 0.  1.
        -12    1    3    3    0    0  0.76470397827E+01 -0.14193060592E+01  0.28579638097E+02  0.29619037137E+02  0.00000000000E+00 0.  1.
</event>
<event>
 7    1  0.1381607E-011  0.5052886E+02  0.7816164E-02  0.1300439E+00
        -11   -1    0    0    0    0  0.00000000000E+00  0.00000000000E+00  0.45593999997E+02  0.45594000000E+02  0.51100000000E-03 0. -1.
         11   -1    0    0    0    0 -0.00000000000E+00 -0.00000000000E+00 -0.45593999997E+02  0.45594000000E+02  0.51100000000E-03 0.  1.
    9900012    2    1    2    0    0 -0.27462705942E+02  0.27455780305E+02 -0.12047651409E+02  0.50528855957E+02  0.29999988167E+02 0.  0.
         12    1    1    2    0    0  0.27462705942E+02 -0.27455780305E+02  0.12047651409E+02  0.40659144043E+02  0.00000000000E+00 0. -1.
         11    1    3    3    0    0 -0.19326237898E+01  0.72546485688E+01  0.24823774395E+01  0.79074116235E+01  0.51100000000E-03 0. -1.
        -11    1    3    3    0    0 -0.21343730517E+02  0.11393365458E+02  0.10768781617E+01  0.24218242621E+02  0.51100000000E-03 0.  1.
         12    1    3    3    0    0 -0.41863516356E+01  0.88077662786E+01 -0.15606907011E+02  0.18403201712E+02  0.00000000000E+00 0. -1.
</event>
<event>
 7    1  0.1381607E-011  0.5052888E+02  0.7816164E-02  0.1300439E+00
        -11   -1    0    0    0    0  0.00000000000E+00  0.00000000000E+00  0.45593999997E+02  0.45594000000E+02  0.51100000000E-03 0.  1.
         11   -1    0    0    0    0 -0.00000000000E+00 -0.00000000000E+00 -0.45593999997E+02  0.45594000000E+02  0.51100000000E-03 0. -1.
    9900012    2    1    2    0    0 -0.46555672728E+01  0.40388060067E+02 -0.54247602744E+00  0.50528880692E+02  0.30000063352E+02 0.  0.
         12    1    1    2    0    0  0.46555672728E+01 -0.40388060067E+02  0.54247602744E+00  0.40659119308E+02  0.00000000000E+00 0. -1.
         11    1    3    3    0    0 -0.20124753461E+01 -0.11024400590E+00 -0.67801872282E+01  0.70734114732E+01  0.51100000000E-03 0. -1.
        -11    1    3    3    0    0  0.35804531778E+01  0.78256624958E+01  0.54492701897E+01  0.10186028879E+02  0.51100000000E-03 0.  1.
        -12    1    3    3    0    0 -0.62235451044E+01  0.32672641578E+02  0.78844101105E+00  0.33269440340E+02  0.00000000000E+00 0.  1.
</event>
<event>
 7    1  0.1381607E-011  0.5052885E+02  0.7816164E-02  0.1300439E+00
        -11   -1    0    0    0    0  0.00000000000E+00  0.00000000000E+00  0.45593999997E+02  0.45594000000E+02  0.51100000000E-03 0. -1.
         11   -1    0    0    0    0 -0.00000000000E+00 -0.00000000000E+00 -0.45593999997E+02  0.45594000000E+02  0.51100000000E-03 0.  1.
    9900012    2    1    2    0    0  0.16930880933E+02  0.31651622315E+01 -0.36830608838E+02  0.50528846929E+02  0.29999960724E+02 0.  0.
         12    1    1    2    0    0 -0.16930880933E+02 -0.31651622315E+01  0.36830608838E+02  0.40659153071E+02  0.00000000000E+00 0. -1.
         11    1    3    3    0    0  0.93939741713E+01  0.30565177967E+00 -0.80760739559E+01  0.12392059738E+02  0.51100000000E-03 0. -1.
        -11    1    3    3    0    0  0.14497468286E+02  0.31451132267E+01 -0.93887667684E+01  0.17556117612E+02  0.51100000000E-03 0.  1.
        -12    1    3    3    0    0 -0.69605615247E+01 -0.28560277482E+00 -0.19365768114E+02  0.20580669579E+02  0.00000000000E+00 0.  1.
</event>
<event>
 7    1  0.1381607E-011  0.5052886E+02  0.7816164E-02  0.1300439E+00
        -11   -1    0    0    0    0  0.00000000000E+00  0.00000000000E+00  0.45593999997E+02  0.45594000000E+02  0.51100000000E-03 0.  1.
         11   -1    0    0    0    0 -0.00000000000E+00 -0.00000000000E+00 -0.45593999997E+02  0.45594000000E+02  0.51100000000E-03 0. -1.
    9900012    2    1    2    0    0  0.10487725063E+02  0.33837790724E+02  0.19954376919E+02  0.50528860606E+02  0.30000002298E+02 0.  0.
         12    1    1    2    0    0 -0.10487725063E+02 -0.33837790724E+02 -0.19954376919E+02  0.40659139394E+02  0.00000000000E+00 0. -1.
         11    1    3    3    0    0  0.57816928705E+01  0.18321728325E+02  0.51527260327E+01  0.19891311850E+02  0.51100000000E-03 0.  1.
        -11    1    3    3    0    0  0.57690217150E+01  0.60574743978E+01 -0.42186385578E+01  0.93686455355E+01  0.51100000000E-03 0. -1.
        -12    1    3    3    0    0 -0.10629895222E+01  0.94585880005E+01  0.19020289444E+02  0.21268903221E+02  0.00000000000E+00 0.  1.
</event>
<event>
 7    1  0.1381607E-011  0.5052885E+02  0.7816164E-02  0.1300439E+00
        -11   -1    0    0    0    0  0.00000000000E+00  0.00000000000E+00  0.45593999997E+02  0.45594000000E+02  0.51100000000E-03 0. -1.
         11   -1    0    0    0    0 -0.00000000000E+00 -0.00000000000E+00 -0.45593999997E+02  0.45594000000E+02  0.51100000000E-03 0.  1.
    9900012    2    1    2    0    0 -0.21624163747E+02  0.11174822956E+01 -0.34413850193E+02  0.50528852080E+02  0.29999976383E+02 0.  0.
         12    1    1    2    0    0  0.21624163747E+02 -0.11174822956E+01  0.34413850193E+02  0.40659147920E+02  0.00000000000E+00 0. -1.
         11    1    3    3    0    0 -0.14258153091E+02  0.10856945667E+01 -0.14881144348E+02  0.20637880696E+02  0.51100000000E-03 0. -1.
        -11    1    3    3    0    0 -0.64376557244E+01  0.76276606314E+01 -0.19864779441E+02  0.22231376036E+02  0.51100000000E-03 0.  1.
         12    1    3    3    0    0 -0.92835493212E+00 -0.75958729026E+01  0.33207359608E+00  0.76595953486E+01  0.00000000000E+00 0. -1.
</event>
<event>
 7    1  0.1381607E-011  0.5052888E+02  0.7816164E-02  0.1300439E+00
        -11   -1    0    0    0    0  0.00000000000E+00  0.00000000000E+00  0.45593999997E+02  0.45594000000E+02  0.51100000000E-03 0.  1.
         11   -1    0    0    0    0 -0.00000000000E+00 -0.00000000000E+00 -0.45593999997E+02  0.45594000000E+02  0.51100000000E-03 0. -1.
    9900012    2    1    2    0    0  0.38226058566E+02  0.97631493311E+01 -0.98291948986E+01  0.50528884040E+02  0.30000073527E+02 0.  0.
         12    1    1    2    0    0 -0.38226058566E+02 -0.97631493311E+01  0.98291948986E+01  0.40659115960E+02  0.00000000000E+00 0. -1.
         11    1    3    3    0    0  0.68250226632E+01  0.20922079415E+01 -0.13714344543E+02  0.15460967465E+02  0.51100000000E-03 0. -1.
        -11    1    3    3    0    0  0.17576132296E+01 -0.25081958628E+01  0.20223856699E+01  0.36701900237E+01  0.51100000000E-03 0.  1.
        -12    1    3    3    0    0  0.29643422673E+02  0.10179137252E+02  0.18627639749E+01  0.31397726551E+02  0.00000000000E+00 0.  1.
</event>
<event>
 7    1  0.1381607E-011  0.5052886E+02  0.7816164E-02  0.1300439E+00
        -11   -1    0    0    0    0  0.00000000000E+00  0.00000000000E+00  0.45593999997E+02  0.45594000000E+02  0.51100000000E-03 0.  1.
         11   -1    0    0    0    0 -0.00000000000E+00 -0.00000000000E+00 -0.45593999997E+02  0.45594000000E+02  0.51100000000E-03 0. -1.
    9900012    2    1    2    0    0  0.18880041109E+01 -0.36387958623E+02  0.18042116531E+02  0.50528855134E+02  0.29999985666E+02 0.  0.
         12    1    1    2    0    0 -0.18880041109E+01  0.36387958623E+02 -0.18042116531E+02  0.40659144866E+02  0.00000000000E+00 0. -1.
         11    1    3    3    0    0 -0.19472063857E+01 -0.61114627049E+01  0.39655329341E+01  0.75410238571E+01  0.51100000000E-03 0. -1.
        -11    1    3    3    0    0  0.13633042003E+02 -0.16586934360E+02  0.14898341209E+02  0.26133250788E+02  0.51100000000E-03 0.  1.
         12    1    3    3    0    0 -0.97978315064E+01 -0.13689561558E+02 -0.82175761189E+00  0.16854580489E+02  0.00000000000E+00 0. -1.
</event>
<event>
 7    1  0.1381607E-011  0.5052886E+02  0.7816164E-02  0.1300439E+00
        -11   -1    0    0    0    0  0.00000000000E+00  0.00000000000E+00  0.45593999997E+02  0.45594000000E+02  0.51100000000E-03 0.  1.
         11   -1    0    0    0    0 -0.00000000000E+00 -0.00000000000E+00 -0.45593999997E+02  0.45594000000E+02  0.51100000000E-03 0. -1.
    9900012    2    1    2    0    0  0.14547369743E+02 -0.68077804318E+01  0.37352294763E+02  0.50528858778E+02  0.29999996741E+02 0.  0.
         12    1    1    2    0    0 -0.14547369743E+02  0.68077804318E+01 -0.37352294763E+02  0.40659141222E+02  0.00000000000E+00 0. -1.
         11    1    3    3    0    0  0.17224642277E+01  0.48232778597E+01  0.10443326980E+01  0.52269994617E+01  0.51100000000E-03 0. -1.
        -11    1    3    3    0    0  0.15764157737E+02 -0.44682935066E+01  0.13547252638E+02  0.21260347371E+02  0.51100000000E-03 0.  1.
         12    1    3    3    0    0 -0.29392522220E+01 -0.71627647849E+01  0.22760709427E+02  0.24041511945E+02  0.00000000000E+00 0. -1.
</event>
<event>
 7    1  0.1381607E-011  0.5052886E+02  0.7816164E-02  0.1300439E+00
        -11   -1    0    0    0    0  0.00000000000E+00  0.00000000000E+00  0.45593999997E+02  0.45594000000E+02  0.51100000000E-03 0.  1.
         11   -1    0    0    0    0 -0.00000000000E+00 -0.00000000000E+00 -0.45593999997E+02  0.45594000000E+02  0.51100000000E-03 0. -1.
    9900012    2    1    2    0    0  0.10212914889E+02  0.37576374031E+02 -0.11699506848E+02  0.50528856178E+02  0.29999988838E+02 0.  0.
         12    1    1    2    0    0 -0.10212914889E+02 -0.37576374031E+02  0.11699506848E+02  0.40659143822E+02  0.00000000000E+00 0. -1.
         11    1    3    3    0    0  0.70129498501E+01 -0.86117065908E+00 -0.10411115794E+01  0.71419180957E+01  0.51100000000E-03 0. -1.
        -11    1    3    3    0    0  0.27216804497E+01  0.31576803972E+02 -0.12312790669E+01  0.31717789046E+02  0.51100000000E-03 0.  1.
         12    1    3    3    0    0  0.47828458931E+00  0.68607407186E+01 -0.94271162015E+01  0.11669149036E+02  0.00000000000E+00 0. -1.
</event>
<event>
 7    1  0.1381607E-011  0.5052886E+02  0.7816164E-02  0.1300439E+00
        -11   -1    0    0    0    0  0.00000000000E+00  0.00000000000E+00  0.45593999997E+02  0.45594000000E+02  0.51100000000E-03 0.  1.
         11   -1    0    0    0    0 -0.00000000000E+00 -0.00000000000E+00 -0.45593999997E+02  0.45594000000E+02  0.51100000000E-03 0. -1.
    9900012    2    1    2    0    0  0.38071480676E+01 -0.19668929939E+02  0.35380852026E+02  0.50528857468E+02  0.29999992760E+02 0.  0.
         12    1    1    2    0    0 -0.38071480676E+01  0.19668929939E+02 -0.35380852026E+02  0.40659142532E+02  0.00000000000E+00 0. -1.
         11    1    3    3    0    0 -0.43927391920E+01 -0.11943578405E+02  0.26488096924E+02  0.29386468002E+02  0.51100000000E-03 0. -1.
        -11    1    3    3    0    0  0.14487707793E+01 -0.10764393371E+02  0.83848216549E+01  0.13721382432E+02  0.51100000000E-03 0.  1.
         12    1    3    3    0    0  0.67511164803E+01  0.30390418363E+01  0.50793344712E+00  0.74210070341E+01  0.00000000000E+00 0. -1.
</event>
<event>
 7    1  0.1381607E-011  0.5052886E+02  0.7816164E-02  0.1300439E+00
        -11   -1    0    0    0    0  0.00000000000E+00  0.00000000000E+00  0.45593999997E+02  0.45594000000E+02  0.51100000000E-03 0.  1.
         11   -1    0    0    0    0 -0.00000000000E+00 -0.00000000000E+00 -0.45593999997E+02  0.45594000000E+02  0.51100000000E-03 0. -1.
    9900012    2    1    2    0    0 -0.38335940198E+01  0.32850403874E+02  0.23649946838E+02  0.50528862488E+02  0.30000008019E+02 0.  0.
         12    1    1    2    0    0  0.38335940198E+01 -0.32850403874E+02 -0.23649946838E+02  0.40659137512E+02  0.00000000000E+00 0. -1.
         11    1    3    3    0    0 -0.41531015730E+01  0.17111751939E+02  0.21402944613E+01  0.17738127515E+02  0.51100000000E-03 0.  1.
        -11    1    3    3    0    0 -0.82847070545E+01  0.19947854892E+01  0.68967494884E+01  0.10962695558E+02  0.51100000000E-03 0. -1.
        -12    1    3    3    0    0  0.86042146077E+01  0.13743866445E+02  0.14612902888E+02  0.21828039415E+02  0.00000000000E+00 0.  1.
</event>
<event>
 7    1  0.1381607E-011  0.5052887E+02  0.7816164E-02  0.1300439E+00
        -11   -1    0    0    0    0  0.00000000000E+00  0.00000000000E+00  0.45593999997E+02  0.45594000000E+02  0.51100000000E-03 0.  1.
         11   -1    0    0    0    0 -0.00000000000E+00 -0.00000000000E+00 -0.45593999997E+02  0.45594000000E+02  0.51100000000E-03 0. -1.
    9900012    2    1    2    0    0 -0.40231351419E+01 -0.11327379143E+02  0.38841598801E+02  0.50528869020E+02  0.30000027874E+02 0.  0.
         12    1    1    2    0    0  0.40231351419E+01  0.11327379143E+02 -0.38841598801E+02  0.40659130980E+02  0.00000000000E+00 0. -1.
         11    1    3    3    0    0 -0.11879038516E+02  0.27506828780E+01  0.97440746158E+01  0.15608484960E+02  0.51100000000E-03 0.  1.
        -11    1    3    3    0    0 -0.54476350220E-01 -0.37821585692E+01  0.91624225698E+00  0.38919392660E+01  0.51100000000E-03 0. -1.
        -12    1    3    3    0    0  0.79103797241E+01 -0.10295903452E+02  0.28181281928E+02  0.31028444795E+02  0.00000000000E+00 0.  1.
</event>
<event>
 7    1  0.1381607E-011  0.5052885E+02  0.7816164E-02  0.1300439E+00
        -11   -1    0    0    0    0  0.00000000000E+00  0.00000000000E+00  0.45593999997E+02  0.45594000000E+02  0.51100000000E-03 0.  1.
         11   -1    0    0    0    0 -0.00000000000E+00 -0.00000000000E+00 -0.45593999997E+02  0.45594000000E+02  0.51100000000E-03 0. -1.
    9900012    2    1    2    0    0  0.10492607560E+02  0.22158484977E+02  0.32435681805E+02  0.50528846983E+02  0.29999960889E+02 0.  0.
         12    1    1    2    0    0 -0.10492607560E+02 -0.22158484977E+02 -0.32435681805E+02  0.40659153017E+02  0.00000000000E+00 0. -1.
         11    1    3    3    0    0  0.10677345144E+02  0.12979802099E+02  0.16653591819E+02  0.23660580775E+02  0.51100000000E-03 0. -1.
        -11    1    3    3    0    0 -0.55013637169E+00  0.15431925499E+02  0.11944780884E+02  0.19522416993E+02  0.51100000000E-03 0.  1.
         12    1    3    3    0    0  0.36539878757E+00 -0.62532426205E+01  0.38373091020E+01  0.73458492149E+01  0.00000000000E+00 0. -1.
</event>
<event>
 7    1  0.1381607E-011  0.5052886E+02  0.7816164E-02  0.1300439E+00
        -11   -1    0    0    0    0  0.00000000000E+00  0.00000000000E+00  0.45593999997E+02  0.45594000000E+02  0.51100000000E-03 0. -1.
         11   -1    0    0    0    0 -0.00000000000E+00 -0.00000000000E+00 -0.45593999997E+02  0.45594000000E+02  0.51100000000E-03 0.  1.
    9900012    2    1    2    0    0  0.36038725886E+02 -0.18568937787E+02  0.30936123149E+01  0.50528860177E+02  0.30000000993E+02 0.  0.
         12    1    1    2    0    0 -0.36038725886E+02  0.18568937787E+02 -0.30936123149E+01  0.40659139823E+02  0.00000000000E+00 0. -1.
         11    1    3    3    0    0  0.19990644314E+02 -0.19805204364E+02  0.45681422244E+00  0.28143927577E+02  0.51100000000E-03 0. -1.
        -11    1    3    3    0    0  0.59110054469E+01 -0.33530949031E+01 -0.53822098556E+01  0.86689915223E+01  0.51100000000E-03 0.  1.
        -12    1    3    3    0    0  0.10137076125E+02  0.45893614801E+01  0.80190079481E+01  0.13715941077E+02  0.00000000000E+00 0.  1.
</event>
<event>
 7    1  0.1381607E-011  0.5052884E+02  0.7816164E-02  0.1300439E+00
        -11   -1    0    0    0    0  0.00000000000E+00  0.00000000000E+00  0.45593999997E+02  0.45594000000E+02  0.51100000000E-03 0. -1.
         11   -1    0    0    0    0 -0.00000000000E+00 -0.00000000000E+00 -0.45593999997E+02  0.45594000000E+02  0.51100000000E-03 0.  1.
    9900012    2    1    2    0    0 -0.11732909039E+02  0.11332519995E+02 -0.37243524592E+02  0.50528840048E+02  0.29999939811E+02 0.  0.
         12    1    1    2    0    0  0.11732909039E+02 -0.11332519995E+02  0.37243524592E+02  0.40659159952E+02  0.00000000000E+00 0. -1.
         11    1    3    3    0    0 -0.63977698776E+00 -0.44277938655E+01  0.24868269114E+00  0.44806825877E+01  0.51100000000E-03 0. -1.
        -11    1    3    3    0    0 -0.42081417555E+01 -0.15996690824E+01 -0.19861081721E+02  0.20364919975E+02  0.51100000000E-03 0.  1.
        -12    1    3    3    0    0 -0.68849902956E+01  0.17359982943E+02 -0.17631125562E+02  0.25683237485E+02  0.00000000000E+00 0.  1.
</event>
<event>
 7    1  0.1381607E-011  0.5052886E+02  0.7816164E-02  0.1300439E+00
        -11   -1    0    0    0    0  0.00000000000E+00  0.00000000000E+00  0.45593999997E+02  0.45594000000E+02  0.51100000000E-03 0.  1.
         11   -1    0    0    0    0 -0.00000000000E+00 -0.00000000000E+00 -0.45593999997E+02  0.45594000000E+02  0.51100000000E-03 0. -1.
    9900012    2    1    2    0    0 -0.27745163266E+02  0.27205918413E+02 -0.11967012929E+02  0.50528862284E+02  0.30000007399E+02 0.  0.
         12    1    1    2    0    0  0.27745163266E+02 -0.27205918413E+02  0.11967012929E+02  0.40659137716E+02  0.00000000000E+00 0. -1.
         11    1    3    3    0    0 -0.63207287818E+01  0.16190081191E+02 -0.41152952129E+01  0.17860738961E+02  0.51100000000E-03 0. -1.
        -11    1    3    3    0    0 -0.15592483747E+02  0.10058795360E+02  0.43959957806E+01  0.19069076870E+02  0.51100000000E-03 0.  1.
         12    1    3    3    0    0 -0.58319507367E+01  0.95704186244E+00 -0.12247713497E+02  0.13599046453E+02  0.00000000000E+00 0. -1.
</event>
<event>
 7    1  0.1381607E-011  0.5052886E+02  0.7816164E-02  0.1300439E+00
        -11   -1    0    0    0    0  0.00000000000E+00  0.00000000000E+00  0.45593999997E+02  0.45594000000E+02  0.51100000000E-03 0.  1.
         11   -1    0    0    0    0 -0.00000000000E+00 -0.00000000000E+00 -0.45593999997E+02  0.45594000000E+02  0.51100000000E-03 0. -1.
    9900012    2    1    2    0    0 -0.76659000320E+01  0.39787269518E+02  0.33724007024E+01  0.50528856804E+02  0.29999990740E+02 0.  0.
         12    1    1    2    0    0  0.76659000320E+01 -0.39787269518E+02 -0.33724007024E+01  0.40659143196E+02  0.00000000000E+00 0. -1.
         11    1    3    3    0    0  0.23617607320E+01  0.17640001434E+01  0.22933028685E+00  0.29567216478E+01  0.51100000000E-03 0. -1.
        -11    1    3    3    0    0 -0.88164356710E+01  0.40926971257E+02 -0.15817099168E+01  0.41895683796E+02  0.51100000000E-03 0.  1.
        -12    1    3    3    0    0 -0.12112250930E+01 -0.29037018829E+01  0.47247803323E+01  0.56764513597E+01  0.00000000000E+00 0.  1.
</event>
<event>
 7    1  0.1381607E-011  0.5052887E+02  0.7816164E-02  0.1300439E+00
        -11   -1    0    0    0    0  0.00000000000E+00  0.00000000000E+00  0.45593999997E+02  0.45594000000E+02  0.51100000000E-03 0.  1.
         11   -1    0    0    0    0 -0.00000000000E+00 -0.00000000000E+00 -0.45593999997E+02  0.45594000000E+02  0.51100000000E-03 0. -1.
    9900012    2    1    2    0    0  0.17871046044E+02 -0.19374522192E+02  0.30958329210E+02  0.50528873788E+02  0.30000042365E+02 0.  0.
         12    1    1    2    0    0 -0.17871046044E+02  0.19374522192E+02 -0.30958329210E+02  0.40659126212E+02  0.00000000000E+00 0. -1.
         11    1    3    3    0    0  0.74095896546E+01  0.32874863438E+01  0.14407021525E+02  0.16530936295E+02  0.51100000000E-03 0. -1.
        -11    1    3    3    0    0 -0.41689490986E+01 -0.72833955726E+01  0.58241348372E+01  0.10215113045E+02  0.51100000000E-03 0.  1.
        -12    1    3    3    0    0  0.14630405488E+02 -0.15378612963E+02  0.10727172848E+02  0.23782824448E+02  0.00000000000E+00 0.  1.
</event>
<event>
 7    1  0.1381607E-011  0.5052886E+02  0.7816164E-02  0.1300439E+00
        -11   -1    0    0    0    0  0.00000000000E+00  0.00000000000E+00  0.45593999997E+02  0.45594000000E+02  0.51100000000E-03 0.  1.
         11   -1    0    0    0    0 -0.00000000000E+00 -0.00000000000E+00 -0.45593999997E+02  0.45594000000E+02  0.51100000000E-03 0. -1.
    9900012    2    1    2    0    0  0.28690652492E+02  0.28785209514E+02 -0.11932480140E+01  0.50528859970E+02  0.30000000365E+02 0.  0.
         12    1    1    2    0    0 -0.28690652492E+02 -0.28785209514E+02  0.11932480140E+01  0.40659140030E+02  0.00000000000E+00 0. -1.
         11    1    3    3    0    0  0.30202316080E+01  0.13900116487E+02  0.17721664188E+01  0.14334420511E+02  0.51100000000E-03 0. -1.
        -11    1    3    3    0    0  0.25759352636E+02  0.18707090085E+02 -0.89792450839E+00  0.31848166923E+02  0.51100000000E-03 0.  1.
        -12    1    3    3    0    0 -0.88931752063E-01 -0.38219970584E+01 -0.20674899244E+01  0.43462725361E+01  0.00000000000E+00 0.  1.
</event>
<event>
 7    1  0.1381607E-011  0.5052886E+02  0.7816164E-02  0.1300439E+00
        -11   -1    0    0    0    0  0.00000000000E+00  0.00000000000E+00  0.45593999997E+02  0.45594000000E+02  0.51100000000E-03 0.  1.
         11   -1    0    0    0    0 -0.00000000000E+00 -0.00000000000E+00 -0.45593999997E+02  0.45594000000E+02  0.51100000000E-03 0. -1.
    9900012    2    1    2    0    0 -0.38464030104E+02  0.28710107216E+01  0.12862406859E+02  0.50528858044E+02  0.29999994510E+02 0.  0.
         12    1    1    2    0    0  0.38464030104E+02 -0.28710107216E+01 -0.12862406859E+02  0.40659141956E+02  0.00000000000E+00 0. -1.
         11    1    3    3    0    0  0.15912812681E+01  0.31087842698E+01  0.22556744558E+01  0.41574972305E+01  0.51100000000E-03 0. -1.
        -11    1    3    3    0    0 -0.87899700383E+01 -0.70672533481E+01  0.88219225524E+01  0.14319076819E+02  0.51100000000E-03 0.  1.
        -12    1    3    3    0    0 -0.31265341334E+02  0.68294798000E+01  0.17848098513E+01  0.32052283994E+02  0.00000000000E+00 0.  1.
</event>
<event>
 7    1  0.1381607E-011  0.5052886E+02  0.7816164E-02  0.1300439E+00
        -11   -1    0    0    0    0  0.00000000000E+00  0.00000000000E+00  0.45593999997E+02  0.45594000000E+02  0.51100000000E-03 0. -1.
         11   -1    0    0    0    0 -0.00000000000E+00 -0.00000000000E+00 -0.45593999997E+02  0.45594000000E+02  0.51100000000E-03 0.  1.
    9900012    2    1    2    0    0 -0.28244421430E+02 -0.11714019800E+02 -0.26799254867E+02  0.50528860028E+02  0.30000000543E+02 0.  0.
         12    1    1    2    0    0  0.28244421430E+02  0.11714019800E+02  0.26799254867E+02  0.40659139972E+02  0.00000000000E+00 0. -1.
         11    1    3    3    0    0 -0.29346645260E+02 -0.77426156665E+01 -0.23186323215E+02  0.38193969025E+02  0.51100000000E-03 0.  1.
        -11    1    3    3    0    0  0.27214367624E+00 -0.41842371999E+01 -0.73710947181E+01  0.84802677275E+01  0.51100000000E-03 0. -1.
        -12    1    3    3    0    0  0.83008015389E+00  0.21283306602E+00  0.37581630656E+01  0.38546232765E+01  0.00000000000E+00 0.  1.
</event>
<event>
 7    1  0.1381607E-011  0.5052885E+02  0.7816164E-02  0.1300439E+00
        -11   -1    0    0    0    0  0.00000000000E+00  0.00000000000E+00  0.45593999997E+02  0.45594000000E+02  0.51100000000E-03 0.  1.
         11   -1    0    0    0    0 -0.00000000000E+00 -0.00000000000E+00 -0.45593999997E+02  0.45594000000E+02  0.51100000000E-03 0. -1.
    9900012    2    1    2    0    0  0.52117058473E+01 -0.38151774507E+02  0.13055516729E+02  0.50528852285E+02  0.29999977005E+02 0.  0.
         12    1    1    2    0    0 -0.52117058473E+01  0.38151774507E+02 -0.13055516729E+02  0.40659147715E+02  0.00000000000E+00 0. -1.
         11    1    3    3    0    0  0.11094602375E+02 -0.12285101898E+02  0.15501580176E+02  0.22678468174E+02  0.51100000000E-03 0.  1.
        -11    1    3    3    0    0 -0.43641948123E+00 -0.53548095414E+00 -0.18046472442E+01  0.19323441083E+01  0.51100000000E-03 0. -1.
        -12    1    3    3    0    0 -0.54464770460E+01 -0.25331191654E+02 -0.64141620239E+00  0.25918040003E+02  0.00000000000E+00 0.  1.
</event>
<event>
 7    1  0.1381607E-011  0.5052886E+02  0.7816164E-02  0.1300439E+00
        -11   -1    0    0    0    0  0.00000000000E+00  0.00000000000E+00  0.45593999997E+02  0.45594000000E+02  0.51100000000E-03 0. -1.
         11   -1    0    0    0    0 -0.00000000000E+00 -0.00000000000E+00 -0.45593999997E+02  0.45594000000E+02  0.51100000000E-03 0.  1.
    9900012    2    1    2    0    0 -0.21981636904E+02  0.19128161606E+02 -0.28356417078E+02  0.50528864287E+02  0.30000013488E+02 0.  0.
         12    1    1    2    0    0  0.21981636904E+02 -0.19128161606E+02  0.28356417078E+02  0.40659135713E+02  0.00000000000E+00 0. -1.
         11    1    3    3    0    0 -0.42375634506E+01  0.18784097027E+01 -0.12719342453E+02  0.13537615732E+02  0.51100000000E-03 0. -1.
        -11    1    3    3    0    0 -0.42599367249E+01  0.18980561333E+02 -0.12223760933E+02  0.22974531573E+02  0.51100000000E-03 0.  1.
         12    1    3    3    0    0 -0.13484136729E+02 -0.17308094293E+01 -0.34133136916E+01  0.14016716982E+02  0.00000000000E+00 0. -1.
</event>
<event>
 7    1  0.1381607E-011  0.5052887E+02  0.7816164E-02  0.1300439E+00
        -11   -1    0    0    0    0  0.00000000000E+00  0.00000000000E+00  0.45593999997E+02  0.45594000000E+02  0.51100000000E-03 0.  1.
         11   -1    0    0    0    0 -0.00000000000E+00 -0.00000000000E+00 -0.45593999997E+02  0.45594000000E+02  0.51100000000E-03 0. -1.
    9900012    2    1    2    0    0  0.21433570401E+02 -0.24125199603E+02  0.24733415333E+02  0.50528867814E+02  0.30000024209E+02 0.  0.
         12    1    1    2    0    0 -0.21433570401E+02  0.24125199603E+02 -0.24733415333E+02  0.40659132186E+02  0.00000000000E+00 0. -1.
         11    1    3    3    0    0  0.14054827983E+02 -0.11995723827E+02 -0.32754726393E+01  0.18766041166E+02  0.51100000000E-03 0. -1.
        -11    1    3    3    0    0  0.32647069559E-01  0.16580027073E-01  0.30467898450E+01  0.30470099030E+01  0.51100000000E-03 0.  1.
         12    1    3    3    0    0  0.73460953491E+01 -0.12146055803E+02  0.24962098127E+02  0.28715816746E+02  0.00000000000E+00 0. -1.
</event>
<event>
 7    1  0.1381607E-011  0.5052886E+02  0.7816164E-02  0.1300439E+00
        -11   -1    0    0    0    0  0.00000000000E+00  0.00000000000E+00  0.45593999997E+02  0.45594000000E+02  0.51100000000E-03 0.  1.
         11   -1    0    0    0    0 -0.00000000000E+00 -0.00000000000E+00 -0.45593999997E+02  0.45594000000E+02  0.51100000000E-03 0. -1.
    9900012    2    1    2    0    0  0.30201225054E+02 -0.23567202941E+02  0.13624924672E+02  0.50528860541E+02  0.30000002101E+02 0.  0.
         12    1    1    2    0    0 -0.30201225054E+02  0.23567202941E+02 -0.13624924672E+02  0.40659139459E+02  0.00000000000E+00 0. -1.
         11    1    3    3    0    0  0.41917831060E+01 -0.20374418353E+01 -0.54162143357E+01  0.71454595955E+01  0.51100000000E-03 0. -1.
        -11    1    3    3    0    0  0.87294482196E+00  0.18312485478E+01  0.65627551222E+01  0.68691527105E+01  0.51100000000E-03 0.  1.
        -12    1    3    3    0    0  0.25136497126E+02 -0.23361009653E+02  0.12478383885E+02  0.36514248235E+02  0.00000000000E+00 0.  1.
</event>
<event>
 7    1  0.1381607E-011  0.5052886E+02  0.7816164E-02  0.1300439E+00
        -11   -1    0    0    0    0  0.00000000000E+00  0.00000000000E+00  0.45593999997E+02  0.45594000000E+02  0.51100000000E-03 0.  1.
         11   -1    0    0    0    0 -0.00000000000E+00 -0.00000000000E+00 -0.45593999997E+02  0.45594000000E+02  0.51100000000E-03 0. -1.
    9900012    2    1    2    0    0 -0.22703770059E+02  0.26336779650E+02 -0.21073175300E+02  0.50528857677E+02  0.29999993394E+02 0.  0.
         12    1    1    2    0    0  0.22703770059E+02 -0.26336779650E+02  0.21073175300E+02  0.40659142323E+02  0.00000000000E+00 0. -1.
         11    1    3    3    0    0 -0.12126025984E+02  0.16218958042E+02 -0.22135663764E+02  0.30001378579E+02  0.51100000000E-03 0. -1.
        -11    1    3    3    0    0 -0.13403607406E+02  0.66398966072E+01 -0.20122144371E+01  0.15092843524E+02  0.51100000000E-03 0.  1.
         12    1    3    3    0    0  0.28258633304E+01  0.34779250016E+01  0.30747029017E+01  0.54346355731E+01  0.00000000000E+00 0. -1.
</event>
<event>
 7    1  0.1381607E-011  0.5052886E+02  0.7816164E-02  0.1300439E+00
        -11   -1    0    0    0    0  0.00000000000E+00  0.00000000000E+00  0.45593999997E+02  0.45594000000E+02  0.51100000000E-03 0. -1.
         11   -1    0    0    0    0 -0.00000000000E+00 -0.00000000000E+00 -0.45593999997E+02  0.45594000000E+02  0.51100000000E-03 0.  1.
    9900012    2    1    2    0    0 -0.17633497380E+02 -0.21021169019E+02 -0.30005598088E+02  0.50528859657E+02  0.29999999415E+02 0.  0.
         12    1    1    2    0    0  0.17633497380E+02  0.21021169019E+02  0.30005598088E+02  0.40659140343E+02  0.00000000000E+00 0. -1.
         11    1    3    3    0    0  0.99723763687E+00 -0.99438807222E+01  0.17448151477E+01  0.10144931093E+02  0.51100000000E-03 0.  1.
        -11    1    3    3    0    0 -0.14870811401E+02 -0.46885536841E+01 -0.13279358808E+02  0.20480843195E+02  0.51100000000E-03 0. -1.
        -12    1    3    3    0    0 -0.37599236159E+01 -0.63887346131E+01 -0.18471054427E+02  0.19903085369E+02  0.00000000000E+00 0.  1.
</event>
<event>
 7    1  0.1381607E-011  0.5052886E+02  0.7816164E-02  0.1300439E+00
        -11   -1    0    0    0    0  0.00000000000E+00  0.00000000000E+00  0.45593999997E+02  0.45594000000E+02  0.51100000000E-03 0.  1.
         11   -1    0    0    0    0 -0.00000000000E+00 -0.00000000000E+00 -0.45593999997E+02  0.45594000000E+02  0.51100000000E-03 0. -1.
    9900012    2    1    2    0    0  0.20504013678E+01 -0.74528587579E+00  0.40600563166E+02  0.50528864173E+02  0.30000013140E+02 0.  0.
         12    1    1    2    0    0 -0.20504013678E+01  0.74528587579E+00 -0.40600563166E+02  0.40659135827E+02  0.00000000000E+00 0. -1.
         11    1    3    3    0    0 -0.26371154790E+01  0.66701236692E+01  0.61290986619E+01  0.94345523730E+01  0.51100000000E-03 0. -1.
        -11    1    3    3    0    0 -0.23887739114E+01  0.38404016715E+01  0.42343298442E+00  0.45424906771E+01  0.51100000000E-03 0.  1.
        -12    1    3    3    0    0  0.70762907581E+01 -0.11255811216E+02  0.34048031520E+02  0.36551821123E+02  0.00000000000E+00 0.  1.
</event>
<event>
 7    1  0.1381607E-011  0.5052886E+02  0.7816164E-02  0.1300439E+00
        -11   -1    0    0    0    0  0.00000000000E+00  0.00000000000E+00  0.45593999997E+02  0.45594000000E+02  0.51100000000E-03 0.  1.
         11   -1    0    0    0    0 -0.00000000000E+00 -0.00000000000E+00 -0.45593999997E+02  0.45594000000E+02  0.51100000000E-03 0. -1.
    9900012    2    1    2    0    0  0.40546439008E+02 -0.66806639037E+00  0.29505872756E+01  0.50528855958E+02  0.29999988170E+02 0.  0.
         12    1    1    2    0    0 -0.40546439008E+02  0.66806639037E+00 -0.29505872756E+01  0.40659144042E+02  0.00000000000E+00 0. -1.
         11    1    3    3    0    0  0.20785441196E+02 -0.31615760488E+01  0.76944865347E+01  0.22388283813E+02  0.51100000000E-03 0. -1.
        -11    1    3    3    0    0  0.13147048739E+02  0.27080263993E+01  0.66380720481E+01  0.14974721978E+02  0.51100000000E-03 0.  1.
         12    1    3    3    0    0  0.66139490732E+01 -0.21451674094E+00 -0.11381971307E+02  0.13165850167E+02  0.00000000000E+00 0. -1.
</event>
<event>
 7    1  0.1381607E-011  0.5052885E+02  0.7816164E-02  0.1300439E+00
        -11   -1    0    0    0    0  0.00000000000E+00  0.00000000000E+00  0.45593999997E+02  0.45594000000E+02  0.51100000000E-03 0.  1.
         11   -1    0    0    0    0 -0.00000000000E+00 -0.00000000000E+00 -0.45593999997E+02  0.45594000000E+02  0.51100000000E-03 0. -1.
    9900012    2    1    2    0    0 -0.11365023882E+02  0.25421772094E+02  0.29626608590E+02  0.50528853418E+02  0.29999980448E+02 0.  0.
         12    1    1    2    0    0  0.11365023882E+02 -0.25421772094E+02 -0.29626608590E+02  0.40659146582E+02  0.00000000000E+00 0. -1.
         11    1    3    3    0    0 -0.14380426456E+02  0.21154291870E+02  0.22947542198E+02  0.34364086235E+02  0.51100000000E-03 0. -1.
        -11    1    3    3    0    0 -0.50377257972E+01  0.43656468720E+01  0.29577947149E+01  0.72928803401E+01  0.51100000000E-03 0.  1.
         12    1    3    3    0    0  0.80531283712E+01 -0.98166647343E-01  0.37212716778E+01  0.88718868429E+01  0.00000000000E+00 0. -1.
</event>
<event>
 7    1  0.1381607E-011  0.5052886E+02  0.7816164E-02  0.1300439E+00
        -11   -1    0    0    0    0  0.00000000000E+00  0.00000000000E+00  0.45593999997E+02  0.45594000000E+02  0.51100000000E-03 0. -1.
         11   -1    0    0    0    0 -0.00000000000E+00 -0.00000000000E+00 -0.45593999997E+02  0.45594000000E+02  0.51100000000E-03 0.  1.
    9900012    2    1    2    0    0 -0.76981522930E+01  0.39651242781E+02  0.46565146655E+01  0.50528859187E+02  0.29999997985E+02 0.  0.
         12    1    1    2    0    0  0.76981522930E+01 -0.39651242781E+02 -0.46565146655E+01  0.40659140813E+02  0.00000000000E+00 0. -1.
         11    1    3    3    0    0 -0.39224709822E+01 -0.81256120708E+00 -0.11709188534E+01  0.41733781932E+01  0.51100000000E-03 0.  1.
        -11    1    3    3    0    0  0.72636890698E+01  0.24779001676E+02  0.80488032389E+01  0.27047057822E+02  0.51100000000E-03 0. -1.
         12    1    3    3    0    0 -0.11039370381E+02  0.15684802312E+02 -0.22213697199E+01  0.19308423172E+02  0.00000000000E+00 0. -1.
</event>
<event>
 7    1  0.1381607E-011  0.5052887E+02  0.7816164E-02  0.1300439E+00
        -11   -1    0    0    0    0  0.00000000000E+00  0.00000000000E+00  0.45593999997E+02  0.45594000000E+02  0.51100000000E-03 0. -1.
         11   -1    0    0    0    0 -0.00000000000E+00 -0.00000000000E+00 -0.45593999997E+02  0.45594000000E+02  0.51100000000E-03 0.  1.
    9900012    2    1    2    0    0  0.30005880822E+02  0.65397086866E+01 -0.26646655742E+02  0.50528868973E+02  0.30000027730E+02 0.  0.
         12    1    1    2    0    0 -0.30005880822E+02 -0.65397086866E+01  0.26646655742E+02  0.40659131027E+02  0.00000000000E+00 0. -1.
         11    1    3    3    0    0  0.69382853580E+00 -0.51490109363E+01 -0.29197589085E+01  0.59597570424E+01  0.51100000000E-03 0. -1.
        -11    1    3    3    0    0  0.17071075147E+02 -0.31296948984E+01 -0.58358935143E+01  0.18310495629E+02  0.51100000000E-03 0.  1.
         12    1    3    3    0    0  0.12240977140E+02  0.14818414521E+02 -0.17891003320E+02  0.26258616301E+02  0.00000000000E+00 0. -1.
</event>
<event>
 7    1  0.1381607E-011  0.5052885E+02  0.7816164E-02  0.1300439E+00
        -11   -1    0    0    0    0  0.00000000000E+00  0.00000000000E+00  0.45593999997E+02  0.45594000000E+02  0.51100000000E-03 0.  1.
         11   -1    0    0    0    0 -0.00000000000E+00 -0.00000000000E+00 -0.45593999997E+02  0.45594000000E+02  0.51100000000E-03 0. -1.
    9900012    2    1    2    0    0 -0.26373904401E+02  0.30836712154E+02 -0.25847430594E+01  0.50528849166E+02  0.29999967525E+02 0.  0.
         12    1    1    2    0    0  0.26373904401E+02 -0.30836712154E+02  0.25847430594E+01  0.40659150834E+02  0.00000000000E+00 0. -1.
         11    1    3    3    0    0 -0.47511954803E-01 -0.12873703929E+01  0.12908670506E+01  0.18237099324E+01  0.51100000000E-03 0. -1.
        -11    1    3    3    0    0 -0.10097911802E+01  0.18430406428E+02 -0.70269486171E+01  0.19750381425E+02  0.51100000000E-03 0.  1.
        -12    1    3    3    0    0 -0.25316601266E+02  0.13693676119E+02  0.31513385071E+01  0.28954757808E+02  0.00000000000E+00 0.  1.
</event>
<event>
 7    1  0.1381607E-011  0.5052885E+02  0.7816164E-02  0.1300439E+00
        -11   -1    0    0    0    0  0.00000000000E+00  0.00000000000E+00  0.45593999997E+02  0.45594000000E+02  0.51100000000E-03 0.  1.
         11   -1    0    0    0    0 -0.00000000000E+00 -0.00000000000E+00 -0.45593999997E+02  0.45594000000E+02  0.51100000000E-03 0. -1.
    9900012    2    1    2    0    0  0.63120338674E+01  0.25271663094E+02  0.31219664636E+02  0.50528853587E+02  0.29999980962E+02 0.  0.
         12    1    1    2    0    0 -0.63120338674E+01 -0.25271663094E+02 -0.31219664636E+02  0.40659146413E+02  0.00000000000E+00 0. -1.
         11    1    3    3    0    0 -0.81125369154E+01  0.20160917165E+01  0.79284187403E+01  0.11521185052E+02  0.51100000000E-03 0. -1.
        -11    1    3    3    0    0 -0.31528095772E+01  0.38225742684E+01  0.50880598859E+01  0.71021571323E+01  0.51100000000E-03 0.  1.
         12    1    3    3    0    0  0.17577380360E+02  0.19432997109E+02  0.18203186009E+02  0.31905511403E+02  0.00000000000E+00 0. -1.
</event>
<event>
 7    1  0.1381607E-011  0.5052886E+02  0.7816164E-02  0.1300439E+00
        -11   -1    0    0    0    0  0.00000000000E+00  0.00000000000E+00  0.45593999997E+02  0.45594000000E+02  0.51100000000E-03 0.  1.
         11   -1    0    0    0    0 -0.00000000000E+00 -0.00000000000E+00 -0.45593999997E+02  0.45594000000E+02  0.51100000000E-03 0. -1.
    9900012    2    1    2    0    0 -0.31002054000E+02 -0.79425153187E+01  0.25078964612E+02  0.50528863661E+02  0.30000011585E+02 0.  0.
         12    1    1    2    0    0  0.31002054000E+02  0.79425153187E+01 -0.25078964612E+02  0.40659136339E+02  0.00000000000E+00 0. -1.
         11    1    3    3    0    0 -0.14470898273E+02 -0.27902076892E+01  0.15317312885E+02  0.21255875190E+02  0.51100000000E-03 0. -1.
        -11    1    3    3    0    0  0.42659345550E+01  0.24413852828E+01  0.41499959596E+01  0.64328085975E+01  0.51100000000E-03 0.  1.
         12    1    3    3    0    0 -0.20797090282E+02 -0.75936929124E+01  0.56116557669E+01  0.22840179874E+02  0.00000000000E+00 0. -1.
</event>
<event>
 7    1  0.1381607E-011  0.5052884E+02  0.7816164E-02  0.1300439E+00
        -11   -1    0    0    0    0  0.00000000000E+00  0.00000000000E+00  0.45593999997E+02  0.45594000000E+02  0.51100000000E-03 0. -1.
         11   -1    0    0    0    0 -0.00000000000E+00 -0.00000000000E+00 -0.45593999997E+02  0.45594000000E+02  0.51100000000E-03 0.  1.
    9900012    2    1    2    0    0 -0.26486749622E+02 -0.54129434733E+01 -0.30369711958E+02  0.50528840306E+02  0.29999940595E+02 0.  0.
         12    1    1    2    0    0  0.26486749622E+02  0.54129434733E+01  0.30369711958E+02  0.40659159694E+02  0.00000000000E+00 0. -1.
         11    1    3    3    0    0  0.77398007898E+00  0.51993467798E+01 -0.83362076501E+01  0.98551819033E+01  0.51100000000E-03 0. -1.
        -11    1    3    3    0    0 -0.10634618331E+02 -0.47940986576E+01 -0.19714121658E+02  0.22906878487E+02  0.51100000000E-03 0.  1.
         12    1    3    3    0    0 -0.16626111369E+02 -0.58181915956E+01 -0.23193826500E+01  0.17766779916E+02  0.00000000000E+00 0. -1.
</event>
<event>
 7    1  0.1381607E-011  0.5052885E+02  0.7816164E-02  0.1300439E+00
        -11   -1    0    0    0    0  0.00000000000E+00  0.00000000000E+00  0.45593999997E+02  0.45594000000E+02  0.51100000000E-03 0. -1.
         11   -1    0    0    0    0 -0.00000000000E+00 -0.00000000000E+00 -0.45593999997E+02  0.45594000000E+02  0.51100000000E-03 0.  1.
    9900012    2    1    2    0    0 -0.29900784533E+02  0.16678559219E+02 -0.21930241220E+02  0.50528846870E+02  0.29999960547E+02 0.  0.
         12    1    1    2    0    0  0.29900784533E+02 -0.16678559219E+02  0.21930241220E+02  0.40659153130E+02  0.00000000000E+00 0. -1.
         11    1    3    3    0    0 -0.16472626958E+02  0.15523464188E+02 -0.98665578813E+01  0.24691584477E+02  0.51100000000E-03 0. -1.
        -11    1    3    3    0    0 -0.20051525811E+01  0.54649929833E+01  0.29173321228E+01  0.65113448808E+01  0.51100000000E-03 0.  1.
        -12    1    3    3    0    0 -0.11423004994E+02 -0.43098979528E+01 -0.14981015461E+02  0.19325917513E+02  0.00000000000E+00 0.  1.
</event>
<event>
 7    1  0.1381607E-011  0.5052889E+02  0.7816164E-02  0.1300439E+00
        -11   -1    0    0    0    0  0.00000000000E+00  0.00000000000E+00  0.45593999997E+02  0.45594000000E+02  0.51100000000E-03 0. -1.
         11   -1    0    0    0    0 -0.00000000000E+00 -0.00000000000E+00 -0.45593999997E+02  0.45594000000E+02  0.51100000000E-03 0.  1.
    9900012    2    1    2    0    0  0.43688489735E+01  0.38278250635E+02 -0.12994292638E+02  0.50528893342E+02  0.30000101803E+02 0.  0.
         12    1    1    2    0    0 -0.43688489735E+01 -0.38278250635E+02  0.12994292638E+02  0.40659106658E+02  0.00000000000E+00 0. -1.
         11    1    3    3    0    0  0.34480099094E+01  0.10842185558E+02 -0.56931782722E+01  0.12722186884E+02  0.51100000000E-03 0. -1.
        -11    1    3    3    0    0  0.81490840506E+01  0.28572339064E+02 -0.67510666213E+01  0.30469050383E+02  0.51100000000E-03 0.  1.
         12    1    3    3    0    0 -0.72282449865E+01 -0.11362739866E+01 -0.55004774464E+00  0.73376560753E+01  0.00000000000E+00 0. -1.
</event>
<event>
 7    1  0.1381607E-011  0.5052886E+02  0.7816164E-02  0.1300439E+00
        -11   -1    0    0    0    0  0.00000000000E+00  0.00000000000E+00  0.45593999997E+02  0.45594000000E+02  0.51100000000E-03 0. -1.
         11   -1    0    0    0    0 -0.00000000000E+00 -0.00000000000E+00 -0.45593999997E+02  0.45594000000E+02  0.51100000000E-03 0.  1.
    9900012    2    1    2    0    0 -0.31022982017E+02  0.23789780688E+02 -0.11170796745E+02  0.50528858612E+02  0.29999996238E+02 0.  0.
         12    1    1    2    0    0  0.31022982017E+02 -0.23789780688E+02  0.11170796745E+02  0.40659141388E+02  0.00000000000E+00 0. -1.
         11    1    3    3    0    0 -0.88215992299E+01  0.51151078873E+01 -0.58664229376E+01  0.11764346986E+02  0.51100000000E-03 0. -1.
        -11    1    3    3    0    0 -0.19125034289E+02  0.66809673511E+00  0.16733785456E+01  0.19209723731E+02  0.51100000000E-03 0.  1.
         12    1    3    3    0    0 -0.30763484981E+01  0.18006576066E+02 -0.69777523533E+01  0.19554787895E+02  0.00000000000E+00 0. -1.
</event>
<event>
 7    1  0.1381607E-011  0.5052887E+02  0.7816164E-02  0.1300439E+00
        -11   -1    0    0    0    0  0.00000000000E+00  0.00000000000E+00  0.45593999997E+02  0.45594000000E+02  0.51100000000E-03 0.  1.
         11   -1    0    0    0    0 -0.00000000000E+00 -0.00000000000E+00 -0.45593999997E+02  0.45594000000E+02  0.51100000000E-03 0. -1.
    9900012    2    1    2    0    0  0.30900528088E+02 -0.26050169152E+02  0.44397101518E+01  0.50528868489E+02  0.30000026260E+02 0.  0.
         12    1    1    2    0    0 -0.30900528088E+02  0.26050169152E+02 -0.44397101518E+01  0.40659131511E+02  0.00000000000E+00 0. -1.
         11    1    3    3    0    0  0.71343419726E+01 -0.42354733638E+01 -0.49021503367E+01  0.96368640221E+01  0.51100000000E-03 0. -1.
        -11    1    3    3    0    0  0.32244269605E+00 -0.15530407800E+02  0.39761626343E+01  0.16034569070E+02  0.51100000000E-03 0.  1.
        -12    1    3    3    0    0  0.23443743419E+02 -0.62842879889E+01  0.53656978541E+01  0.24857435397E+02  0.00000000000E+00 0.  1.
</event>
<event>
 7    1  0.1381607E-011  0.5052886E+02  0.7816164E-02  0.1300439E+00
        -11   -1    0    0    0    0  0.00000000000E+00  0.00000000000E+00  0.45593999997E+02  0.45594000000E+02  0.51100000000E-03 0. -1.
         11   -1    0    0    0    0 -0.00000000000E+00 -0.00000000000E+00 -0.45593999997E+02  0.45594000000E+02  0.51100000000E-03 0.  1.
    9900012    2    1    2    0    0  0.27580558816E+02 -0.10914480550E+02 -0.27809219394E+02  0.50528858426E+02  0.29999995671E+02 0.  0.
         12    1    1    2    0    0 -0.27580558816E+02  0.10914480550E+02  0.27809219394E+02  0.40659141574E+02  0.00000000000E+00 0. -1.
         11    1    3    3    0    0  0.28262940756E+01  0.26552427979E+01 -0.10945734530E+02  0.11612379480E+02  0.51100000000E-03 0. -1.
        -11    1    3    3    0    0  0.20102943931E+02 -0.18228436310E-01 -0.13451628258E+02  0.24188323423E+02  0.51100000000E-03 0.  1.
        -12    1    3    3    0    0  0.46513208091E+01 -0.13551494911E+02 -0.34118566061E+01  0.14728155523E+02  0.00000000000E+00 0.  1.
</event>
<event>
 7    1  0.1381607E-011  0.5052886E+02  0.7816164E-02  0.1300439E+00
        -11   -1    0    0    0    0  0.00000000000E+00  0.00000000000E+00  0.45593999997E+02  0.45594000000E+02  0.51100000000E-03 0.  1.
         11   -1    0    0    0    0 -0.00000000000E+00 -0.00000000000E+00 -0.45593999997E+02  0.45594000000E+02  0.51100000000E-03 0. -1.
    9900012    2    1    2    0    0 -0.92522558395E+01  0.80363527282E+01  0.38768266071E+02  0.50528860100E+02  0.30000000760E+02 0.  0.
         12    1    1    2    0    0  0.92522558395E+01 -0.80363527282E+01 -0.38768266071E+02  0.40659139900E+02  0.00000000000E+00 0. -1.
         11    1    3    3    0    0  0.27710238190E+01  0.59717778697E+01  0.98194064075E+01  0.11822074538E+02  0.51100000000E-03 0.  1.
        -11    1    3    3    0    0 -0.93162937885E+01  0.10077212742E+02  0.26595940584E+02  0.29928040404E+02  0.51100000000E-03 0. -1.
         12    1    3    3    0    0 -0.27069858699E+01 -0.80126378836E+01  0.23529190792E+01  0.87787451579E+01  0.00000000000E+00 0. -1.
</event>
<event>
 7    1  0.1381607E-011  0.5052886E+02  0.7816164E-02  0.1300439E+00
        -11   -1    0    0    0    0  0.00000000000E+00  0.00000000000E+00  0.45593999997E+02  0.45594000000E+02  0.51100000000E-03 0. -1.
         11   -1    0    0    0    0 -0.00000000000E+00 -0.00000000000E+00 -0.45593999997E+02  0.45594000000E+02  0.51100000000E-03 0.  1.
    9900012    2    1    2    0    0  0.38731596538E+02 -0.27954227299E+01 -0.12050498399E+02  0.50528862401E+02  0.30000007755E+02 0.  0.
         12    1    1    2    0    0 -0.38731596538E+02  0.27954227299E+01  0.12050498399E+02  0.40659137599E+02  0.00000000000E+00 0. -1.
         11    1    3    3    0    0  0.80137264032E+01  0.54277867424E+01 -0.97870522168E+01  0.13764703816E+02  0.51100000000E-03 0. -1.
        -11    1    3    3    0    0  0.19280729084E+02 -0.64176225423E+01 -0.10189565701E+02  0.22732347933E+02  0.51100000000E-03 0.  1.
        -12    1    3    3    0    0  0.11437141051E+02 -0.18055869301E+01  0.79261195181E+01  0.14031810653E+02  0.00000000000E+00 0.  1.
</event>
<event>
 7    1  0.1381607E-011  0.5052886E+02  0.7816164E-02  0.1300439E+00
        -11   -1    0    0    0    0  0.00000000000E+00  0.00000000000E+00  0.45593999997E+02  0.45594000000E+02  0.51100000000E-03 0.  1.
         11   -1    0    0    0    0 -0.00000000000E+00 -0.00000000000E+00 -0.45593999997E+02  0.45594000000E+02  0.51100000000E-03 0. -1.
    9900012    2    1    2    0    0  0.35531837862E+02  0.25946058837E+01  0.19593941045E+02  0.50528855798E+02  0.29999987685E+02 0.  0.
         12    1    1    2    0    0 -0.35531837862E+02 -0.25946058837E+01 -0.19593941045E+02  0.40659144202E+02  0.00000000000E+00 0. -1.
         11    1    3    3    0    0  0.37063437415E+00 -0.61128900132E+01  0.48664824492E+01  0.78222404618E+01  0.51100000000E-03 0. -1.
        -11    1    3    3    0    0  0.20695730888E+02 -0.35687802868E+01  0.93365953807E+01  0.22983069492E+02  0.51100000000E-03 0.  1.
        -12    1    3    3    0    0  0.14465472600E+02  0.12276276184E+02  0.53908632152E+01  0.19723545845E+02  0.00000000000E+00 0.  1.
</event>
<event>
 7    1  0.1381607E-011  0.5052886E+02  0.7816164E-02  0.1300439E+00
        -11   -1    0    0    0    0  0.00000000000E+00  0.00000000000E+00  0.45593999997E+02  0.45594000000E+02  0.51100000000E-03 0. -1.
         11   -1    0    0    0    0 -0.00000000000E+00 -0.00000000000E+00 -0.45593999997E+02  0.45594000000E+02  0.51100000000E-03 0.  1.
    9900012    2    1    2    0    0 -0.34768870615E+02  0.93422174252E+01 -0.18894816580E+02  0.50528862235E+02  0.30000007248E+02 0.  0.
         12    1    1    2    0    0  0.34768870615E+02 -0.93422174252E+01  0.18894816580E+02  0.40659137765E+02  0.00000000000E+00 0. -1.
         11    1    3    3    0    0 -0.11072030114E+02 -0.74334675211E+01 -0.89802873746E+01  0.16077681793E+02  0.51100000000E-03 0. -1.
        -11    1    3    3    0    0  0.19877178325E+01  0.26940027107E+01  0.45434084477E+00  0.33786237806E+01  0.51100000000E-03 0.  1.
        -12    1    3    3    0    0 -0.25684558333E+02  0.14081682236E+02 -0.10368870050E+02  0.31072556661E+02  0.00000000000E+00 0.  1.
</event>
<event>
 7    1  0.1381607E-011  0.5052886E+02  0.7816164E-02  0.1300439E+00
        -11   -1    0    0    0    0  0.00000000000E+00  0.00000000000E+00  0.45593999997E+02  0.45594000000E+02  0.51100000000E-03 0. -1.
         11   -1    0    0    0    0 -0.00000000000E+00 -0.00000000000E+00 -0.45593999997E+02  0.45594000000E+02  0.51100000000E-03 0.  1.
    9900012    2    1    2    0    0 -0.40159892179E+02  0.42312845388E+01 -0.47375952299E+01  0.50528861824E+02  0.30000005999E+02 0.  0.
         12    1    1    2    0    0  0.40159892179E+02 -0.42312845388E+01  0.47375952299E+01  0.40659138176E+02  0.00000000000E+00 0. -1.
         11    1    3    3    0    0  0.12750854975E+00 -0.39716597327E+01 -0.16098375670E+01  0.42874137560E+01  0.51100000000E-03 0. -1.
        -11    1    3    3    0    0 -0.11199416335E+02  0.90302285871E+01 -0.84126793573E+01  0.16665687169E+02  0.51100000000E-03 0.  1.
        -12    1    3    3    0    0 -0.29087984394E+02 -0.82728431566E+00  0.52849216944E+01  0.29575760899E+02  0.00000000000E+00 0.  1.
</event>
<event>
 7    1  0.1381607E-011  0.5052886E+02  0.7816164E-02  0.1300439E+00
        -11   -1    0    0    0    0  0.00000000000E+00  0.00000000000E+00  0.45593999997E+02  0.45594000000E+02  0.51100000000E-03 0.  1.
         11   -1    0    0    0    0 -0.00000000000E+00 -0.00000000000E+00 -0.45593999997E+02  0.45594000000E+02  0.51100000000E-03 0. -1.
    9900012    2    1    2    0    0  0.32631872098E+02  0.49813399970E+01  0.23738428520E+02  0.50528858182E+02  0.29999994929E+02 0.  0.
         12    1    1    2    0    0 -0.32631872098E+02 -0.49813399970E+01 -0.23738428520E+02  0.40659141818E+02  0.00000000000E+00 0. -1.
         11    1    3    3    0    0  0.15142426947E+02  0.38388159884E+01 -0.18943737454E+01  0.15735890638E+02  0.51100000000E-03 0. -1.
        -11    1    3    3    0    0  0.23393937792E+01  0.68307965596E+01  0.63119162612E+01  0.95902467144E+01  0.51100000000E-03 0.  1.
        -12    1    3    3    0    0  0.15150051372E+02 -0.56882725510E+01  0.19320886005E+02  0.25202720829E+02  0.00000000000E+00 0.  1.
</event>
<event>
 7    1  0.1381607E-011  0.5052886E+02  0.7816164E-02  0.1300439E+00
        -11   -1    0    0    0    0  0.00000000000E+00  0.00000000000E+00  0.45593999997E+02  0.45594000000E+02  0.51100000000E-03 0.  1.
         11   -1    0    0    0    0 -0.00000000000E+00 -0.00000000000E+00 -0.45593999997E+02  0.45594000000E+02  0.51100000000E-03 0. -1.
    9900012    2    1    2    0    0 -0.29363915047E+02  0.26411875321E+02 -0.96611905912E+01  0.50528864883E+02  0.30000015297E+02 0.  0.
         12    1    1    2    0    0  0.29363915047E+02 -0.26411875321E+02  0.96611905912E+01  0.40659135117E+02  0.00000000000E+00 0. -1.
         11    1    3    3    0    0 -0.91152637006E+01  0.91169285663E+01 -0.11252279609E+02  0.17111990401E+02  0.51100000000E-03 0. -1.
        -11    1    3    3    0    0 -0.52553388303E+01 -0.33302797154E+01 -0.38869694572E+01  0.73360671361E+01  0.51100000000E-03 0.  1.
        -12    1    3    3    0    0 -0.14993312516E+02  0.20625226470E+02  0.54780584750E+01  0.26080807346E+02  0.00000000000E+00 0.  1.
</event>
<event>
 7    1  0.1381607E-011  0.5052887E+02  0.7816164E-02  0.1300439E+00
        -11   -1    0    0    0    0  0.00000000000E+00  0.00000000000E+00  0.45593999997E+02  0.45594000000E+02  0.51100000000E-03 0.  1.
         11   -1    0    0    0    0 -0.00000000000E+00 -0.00000000000E+00 -0.45593999997E+02  0.45594000000E+02  0.51100000000E-03 0. -1.
    9900012    2    1    2    0    0  0.29920660347E+02 -0.24826176286E+02 -0.11898734659E+02  0.50528870262E+02  0.30000031648E+02 0.  0.
         12    1    1    2    0    0 -0.29920660347E+02  0.24826176286E+02  0.11898734659E+02  0.40659129738E+02  0.00000000000E+00 0. -1.
         11    1    3    3    0    0 -0.19422034719E+00 -0.22229728179E+01 -0.91369052414E+01  0.94054434953E+01  0.51100000000E-03 0. -1.
        -11    1    3    3    0    0  0.24936731238E+02 -0.91086750284E+01 -0.25191014905E+01  0.26667478287E+02  0.51100000000E-03 0.  1.
        -12    1    3    3    0    0  0.51781494556E+01 -0.13494528440E+02 -0.24272792736E+00  0.14455948479E+02  0.00000000000E+00 0.  1.
</event>
<event>
 7    1  0.1381607E-011  0.5052887E+02  0.7816164E-02  0.1300439E+00
        -11   -1    0    0    0    0  0.00000000000E+00  0.00000000000E+00  0.45593999997E+02  0.45594000000E+02  0.51100000000E-03 0.  1.
         11   -1    0    0    0    0 -0.00000000000E+00 -0.00000000000E+00 -0.45593999997E+02  0.45594000000E+02  0.51100000000E-03 0. -1.
    9900012    2    1    2    0    0  0.28286699038E+02 -0.53726865997E+01  0.28708220819E+02  0.50528867614E+02  0.30000023600E+02 0.  0.
         12    1    1    2    0    0 -0.28286699038E+02  0.53726865997E+01 -0.28708220819E+02  0.40659132386E+02  0.00000000000E+00 0. -1.
         11    1    3    3    0    0 -0.64192085862E+00 -0.29186215292E+01  0.11045238939E+01  0.31859672492E+01  0.51100000000E-03 0. -1.
        -11    1    3    3    0    0  0.20273156968E+02 -0.93844832241E+01  0.28507383735E+02  0.36217956134E+02  0.51100000000E-03 0.  1.
        -12    1    3    3    0    0  0.86554629284E+01  0.69304181537E+01 -0.90368681015E+00  0.11124944231E+02  0.00000000000E+00 0.  1.
</event>
<event>
 7    1  0.1381607E-011  0.5052886E+02  0.7816164E-02  0.1300439E+00
        -11   -1    0    0    0    0  0.00000000000E+00  0.00000000000E+00  0.45593999997E+02  0.45594000000E+02  0.51100000000E-03 0.  1.
         11   -1    0    0    0    0 -0.00000000000E+00 -0.00000000000E+00 -0.45593999997E+02  0.45594000000E+02  0.51100000000E-03 0. -1.
    9900012    2    1    2    0    0  0.25960429382E+02  0.10992767773E+02  0.29298140206E+02  0.50528857651E+02  0.29999993317E+02 0.  0.
         12    1    1    2    0    0 -0.25960429382E+02 -0.10992767773E+02 -0.29298140206E+02  0.40659142349E+02  0.00000000000E+00 0. -1.
         11    1    3    3    0    0  0.14448676216E+02 -0.50662039935E+01  0.27129924787E+01  0.15549630084E+02  0.51100000000E-03 0. -1.
        -11    1    3    3    0    0 -0.17938982304E+01  0.27380738216E+01  0.14646268368E+01  0.35861192320E+01  0.51100000000E-03 0.  1.
        -12    1    3    3    0    0  0.13305651396E+02  0.13320897945E+02  0.25120520890E+02  0.31393108335E+02  0.00000000000E+00 0.  1.
</event>
<event>
 7    1  0.1381607E-011  0.5052885E+02  0.7816164E-02  0.1300439E+00
        -11   -1    0    0    0    0  0.00000000000E+00  0.00000000000E+00  0.45593999997E+02  0.45594000000E+02  0.51100000000E-03 0.  1.
         11   -1    0    0    0    0 -0.00000000000E+00 -0.00000000000E+00 -0.45593999997E+02  0.45594000000E+02  0.51100000000E-03 0. -1.
    9900012    2    1    2    0    0  0.13000168794E+02 -0.19223133570E+02  0.33386122723E+02  0.50528850435E+02  0.29999971381E+02 0.  0.
         12    1    1    2    0    0 -0.13000168794E+02  0.19223133570E+02 -0.33386122723E+02  0.40659149565E+02  0.00000000000E+00 0. -1.
         11    1    3    3    0    0  0.95556681911E+01 -0.31167425683E+00  0.90017128555E+01  0.13131594344E+02  0.51100000000E-03 0. -1.
        -11    1    3    3    0    0 -0.12547982865E+01  0.41265888040E+01  0.14461338027E+01  0.45491270738E+01  0.51100000000E-03 0.  1.
        -12    1    3    3    0    0  0.46992988889E+01 -0.23038048117E+02  0.22938276065E+02  0.32848129017E+02  0.00000000000E+00 0.  1.
</event>
<event>
 7    1  0.1381607E-011  0.5052885E+02  0.7816164E-02  0.1300439E+00
        -11   -1    0    0    0    0  0.00000000000E+00  0.00000000000E+00  0.45593999997E+02  0.45594000000E+02  0.51100000000E-03 0. -1.
         11   -1    0    0    0    0 -0.00000000000E+00 -0.00000000000E+00 -0.45593999997E+02  0.45594000000E+02  0.51100000000E-03 0.  1.
    9900012    2    1    2    0    0 -0.23416965668E+02 -0.13527840161E+02 -0.30361316655E+02  0.50528852327E+02  0.29999977133E+02 0.  0.
         12    1    1    2    0    0  0.23416965668E+02  0.13527840161E+02  0.30361316655E+02  0.40659147673E+02  0.00000000000E+00 0. -1.
         11    1    3    3    0    0  0.57512874124E+00  0.10006136272E+01 -0.12802963766E+01  0.17237052453E+01  0.51100000000E-03 0.  1.
        -11    1    3    3    0    0 -0.28121176089E+02 -0.11820682063E+02 -0.15219655957E+02  0.34090570497E+02  0.51100000000E-03 0. -1.
         12    1    3    3    0    0  0.41290816802E+01 -0.27077717249E+01 -0.13861364321E+02  0.14714576585E+02  0.00000000000E+00 0. -1.
</event>
<event>
 7    1  0.1381607E-011  0.5052891E+02  0.7816164E-02  0.1300439E+00
        -11   -1    0    0    0    0  0.00000000000E+00  0.00000000000E+00  0.45593999997E+02  0.45594000000E+02  0.51100000000E-03 0.  1.
         11   -1    0    0    0    0 -0.00000000000E+00 -0.00000000000E+00 -0.45593999997E+02  0.45594000000E+02  0.51100000000E-03 0. -1.
    9900012    2    1    2    0    0  0.16746585290E+02 -0.28957177362E+02  0.23112666977E+02  0.50528909818E+02  0.30000151882E+02 0.  0.
         12    1    1    2    0    0 -0.16746585290E+02  0.28957177362E+02 -0.23112666977E+02  0.40659090182E+02  0.00000000000E+00 0. -1.
         11    1    3    3    0    0 -0.15543516584E+01  0.38144259013E+01  0.77045727619E+01  0.87364921873E+01  0.51100000000E-03 0. -1.
        -11    1    3    3    0    0  0.62825777308E+01 -0.48017506796E+01  0.60099281805E+01  0.99321110308E+01  0.51100000000E-03 0.  1.
        -12    1    3    3    0    0  0.12018359218E+02 -0.27969852584E+02  0.93981660344E+01  0.31860306600E+02  0.00000000000E+00 0.  1.
</event>
<event>
 7    1  0.1381607E-011  0.5052887E+02  0.7816164E-02  0.1300439E+00
        -11   -1    0    0    0    0  0.00000000000E+00  0.00000000000E+00  0.45593999997E+02  0.45594000000E+02  0.51100000000E-03 0.  1.
         11   -1    0    0    0    0 -0.00000000000E+00 -0.00000000000E+00 -0.45593999997E+02  0.45594000000E+02  0.51100000000E-03 0. -1.
    9900012    2    1    2    0    0 -0.33771268830E+02 -0.20550843612E+02  0.95041627926E+01  0.50528869636E+02  0.30000029746E+02 0.  0.
         12    1    1    2    0    0  0.33771268830E+02  0.20550843612E+02 -0.95041627926E+01  0.40659130364E+02  0.00000000000E+00 0. -1.
         11    1    3    3    0    0  0.13167551096E+01 -0.34402804321E+01  0.52235380654E+01  0.63917699937E+01  0.51100000000E-03 0. -1.
        -11    1    3    3    0    0 -0.13388790008E+02 -0.17715136581E+02  0.27571586583E+01  0.22376051620E+02  0.51100000000E-03 0.  1.
        -12    1    3    3    0    0 -0.21699233931E+02  0.60457340064E+00  0.15234660690E+01  0.21761048023E+02  0.00000000000E+00 0.  1.
</event>
<event>
 7    1  0.1381607E-011  0.5052887E+02  0.7816164E-02  0.1300439E+00
        -11   -1    0    0    0    0  0.00000000000E+00  0.00000000000E+00  0.45593999997E+02  0.45594000000E+02  0.51100000000E-03 0. -1.
         11   -1    0    0    0    0 -0.00000000000E+00 -0.00000000000E+00 -0.45593999997E+02  0.45594000000E+02  0.51100000000E-03 0.  1.
    9900012    2    1    2    0    0 -0.33702202421E+02 -0.10113765031E+02 -0.20372494713E+02  0.50528865332E+02  0.30000016664E+02 0.  0.
         12    1    1    2    0    0  0.33702202421E+02  0.10113765031E+02  0.20372494713E+02  0.40659134668E+02  0.00000000000E+00 0. -1.
         11    1    3    3    0    0 -0.16134427805E+02  0.41685229028E+00 -0.17127149625E+02  0.23533652095E+02  0.51100000000E-03 0. -1.
        -11    1    3    3    0    0 -0.87458321868E+01  0.18175028068E+01  0.44501614857E+01  0.99798213712E+01  0.51100000000E-03 0.  1.
        -12    1    3    3    0    0 -0.88219424292E+01 -0.12348120128E+02 -0.76955065739E+01  0.17015391866E+02  0.00000000000E+00 0.  1.
</event>
<event>
 7    1  0.1381607E-011  0.5052887E+02  0.7816164E-02  0.1300439E+00
        -11   -1    0    0    0    0  0.00000000000E+00  0.00000000000E+00  0.45593999997E+02  0.45594000000E+02  0.51100000000E-03 0. -1.
         11   -1    0    0    0    0 -0.00000000000E+00 -0.00000000000E+00 -0.45593999997E+02  0.45594000000E+02  0.51100000000E-03 0.  1.
    9900012    2    1    2    0    0  0.11449254055E+02  0.59882810060E+01 -0.38551519862E+02  0.50528872962E+02  0.30000039856E+02 0.  0.
         12    1    1    2    0    0 -0.11449254055E+02 -0.59882810060E+01  0.38551519862E+02  0.40659127038E+02  0.00000000000E+00 0. -1.
         11    1    3    3    0    0 -0.31570671747E+01  0.40915368420E+01  0.11476257411E+01  0.52938447255E+01  0.51100000000E-03 0. -1.
        -11    1    3    3    0    0  0.65576583045E+01 -0.69545805016E+01 -0.20402674185E+02  0.22530827471E+02  0.51100000000E-03 0.  1.
        -12    1    3    3    0    0  0.80486629248E+01  0.88513246656E+01 -0.19296471418E+02  0.22704200765E+02  0.00000000000E+00 0.  1.
</event>
<event>
 7    1  0.1381607E-011  0.5052885E+02  0.7816164E-02  0.1300439E+00
        -11   -1    0    0    0    0  0.00000000000E+00  0.00000000000E+00  0.45593999997E+02  0.45594000000E+02  0.51100000000E-03 0.  1.
         11   -1    0    0    0    0 -0.00000000000E+00 -0.00000000000E+00 -0.45593999997E+02  0.45594000000E+02  0.51100000000E-03 0. -1.
    9900012    2    1    2    0    0 -0.38083382646E+02 -0.13085238430E+02  0.56212902539E+01  0.50528850936E+02  0.29999972904E+02 0.  0.
         12    1    1    2    0    0  0.38083382646E+02  0.13085238430E+02 -0.56212902539E+01  0.40659149064E+02  0.00000000000E+00 0. -1.
         11    1    3    3    0    0 -0.12151410251E+02 -0.35518150555E+01 -0.81075047957E+01  0.15033422616E+02  0.51100000000E-03 0. -1.
        -11    1    3    3    0    0 -0.14430463730E+02 -0.12538469154E+02  0.27497930262E+01  0.19313540694E+02  0.51100000000E-03 0.  1.
        -12    1    3    3    0    0 -0.11501508665E+02  0.30050457791E+01  0.10979002023E+02  0.16181887626E+02  0.00000000000E+00 0.  1.
</event>
<event>
 7    1  0.1381607E-011  0.5052881E+02  0.7816164E-02  0.1300439E+00
        -11   -1    0    0    0    0  0.00000000000E+00  0.00000000000E+00  0.45593999997E+02  0.45594000000E+02  0.51100000000E-03 0.  1.
         11   -1    0    0    0    0 -0.00000000000E+00 -0.00000000000E+00 -0.45593999997E+02  0.45594000000E+02  0.51100000000E-03 0. -1.
    9900012    2    1    2    0    0  0.97101944639E+01 -0.43742236938E+01  0.39239623722E+02  0.50528809412E+02  0.29999846688E+02 0.  0.
         12    1    1    2    0    0 -0.97101944639E+01  0.43742236938E+01 -0.39239623722E+02  0.40659190588E+02  0.00000000000E+00 0. -1.
         11    1    3    3    0    0  0.30375894324E+01  0.45686010018E+01  0.45247024075E+01  0.71113990755E+01  0.51100000000E-03 0. -1.
        -11    1    3    3    0    0 -0.19423448431E+01 -0.35930741263E+01  0.32854356890E+02  0.33107274912E+02  0.51100000000E-03 0.  1.
         12    1    3    3    0    0  0.86149498746E+01 -0.53497505692E+01  0.18605644240E+01  0.10310135424E+02  0.00000000000E+00 0. -1.
</event>
<event>
 7    1  0.1381607E-011  0.5052886E+02  0.7816164E-02  0.1300439E+00
        -11   -1    0    0    0    0  0.00000000000E+00  0.00000000000E+00  0.45593999997E+02  0.45594000000E+02  0.51100000000E-03 0.  1.
         11   -1    0    0    0    0 -0.00000000000E+00 -0.00000000000E+00 -0.45593999997E+02  0.45594000000E+02  0.51100000000E-03 0. -1.
    9900012    2    1    2    0    0 -0.32605612534E+01  0.13075880225E+02  0.38360862224E+02  0.50528860143E+02  0.30000000890E+02 0.  0.
         12    1    1    2    0    0  0.32605612534E+01 -0.13075880225E+02 -0.38360862224E+02  0.40659139857E+02  0.00000000000E+00 0. -1.
         11    1    3    3    0    0  0.11914002507E+01  0.66637051832E+01  0.55227307970E+01  0.87364155718E+01  0.51100000000E-03 0. -1.
        -11    1    3    3    0    0 -0.12869196333E+02  0.53252369842E+01  0.92382511985E+01  0.16712858782E+02  0.51100000000E-03 0.  1.
        -12    1    3    3    0    0  0.84172348293E+01  0.10869380575E+01  0.23599880229E+02  0.25079585789E+02  0.00000000000E+00 0.  1.
</event>
<event>
 7    1  0.1381607E-011  0.5052886E+02  0.7816164E-02  0.1300439E+00
        -11   -1    0    0    0    0  0.00000000000E+00  0.00000000000E+00  0.45593999997E+02  0.45594000000E+02  0.51100000000E-03 0. -1.
         11   -1    0    0    0    0 -0.00000000000E+00 -0.00000000000E+00 -0.45593999997E+02  0.45594000000E+02  0.51100000000E-03 0.  1.
    9900012    2    1    2    0    0 -0.29535143594E+01  0.38366087936E+02 -0.13133379300E+02  0.50528860776E+02  0.30000002816E+02 0.  0.
         12    1    1    2    0    0  0.29535143594E+01 -0.38366087936E+02  0.13133379300E+02  0.40659139224E+02  0.00000000000E+00 0. -1.
         11    1    3    3    0    0  0.53190878526E+01  0.20908429529E+01  0.71069414539E+00  0.57592886945E+01  0.51100000000E-03 0. -1.
        -11    1    3    3    0    0 -0.50383049607E+00  0.31347802761E+02 -0.45287399968E+01  0.31677248450E+02  0.51100000000E-03 0.  1.
         12    1    3    3    0    0 -0.77687717159E+01  0.49274422216E+01 -0.93153334490E+01  0.13092323632E+02  0.00000000000E+00 0. -1.
</event>
<event>
 7    1  0.1381607E-011  0.5052887E+02  0.7816164E-02  0.1300439E+00
        -11   -1    0    0    0    0  0.00000000000E+00  0.00000000000E+00  0.45593999997E+02  0.45594000000E+02  0.51100000000E-03 0.  1.
         11   -1    0    0    0    0 -0.00000000000E+00 -0.00000000000E+00 -0.45593999997E+02  0.45594000000E+02  0.51100000000E-03 0. -1.
    9900012    2    1    2    0    0  0.30066028296E+02 -0.19836978698E+02  0.18859835981E+02  0.50528865791E+02  0.30000018058E+02 0.  0.
         12    1    1    2    0    0 -0.30066028296E+02  0.19836978698E+02 -0.18859835981E+02  0.40659134209E+02  0.00000000000E+00 0. -1.
         11    1    3    3    0    0  0.20812865972E+02 -0.97480347918E+01  0.12814128382E+02  0.26313522355E+02  0.51100000000E-03 0.  1.
        -11    1    3    3    0    0  0.42787416298E+01 -0.52080563932E+01  0.12827852223E+02  0.14490868650E+02  0.51100000000E-03 0. -1.
         12    1    3    3    0    0  0.49744206946E+01 -0.48808875129E+01 -0.67821446237E+01  0.97244747857E+01  0.00000000000E+00 0. -1.
</event>
<event>
 7    1  0.1381607E-011  0.5052886E+02  0.7816164E-02  0.1300439E+00
        -11   -1    0    0    0    0  0.00000000000E+00  0.00000000000E+00  0.45593999997E+02  0.45594000000E+02  0.51100000000E-03 0. -1.
         11   -1    0    0    0    0 -0.00000000000E+00 -0.00000000000E+00 -0.45593999997E+02  0.45594000000E+02  0.51100000000E-03 0.  1.
    9900012    2    1    2    0    0 -0.15363640759E+02  0.35628181956E+02  0.12155529608E+02  0.50528859491E+02  0.29999998909E+02 0.  0.
         12    1    1    2    0    0  0.15363640759E+02 -0.35628181956E+02 -0.12155529608E+02  0.40659140509E+02  0.00000000000E+00 0. -1.
         11    1    3    3    0    0 -0.55888791061E-01  0.43198916019E+01  0.48779687510E+01  0.65160698589E+01  0.51100000000E-03 0. -1.
        -11    1    3    3    0    0 -0.19197839194E+02  0.11767513001E+02  0.84583941580E+01  0.24053603138E+02  0.51100000000E-03 0.  1.
        -12    1    3    3    0    0  0.38900872258E+01  0.19540777354E+02 -0.11808333013E+01  0.19959186494E+02  0.00000000000E+00 0.  1.
</event>
<event>
 7    1  0.1381607E-011  0.5052886E+02  0.7816164E-02  0.1300439E+00
        -11   -1    0    0    0    0  0.00000000000E+00  0.00000000000E+00  0.45593999997E+02  0.45594000000E+02  0.51100000000E-03 0.  1.
         11   -1    0    0    0    0 -0.00000000000E+00 -0.00000000000E+00 -0.45593999997E+02  0.45594000000E+02  0.51100000000E-03 0. -1.
    9900012    2    1    2    0    0 -0.18861926717E+01 -0.39248235682E+02 -0.10449105753E+02  0.50528861568E+02  0.30000005223E+02 0.  0.
         12    1    1    2    0    0  0.18861926717E+01  0.39248235682E+02  0.10449105753E+02  0.40659138432E+02  0.00000000000E+00 0. -1.
         11    1    3    3    0    0  0.59647957621E+01 -0.10432427173E+01 -0.58142711050E+01  0.83948134341E+01  0.51100000000E-03 0. -1.
        -11    1    3    3    0    0  0.59883171899E+00 -0.27046783530E+01  0.37780007587E+01  0.46847811490E+01  0.51100000000E-03 0.  1.
        -12    1    3    3    0    0 -0.84498201527E+01 -0.35500314612E+02 -0.84128354068E+01  0.37449266985E+02  0.00000000000E+00 0.  1.
</event>
<event>
 7    1  0.1381607E-011  0.5052886E+02  0.7816164E-02  0.1300439E+00
        -11   -1    0    0    0    0  0.00000000000E+00  0.00000000000E+00  0.45593999997E+02  0.45594000000E+02  0.51100000000E-03 0.  1.
         11   -1    0    0    0    0 -0.00000000000E+00 -0.00000000000E+00 -0.45593999997E+02  0.45594000000E+02  0.51100000000E-03 0. -1.
    9900012    2    1    2    0    0 -0.37104222592E+02  0.16071197315E+02 -0.42613250613E+01  0.50528860701E+02  0.30000002586E+02 0.  0.
         12    1    1    2    0    0  0.37104222592E+02 -0.16071197315E+02  0.42613250613E+01  0.40659139299E+02  0.00000000000E+00 0. -1.
         11    1    3    3    0    0 -0.32493784678E+02  0.60328094026E+01 -0.89011007589E+01  0.34226750167E+02  0.51100000000E-03 0.  1.
        -11    1    3    3    0    0 -0.44622230665E+00 -0.15795525512E+01 -0.17542905047E+01  0.24024229530E+01  0.51100000000E-03 0. -1.
        -12    1    3    3    0    0 -0.41642156068E+01  0.11617940464E+02  0.63940662023E+01  0.13899687581E+02  0.00000000000E+00 0.  1.
</event>
<event>
 7    1  0.1381607E-011  0.5052886E+02  0.7816164E-02  0.1300439E+00
        -11   -1    0    0    0    0  0.00000000000E+00  0.00000000000E+00  0.45593999997E+02  0.45594000000E+02  0.51100000000E-03 0.  1.
         11   -1    0    0    0    0 -0.00000000000E+00 -0.00000000000E+00 -0.45593999997E+02  0.45594000000E+02  0.51100000000E-03 0. -1.
    9900012    2    1    2    0    0  0.37608714123E+02  0.10216398587E+02  0.11592057432E+02  0.50528856212E+02  0.29999988942E+02 0.  0.
         12    1    1    2    0    0 -0.37608714123E+02 -0.10216398587E+02 -0.11592057432E+02  0.40659143788E+02  0.00000000000E+00 0. -1.
         11    1    3    3    0    0  0.13373941010E+02 -0.15198387434E+01  0.33518998087E+01  0.13871100913E+02  0.51100000000E-03 0. -1.
        -11    1    3    3    0    0  0.26541167694E+02  0.15663376317E+02  0.53930665767E+01  0.31286740123E+02  0.51100000000E-03 0.  1.
         12    1    3    3    0    0 -0.23063945812E+01 -0.39271389867E+01  0.28470910468E+01  0.53710151753E+01  0.00000000000E+00 0. -1.
</event>
<event>
 7    1  0.1381607E-011  0.5052886E+02  0.7816164E-02  0.1300439E+00
        -11   -1    0    0    0    0  0.00000000000E+00  0.00000000000E+00  0.45593999997E+02  0.45594000000E+02  0.51100000000E-03 0.  1.
         11   -1    0    0    0    0 -0.00000000000E+00 -0.00000000000E+00 -0.45593999997E+02  0.45594000000E+02  0.51100000000E-03 0. -1.
    9900012    2    1    2    0    0 -0.11130892809E+02  0.32017249574E+02  0.22453613234E+02  0.50528858441E+02  0.29999995718E+02 0.  0.
         12    1    1    2    0    0  0.11130892809E+02 -0.32017249574E+02 -0.22453613234E+02  0.40659141559E+02  0.00000000000E+00 0. -1.
         11    1    3    3    0    0  0.28184922512E+01  0.15164894619E+02  0.14248853586E+02  0.20998756062E+02  0.51100000000E-03 0. -1.
        -11    1    3    3    0    0 -0.11771624146E+02  0.66351364946E+01  0.12335386181E+02  0.18296391006E+02  0.51100000000E-03 0.  1.
         12    1    3    3    0    0 -0.21777609144E+01  0.10217218461E+02 -0.41306265329E+01  0.11233711374E+02  0.00000000000E+00 0. -1.
</event>
<event>
 7    1  0.1381607E-011  0.5052885E+02  0.7816164E-02  0.1300439E+00
        -11   -1    0    0    0    0  0.00000000000E+00  0.00000000000E+00  0.45593999997E+02  0.45594000000E+02  0.51100000000E-03 0. -1.
         11   -1    0    0    0    0 -0.00000000000E+00 -0.00000000000E+00 -0.45593999997E+02  0.45594000000E+02  0.51100000000E-03 0.  1.
    9900012    2    1    2    0    0  0.17416733772E+02 -0.16696457618E+02 -0.32726935843E+02  0.50528847993E+02  0.29999963958E+02 0.  0.
         12    1    1    2    0    0 -0.17416733772E+02  0.16696457618E+02  0.32726935843E+02  0.40659152007E+02  0.00000000000E+00 0. -1.
         11    1    3    3    0    0  0.63553628854E+01 -0.49009181889E+01 -0.81234721875E+00  0.80665695785E+01  0.51100000000E-03 0. -1.
        -11    1    3    3    0    0  0.18157014820E+02 -0.93737901446E+01 -0.24707286315E+02  0.32062363078E+02  0.51100000000E-03 0.  1.
         12    1    3    3    0    0 -0.70956439327E+01 -0.24217492842E+01 -0.72073023090E+01  0.10399915336E+02  0.00000000000E+00 0. -1.
</event>
<event>
 7    1  0.1381607E-011  0.5052887E+02  0.7816164E-02  0.1300439E+00
        -11   -1    0    0    0    0  0.00000000000E+00  0.00000000000E+00  0.45593999997E+02  0.45594000000E+02  0.51100000000E-03 0.  1.
         11   -1    0    0    0    0 -0.00000000000E+00 -0.00000000000E+00 -0.45593999997E+02  0.45594000000E+02  0.51100000000E-03 0. -1.
    9900012    2    1    2    0    0 -0.74787636095E+01 -0.13712779950E+02  0.37539219195E+02  0.50528865518E+02  0.30000017228E+02 0.  0.
         12    1    1    2    0    0  0.74787636095E+01  0.13712779950E+02 -0.37539219195E+02  0.40659134482E+02  0.00000000000E+00 0. -1.
         11    1    3    3    0    0 -0.11619359226E+02 -0.39021018916E+01  0.11921229024E+02  0.17098292596E+02  0.51100000000E-03 0. -1.
        -11    1    3    3    0    0 -0.23131092762E+00 -0.50644675294E+00  0.22751378849E+02  0.22758190456E+02  0.51100000000E-03 0.  1.
        -12    1    3    3    0    0  0.43719065442E+01 -0.93042313058E+01  0.28666113219E+01  0.10672382466E+02  0.00000000000E+00 0.  1.
</event>
<event>
 7    1  0.1381607E-011  0.5052887E+02  0.7816164E-02  0.1300439E+00
        -11   -1    0    0    0    0  0.00000000000E+00  0.00000000000E+00  0.45593999997E+02  0.45594000000E+02  0.51100000000E-03 0.  1.
         11   -1    0    0    0    0 -0.00000000000E+00 -0.00000000000E+00 -0.45593999997E+02  0.45594000000E+02  0.51100000000E-03 0. -1.
    9900012    2    1    2    0    0  0.34727577563E+02 -0.19000539528E+02  0.92811663496E+01  0.50528865792E+02  0.30000018061E+02 0.  0.
         12    1    1    2    0    0 -0.34727577563E+02  0.19000539528E+02 -0.92811663496E+01  0.40659134208E+02  0.00000000000E+00 0. -1.
         11    1    3    3    0    0  0.15950987935E+02 -0.12765326844E+02  0.29271109699E+01  0.20638690957E+02  0.51100000000E-03 0.  1.
        -11    1    3    3    0    0  0.12636326082E+02 -0.89682521956E+01 -0.53505538742E+01  0.16393130004E+02  0.51100000000E-03 0. -1.
        -12    1    3    3    0    0  0.61402635457E+01  0.27330395116E+01  0.11704609254E+02  0.13497044831E+02  0.00000000000E+00 0.  1.
</event>
<event>
 7    1  0.1381607E-011  0.5052887E+02  0.7816164E-02  0.1300439E+00
        -11   -1    0    0    0    0  0.00000000000E+00  0.00000000000E+00  0.45593999997E+02  0.45594000000E+02  0.51100000000E-03 0. -1.
         11   -1    0    0    0    0 -0.00000000000E+00 -0.00000000000E+00 -0.45593999997E+02  0.45594000000E+02  0.51100000000E-03 0.  1.
    9900012    2    1    2    0    0  0.18290261971E+02  0.12885499749E+02 -0.33949890630E+02  0.50528869899E+02  0.30000030546E+02 0.  0.
         12    1    1    2    0    0 -0.18290261971E+02 -0.12885499749E+02  0.33949890630E+02  0.40659130101E+02  0.00000000000E+00 0. -1.
         11    1    3    3    0    0  0.14101506120E+02  0.56249667139E+01 -0.33168450759E+01  0.15540083233E+02  0.51100000000E-03 0. -1.
        -11    1    3    3    0    0  0.70599256221E+01 -0.56141158143E+00 -0.21450275080E+02  0.22589201712E+02  0.51100000000E-03 0.  1.
        -12    1    3    3    0    0 -0.28711697708E+01  0.78219446167E+01 -0.91827704743E+01  0.12399584954E+02  0.00000000000E+00 0.  1.
</event>
<event>
 7    1  0.1381607E-011  0.5052876E+02  0.7816164E-02  0.1300439E+00
        -11   -1    0    0    0    0  0.00000000000E+00  0.00000000000E+00  0.45593999997E+02  0.45594000000E+02  0.51100000000E-03 0.  1.
         11   -1    0    0    0    0 -0.00000000000E+00 -0.00000000000E+00 -0.45593999997E+02  0.45594000000E+02  0.51100000000E-03 0. -1.
    9900012    2    1    2    0    0 -0.10721393086E+02 -0.33609335327E+02  0.20214794963E+02  0.50528762105E+02  0.29999702893E+02 0.  0.
         12    1    1    2    0    0  0.10721393086E+02  0.33609335327E+02 -0.20214794963E+02  0.40659237895E+02  0.00000000000E+00 0. -1.
         11    1    3    3    0    0  0.15192884422E+01 -0.51259866712E-02 -0.10307576678E+00  0.15227897166E+01  0.51100000000E-03 0.  1.
        -11    1    3    3    0    0 -0.53553260904E+01  0.89543430300E+00 -0.35556929451E+01  0.64903214640E+01  0.51100000000E-03 0. -1.
        -12    1    3    3    0    0 -0.68853554376E+01 -0.34499643643E+02  0.23873563675E+02  0.42515650924E+02  0.00000000000E+00 0.  1.
</event>
<event>
 7    1  0.1381607E-011  0.5052886E+02  0.7816164E-02  0.1300439E+00
        -11   -1    0    0    0    0  0.00000000000E+00  0.00000000000E+00  0.45593999997E+02  0.45594000000E+02  0.51100000000E-03 0.  1.
         11   -1    0    0    0    0 -0.00000000000E+00 -0.00000000000E+00 -0.45593999997E+02  0.45594000000E+02  0.51100000000E-03 0. -1.
    9900012    2    1    2    0    0  0.32378479283E+02 -0.20396741034E+01  0.24507955278E+02  0.50528855112E+02  0.29999985598E+02 0.  0.
         12    1    1    2    0    0 -0.32378479283E+02  0.20396741034E+01 -0.24507955278E+02  0.40659144888E+02  0.00000000000E+00 0. -1.
         11    1    3    3    0    0  0.15431904860E+01 -0.24572305968E+01  0.11721812349E+01  0.31294453487E+01  0.51100000000E-03 0. -1.
        -11    1    3    3    0    0 -0.35722832932E+01 -0.39105354511E+01  0.77313918176E+01  0.93716548773E+01  0.51100000000E-03 0.  1.
         12    1    3    3    0    0  0.34407572090E+02  0.43280919445E+01  0.15604382226E+02  0.38027754886E+02  0.00000000000E+00 0. -1.
</event>
<event>
 7    1  0.1381607E-011  0.5052887E+02  0.7816164E-02  0.1300439E+00
        -11   -1    0    0    0    0  0.00000000000E+00  0.00000000000E+00  0.45593999997E+02  0.45594000000E+02  0.51100000000E-03 0. -1.
         11   -1    0    0    0    0 -0.00000000000E+00 -0.00000000000E+00 -0.45593999997E+02  0.45594000000E+02  0.51100000000E-03 0.  1.
    9900012    2    1    2    0    0 -0.12693898026E+02  0.36503904082E+02 -0.12629139383E+02  0.50528865456E+02  0.30000017040E+02 0.  0.
         12    1    1    2    0    0  0.12693898026E+02 -0.36503904082E+02  0.12629139383E+02  0.40659134544E+02  0.00000000000E+00 0. -1.
         11    1    3    3    0    0 -0.42399615448E+01  0.24828998992E+02  0.42474082162E+01  0.25544019685E+02  0.51100000000E-03 0. -1.
        -11    1    3    3    0    0 -0.18152262435E+01  0.59492216147E+01 -0.29328642015E+00  0.62269014222E+01  0.51100000000E-03 0.  1.
        -12    1    3    3    0    0 -0.66387102376E+01  0.57256834756E+01 -0.16583261179E+02  0.18757944349E+02  0.00000000000E+00 0.  1.
</event>
<event>
 7    1  0.1381607E-011  0.5052885E+02  0.7816164E-02  0.1300439E+00
        -11   -1    0    0    0    0  0.00000000000E+00  0.00000000000E+00  0.45593999997E+02  0.45594000000E+02  0.51100000000E-03 0. -1.
         11   -1    0    0    0    0 -0.00000000000E+00 -0.00000000000E+00 -0.45593999997E+02  0.45594000000E+02  0.51100000000E-03 0.  1.
    9900012    2    1    2    0    0 -0.26994282447E+02  0.29173055900E+02 -0.85678253030E+01  0.50528854586E+02  0.29999984000E+02 0.  0.
         12    1    1    2    0    0  0.26994282447E+02 -0.29173055900E+02  0.85678253030E+01  0.40659145414E+02  0.00000000000E+00 0. -1.
         11    1    3    3    0    0 -0.74786988156E+01  0.99178524465E+01  0.34125581711E+01  0.12881781191E+02  0.51100000000E-03 0.  1.
        -11    1    3    3    0    0 -0.14161293929E+02  0.24420010117E+02 -0.10009302918E+02  0.29951048146E+02  0.51100000000E-03 0. -1.
         12    1    3    3    0    0 -0.53542897021E+01 -0.51648066632E+01 -0.19710805558E+01  0.76960252494E+01  0.00000000000E+00 0. -1.
</event>
<event>
 7    1  0.1381607E-011  0.5052884E+02  0.7816164E-02  0.1300439E+00
        -11   -1    0    0    0    0  0.00000000000E+00  0.00000000000E+00  0.45593999997E+02  0.45594000000E+02  0.51100000000E-03 0. -1.
         11   -1    0    0    0    0 -0.00000000000E+00 -0.00000000000E+00 -0.45593999997E+02  0.45594000000E+02  0.51100000000E-03 0.  1.
    9900012    2    1    2    0    0  0.77663648425E+01  0.32945675917E+01 -0.39774317020E+02  0.50528844907E+02  0.29999954579E+02 0.  0.
         12    1    1    2    0    0 -0.77663648425E+01 -0.32945675917E+01  0.39774317020E+02  0.40659155093E+02  0.00000000000E+00 0. -1.
         11    1    3    3    0    0  0.10483933638E+02  0.78149744488E+01 -0.30038742782E+02  0.32761452323E+02  0.51100000000E-03 0. -1.
        -11    1    3    3    0    0  0.53872831096E+01 -0.56137928886E+00 -0.16724550479E+01  0.56687804824E+01  0.51100000000E-03 0.  1.
        -12    1    3    3    0    0 -0.81048519055E+01 -0.39590275683E+01 -0.80631191905E+01  0.12098612101E+02  0.00000000000E+00 0.  1.
</event>
<event>
 7    1  0.1381607E-011  0.5052884E+02  0.7816164E-02  0.1300439E+00
        -11   -1    0    0    0    0  0.00000000000E+00  0.00000000000E+00  0.45593999997E+02  0.45594000000E+02  0.51100000000E-03 0.  1.
         11   -1    0    0    0    0 -0.00000000000E+00 -0.00000000000E+00 -0.45593999997E+02  0.45594000000E+02  0.51100000000E-03 0. -1.
    9900012    2    1    2    0    0 -0.15429182713E+02  0.28034065973E+02  0.25083837603E+02  0.50528838141E+02  0.29999934013E+02 0.  0.
         12    1    1    2    0    0  0.15429182713E+02 -0.28034065973E+02 -0.25083837603E+02  0.40659161859E+02  0.00000000000E+00 0. -1.
         11    1    3    3    0    0  0.53267361258E+01  0.22236990238E+01  0.54876514200E+01  0.79645008300E+01  0.51100000000E-03 0. -1.
        -11    1    3    3    0    0  0.14514202520E+01  0.21569191751E+01  0.75006489460E+01  0.79384290605E+01  0.51100000000E-03 0.  1.
        -12    1    3    3    0    0 -0.22207339091E+02  0.23653447774E+02  0.12095537237E+02  0.34625908250E+02  0.00000000000E+00 0.  1.
</event>
<event>
 7    1  0.1381607E-011  0.5052883E+02  0.7816164E-02  0.1300439E+00
        -11   -1    0    0    0    0  0.00000000000E+00  0.00000000000E+00  0.45593999997E+02  0.45594000000E+02  0.51100000000E-03 0.  1.
         11   -1    0    0    0    0 -0.00000000000E+00 -0.00000000000E+00 -0.45593999997E+02  0.45594000000E+02  0.51100000000E-03 0. -1.
    9900012    2    1    2    0    0  0.25222902340E+02  0.91830297074E+01  0.30539243539E+02  0.50528828427E+02  0.29999904486E+02 0.  0.
         12    1    1    2    0    0 -0.25222902340E+02 -0.91830297074E+01 -0.30539243539E+02  0.40659171573E+02  0.00000000000E+00 0. -1.
         11    1    3    3    0    0  0.15768902976E+02  0.15869190408E+02  0.14170925798E+02  0.26482157078E+02  0.51100000000E-03 0. -1.
        -11    1    3    3    0    0  0.58384197665E+01  0.82869162986E+00  0.14280166889E+02  0.15449823359E+02  0.51100000000E-03 0.  1.
         12    1    3    3    0    0  0.36155795978E+01 -0.75148523308E+01  0.20881508526E+01  0.85968479900E+01  0.00000000000E+00 0. -1.
</event>
<event>
 7    1  0.1381607E-011  0.5052888E+02  0.7816164E-02  0.1300439E+00
        -11   -1    0    0    0    0  0.00000000000E+00  0.00000000000E+00  0.45593999997E+02  0.45594000000E+02  0.51100000000E-03 0.  1.
         11   -1    0    0    0    0 -0.00000000000E+00 -0.00000000000E+00 -0.45593999997E+02  0.45594000000E+02  0.51100000000E-03 0. -1.
    9900012    2    1    2    0    0  0.19854131903E+02  0.13184609230E+02  0.32941520643E+02  0.50528877328E+02  0.30000053127E+02 0.  0.
         12    1    1    2    0    0 -0.19854131903E+02 -0.13184609230E+02 -0.32941520643E+02  0.40659122672E+02  0.00000000000E+00 0. -1.
         11    1    3    3    0    0 -0.36695906847E+01  0.11182603089E+01  0.14576730934E+02  0.15073071581E+02  0.51100000000E-03 0. -1.
        -11    1    3    3    0    0  0.12240990727E+02  0.11552625248E+02  0.42155714820E+01  0.17351543081E+02  0.51100000000E-03 0.  1.
        -12    1    3    3    0    0  0.11282731861E+02  0.51372367296E+00  0.14149218227E+02  0.18104262666E+02  0.00000000000E+00 0.  1.
</event>
<event>
 7    1  0.1381607E-011  0.5052887E+02  0.7816164E-02  0.1300439E+00
        -11   -1    0    0    0    0  0.00000000000E+00  0.00000000000E+00  0.45593999997E+02  0.45594000000E+02  0.51100000000E-03 0. -1.
         11   -1    0    0    0    0 -0.00000000000E+00 -0.00000000000E+00 -0.45593999997E+02  0.45594000000E+02  0.51100000000E-03 0.  1.
    9900012    2    1    2    0    0  0.28340408814E+02 -0.25653788367E+02 -0.13851690764E+02  0.50528868598E+02  0.30000026590E+02 0.  0.
         12    1    1    2    0    0 -0.28340408814E+02  0.25653788367E+02  0.13851690764E+02  0.40659131402E+02  0.00000000000E+00 0. -1.
         11    1    3    3    0    0  0.16029510994E+02 -0.84794471440E+01 -0.16052238600E+02  0.24218187606E+02  0.51100000000E-03 0. -1.
        -11    1    3    3    0    0  0.56347639775E+01 -0.11702775385E+02 -0.60871338427E+01  0.14344292087E+02  0.51100000000E-03 0.  1.
         12    1    3    3    0    0  0.66761338424E+01 -0.54715658381E+01  0.82876816791E+01  0.11966388905E+02  0.00000000000E+00 0. -1.
</event>
<event>
 7    1  0.1381607E-011  0.5052889E+02  0.7816164E-02  0.1300439E+00
        -11   -1    0    0    0    0  0.00000000000E+00  0.00000000000E+00  0.45593999997E+02  0.45594000000E+02  0.51100000000E-03 0. -1.
         11   -1    0    0    0    0 -0.00000000000E+00 -0.00000000000E+00 -0.45593999997E+02  0.45594000000E+02  0.51100000000E-03 0.  1.
    9900012    2    1    2    0    0  0.27653280924E+02  0.27558502021E+02 -0.11357313433E+02  0.50528886041E+02  0.30000079610E+02 0.  0.
         12    1    1    2    0    0 -0.27653280924E+02 -0.27558502021E+02  0.11357313433E+02  0.40659113959E+02  0.00000000000E+00 0. -1.
         11    1    3    3    0    0 -0.16813825850E+01  0.48634731018E+01 -0.22339615133E+01  0.56099021661E+01  0.51100000000E-03 0. -1.
        -11    1    3    3    0    0  0.93024177142E+01  0.42728491568E+01  0.78011226553E+01  0.12870498444E+02  0.51100000000E-03 0.  1.
        -12    1    3    3    0    0  0.20032245795E+02  0.18422179762E+02 -0.16924474575E+02  0.32048485431E+02  0.00000000000E+00 0.  1.
</event>
<event>
 7    1  0.1381607E-011  0.5052886E+02  0.7816164E-02  0.1300439E+00
        -11   -1    0    0    0    0  0.00000000000E+00  0.00000000000E+00  0.45593999997E+02  0.45594000000E+02  0.51100000000E-03 0.  1.
         11   -1    0    0    0    0 -0.00000000000E+00 -0.00000000000E+00 -0.45593999997E+02  0.45594000000E+02  0.51100000000E-03 0. -1.
    9900012    2    1    2    0    0  0.30036278356E+02 -0.18949235853E+01  0.27338555630E+02  0.50528863551E+02  0.30000011249E+02 0.  0.
         12    1    1    2    0    0 -0.30036278356E+02  0.18949235853E+01 -0.27338555630E+02  0.40659136449E+02  0.00000000000E+00 0. -1.
         11    1    3    3    0    0  0.23442522118E+01  0.59011213761E+01  0.56679732485E+01  0.85114436458E+01  0.51100000000E-03 0. -1.
        -11    1    3    3    0    0 -0.28020907851E+01  0.11862814104E+01 -0.72895762560E+00  0.31289544314E+01  0.51100000000E-03 0.  1.
         12    1    3    3    0    0  0.30494116930E+02 -0.89823263718E+01  0.22399540007E+02  0.38888465473E+02  0.00000000000E+00 0. -1.
</event>
<event>
 7    1  0.1381607E-011  0.5052883E+02  0.7816164E-02  0.1300439E+00
        -11   -1    0    0    0    0  0.00000000000E+00  0.00000000000E+00  0.45593999997E+02  0.45594000000E+02  0.51100000000E-03 0.  1.
         11   -1    0    0    0    0 -0.00000000000E+00 -0.00000000000E+00 -0.45593999997E+02  0.45594000000E+02  0.51100000000E-03 0. -1.
    9900012    2    1    2    0    0 -0.21677431492E+02 -0.23014939846E+02  0.25565006561E+02  0.50528830645E+02  0.29999911228E+02 0.  0.
         12    1    1    2    0    0  0.21677431492E+02  0.23014939846E+02 -0.25565006561E+02  0.40659169355E+02  0.00000000000E+00 0. -1.
         11    1    3    3    0    0 -0.93897286927E+01 -0.15522685467E+02  0.50055857115E+01  0.18819581760E+02  0.51100000000E-03 0.  1.
        -11    1    3    3    0    0 -0.73564971925E+01 -0.77565163510E+00 -0.19977625265E+01  0.76622935063E+01  0.51100000000E-03 0. -1.
        -12    1    3    3    0    0 -0.49312056069E+01 -0.67166027433E+01  0.22557183376E+02  0.24046955379E+02  0.00000000000E+00 0.  1.
</event>
<event>
 7    1  0.1381607E-011  0.5052898E+02  0.7816164E-02  0.1300438E+00
        -11   -1    0    0    0    0  0.00000000000E+00  0.00000000000E+00  0.45593999997E+02  0.45594000000E+02  0.51100000000E-03 0. -1.
         11   -1    0    0    0    0 -0.00000000000E+00 -0.00000000000E+00 -0.45593999997E+02  0.45594000000E+02  0.51100000000E-03 0.  1.
    9900012    2    1    2    0    0 -0.74481312827E+01  0.20065816065E+02 -0.34569408859E+02  0.50528983007E+02  0.30000374346E+02 0.  0.
         12    1    1    2    0    0  0.74481312827E+01 -0.20065816065E+02  0.34569408859E+02  0.40659016993E+02  0.00000000000E+00 0. -1.
         11    1    3    3    0    0 -0.91282163145E+01 -0.38836153061E+01 -0.19175966634E+02  0.21589916571E+02  0.51100000000E-03 0.  1.
        -11    1    3    3    0    0 -0.57675378054E+00  0.15083163178E+02 -0.11591818065E+02  0.19031676298E+02  0.51100000000E-03 0. -1.
        -12    1    3    3    0    0  0.22568388123E+01  0.88662681930E+01 -0.38016241600E+01  0.99073901382E+01  0.00000000000E+00 0.  1.
</event>
<event>
 7    1  0.1381607E-011  0.5052885E+02  0.7816164E-02  0.1300439E+00
        -11   -1    0    0    0    0  0.00000000000E+00  0.00000000000E+00  0.45593999997E+02  0.45594000000E+02  0.51100000000E-03 0. -1.
         11   -1    0    0    0    0 -0.00000000000E+00 -0.00000000000E+00 -0.45593999997E+02  0.45594000000E+02  0.51100000000E-03 0.  1.
    9900012    2    1    2    0    0 -0.53974758955E+01  0.38021158381E+01 -0.40119543109E+02  0.50528848876E+02  0.29999966642E+02 0.  0.
         12    1    1    2    0    0  0.53974758955E+01 -0.38021158381E+01  0.40119543109E+02  0.40659151124E+02  0.00000000000E+00 0. -1.
         11    1    3    3    0    0 -0.11317834838E+02 -0.13954180251E+01 -0.30399078076E+02  0.32467591919E+02  0.51100000000E-03 0. -1.
        -11    1    3    3    0    0  0.37530720942E+01 -0.29688516356E+01 -0.81741039596E+01  0.94718322400E+01  0.51100000000E-03 0.  1.
         12    1    3    3    0    0  0.21672868481E+01  0.81663854988E+01 -0.15463610732E+01  0.85894247168E+01  0.00000000000E+00 0. -1.
</event>
<event>
 7    1  0.1381607E-011  0.5052882E+02  0.7816164E-02  0.1300439E+00
        -11   -1    0    0    0    0  0.00000000000E+00  0.00000000000E+00  0.45593999997E+02  0.45594000000E+02  0.51100000000E-03 0.  1.
         11   -1    0    0    0    0 -0.00000000000E+00 -0.00000000000E+00 -0.45593999997E+02  0.45594000000E+02  0.51100000000E-03 0. -1.
    9900012    2    1    2    0    0 -0.38956180951E+02 -0.31026569353E+01 -0.11223113576E+02  0.50528821544E+02  0.29999883566E+02 0.  0.
         12    1    1    2    0    0  0.38956180951E+02  0.31026569353E+01  0.11223113576E+02  0.40659178456E+02  0.00000000000E+00 0. -1.
         11    1    3    3    0    0 -0.24063040065E+01  0.37278180229E+01 -0.26050532584E+01  0.51452141767E+01  0.51100000000E-03 0. -1.
        -11    1    3    3    0    0 -0.16907767083E+01 -0.86130820857E+01  0.17943359040E+01  0.89589927163E+01  0.51100000000E-03 0.  1.
        -12    1    3    3    0    0 -0.34859100236E+02  0.17826071275E+01 -0.10412396221E+02  0.36424614652E+02  0.00000000000E+00 0.  1.
</event>
<event>
 7    1  0.1381607E-011  0.5052886E+02  0.7816164E-02  0.1300439E+00
        -11   -1    0    0    0    0  0.00000000000E+00  0.00000000000E+00  0.45593999997E+02  0.45594000000E+02  0.51100000000E-03 0.  1.
         11   -1    0    0    0    0 -0.00000000000E+00 -0.00000000000E+00 -0.45593999997E+02  0.45594000000E+02  0.51100000000E-03 0. -1.
    9900012    2    1    2    0    0 -0.76708815085E+01 -0.21863450878E+02  0.33411265249E+02  0.50528861385E+02  0.30000004666E+02 0.  0.
         12    1    1    2    0    0  0.76708815085E+01  0.21863450878E+02 -0.33411265249E+02  0.40659138615E+02  0.00000000000E+00 0. -1.
         11    1    3    3    0    0  0.48317152870E+01 -0.85448482105E+01  0.37446672460E+01  0.10506304612E+02  0.51100000000E-03 0. -1.
        -11    1    3    3    0    0 -0.12953322641E+02 -0.17600541949E+02  0.20818115252E+02  0.30182139872E+02  0.51100000000E-03 0.  1.
         12    1    3    3    0    0  0.45072584553E+00  0.42819392819E+01  0.88484827501E+01  0.98404169008E+01  0.00000000000E+00 0. -1.
</event>
<event>
 7    1  0.1381607E-011  0.5052882E+02  0.7816164E-02  0.1300439E+00
        -11   -1    0    0    0    0  0.00000000000E+00  0.00000000000E+00  0.45593999997E+02  0.45594000000E+02  0.51100000000E-03 0.  1.
         11   -1    0    0    0    0 -0.00000000000E+00 -0.00000000000E+00 -0.45593999997E+02  0.45594000000E+02  0.51100000000E-03 0. -1.
    9900012    2    1    2    0    0  0.34403209516E+02  0.31785542009E+01  0.21435600450E+02  0.50528819014E+02  0.29999875875E+02 0.  0.
         12    1    1    2    0    0 -0.34403209516E+02 -0.31785542009E+01 -0.21435600450E+02  0.40659180986E+02  0.00000000000E+00 0. -1.
         11    1    3    3    0    0  0.21957913836E+02  0.73355416925E+01  0.83415210497E+01  0.24607745237E+02  0.51100000000E-03 0.  1.
        -11    1    3    3    0    0  0.16301866865E+02 -0.59597405064E+01  0.75423504384E+01  0.18925021019E+02  0.51100000000E-03 0. -1.
         12    1    3    3    0    0 -0.38565711847E+01  0.18027530149E+01  0.55517289615E+01  0.69960527583E+01  0.00000000000E+00 0. -1.
</event>
<event>
 7    1  0.1381607E-011  0.5052886E+02  0.7816164E-02  0.1300439E+00
        -11   -1    0    0    0    0  0.00000000000E+00  0.00000000000E+00  0.45593999997E+02  0.45594000000E+02  0.51100000000E-03 0.  1.
         11   -1    0    0    0    0 -0.00000000000E+00 -0.00000000000E+00 -0.45593999997E+02  0.45594000000E+02  0.51100000000E-03 0. -1.
    9900012    2    1    2    0    0  0.11355697888E+02 -0.18260996087E+02  0.34507245250E+02  0.50528858010E+02  0.29999994408E+02 0.  0.
         12    1    1    2    0    0 -0.11355697888E+02  0.18260996087E+02 -0.34507245250E+02  0.40659141990E+02  0.00000000000E+00 0. -1.
         11    1    3    3    0    0 -0.46818950956E+01  0.14637485481E+01  0.72090669582E+01  0.87197103259E+01  0.51100000000E-03 0. -1.
        -11    1    3    3    0    0  0.48032662615E+01  0.30717522700E+01  0.22607861960E+01  0.61333663898E+01  0.51100000000E-03 0.  1.
        -12    1    3    3    0    0  0.11234326722E+02 -0.22796496905E+02  0.25037392095E+02  0.35675781295E+02  0.00000000000E+00 0.  1.
</event>
<event>
 7    1  0.1381607E-011  0.5052884E+02  0.7816164E-02  0.1300439E+00
        -11   -1    0    0    0    0  0.00000000000E+00  0.00000000000E+00  0.45593999997E+02  0.45594000000E+02  0.51100000000E-03 0.  1.
         11   -1    0    0    0    0 -0.00000000000E+00 -0.00000000000E+00 -0.45593999997E+02  0.45594000000E+02  0.51100000000E-03 0. -1.
    9900012    2    1    2    0    0 -0.52888467270E+01 -0.39148002712E+02  0.96244268893E+01  0.50528836101E+02  0.29999927811E+02 0.  0.
         12    1    1    2    0    0  0.52888467270E+01  0.39148002712E+02 -0.96244268893E+01  0.40659163899E+02  0.00000000000E+00 0. -1.
         11    1    3    3    0    0 -0.68413601045E+01 -0.74216388193E+01 -0.68150368483E+01  0.12179066399E+02  0.51100000000E-03 0. -1.
        -11    1    3    3    0    0 -0.51810360234E+01 -0.17951154149E+02  0.53752055850E+01  0.19441705298E+02  0.51100000000E-03 0.  1.
         12    1    3    3    0    0  0.67335494008E+01 -0.13775209744E+02  0.11064258153E+02  0.18908064404E+02  0.00000000000E+00 0. -1.
</event>
<event>
 7    1  0.1381607E-011  0.5052886E+02  0.7816164E-02  0.1300439E+00
        -11   -1    0    0    0    0  0.00000000000E+00  0.00000000000E+00  0.45593999997E+02  0.45594000000E+02  0.51100000000E-03 0.  1.
         11   -1    0    0    0    0 -0.00000000000E+00 -0.00000000000E+00 -0.45593999997E+02  0.45594000000E+02  0.51100000000E-03 0. -1.
    9900012    2    1    2    0    0  0.33671077952E+02  0.61102401786E+01  0.21956519702E+02  0.50528864705E+02  0.30000014758E+02 0.  0.
         12    1    1    2    0    0 -0.33671077952E+02 -0.61102401786E+01 -0.21956519702E+02  0.40659135295E+02  0.00000000000E+00 0. -1.
         11    1    3    3    0    0  0.90327488337E+01  0.46998130920E+01  0.44979275538E+01  0.11131493482E+02  0.51100000000E-03 0. -1.
        -11    1    3    3    0    0  0.23634458263E+02 -0.65302086526E+01  0.19276142286E+02  0.31189756397E+02  0.51100000000E-03 0.  1.
        -12    1    3    3    0    0  0.10038708555E+01  0.79406357392E+01 -0.18175501373E+01  0.82076148264E+01  0.00000000000E+00 0.  1.
</event>
<event>
 7    1  0.1381607E-011  0.5052887E+02  0.7816164E-02  0.1300439E+00
        -11   -1    0    0    0    0  0.00000000000E+00  0.00000000000E+00  0.45593999997E+02  0.45594000000E+02  0.51100000000E-03 0. -1.
         11   -1    0    0    0    0 -0.00000000000E+00 -0.00000000000E+00 -0.45593999997E+02  0.45594000000E+02  0.51100000000E-03 0.  1.
    9900012    2    1    2    0    0 -0.51299603429E+01 -0.24075037473E+01 -0.40262291255E+02  0.50528872310E+02  0.30000037874E+02 0.  0.
         12    1    1    2    0    0  0.51299603429E+01  0.24075037473E+01  0.40262291255E+02  0.40659127690E+02  0.00000000000E+00 0. -1.
         11    1    3    3    0    0  0.22323217869E+01 -0.42894505327E+01  0.12044916970E+01  0.49833168615E+01  0.51100000000E-03 0. -1.
        -11    1    3    3    0    0 -0.84074012553E+01 -0.43157538060E+01 -0.35986362804E+02  0.37206564406E+02  0.51100000000E-03 0.  1.
         12    1    3    3    0    0  0.10451191256E+01  0.61977005915E+01 -0.54804201474E+01  0.83389910421E+01  0.00000000000E+00 0. -1.
</event>
<event>
 7    1  0.1381607E-011  0.5052886E+02  0.7816164E-02  0.1300439E+00
        -11   -1    0    0    0    0  0.00000000000E+00  0.00000000000E+00  0.45593999997E+02  0.45594000000E+02  0.51100000000E-03 0.  1.
         11   -1    0    0    0    0 -0.00000000000E+00 -0.00000000000E+00 -0.45593999997E+02  0.45594000000E+02  0.51100000000E-03 0. -1.
    9900012    2    1    2    0    0  0.35427967955E+02  0.76549410432E+01  0.18423531299E+02  0.50528861528E+02  0.30000005100E+02 0.  0.
         12    1    1    2    0    0 -0.35427967955E+02 -0.76549410432E+01 -0.18423531299E+02  0.40659138472E+02  0.00000000000E+00 0. -1.
         11    1    3    3    0    0  0.12968763430E+01  0.63307823414E+01  0.14030857656E+02  0.15447513073E+02  0.51100000000E-03 0. -1.
        -11    1    3    3    0    0  0.59898718356E+01 -0.72116140242E+00  0.32267411410E+01  0.68418197161E+01  0.51100000000E-03 0.  1.
         12    1    3    3    0    0  0.28141219776E+02  0.20453201042E+01  0.11659325015E+01  0.28239528739E+02  0.00000000000E+00 0. -1.
</event>
<event>
 7    1  0.1381607E-011  0.5052885E+02  0.7816164E-02  0.1300439E+00
        -11   -1    0    0    0    0  0.00000000000E+00  0.00000000000E+00  0.45593999997E+02  0.45594000000E+02  0.51100000000E-03 0.  1.
         11   -1    0    0    0    0 -0.00000000000E+00 -0.00000000000E+00 -0.45593999997E+02  0.45594000000E+02  0.51100000000E-03 0. -1.
    9900012    2    1    2    0    0 -0.31618339151E+02 -0.16343584121E+02  0.19655390271E+02  0.50528849993E+02  0.29999970039E+02 0.  0.
         12    1    1    2    0    0  0.31618339151E+02  0.16343584121E+02 -0.19655390271E+02  0.40659150007E+02  0.00000000000E+00 0. -1.
         11    1    3    3    0    0 -0.10612380790E+02  0.46020814907E+01  0.85646679768E+01  0.14392891228E+02  0.51100000000E-03 0. -1.
        -11    1    3    3    0    0 -0.16120315499E+02 -0.17465436700E+02  0.15773937959E+02  0.28525833378E+02  0.51100000000E-03 0.  1.
         12    1    3    3    0    0 -0.48856428619E+01 -0.34802289112E+01 -0.46832156648E+01  0.76101253873E+01  0.00000000000E+00 0. -1.
</event>
<event>
 7    1  0.1381607E-011  0.5052887E+02  0.7816164E-02  0.1300439E+00
        -11   -1    0    0    0    0  0.00000000000E+00  0.00000000000E+00  0.45593999997E+02  0.45594000000E+02  0.51100000000E-03 0.  1.
         11   -1    0    0    0    0 -0.00000000000E+00 -0.00000000000E+00 -0.45593999997E+02  0.45594000000E+02  0.51100000000E-03 0. -1.
    9900012    2    1    2    0    0  0.57792574905E+01  0.16380800581E+02  0.36761864117E+02  0.50528866977E+02  0.30000021663E+02 0.  0.
         12    1    1    2    0    0 -0.57792574905E+01 -0.16380800581E+02 -0.36761864117E+02  0.40659133023E+02  0.00000000000E+00 0. -1.
         11    1    3    3    0    0  0.95649275338E+01  0.68890814668E+01  0.36134879912E+02  0.38008904597E+02  0.51100000000E-03 0.  1.
        -11    1    3    3    0    0 -0.23700462224E+01  0.25981353934E+01 -0.29822363985E+01  0.46109826302E+01  0.51100000000E-03 0. -1.
        -12    1    3    3    0    0 -0.14156238209E+01  0.68935837205E+01  0.36092206041E+01  0.79089797498E+01  0.00000000000E+00 0.  1.
</event>
<event>
 7    1  0.1381607E-011  0.5052885E+02  0.7816164E-02  0.1300439E+00
        -11   -1    0    0    0    0  0.00000000000E+00  0.00000000000E+00  0.45593999997E+02  0.45594000000E+02  0.51100000000E-03 0.  1.
         11   -1    0    0    0    0 -0.00000000000E+00 -0.00000000000E+00 -0.45593999997E+02  0.45594000000E+02  0.51100000000E-03 0. -1.
    9900012    2    1    2    0    0 -0.22311384562E+02  0.33558049905E+02  0.54061025243E+01  0.50528849259E+02  0.29999967808E+02 0.  0.
         12    1    1    2    0    0  0.22311384562E+02 -0.33558049905E+02 -0.54061025243E+01  0.40659150741E+02  0.00000000000E+00 0. -1.
         11    1    3    3    0    0 -0.13617188825E+02  0.12569705240E+02  0.15294997391E+02  0.24028363797E+02  0.51100000000E-03 0. -1.
        -11    1    3    3    0    0 -0.56484952324E+01  0.16563367204E+02 -0.29848124998E+01  0.17752738872E+02  0.51100000000E-03 0.  1.
        -12    1    3    3    0    0 -0.30457005047E+01  0.44249774601E+01 -0.69040823666E+01  0.87477465905E+01  0.00000000000E+00 0.  1.
</event>
<event>
 7    1  0.1381607E-011  0.5052886E+02  0.7816164E-02  0.1300439E+00
        -11   -1    0    0    0    0  0.00000000000E+00  0.00000000000E+00  0.45593999997E+02  0.45594000000E+02  0.51100000000E-03 0. -1.
         11   -1    0    0    0    0 -0.00000000000E+00 -0.00000000000E+00 -0.45593999997E+02  0.45594000000E+02  0.51100000000E-03 0.  1.
    9900012    2    1    2    0    0 -0.87747320441E+01  0.38122386335E+02  0.11083930446E+02  0.50528858636E+02  0.29999996310E+02 0.  0.
         12    1    1    2    0    0  0.87747320441E+01 -0.38122386335E+02 -0.11083930446E+02  0.40659141364E+02  0.00000000000E+00 0. -1.
         11    1    3    3    0    0 -0.16337433621E-01  0.40837134613E+01  0.94155257382E+01  0.10262997015E+02  0.51100000000E-03 0. -1.
        -11    1    3    3    0    0 -0.10283153523E+02  0.63360195407E+01 -0.21224703636E+01  0.12263493413E+02  0.51100000000E-03 0.  1.
         12    1    3    3    0    0  0.15247589123E+01  0.27702653333E+02  0.37908750713E+01  0.28002368208E+02  0.00000000000E+00 0. -1.
</event>
<event>
 7    1  0.1381607E-011  0.5052886E+02  0.7816164E-02  0.1300439E+00
        -11   -1    0    0    0    0  0.00000000000E+00  0.00000000000E+00  0.45593999997E+02  0.45594000000E+02  0.51100000000E-03 0.  1.
         11   -1    0    0    0    0 -0.00000000000E+00 -0.00000000000E+00 -0.45593999997E+02  0.45594000000E+02  0.51100000000E-03 0. -1.
    9900012    2    1    2    0    0  0.38438762142E+02  0.10128586984E+02  0.85462797093E+01  0.50528860730E+02  0.30000002676E+02 0.  0.
         12    1    1    2    0    0 -0.38438762142E+02 -0.10128586984E+02 -0.85462797093E+01  0.40659139270E+02  0.00000000000E+00 0. -1.
         11    1    3    3    0    0  0.11616548184E+02  0.10699003730E+02  0.77036216055E+01  0.17571529775E+02  0.51100000000E-03 0. -1.
        -11    1    3    3    0    0 -0.28430164824E+01 -0.13539244617E+00 -0.14615576683E+01  0.31995663632E+01  0.51100000000E-03 0.  1.
        -12    1    3    3    0    0  0.29665230440E+02 -0.43502430025E+00  0.23042157721E+01  0.29757764592E+02  0.00000000000E+00 0.  1.
</event>
<event>
 7    1  0.1381607E-011  0.5052887E+02  0.7816164E-02  0.1300439E+00
        -11   -1    0    0    0    0  0.00000000000E+00  0.00000000000E+00  0.45593999997E+02  0.45594000000E+02  0.51100000000E-03 0.  1.
         11   -1    0    0    0    0 -0.00000000000E+00 -0.00000000000E+00 -0.45593999997E+02  0.45594000000E+02  0.51100000000E-03 0. -1.
    9900012    2    1    2    0    0  0.53755026072E+01  0.28949822191E+02  0.28038838101E+02  0.50528872178E+02  0.30000037472E+02 0.  0.
         12    1    1    2    0    0 -0.53755026072E+01 -0.28949822191E+02 -0.28038838101E+02  0.40659127822E+02  0.00000000000E+00 0. -1.
         11    1    3    3    0    0  0.83136418388E+01  0.25651498726E+01  0.91607187258E+01  0.12633898936E+02  0.51100000000E-03 0.  1.
        -11    1    3    3    0    0  0.47334629961E+01  0.22402308600E+02  0.18155036699E+02  0.29221130374E+02  0.51100000000E-03 0. -1.
         12    1    3    3    0    0 -0.76716022278E+01  0.39823637190E+01  0.72308267618E+00  0.86738428674E+01  0.00000000000E+00 0. -1.
</event>
<event>
 7    1  0.1381607E-011  0.5052886E+02  0.7816164E-02  0.1300439E+00
        -11   -1    0    0    0    0  0.00000000000E+00  0.00000000000E+00  0.45593999997E+02  0.45594000000E+02  0.51100000000E-03 0. -1.
         11   -1    0    0    0    0 -0.00000000000E+00 -0.00000000000E+00 -0.45593999997E+02  0.45594000000E+02  0.51100000000E-03 0.  1.
    9900012    2    1    2    0    0 -0.47013561626E+01  0.34143439299E+02 -0.21570549921E+02  0.50528858090E+02  0.29999994651E+02 0.  0.
         12    1    1    2    0    0  0.47013561626E+01 -0.34143439299E+02  0.21570549921E+02  0.40659141910E+02  0.00000000000E+00 0. -1.
         11    1    3    3    0    0  0.71657874531E+01  0.10504611703E+01 -0.26663976660E+01  0.77176197929E+01  0.51100000000E-03 0. -1.
        -11    1    3    3    0    0 -0.24575762974E+01  0.45748717446E+01 -0.10360515002E+02  0.11589193419E+02  0.51100000000E-03 0.  1.
         12    1    3    3    0    0 -0.94095673183E+01  0.28518106384E+02 -0.85436372527E+01  0.31222044878E+02  0.00000000000E+00 0. -1.
</event>
<event>
 7    1  0.1381607E-011  0.5052886E+02  0.7816164E-02  0.1300439E+00
        -11   -1    0    0    0    0  0.00000000000E+00  0.00000000000E+00  0.45593999997E+02  0.45594000000E+02  0.51100000000E-03 0.  1.
         11   -1    0    0    0    0 -0.00000000000E+00 -0.00000000000E+00 -0.45593999997E+02  0.45594000000E+02  0.51100000000E-03 0. -1.
    9900012    2    1    2    0    0 -0.27610928951E+02  0.16752301796E+01  0.29799260813E+02  0.50528859100E+02  0.29999997722E+02 0.  0.
         12    1    1    2    0    0  0.27610928951E+02 -0.16752301796E+01 -0.29799260813E+02  0.40659140900E+02  0.00000000000E+00 0. -1.
         11    1    3    3    0    0 -0.13574882509E+02 -0.96130374322E+01  0.94799678387E+01  0.19145697017E+02  0.51100000000E-03 0. -1.
        -11    1    3    3    0    0 -0.60847215280E+01  0.99549796344E+01  0.26544371509E+01  0.11965429054E+02  0.51100000000E-03 0.  1.
         12    1    3    3    0    0 -0.79513249138E+01  0.13332879774E+01  0.17664855824E+02  0.19417733029E+02  0.00000000000E+00 0. -1.
</event>
<event>
 7    1  0.1381607E-011  0.5052889E+02  0.7816164E-02  0.1300439E+00
        -11   -1    0    0    0    0  0.00000000000E+00  0.00000000000E+00  0.45593999997E+02  0.45594000000E+02  0.51100000000E-03 0.  1.
         11   -1    0    0    0    0 -0.00000000000E+00 -0.00000000000E+00 -0.45593999997E+02  0.45594000000E+02  0.51100000000E-03 0. -1.
    9900012    2    1    2    0    0  0.18239369955E+02 -0.36263779517E+02  0.23296350132E+01  0.50528886378E+02  0.30000080634E+02 0.  0.
         12    1    1    2    0    0 -0.18239369955E+02  0.36263779517E+02 -0.23296350132E+01  0.40659113622E+02  0.00000000000E+00 0. -1.
         11    1    3    3    0    0 -0.26382112967E+00 -0.26062009764E+01  0.37361454990E+01  0.45629670795E+01  0.51100000000E-03 0. -1.
        -11    1    3    3    0    0  0.52980344776E+01 -0.32220213411E+02 -0.60237623796E+00  0.32658447283E+02  0.51100000000E-03 0.  1.
         12    1    3    3    0    0  0.13205156607E+02 -0.14373651300E+01 -0.80413424785E+00  0.13307472015E+02  0.00000000000E+00 0. -1.
</event>
<event>
 7    1  0.1381607E-011  0.5052886E+02  0.7816164E-02  0.1300439E+00
        -11   -1    0    0    0    0  0.00000000000E+00  0.00000000000E+00  0.45593999997E+02  0.45594000000E+02  0.51100000000E-03 0.  1.
         11   -1    0    0    0    0 -0.00000000000E+00 -0.00000000000E+00 -0.45593999997E+02  0.45594000000E+02  0.51100000000E-03 0. -1.
    9900012    2    1    2    0    0 -0.32768283830E+02 -0.23308630965E+02  0.60094329147E+01  0.50528856053E+02  0.29999988457E+02 0.  0.
         12    1    1    2    0    0  0.32768283830E+02  0.23308630965E+02 -0.60094329147E+01  0.40659143947E+02  0.00000000000E+00 0. -1.
         11    1    3    3    0    0 -0.45484883696E+01  0.12564388391E+01 -0.78652158515E+00  0.47839315912E+01  0.51100000000E-03 0. -1.
        -11    1    3    3    0    0 -0.10413439309E+02 -0.51644292246E+01 -0.92961211323E+01  0.14883847480E+02  0.51100000000E-03 0.  1.
        -12    1    3    3    0    0 -0.17806356151E+02 -0.19400640579E+02  0.16092075632E+02  0.30861076981E+02  0.00000000000E+00 0.  1.
</event>
<event>
 7    1  0.1381607E-011  0.5052887E+02  0.7816164E-02  0.1300439E+00
        -11   -1    0    0    0    0  0.00000000000E+00  0.00000000000E+00  0.45593999997E+02  0.45594000000E+02  0.51100000000E-03 0.  1.
         11   -1    0    0    0    0 -0.00000000000E+00 -0.00000000000E+00 -0.45593999997E+02  0.45594000000E+02  0.51100000000E-03 0. -1.
    9900012    2    1    2    0    0 -0.92650682649E+01  0.30135395206E+02  0.25674531232E+02  0.50528867100E+02  0.30000022038E+02 0.  0.
         12    1    1    2    0    0  0.92650682649E+01 -0.30135395206E+02 -0.25674531232E+02  0.40659132900E+02  0.00000000000E+00 0. -1.
         11    1    3    3    0    0  0.41758831079E+01  0.78919879296E+01 -0.13990365792E+01  0.90376311511E+01  0.51100000000E-03 0.  1.
        -11    1    3    3    0    0  0.18262555206E+01  0.53803301087E+01  0.14334520342E+02  0.15419521232E+02  0.51100000000E-03 0. -1.
         12    1    3    3    0    0 -0.15267206893E+02  0.16863077167E+02  0.12739047469E+02  0.26071714717E+02  0.00000000000E+00 0. -1.
</event>
<event>
 7    1  0.1381607E-011  0.5052887E+02  0.7816164E-02  0.1300439E+00
        -11   -1    0    0    0    0  0.00000000000E+00  0.00000000000E+00  0.45593999997E+02  0.45594000000E+02  0.51100000000E-03 0. -1.
         11   -1    0    0    0    0 -0.00000000000E+00 -0.00000000000E+00 -0.45593999997E+02  0.45594000000E+02  0.51100000000E-03 0.  1.
    9900012    2    1    2    0    0  0.11031154430E+02 -0.29600072814E+02 -0.25599104939E+02  0.50528870001E+02  0.30000030854E+02 0.  0.
         12    1    1    2    0    0 -0.11031154430E+02  0.29600072814E+02  0.25599104939E+02  0.40659129999E+02  0.00000000000E+00 0. -1.
         11    1    3    3    0    0  0.98283544481E+01 -0.13525035743E+02 -0.12393109903E+02  0.20811350661E+02  0.51100000000E-03 0. -1.
        -11    1    3    3    0    0 -0.11001738627E+01 -0.19901569620E+02 -0.14957689397E+02  0.24920179138E+02  0.51100000000E-03 0.  1.
        -12    1    3    3    0    0  0.23029738443E+01  0.38265325495E+01  0.17516943611E+01  0.47973402021E+01  0.00000000000E+00 0.  1.
</event>
<event>
 7    1  0.1381607E-011  0.5052886E+02  0.7816164E-02  0.1300439E+00
        -11   -1    0    0    0    0  0.00000000000E+00  0.00000000000E+00  0.45593999997E+02  0.45594000000E+02  0.51100000000E-03 0.  1.
         11   -1    0    0    0    0 -0.00000000000E+00 -0.00000000000E+00 -0.45593999997E+02  0.45594000000E+02  0.51100000000E-03 0. -1.
    9900012    2    1    2    0    0  0.59677870454E+01 -0.53162356992E+00  0.40215282320E+02  0.50528855421E+02  0.29999986538E+02 0.  0.
         12    1    1    2    0    0 -0.59677870454E+01  0.53162356992E+00 -0.40215282320E+02  0.40659144579E+02  0.00000000000E+00 0. -1.
         11    1    3    3    0    0 -0.36632129724E+01  0.10677852767E+02  0.60727264911E+01  0.12818489626E+02  0.51100000000E-03 0. -1.
        -11    1    3    3    0    0  0.21067015282E+01 -0.21458838604E+01  0.23839592765E+01  0.38374823732E+01  0.51100000000E-03 0.  1.
         12    1    3    3    0    0  0.75242984896E+01 -0.90635924767E+01  0.31758596552E+02  0.33872883422E+02  0.00000000000E+00 0. -1.
</event>
<event>
 7    1  0.1381607E-011  0.5052895E+02  0.7816164E-02  0.1300438E+00
        -11   -1    0    0    0    0  0.00000000000E+00  0.00000000000E+00  0.45593999997E+02  0.45594000000E+02  0.51100000000E-03 0.  1.
         11   -1    0    0    0    0 -0.00000000000E+00 -0.00000000000E+00 -0.45593999997E+02  0.45594000000E+02  0.51100000000E-03 0. -1.
    9900012    2    1    2    0    0 -0.18771026184E+01  0.13191216146E+02  0.38413885487E+02  0.50528950628E+02  0.30000275927E+02 0.  0.
         12    1    1    2    0    0  0.18771026184E+01 -0.13191216146E+02 -0.38413885487E+02  0.40659049372E+02  0.00000000000E+00 0. -1.
         11    1    3    3    0    0  0.39623263290E+00  0.13901316286E+01 -0.45790126087E+01  0.48017520735E+01  0.51100000000E-03 0. -1.
        -11    1    3    3    0    0 -0.35195370205E+01  0.28729814482E+00  0.59799389071E+01  0.69447354634E+01  0.51100000000E-03 0.  1.
        -12    1    3    3    0    0  0.12462017692E+01  0.11513786373E+02  0.37012959189E+02  0.38782463091E+02  0.00000000000E+00 0.  1.
</event>
<event>
 7    1  0.1381607E-011  0.5052886E+02  0.7816164E-02  0.1300439E+00
        -11   -1    0    0    0    0  0.00000000000E+00  0.00000000000E+00  0.45593999997E+02  0.45594000000E+02  0.51100000000E-03 0.  1.
         11   -1    0    0    0    0 -0.00000000000E+00 -0.00000000000E+00 -0.45593999997E+02  0.45594000000E+02  0.51100000000E-03 0. -1.
    9900012    2    1    2    0    0  0.47181221680E+01  0.18593243814E+01  0.40341644326E+02  0.50528855507E+02  0.29999986799E+02 0.  0.
         12    1    1    2    0    0 -0.47181221680E+01 -0.18593243814E+01 -0.40341644326E+02  0.40659144493E+02  0.00000000000E+00 0. -1.
         11    1    3    3    0    0 -0.59778942624E+01  0.20803101769E+01  0.19058864450E+01  0.66102430853E+01  0.51100000000E-03 0. -1.
        -11    1    3    3    0    0 -0.46157235207E+01  0.33489200475E-01  0.16725770248E+02  0.17351006189E+02  0.51100000000E-03 0.  1.
        -12    1    3    3    0    0  0.15311739951E+02 -0.25447499599E+00  0.21709987634E+02  0.26567606232E+02  0.00000000000E+00 0.  1.
</event>
<event>
 7    1  0.1381607E-011  0.5052886E+02  0.7816164E-02  0.1300439E+00
        -11   -1    0    0    0    0  0.00000000000E+00  0.00000000000E+00  0.45593999997E+02  0.45594000000E+02  0.51100000000E-03 0. -1.
         11   -1    0    0    0    0 -0.00000000000E+00 -0.00000000000E+00 -0.45593999997E+02  0.45594000000E+02  0.51100000000E-03 0.  1.
    9900012    2    1    2    0    0 -0.10874802091E+02  0.32405390420E+02 -0.22018064502E+02  0.50528858184E+02  0.29999994936E+02 0.  0.
         12    1    1    2    0    0  0.10874802091E+02 -0.32405390420E+02  0.22018064502E+02  0.40659141816E+02  0.00000000000E+00 0. -1.
         11    1    3    3    0    0 -0.17120696786E+02  0.13641352296E+02 -0.19075689137E+02  0.29035954732E+02  0.51100000000E-03 0.  1.
        -11    1    3    3    0    0  0.31639497273E+01  0.16409634965E+02 -0.45099780259E+01  0.17309725579E+02  0.51100000000E-03 0. -1.
        -12    1    3    3    0    0  0.30819449675E+01  0.23544031582E+01  0.15676026604E+01  0.41831778727E+01  0.00000000000E+00 0.  1.
</event>
<event>
 7    1  0.1381607E-011  0.5052886E+02  0.7816164E-02  0.1300439E+00
        -11   -1    0    0    0    0  0.00000000000E+00  0.00000000000E+00  0.45593999997E+02  0.45594000000E+02  0.51100000000E-03 0.  1.
         11   -1    0    0    0    0 -0.00000000000E+00 -0.00000000000E+00 -0.45593999997E+02  0.45594000000E+02  0.51100000000E-03 0. -1.
    9900012    2    1    2    0    0 -0.43826974482E+01 -0.15449108896E+02  0.37353483869E+02  0.50528858841E+02  0.29999996934E+02 0.  0.
         12    1    1    2    0    0  0.43826974482E+01  0.15449108896E+02 -0.37353483869E+02  0.40659141159E+02  0.00000000000E+00 0. -1.
         11    1    3    3    0    0 -0.11171981610E+02  0.34540980822E+00  0.17366122284E+02  0.20652231948E+02  0.51100000000E-03 0. -1.
        -11    1    3    3    0    0 -0.42422912986E+01 -0.25448256163E+01  0.39607309151E+01  0.63372361896E+01  0.51100000000E-03 0.  1.
        -12    1    3    3    0    0  0.11031575460E+02 -0.13249693088E+02  0.16026630670E+02  0.23539390703E+02  0.00000000000E+00 0.  1.
</event>
<event>
 7    1  0.1381607E-011  0.5052886E+02  0.7816164E-02  0.1300439E+00
        -11   -1    0    0    0    0  0.00000000000E+00  0.00000000000E+00  0.45593999997E+02  0.45594000000E+02  0.51100000000E-03 0.  1.
         11   -1    0    0    0    0 -0.00000000000E+00 -0.00000000000E+00 -0.45593999997E+02  0.45594000000E+02  0.51100000000E-03 0. -1.
    9900012    2    1    2    0    0  0.22496167788E+02 -0.24548194281E+02  0.23333975737E+02  0.50528857962E+02  0.29999994260E+02 0.  0.
         12    1    1    2    0    0 -0.22496167788E+02  0.24548194281E+02 -0.23333975737E+02  0.40659142038E+02  0.00000000000E+00 0. -1.
         11    1    3    3    0    0  0.13799382285E+02 -0.16210088800E+00 -0.44721311623E+00  0.13807578643E+02  0.51100000000E-03 0. -1.
        -11    1    3    3    0    0 -0.17227475748E+01 -0.48337488212E+00  0.24431102714E+01  0.30282500792E+01  0.51100000000E-03 0.  1.
         12    1    3    3    0    0  0.10419533078E+02 -0.23902718511E+02  0.21338078582E+02  0.33693029240E+02  0.00000000000E+00 0. -1.
</event>
<event>
 7    1  0.1381607E-011  0.5052886E+02  0.7816164E-02  0.1300439E+00
        -11   -1    0    0    0    0  0.00000000000E+00  0.00000000000E+00  0.45593999997E+02  0.45594000000E+02  0.51100000000E-03 0.  1.
         11   -1    0    0    0    0 -0.00000000000E+00 -0.00000000000E+00 -0.45593999997E+02  0.45594000000E+02  0.51100000000E-03 0. -1.
    9900012    2    1    2    0    0  0.31605998580E+02 -0.93885100122E+01  0.23792479904E+02  0.50528863678E+02  0.30000011636E+02 0.  0.
         12    1    1    2    0    0 -0.31605998580E+02  0.93885100122E+01 -0.23792479904E+02  0.40659136322E+02  0.00000000000E+00 0. -1.
         11    1    3    3    0    0 -0.52183729681E+01 -0.13305526608E+01  0.48100250504E+01  0.72206736572E+01  0.51100000000E-03 0. -1.
        -11    1    3    3    0    0  0.91183438817E+01 -0.14244168017E+01  0.28858798468E+00  0.92334414849E+01  0.51100000000E-03 0.  1.
        -12    1    3    3    0    0  0.27706027666E+02 -0.66335405496E+01  0.18693866869E+02  0.34074748536E+02  0.00000000000E+00 0.  1.
</event>
<event>
 7    1  0.1381607E-011  0.5052886E+02  0.7816164E-02  0.1300439E+00
        -11   -1    0    0    0    0  0.00000000000E+00  0.00000000000E+00  0.45593999997E+02  0.45594000000E+02  0.51100000000E-03 0.  1.
         11   -1    0    0    0    0 -0.00000000000E+00 -0.00000000000E+00 -0.45593999997E+02  0.45594000000E+02  0.51100000000E-03 0. -1.
    9900012    2    1    2    0    0 -0.30304261640E+02  0.17835291514E+02  0.20413724880E+02  0.50528855144E+02  0.29999985696E+02 0.  0.
         12    1    1    2    0    0  0.30304261640E+02 -0.17835291514E+02 -0.20413724880E+02  0.40659144856E+02  0.00000000000E+00 0. -1.
         11    1    3    3    0    0  0.41313668712E+01  0.41474159642E+00 -0.47506505561E+00  0.41792212055E+01  0.51100000000E-03 0. -1.
        -11    1    3    3    0    0 -0.36871316743E+01  0.81535325184E+01  0.69967382235E+01  0.11359109936E+02  0.51100000000E-03 0.  1.
        -12    1    3    3    0    0 -0.30748496837E+02  0.92670173991E+01  0.13892051712E+02  0.34990524003E+02  0.00000000000E+00 0.  1.
</event>
<event>
 7    1  0.1381607E-011  0.5052885E+02  0.7816164E-02  0.1300439E+00
        -11   -1    0    0    0    0  0.00000000000E+00  0.00000000000E+00  0.45593999997E+02  0.45594000000E+02  0.51100000000E-03 0.  1.
         11   -1    0    0    0    0 -0.00000000000E+00 -0.00000000000E+00 -0.45593999997E+02  0.45594000000E+02  0.51100000000E-03 0. -1.
    9900012    2    1    2    0    0  0.24186762962E+02 -0.32588427918E+02 -0.24821761936E+01  0.50528851762E+02  0.29999975417E+02 0.  0.
         12    1    1    2    0    0 -0.24186762962E+02  0.32588427918E+02  0.24821761936E+01  0.40659148238E+02  0.00000000000E+00 0. -1.
         11    1    3    3    0    0 -0.41036317976E+01  0.91871989207E-01 -0.34259391372E-01  0.41048030842E+01  0.51100000000E-03 0. -1.
        -11    1    3    3    0    0  0.88192716646E+01 -0.17470159162E+02  0.57408050388E+01  0.20394677163E+02  0.51100000000E-03 0.  1.
        -12    1    3    3    0    0  0.19471123095E+02 -0.15210140745E+02 -0.81887218411E+01  0.26029371515E+02  0.00000000000E+00 0.  1.
</event>
<event>
 7    1  0.1381607E-011  0.5052887E+02  0.7816164E-02  0.1300439E+00
        -11   -1    0    0    0    0  0.00000000000E+00  0.00000000000E+00  0.45593999997E+02  0.45594000000E+02  0.51100000000E-03 0.  1.
         11   -1    0    0    0    0 -0.00000000000E+00 -0.00000000000E+00 -0.45593999997E+02  0.45594000000E+02  0.51100000000E-03 0. -1.
    9900012    2    1    2    0    0  0.27091238700E+02  0.16708170974E+02  0.25299546461E+02  0.50528865200E+02  0.30000016262E+02 0.  0.
         12    1    1    2    0    0 -0.27091238700E+02 -0.16708170974E+02 -0.25299546461E+02  0.40659134800E+02  0.00000000000E+00 0. -1.
         11    1    3    3    0    0  0.23379729553E+01  0.39366714410E+01  0.38476836074E+00  0.45947302997E+01  0.51100000000E-03 0. -1.
        -11    1    3    3    0    0  0.31573388631E+01  0.15973305518E+02  0.14246009717E+02  0.21634788443E+02  0.51100000000E-03 0.  1.
         12    1    3    3    0    0  0.21595926881E+02 -0.32018059853E+01  0.10668768384E+02  0.24299346457E+02  0.00000000000E+00 0. -1.
</event>
<event>
 7    1  0.1381607E-011  0.5052886E+02  0.7816164E-02  0.1300439E+00
        -11   -1    0    0    0    0  0.00000000000E+00  0.00000000000E+00  0.45593999997E+02  0.45594000000E+02  0.51100000000E-03 0.  1.
         11   -1    0    0    0    0 -0.00000000000E+00 -0.00000000000E+00 -0.45593999997E+02  0.45594000000E+02  0.51100000000E-03 0. -1.
    9900012    2    1    2    0    0 -0.26510272897E+02  0.30821993965E+02 -0.61268340591E+00  0.50528864962E+02  0.30000015540E+02 0.  0.
         12    1    1    2    0    0  0.26510272897E+02 -0.30821993965E+02  0.61268340591E+00  0.40659135038E+02  0.00000000000E+00 0. -1.
         11    1    3    3    0    0 -0.14718849822E+02  0.11852188387E+02  0.60997160830E+01  0.19857629420E+02  0.51100000000E-03 0. -1.
        -11    1    3    3    0    0 -0.11452748139E+02  0.21685712224E+02 -0.12434804184E+01  0.24555687700E+02  0.51100000000E-03 0.  1.
         12    1    3    3    0    0 -0.33867493588E+00 -0.27159066453E+01 -0.54689190705E+01  0.61155478428E+01  0.00000000000E+00 0. -1.
</event>
<event>
 7    1  0.1381607E-011  0.5052886E+02  0.7816164E-02  0.1300439E+00
        -11   -1    0    0    0    0  0.00000000000E+00  0.00000000000E+00  0.45593999997E+02  0.45594000000E+02  0.51100000000E-03 0. -1.
         11   -1    0    0    0    0 -0.00000000000E+00 -0.00000000000E+00 -0.45593999997E+02  0.45594000000E+02  0.51100000000E-03 0.  1.
    9900012    2    1    2    0    0  0.15118712435E+02 -0.23302502624E+02 -0.29691471052E+02  0.50528861452E+02  0.30000004870E+02 0.  0.
         12    1    1    2    0    0 -0.15118712435E+02  0.23302502624E+02  0.29691471052E+02  0.40659138548E+02  0.00000000000E+00 0. -1.
         11    1    3    3    0    0  0.42051994162E+01 -0.10088188669E+02 -0.30621970130E+01  0.11350431866E+02  0.51100000000E-03 0. -1.
        -11    1    3    3    0    0 -0.54952439908E+01 -0.96292497426E+01 -0.15395211410E+02  0.18971892150E+02  0.51100000000E-03 0.  1.
         12    1    3    3    0    0  0.16408757010E+02 -0.35850642126E+01 -0.11234062629E+02  0.20206537436E+02  0.00000000000E+00 0. -1.
</event>
<event>
 7    1  0.1381607E-011  0.5052884E+02  0.7816164E-02  0.1300439E+00
        -11   -1    0    0    0    0  0.00000000000E+00  0.00000000000E+00  0.45593999997E+02  0.45594000000E+02  0.51100000000E-03 0.  1.
         11   -1    0    0    0    0 -0.00000000000E+00 -0.00000000000E+00 -0.45593999997E+02  0.45594000000E+02  0.51100000000E-03 0. -1.
    9900012    2    1    2    0    0  0.36649290850E+02  0.16980956557E+02  0.46522779431E+01  0.50528842415E+02  0.29999947006E+02 0.  0.
         12    1    1    2    0    0 -0.36649290850E+02 -0.16980956557E+02 -0.46522779431E+01  0.40659157585E+02  0.00000000000E+00 0. -1.
         11    1    3    3    0    0  0.73289108354E+01 -0.25560450592E+01  0.22408043132E+01  0.80788306462E+01  0.51100000000E-03 0. -1.
        -11    1    3    3    0    0  0.13828013386E+02  0.51515297133E+01 -0.10101896645E+02  0.17882967558E+02  0.51100000000E-03 0.  1.
        -12    1    3    3    0    0  0.15492366629E+02  0.14385471903E+02  0.12513370275E+02  0.24567044211E+02  0.00000000000E+00 0.  1.
</event>
<event>
 7    1  0.1381607E-011  0.5052888E+02  0.7816164E-02  0.1300439E+00
        -11   -1    0    0    0    0  0.00000000000E+00  0.00000000000E+00  0.45593999997E+02  0.45594000000E+02  0.51100000000E-03 0.  1.
         11   -1    0    0    0    0 -0.00000000000E+00 -0.00000000000E+00 -0.45593999997E+02  0.45594000000E+02  0.51100000000E-03 0. -1.
    9900012    2    1    2    0    0  0.36987958314E+02  0.16414101479E+02 -0.39538039202E+01  0.50528876140E+02  0.30000049515E+02 0.  0.
         12    1    1    2    0    0 -0.36987958314E+02 -0.16414101479E+02  0.39538039202E+01  0.40659123860E+02  0.00000000000E+00 0. -1.
         11    1    3    3    0    0  0.11366257274E+02  0.50020882768E+01  0.41195498997E+01  0.13083706783E+02  0.51100000000E-03 0. -1.
        -11    1    3    3    0    0  0.19245226836E+01  0.12493963854E+02 -0.95048046929E+00  0.12677000186E+02  0.51100000000E-03 0.  1.
         12    1    3    3    0    0  0.23697178357E+02 -0.10819506517E+01 -0.71228733506E+01  0.24768169171E+02  0.00000000000E+00 0. -1.
</event>
<event>
 7    1  0.1381607E-011  0.5052889E+02  0.7816164E-02  0.1300439E+00
        -11   -1    0    0    0    0  0.00000000000E+00  0.00000000000E+00  0.45593999997E+02  0.45594000000E+02  0.51100000000E-03 0. -1.
         11   -1    0    0    0    0 -0.00000000000E+00 -0.00000000000E+00 -0.45593999997E+02  0.45594000000E+02  0.51100000000E-03 0.  1.
    9900012    2    1    2    0    0 -0.91519018915E+01  0.27787967123E+02 -0.28235345411E+02  0.50528890867E+02  0.30000094278E+02 0.  0.
         12    1    1    2    0    0  0.91519018915E+01 -0.27787967123E+02  0.28235345411E+02  0.40659109133E+02  0.00000000000E+00 0. -1.
         11    1    3    3    0    0 -0.77124923913E+01  0.21503832596E+01 -0.17079175165E+02  0.18862791724E+02  0.51100000000E-03 0. -1.
        -11    1    3    3    0    0  0.10150386187E+01  0.94070016828E+01 -0.11937500235E+02  0.15232396272E+02  0.51100000000E-03 0.  1.
        -12    1    3    3    0    0 -0.24544481190E+01  0.16230582181E+02  0.78132998921E+00  0.16433702871E+02  0.00000000000E+00 0.  1.
</event>
<event>
 7    1  0.1381607E-011  0.5052885E+02  0.7816164E-02  0.1300439E+00
        -11   -1    0    0    0    0  0.00000000000E+00  0.00000000000E+00  0.45593999997E+02  0.45594000000E+02  0.51100000000E-03 0. -1.
         11   -1    0    0    0    0 -0.00000000000E+00 -0.00000000000E+00 -0.45593999997E+02  0.45594000000E+02  0.51100000000E-03 0.  1.
    9900012    2    1    2    0    0  0.14997860653E+02 -0.24065547328E+02 -0.29138978621E+02  0.50528850138E+02  0.29999970481E+02 0.  0.
         12    1    1    2    0    0 -0.14997860653E+02  0.24065547328E+02  0.29138978621E+02  0.40659149862E+02  0.00000000000E+00 0. -1.
         11    1    3    3    0    0 -0.21778314432E+01 -0.95814721556E+01  0.12992248548E+01  0.99113845626E+01  0.51100000000E-03 0. -1.
        -11    1    3    3    0    0 -0.19223853512E+01 -0.18585404715E+01 -0.84937695173E+01  0.89047099334E+01  0.51100000000E-03 0.  1.
        -12    1    3    3    0    0  0.19098077447E+02 -0.12625534701E+02 -0.21944433959E+02  0.31712755643E+02  0.00000000000E+00 0.  1.
</event>
<event>
 7    1  0.1381607E-011  0.5052887E+02  0.7816164E-02  0.1300439E+00
        -11   -1    0    0    0    0  0.00000000000E+00  0.00000000000E+00  0.45593999997E+02  0.45594000000E+02  0.51100000000E-03 0.  1.
         11   -1    0    0    0    0 -0.00000000000E+00 -0.00000000000E+00 -0.45593999997E+02  0.45594000000E+02  0.51100000000E-03 0. -1.
    9900012    2    1    2    0    0 -0.43512429594E+01  0.82724793371E+01  0.39570157601E+02  0.50528873076E+02  0.30000040202E+02 0.  0.
         12    1    1    2    0    0  0.43512429594E+01 -0.82724793371E+01 -0.39570157601E+02  0.40659126924E+02  0.00000000000E+00 0. -1.
         11    1    3    3    0    0  0.13850344097E+01  0.13152912341E+01  0.17386821440E+02  0.17491422795E+02  0.51100000000E-03 0. -1.
        -11    1    3    3    0    0  0.42176931123E+01  0.11977951599E+02  0.15505391769E+02  0.20041891973E+02  0.51100000000E-03 0.  1.
         12    1    3    3    0    0 -0.99539704814E+01 -0.50207634964E+01  0.66779443917E+01  0.12995558308E+02  0.00000000000E+00 0. -1.
</event>
<event>
 7    1  0.1381607E-011  0.5052886E+02  0.7816164E-02  0.1300439E+00
        -11   -1    0    0    0    0  0.00000000000E+00  0.00000000000E+00  0.45593999997E+02  0.45594000000E+02  0.51100000000E-03 0.  1.
         11   -1    0    0    0    0 -0.00000000000E+00 -0.00000000000E+00 -0.45593999997E+02  0.45594000000E+02  0.51100000000E-03 0. -1.
    9900012    2    1    2    0    0 -0.30749871460E+02 -0.22589811377E+02  0.14046773431E+02  0.50528855682E+02  0.29999987331E+02 0.  0.
         12    1    1    2    0    0  0.30749871460E+02  0.22589811377E+02 -0.14046773431E+02  0.40659144318E+02  0.00000000000E+00 0. -1.
         11    1    3    3    0    0 -0.11624282925E+02 -0.15751080777E+02  0.96446796961E+00  0.19599762700E+02  0.51100000000E-03 0.  1.
        -11    1    3    3    0    0 -0.34705765618E+01  0.24747411760E+01 -0.40809669343E+01  0.59011470868E+01  0.51100000000E-03 0. -1.
        -12    1    3    3    0    0 -0.15655011973E+02 -0.93134717755E+01  0.17163272396E+02  0.25027945895E+02  0.00000000000E+00 0.  1.
</event>
<event>
 7    1  0.1381607E-011  0.5052886E+02  0.7816164E-02  0.1300439E+00
        -11   -1    0    0    0    0  0.00000000000E+00  0.00000000000E+00  0.45593999997E+02  0.45594000000E+02  0.51100000000E-03 0. -1.
         11   -1    0    0    0    0 -0.00000000000E+00 -0.00000000000E+00 -0.45593999997E+02  0.45594000000E+02  0.51100000000E-03 0.  1.
    9900012    2    1    2    0    0  0.15121504371E+02 -0.29016870946E+02 -0.24135596887E+02  0.50528859195E+02  0.29999998009E+02 0.  0.
         12    1    1    2    0    0 -0.15121504371E+02  0.29016870946E+02  0.24135596887E+02  0.40659140805E+02  0.00000000000E+00 0. -1.
         11    1    3    3    0    0 -0.67863019748E+01 -0.11747149901E+02 -0.44704406184E+01  0.14284056317E+02  0.51100000000E-03 0. -1.
        -11    1    3    3    0    0 -0.44522647687E-01 -0.50144290986E+01 -0.52667281048E+01  0.72722009490E+01  0.51100000000E-03 0.  1.
         12    1    3    3    0    0  0.21952328993E+02 -0.12255291946E+02 -0.14398428164E+02  0.28972601928E+02  0.00000000000E+00 0. -1.
</event>
<event>
 7    1  0.1381607E-011  0.5052887E+02  0.7816164E-02  0.1300439E+00
        -11   -1    0    0    0    0  0.00000000000E+00  0.00000000000E+00  0.45593999997E+02  0.45594000000E+02  0.51100000000E-03 0.  1.
         11   -1    0    0    0    0 -0.00000000000E+00 -0.00000000000E+00 -0.45593999997E+02  0.45594000000E+02  0.51100000000E-03 0. -1.
    9900012    2    1    2    0    0  0.73602035147E+01 -0.18898521255E+02  0.35239725061E+02  0.50528869122E+02  0.30000028183E+02 0.  0.
         12    1    1    2    0    0 -0.73602035147E+01  0.18898521255E+02 -0.35239725061E+02  0.40659130878E+02  0.00000000000E+00 0. -1.
         11    1    3    3    0    0 -0.63791606906E+01  0.37223159933E+01  0.52493202773E+01  0.90611638935E+01  0.51100000000E-03 0. -1.
        -11    1    3    3    0    0  0.41688838912E+01 -0.10302090935E+01  0.17080104223E+01  0.46214958118E+01  0.51100000000E-03 0.  1.
         12    1    3    3    0    0  0.95704803142E+01 -0.21590628155E+02  0.28282394361E+02  0.36846209417E+02  0.00000000000E+00 0. -1.
</event>
<event>
 7    1  0.1381607E-011  0.5052886E+02  0.7816164E-02  0.1300439E+00
        -11   -1    0    0    0    0  0.00000000000E+00  0.00000000000E+00  0.45593999997E+02  0.45594000000E+02  0.51100000000E-03 0.  1.
         11   -1    0    0    0    0 -0.00000000000E+00 -0.00000000000E+00 -0.45593999997E+02  0.45594000000E+02  0.51100000000E-03 0. -1.
    9900012    2    1    2    0    0 -0.65730988281E+01 -0.40123162147E+02  0.30282601440E+00  0.50528862375E+02  0.30000007674E+02 0.  0.
         12    1    1    2    0    0  0.65730988281E+01  0.40123162147E+02 -0.30282601440E+00  0.40659137625E+02  0.00000000000E+00 0. -1.
         11    1    3    3    0    0 -0.87195334856E+01 -0.16575681654E+02 -0.13924155674E+01  0.18780902744E+02  0.51100000000E-03 0.  1.
        -11    1    3    3    0    0 -0.21532397619E+01 -0.81604293195E-02 -0.61896945917E+01  0.65535354935E+01  0.51100000000E-03 0. -1.
        -12    1    3    3    0    0  0.42996744194E+01 -0.23539320063E+02  0.78849361735E+01  0.25194424137E+02  0.00000000000E+00 0.  1.
</event>
<event>
 7    1  0.1381607E-011  0.5052888E+02  0.7816164E-02  0.1300439E+00
        -11   -1    0    0    0    0  0.00000000000E+00  0.00000000000E+00  0.45593999997E+02  0.45594000000E+02  0.51100000000E-03 0.  1.
         11   -1    0    0    0    0 -0.00000000000E+00 -0.00000000000E+00 -0.45593999997E+02  0.45594000000E+02  0.51100000000E-03 0. -1.
    9900012    2    1    2    0    0 -0.29248380279E+02 -0.28210392267E+02 -0.13675784252E+01  0.50528877388E+02  0.30000053310E+02 0.  0.
         12    1    1    2    0    0  0.29248380279E+02  0.28210392267E+02  0.13675784252E+01  0.40659122612E+02  0.00000000000E+00 0. -1.
         11    1    3    3    0    0 -0.21401440227E+02 -0.17247847177E+02 -0.34032042328E+01  0.27696419901E+02  0.51100000000E-03 0. -1.
        -11    1    3    3    0    0 -0.48815118582E+01 -0.32800825770E+01 -0.79502115328E+01  0.98890830420E+01  0.51100000000E-03 0.  1.
        -12    1    3    3    0    0 -0.29654281933E+01 -0.76824625134E+01  0.99858373404E+01  0.12943374445E+02  0.00000000000E+00 0.  1.
</event>
<event>
 7    1  0.1381607E-011  0.5052886E+02  0.7816164E-02  0.1300439E+00
        -11   -1    0    0    0    0  0.00000000000E+00  0.00000000000E+00  0.45593999997E+02  0.45594000000E+02  0.51100000000E-03 0. -1.
         11   -1    0    0    0    0 -0.00000000000E+00 -0.00000000000E+00 -0.45593999997E+02  0.45594000000E+02  0.51100000000E-03 0.  1.
    9900012    2    1    2    0    0  0.72403025718E-01  0.38551942743E+02 -0.12919283646E+02  0.50528863003E+02  0.30000009582E+02 0.  0.
         12    1    1    2    0    0 -0.72403025718E-01 -0.38551942743E+02  0.12919283646E+02  0.40659136997E+02  0.00000000000E+00 0. -1.
         11    1    3    3    0    0  0.84845785894E+01  0.25015108513E+02 -0.48012268747E+01  0.26847635045E+02  0.51100000000E-03 0. -1.
        -11    1    3    3    0    0 -0.59066766012E+01  0.38131899288E+01  0.38844832867E+01  0.80323381758E+01  0.51100000000E-03 0.  1.
        -12    1    3    3    0    0 -0.25054989625E+01  0.97236443010E+01 -0.12002540058E+02  0.15648889781E+02  0.00000000000E+00 0.  1.
</event>
<event>
 7    1  0.1381607E-011  0.5052886E+02  0.7816164E-02  0.1300439E+00
        -11   -1    0    0    0    0  0.00000000000E+00  0.00000000000E+00  0.45593999997E+02  0.45594000000E+02  0.51100000000E-03 0.  1.
         11   -1    0    0    0    0 -0.00000000000E+00 -0.00000000000E+00 -0.45593999997E+02  0.45594000000E+02  0.51100000000E-03 0. -1.
    9900012    2    1    2    0    0 -0.12892951723E+02 -0.36002569092E+02  0.13811331236E+02  0.50528855200E+02  0.29999985865E+02 0.  0.
         12    1    1    2    0    0  0.12892951723E+02  0.36002569092E+02 -0.13811331236E+02  0.40659144800E+02  0.00000000000E+00 0. -1.
         11    1    3    3    0    0 -0.21826112628E+01 -0.18800256387E+02  0.57397212537E+01  0.19777710496E+02  0.51100000000E-03 0. -1.
        -11    1    3    3    0    0 -0.21271461060E+01 -0.20172001057E+02  0.35019044240E+01  0.20583918773E+02  0.51100000000E-03 0.  1.
         12    1    3    3    0    0 -0.85831943545E+01  0.29696883517E+01  0.45697055579E+01  0.10167225930E+02  0.00000000000E+00 0. -1.
</event>
<event>
 7    1  0.1381607E-011  0.5052885E+02  0.7816164E-02  0.1300439E+00
        -11   -1    0    0    0    0  0.00000000000E+00  0.00000000000E+00  0.45593999997E+02  0.45594000000E+02  0.51100000000E-03 0.  1.
         11   -1    0    0    0    0 -0.00000000000E+00 -0.00000000000E+00 -0.45593999997E+02  0.45594000000E+02  0.51100000000E-03 0. -1.
    9900012    2    1    2    0    0  0.15996196437E+02 -0.31564469523E+02  0.20024298487E+02  0.50528848919E+02  0.29999966775E+02 0.  0.
         12    1    1    2    0    0 -0.15996196437E+02  0.31564469523E+02 -0.20024298487E+02  0.40659151081E+02  0.00000000000E+00 0. -1.
         11    1    3    3    0    0  0.30001673090E+01  0.38143955898E+01  0.21266466356E+01  0.52984189879E+01  0.51100000000E-03 0. -1.
        -11    1    3    3    0    0  0.13488890649E+02 -0.14001153398E+02  0.43684774231E+01  0.19926516571E+02  0.51100000000E-03 0.  1.
        -12    1    3    3    0    0 -0.49286152057E+00 -0.21377711714E+02  0.13529174428E+02  0.25303913360E+02  0.00000000000E+00 0.  1.
</event>
<event>
 7    1  0.1381607E-011  0.5052887E+02  0.7816164E-02  0.1300439E+00
        -11   -1    0    0    0    0  0.00000000000E+00  0.00000000000E+00  0.45593999997E+02  0.45594000000E+02  0.51100000000E-03 0. -1.
         11   -1    0    0    0    0 -0.00000000000E+00 -0.00000000000E+00 -0.45593999997E+02  0.45594000000E+02  0.51100000000E-03 0.  1.
    9900012    2    1    2    0    0 -0.12752700919E+01  0.34896208359E+02 -0.20827709071E+02  0.50528866503E+02  0.30000020221E+02 0.  0.
         12    1    1    2    0    0  0.12752700919E+01 -0.34896208359E+02  0.20827709071E+02  0.40659133497E+02  0.00000000000E+00 0. -1.
         11    1    3    3    0    0  0.13644557415E+02  0.18154526739E+02 -0.13815282001E+02  0.26582377719E+02  0.51100000000E-03 0. -1.
        -11    1    3    3    0    0 -0.51033030570E+01  0.70406208419E+01 -0.56632035227E+00  0.87140554815E+01  0.51100000000E-03 0.  1.
        -12    1    3    3    0    0 -0.98165244499E+01  0.97010607781E+01 -0.64461067175E+01  0.15232433302E+02  0.00000000000E+00 0.  1.
</event>
<event>
 7    1  0.1381607E-011  0.5052885E+02  0.7816164E-02  0.1300439E+00
        -11   -1    0    0    0    0  0.00000000000E+00  0.00000000000E+00  0.45593999997E+02  0.45594000000E+02  0.51100000000E-03 0.  1.
         11   -1    0    0    0    0 -0.00000000000E+00 -0.00000000000E+00 -0.45593999997E+02  0.45594000000E+02  0.51100000000E-03 0. -1.
    9900012    2    1    2    0    0  0.29437548275E+01 -0.15581561686E+02  0.37439490526E+02  0.50528853331E+02  0.29999980184E+02 0.  0.
         12    1    1    2    0    0 -0.29437548275E+01  0.15581561686E+02 -0.37439490526E+02  0.40659146669E+02  0.00000000000E+00 0. -1.
         11    1    3    3    0    0  0.91185410005E+01 -0.38908492389E+01  0.47221177563E+01  0.10981115342E+02  0.51100000000E-03 0. -1.
        -11    1    3    3    0    0  0.16035314225E+01  0.20512582812E+01 -0.60524990871E+00  0.26730696347E+01  0.51100000000E-03 0.  1.
        -12    1    3    3    0    0 -0.77783175955E+01 -0.13741970728E+02  0.33322622678E+02  0.36874668354E+02  0.00000000000E+00 0.  1.
</event>
<event>
 7    1  0.1381607E-011  0.5052886E+02  0.7816164E-02  0.1300439E+00
        -11   -1    0    0    0    0  0.00000000000E+00  0.00000000000E+00  0.45593999997E+02  0.45594000000E+02  0.51100000000E-03 0.  1.
         11   -1    0    0    0    0 -0.00000000000E+00 -0.00000000000E+00 -0.45593999997E+02  0.45594000000E+02  0.51100000000E-03 0. -1.
    9900012    2    1    2    0    0 -0.15784724985E+02  0.23422653376E+02  0.29247007123E+02  0.50528860072E+02  0.30000000676E+02 0.  0.
         12    1    1    2    0    0  0.15784724985E+02 -0.23422653376E+02 -0.29247007123E+02  0.40659139928E+02  0.00000000000E+00 0. -1.
         11    1    3    3    0    0 -0.55258036216E+01  0.13332602822E+02 -0.20563235323E+01  0.14578109288E+02  0.51100000000E-03 0. -1.
        -11    1    3    3    0    0 -0.10159453179E+02  0.88142192058E+01  0.17418260666E+02  0.22006834257E+02  0.51100000000E-03 0.  1.
        -12    1    3    3    0    0 -0.99468184402E-01  0.12758313479E+01  0.13885069989E+02  0.13943916528E+02  0.00000000000E+00 0.  1.
</event>
<event>
 7    1  0.1381607E-011  0.5052885E+02  0.7816164E-02  0.1300439E+00
        -11   -1    0    0    0    0  0.00000000000E+00  0.00000000000E+00  0.45593999997E+02  0.45594000000E+02  0.51100000000E-03 0.  1.
         11   -1    0    0    0    0 -0.00000000000E+00 -0.00000000000E+00 -0.45593999997E+02  0.45594000000E+02  0.51100000000E-03 0. -1.
    9900012    2    1    2    0    0 -0.89187471322E+00 -0.14446969820E+02  0.37995472684E+02  0.50528851928E+02  0.29999975920E+02 0.  0.
         12    1    1    2    0    0  0.89187471322E+00  0.14446969820E+02 -0.37995472684E+02  0.40659148072E+02  0.00000000000E+00 0. -1.
         11    1    3    3    0    0  0.37484054431E+01  0.56348422463E+01  0.13468614325E+02  0.15073339464E+02  0.51100000000E-03 0. -1.
        -11    1    3    3    0    0  0.44982863236E+01 -0.49228226215E+01  0.23269280183E+01  0.70628150673E+01  0.51100000000E-03 0.  1.
        -12    1    3    3    0    0 -0.91385664799E+01 -0.15158989445E+02  0.22199930341E+02  0.28392697396E+02  0.00000000000E+00 0.  1.
</event>
<event>
 7    1  0.1381607E-011  0.5052885E+02  0.7816164E-02  0.1300439E+00
        -11   -1    0    0    0    0  0.00000000000E+00  0.00000000000E+00  0.45593999997E+02  0.45594000000E+02  0.51100000000E-03 0. -1.
         11   -1    0    0    0    0 -0.00000000000E+00 -0.00000000000E+00 -0.45593999997E+02  0.45594000000E+02  0.51100000000E-03 0.  1.
    9900012    2    1    2    0    0 -0.31785133825E+02  0.24612967131E+02 -0.60888330995E+01  0.50528846396E+02  0.29999959105E+02 0.  0.
         12    1    1    2    0    0  0.31785133825E+02 -0.24612967131E+02  0.60888330995E+01  0.40659153604E+02  0.00000000000E+00 0. -1.
         11    1    3    3    0    0 -0.98454259533E+01  0.47966903285E+01  0.78036002112E+01  0.13447558397E+02  0.51100000000E-03 0. -1.
        -11    1    3    3    0    0 -0.28476162765E+01  0.36325291306E+01 -0.10946844596E+02  0.11880134393E+02  0.51100000000E-03 0.  1.
         12    1    3    3    0    0 -0.19092091595E+02  0.16183747672E+02 -0.29455887151E+01  0.25201153606E+02  0.00000000000E+00 0. -1.
</event>
<event>
 7    1  0.1381607E-011  0.5052886E+02  0.7816164E-02  0.1300439E+00
        -11   -1    0    0    0    0  0.00000000000E+00  0.00000000000E+00  0.45593999997E+02  0.45594000000E+02  0.51100000000E-03 0.  1.
         11   -1    0    0    0    0 -0.00000000000E+00 -0.00000000000E+00 -0.45593999997E+02  0.45594000000E+02  0.51100000000E-03 0. -1.
    9900012    2    1    2    0    0  0.94204709473E+01  0.31864793533E+02 -0.23431930172E+02  0.50528859683E+02  0.29999999492E+02 0.  0.
         12    1    1    2    0    0 -0.94204709473E+01 -0.31864793533E+02  0.23431930172E+02  0.40659140317E+02  0.00000000000E+00 0. -1.
         11    1    3    3    0    0 -0.47143712424E+01  0.10045080674E+02  0.10829256519E+01  0.11149065889E+02  0.51100000000E-03 0. -1.
        -11    1    3    3    0    0 -0.12874304185E+01  0.43885867147E+01  0.11677019924E+01  0.47202434936E+01  0.51100000000E-03 0.  1.
        -12    1    3    3    0    0  0.15422272608E+02  0.17431126144E+02 -0.25682557816E+02  0.34659550301E+02  0.00000000000E+00 0.  1.
</event>
<event>
 7    1  0.1381607E-011  0.5052886E+02  0.7816164E-02  0.1300439E+00
        -11   -1    0    0    0    0  0.00000000000E+00  0.00000000000E+00  0.45593999997E+02  0.45594000000E+02  0.51100000000E-03 0.  1.
         11   -1    0    0    0    0 -0.00000000000E+00 -0.00000000000E+00 -0.45593999997E+02  0.45594000000E+02  0.51100000000E-03 0. -1.
    9900012    2    1    2    0    0 -0.23307852401E+02 -0.82199795981E+01  0.32285321247E+02  0.50528855689E+02  0.29999987351E+02 0.  0.
         12    1    1    2    0    0  0.23307852401E+02  0.82199795981E+01 -0.32285321247E+02  0.40659144311E+02  0.00000000000E+00 0. -1.
         11    1    3    3    0    0  0.29963736984E+01 -0.25970770146E+01 -0.20881656554E+01  0.44814618626E+01  0.51100000000E-03 0. -1.
        -11    1    3    3    0    0 -0.78327519568E+01  0.41934948711E+01  0.57042623828E+01  0.10558220117E+02  0.51100000000E-03 0.  1.
         12    1    3    3    0    0 -0.18471474142E+02 -0.98163974546E+01  0.28669224519E+02  0.35489173709E+02  0.00000000000E+00 0. -1.
</event>
<event>
 7    1  0.1381607E-011  0.5052886E+02  0.7816164E-02  0.1300439E+00
        -11   -1    0    0    0    0  0.00000000000E+00  0.00000000000E+00  0.45593999997E+02  0.45594000000E+02  0.51100000000E-03 0. -1.
         11   -1    0    0    0    0 -0.00000000000E+00 -0.00000000000E+00 -0.45593999997E+02  0.45594000000E+02  0.51100000000E-03 0.  1.
    9900012    2    1    2    0    0  0.13074897156E+02 -0.24055658737E+02 -0.30058912552E+02  0.50528857403E+02  0.29999992562E+02 0.  0.
         12    1    1    2    0    0 -0.13074897156E+02  0.24055658737E+02  0.30058912552E+02  0.40659142597E+02  0.00000000000E+00 0. -1.
         11    1    3    3    0    0 -0.22494807677E+01 -0.11382687725E+01 -0.16110159947E+01  0.29918543278E+01  0.51100000000E-03 0. -1.
        -11    1    3    3    0    0  0.16693861805E+02 -0.96238738603E+01 -0.28219959625E+02  0.34171188032E+02  0.51100000000E-03 0.  1.
         12    1    3    3    0    0 -0.13694838814E+01 -0.13293516105E+02 -0.22793693220E+00  0.13365815043E+02  0.00000000000E+00 0. -1.
</event>
<event>
 7    1  0.1381607E-011  0.5052887E+02  0.7816164E-02  0.1300439E+00
        -11   -1    0    0    0    0  0.00000000000E+00  0.00000000000E+00  0.45593999997E+02  0.45594000000E+02  0.51100000000E-03 0.  1.
         11   -1    0    0    0    0 -0.00000000000E+00 -0.00000000000E+00 -0.45593999997E+02  0.45594000000E+02  0.51100000000E-03 0. -1.
    9900012    2    1    2    0    0 -0.20214538264E+02 -0.15787918798E+01  0.35242653591E+02  0.50528870974E+02  0.30000033811E+02 0.  0.
         12    1    1    2    0    0  0.20214538264E+02  0.15787918798E+01 -0.35242653591E+02  0.40659129026E+02  0.00000000000E+00 0. -1.
         11    1    3    3    0    0 -0.21407401317E+01  0.71317126193E+01  0.53817799003E+01  0.91873635147E+01  0.51100000000E-03 0. -1.
        -11    1    3    3    0    0 -0.30677766061E+01  0.47476470701E+01  0.15757127913E+02  0.16740325156E+02  0.51100000000E-03 0.  1.
        -12    1    3    3    0    0 -0.15006021527E+02 -0.13458151569E+02  0.14103745778E+02  0.24601182302E+02  0.00000000000E+00 0.  1.
</event>
<event>
 7    1  0.1381607E-011  0.5052885E+02  0.7816164E-02  0.1300439E+00
        -11   -1    0    0    0    0  0.00000000000E+00  0.00000000000E+00  0.45593999997E+02  0.45594000000E+02  0.51100000000E-03 0.  1.
         11   -1    0    0    0    0 -0.00000000000E+00 -0.00000000000E+00 -0.45593999997E+02  0.45594000000E+02  0.51100000000E-03 0. -1.
    9900012    2    1    2    0    0 -0.27775607715E+02  0.27659704001E+02  0.10799191383E+02  0.50528854117E+02  0.29999982575E+02 0.  0.
         12    1    1    2    0    0  0.27775607715E+02 -0.27659704001E+02 -0.10799191383E+02  0.40659145883E+02  0.00000000000E+00 0. -1.
         11    1    3    3    0    0  0.14632001348E+01 -0.24423393855E+01 -0.11195977855E+01  0.30593260322E+01  0.51100000000E-03 0. -1.
        -11    1    3    3    0    0 -0.10817672448E+02  0.14578141100E+02 -0.40080762550E+01  0.18590559718E+02  0.51100000000E-03 0.  1.
        -12    1    3    3    0    0 -0.18421135402E+02  0.15523902287E+02  0.15926865424E+02  0.28878968367E+02  0.00000000000E+00 0.  1.
</event>
<event>
 7    1  0.1381607E-011  0.5052885E+02  0.7816164E-02  0.1300439E+00
        -11   -1    0    0    0    0  0.00000000000E+00  0.00000000000E+00  0.45593999997E+02  0.45594000000E+02  0.51100000000E-03 0. -1.
         11   -1    0    0    0    0 -0.00000000000E+00 -0.00000000000E+00 -0.45593999997E+02  0.45594000000E+02  0.51100000000E-03 0.  1.
    9900012    2    1    2    0    0  0.22156594679E+02  0.25408859731E+02 -0.22729758733E+02  0.50528846386E+02  0.29999959074E+02 0.  0.
         12    1    1    2    0    0 -0.22156594679E+02 -0.25408859731E+02  0.22729758733E+02  0.40659153614E+02  0.00000000000E+00 0. -1.
         11    1    3    3    0    0  0.17206955080E+01  0.13358908608E+02  0.66308263110E+00  0.13485581599E+02  0.51100000000E-03 0. -1.
        -11    1    3    3    0    0 -0.10053271413E+01  0.31025268164E+01 -0.93344099143E+01  0.98877481773E+01  0.51100000000E-03 0.  1.
        -12    1    3    3    0    0  0.21441226313E+02  0.89474243065E+01 -0.14058431450E+02  0.27155516610E+02  0.00000000000E+00 0.  1.
</event>
<event>
 7    1  0.1381607E-011  0.5052885E+02  0.7816164E-02  0.1300439E+00
        -11   -1    0    0    0    0  0.00000000000E+00  0.00000000000E+00  0.45593999997E+02  0.45594000000E+02  0.51100000000E-03 0.  1.
         11   -1    0    0    0    0 -0.00000000000E+00 -0.00000000000E+00 -0.45593999997E+02  0.45594000000E+02  0.51100000000E-03 0. -1.
    9900012    2    1    2    0    0 -0.23322242024E+02 -0.95227859579E+01  0.31914819230E+02  0.50528854511E+02  0.29999983770E+02 0.  0.
         12    1    1    2    0    0  0.23322242024E+02  0.95227859579E+01 -0.31914819230E+02  0.40659145489E+02  0.00000000000E+00 0. -1.
         11    1    3    3    0    0 -0.31257902526E+01 -0.87969409301E+01  0.44310008403E+00  0.93462865555E+01  0.51100000000E-03 0. -1.
        -11    1    3    3    0    0  0.27158686930E+01 -0.29517971913E+00  0.76698747509E+01  0.81418703490E+01  0.51100000000E-03 0.  1.
        -12    1    3    3    0    0 -0.22912320464E+02 -0.43066530860E+00  0.23801844395E+02  0.33040697606E+02  0.00000000000E+00 0.  1.
</event>
<event>
 7    1  0.1381607E-011  0.5052886E+02  0.7816164E-02  0.1300439E+00
        -11   -1    0    0    0    0  0.00000000000E+00  0.00000000000E+00  0.45593999997E+02  0.45594000000E+02  0.51100000000E-03 0. -1.
         11   -1    0    0    0    0 -0.00000000000E+00 -0.00000000000E+00 -0.45593999997E+02  0.45594000000E+02  0.51100000000E-03 0.  1.
    9900012    2    1    2    0    0  0.76996176443E+01  0.11258059290E+02 -0.38303230773E+02  0.50528862054E+02  0.30000006700E+02 0.  0.
         12    1    1    2    0    0 -0.76996176443E+01 -0.11258059290E+02  0.38303230773E+02  0.40659137946E+02  0.00000000000E+00 0. -1.
         11    1    3    3    0    0  0.89743628004E+00  0.11566923449E+02 -0.33740733148E+01  0.12082362391E+02  0.51100000000E-03 0. -1.
        -11    1    3    3    0    0  0.64528559228E+01 -0.31118601626E+00 -0.41785849984E+01  0.76939430169E+01  0.51100000000E-03 0.  1.
        -12    1    3    3    0    0  0.34932544139E+00  0.23218564388E-02 -0.30750572460E+02  0.30752556646E+02  0.00000000000E+00 0.  1.
</event>
<event>
 7    1  0.1381607E-011  0.5052886E+02  0.7816164E-02  0.1300439E+00
        -11   -1    0    0    0    0  0.00000000000E+00  0.00000000000E+00  0.45593999997E+02  0.45594000000E+02  0.51100000000E-03 0.  1.
         11   -1    0    0    0    0 -0.00000000000E+00 -0.00000000000E+00 -0.45593999997E+02  0.45594000000E+02  0.51100000000E-03 0. -1.
    9900012    2    1    2    0    0  0.31458109491E+02 -0.23093396035E+02  0.11412629260E+02  0.50528859579E+02  0.29999999176E+02 0.  0.
         12    1    1    2    0    0 -0.31458109491E+02  0.23093396035E+02 -0.11412629260E+02  0.40659140421E+02  0.00000000000E+00 0. -1.
         11    1    3    3    0    0  0.20336381226E+02  0.25272019383E+00 -0.13536251062E+01  0.20382948021E+02  0.51100000000E-03 0. -1.
        -11    1    3    3    0    0  0.68260345478E+01 -0.64768794568E+01  0.18243439801E+01  0.95850376298E+01  0.51100000000E-03 0.  1.
        -12    1    3    3    0    0  0.42956937171E+01 -0.16869236772E+02  0.10941910386E+02  0.20560873928E+02  0.00000000000E+00 0.  1.
</event>
<event>
 7    1  0.1381607E-011  0.5052887E+02  0.7816164E-02  0.1300439E+00
        -11   -1    0    0    0    0  0.00000000000E+00  0.00000000000E+00  0.45593999997E+02  0.45594000000E+02  0.51100000000E-03 0. -1.
         11   -1    0    0    0    0 -0.00000000000E+00 -0.00000000000E+00 -0.45593999997E+02  0.45594000000E+02  0.51100000000E-03 0.  1.
    9900012    2    1    2    0    0  0.26139092919E+02 -0.21440449066E+02 -0.22588048454E+02  0.50528868581E+02  0.30000026539E+02 0.  0.
         12    1    1    2    0    0 -0.26139092919E+02  0.21440449066E+02  0.22588048454E+02  0.40659131419E+02  0.00000000000E+00 0. -1.
         11    1    3    3    0    0  0.98139476588E+01 -0.38097936492E+01  0.40359781156E+01  0.11274627085E+02  0.51100000000E-03 0. -1.
        -11    1    3    3    0    0 -0.16153868263E+01  0.41103721080E-01 -0.73956058609E+01  0.75700825904E+01  0.51100000000E-03 0.  1.
         12    1    3    3    0    0  0.17940532087E+02 -0.17671759138E+02 -0.19228420709E+02  0.31684158905E+02  0.00000000000E+00 0. -1.
</event>
<event>
 7    1  0.1381607E-011  0.5052886E+02  0.7816164E-02  0.1300439E+00
        -11   -1    0    0    0    0  0.00000000000E+00  0.00000000000E+00  0.45593999997E+02  0.45594000000E+02  0.51100000000E-03 0.  1.
         11   -1    0    0    0    0 -0.00000000000E+00 -0.00000000000E+00 -0.45593999997E+02  0.45594000000E+02  0.51100000000E-03 0. -1.
    9900012    2    1    2    0    0  0.24313681450E+02  0.29513962504E+02  0.13817980060E+02  0.50528860053E+02  0.30000000616E+02 0.  0.
         12    1    1    2    0    0 -0.24313681450E+02 -0.29513962504E+02 -0.13817980060E+02  0.40659139947E+02  0.00000000000E+00 0. -1.
         11    1    3    3    0    0  0.20369489621E+02  0.28936066553E+02  0.12165795943E+02  0.37419495536E+02  0.51100000000E-03 0. -1.
        -11    1    3    3    0    0  0.50948443806E+01  0.45568245767E+01  0.44088809922E+01  0.81338995168E+01  0.51100000000E-03 0.  1.
         12    1    3    3    0    0 -0.11506525515E+01 -0.39789286258E+01 -0.27566968754E+01  0.49754650000E+01  0.00000000000E+00 0. -1.
</event>
<event>
 7    1  0.1381607E-011  0.5052886E+02  0.7816164E-02  0.1300439E+00
        -11   -1    0    0    0    0  0.00000000000E+00  0.00000000000E+00  0.45593999997E+02  0.45594000000E+02  0.51100000000E-03 0. -1.
         11   -1    0    0    0    0 -0.00000000000E+00 -0.00000000000E+00 -0.45593999997E+02  0.45594000000E+02  0.51100000000E-03 0.  1.
    9900012    2    1    2    0    0 -0.15258110544E+02 -0.15421811665E+02 -0.34387834069E+02  0.50528863949E+02  0.30000012460E+02 0.  0.
         12    1    1    2    0    0  0.15258110544E+02  0.15421811665E+02  0.34387834069E+02  0.40659136051E+02  0.00000000000E+00 0. -1.
         11    1    3    3    0    0 -0.30475071613E+01  0.20179985926E+01  0.15963131261E+01  0.39884626205E+01  0.51100000000E-03 0.  1.
        -11    1    3    3    0    0  0.43516537226E+01 -0.96506605742E+01 -0.17991201651E+02  0.20874756926E+02  0.51100000000E-03 0. -1.
        -12    1    3    3    0    0 -0.16562257105E+02 -0.77891496839E+01 -0.17992945545E+02  0.25665644403E+02  0.00000000000E+00 0.  1.
</event>
<event>
 7    1  0.1381607E-011  0.5052885E+02  0.7816164E-02  0.1300439E+00
        -11   -1    0    0    0    0  0.00000000000E+00  0.00000000000E+00  0.45593999997E+02  0.45594000000E+02  0.51100000000E-03 0. -1.
         11   -1    0    0    0    0 -0.00000000000E+00 -0.00000000000E+00 -0.45593999997E+02  0.45594000000E+02  0.51100000000E-03 0.  1.
    9900012    2    1    2    0    0  0.29551717744E+02 -0.27357432904E+02 -0.56065098723E+01  0.50528854539E+02  0.29999983856E+02 0.  0.
         12    1    1    2    0    0 -0.29551717744E+02  0.27357432904E+02  0.56065098723E+01  0.40659145461E+02  0.00000000000E+00 0. -1.
         11    1    3    3    0    0  0.99765979500E+01 -0.12646262299E+02  0.87123980132E+01  0.18313010026E+02  0.51100000000E-03 0. -1.
        -11    1    3    3    0    0  0.19246673375E+02 -0.13356309646E+02 -0.65536571409E+01  0.24326443750E+02  0.51100000000E-03 0.  1.
        -12    1    3    3    0    0  0.32844641926E+00 -0.13548609580E+01 -0.77652507446E+01  0.78894007626E+01  0.00000000000E+00 0.  1.
</event>
<event>
 7    1  0.1381607E-011  0.5052886E+02  0.7816164E-02  0.1300439E+00
        -11   -1    0    0    0    0  0.00000000000E+00  0.00000000000E+00  0.45593999997E+02  0.45594000000E+02  0.51100000000E-03 0.  1.
         11   -1    0    0    0    0 -0.00000000000E+00 -0.00000000000E+00 -0.45593999997E+02  0.45594000000E+02  0.51100000000E-03 0. -1.
    9900012    2    1    2    0    0  0.37593046641E+02 -0.12923468729E+02 -0.85388785801E+01  0.50528860226E+02  0.30000001144E+02 0.  0.
         12    1    1    2    0    0 -0.37593046641E+02  0.12923468729E+02  0.85388785801E+01  0.40659139774E+02  0.00000000000E+00 0. -1.
         11    1    3    3    0    0  0.23788483321E+02 -0.68304207222E+01  0.73791866043E+01  0.25826323416E+02  0.51100000000E-03 0.  1.
        -11    1    3    3    0    0  0.55589960917E+01 -0.66593155160E+01 -0.26492313868E+01  0.90701349434E+01  0.51100000000E-03 0. -1.
         12    1    3    3    0    0  0.82455672276E+01  0.56626750917E+00 -0.13268833798E+02  0.15632401867E+02  0.00000000000E+00 0. -1.
</event>
<event>
 7    1  0.1381607E-011  0.5052886E+02  0.7816164E-02  0.1300439E+00
        -11   -1    0    0    0    0  0.00000000000E+00  0.00000000000E+00  0.45593999997E+02  0.45594000000E+02  0.51100000000E-03 0.  1.
         11   -1    0    0    0    0 -0.00000000000E+00 -0.00000000000E+00 -0.45593999997E+02  0.45594000000E+02  0.51100000000E-03 0. -1.
    9900012    2    1    2    0    0 -0.37438774784E+02  0.15807636330E+02  0.12737798571E+01  0.50528859099E+02  0.29999997717E+02 0.  0.
         12    1    1    2    0    0  0.37438774784E+02 -0.15807636330E+02 -0.12737798571E+01  0.40659140901E+02  0.00000000000E+00 0. -1.
         11    1    3    3    0    0  0.35362681684E+00  0.25663555543E+01  0.36824098496E+01  0.45023744090E+01  0.51100000000E-03 0. -1.
        -11    1    3    3    0    0 -0.16068334330E+02 -0.42125015836E+01  0.47070312169E+01  0.17265360722E+02  0.51100000000E-03 0.  1.
        -12    1    3    3    0    0 -0.21724067271E+02  0.17453782359E+02 -0.71156612094E+01  0.28761123968E+02  0.00000000000E+00 0.  1.
</event>
<event>
 7    1  0.1381607E-011  0.5052887E+02  0.7816164E-02  0.1300439E+00
        -11   -1    0    0    0    0  0.00000000000E+00  0.00000000000E+00  0.45593999997E+02  0.45594000000E+02  0.51100000000E-03 0.  1.
         11   -1    0    0    0    0 -0.00000000000E+00 -0.00000000000E+00 -0.45593999997E+02  0.45594000000E+02  0.51100000000E-03 0. -1.
    9900012    2    1    2    0    0 -0.21024515432E+02  0.26760910871E+02  0.22248335231E+02  0.50528867933E+02  0.30000024571E+02 0.  0.
         12    1    1    2    0    0  0.21024515432E+02 -0.26760910871E+02 -0.22248335231E+02  0.40659132067E+02  0.00000000000E+00 0. -1.
         11    1    3    3    0    0 -0.38445574526E+01  0.70276395800E+01  0.16002055546E+02  0.17895086533E+02  0.51100000000E-03 0. -1.
        -11    1    3    3    0    0 -0.14770101623E+02  0.19825831653E+02  0.11186840248E+02  0.27136044253E+02  0.51100000000E-03 0.  1.
        -12    1    3    3    0    0 -0.24098563565E+01 -0.92560361884E-01 -0.49405605619E+01  0.54977371478E+01  0.00000000000E+00 0.  1.
</event>
<event>
 7    1  0.1381607E-011  0.5052885E+02  0.7816164E-02  0.1300439E+00
        -11   -1    0    0    0    0  0.00000000000E+00  0.00000000000E+00  0.45593999997E+02  0.45594000000E+02  0.51100000000E-03 0.  1.
         11   -1    0    0    0    0 -0.00000000000E+00 -0.00000000000E+00 -0.45593999997E+02  0.45594000000E+02  0.51100000000E-03 0. -1.
    9900012    2    1    2    0    0  0.70332336004E+01  0.47351342633E+01  0.39765295876E+02  0.50528848171E+02  0.29999964500E+02 0.  0.
         12    1    1    2    0    0 -0.70332336004E+01 -0.47351342633E+01 -0.39765295876E+02  0.40659151829E+02  0.00000000000E+00 0. -1.
         11    1    3    3    0    0  0.69676626673E+01  0.33776369311E+01  0.31306892313E+02  0.32250244354E+02  0.51100000000E-03 0. -1.
        -11    1    3    3    0    0  0.46382345531E+00  0.82857757867E+01  0.76591807911E+01  0.11293018340E+02  0.51100000000E-03 0.  1.
         12    1    3    3    0    0 -0.39825252215E+00 -0.69282784545E+01  0.79922277158E+00  0.69855854768E+01  0.00000000000E+00 0. -1.
</event>
<event>
 7    1  0.1381607E-011  0.5052885E+02  0.7816164E-02  0.1300439E+00
        -11   -1    0    0    0    0  0.00000000000E+00  0.00000000000E+00  0.45593999997E+02  0.45594000000E+02  0.51100000000E-03 0.  1.
         11   -1    0    0    0    0 -0.00000000000E+00 -0.00000000000E+00 -0.45593999997E+02  0.45594000000E+02  0.51100000000E-03 0. -1.
    9900012    2    1    2    0    0 -0.33270387097E+02 -0.22174896235E+02  0.73838721133E+01  0.50528852837E+02  0.29999978683E+02 0.  0.
         12    1    1    2    0    0  0.33270387097E+02  0.22174896235E+02 -0.73838721133E+01  0.40659147163E+02  0.00000000000E+00 0. -1.
         11    1    3    3    0    0 -0.76622495665E+01 -0.53479469081E+00 -0.57686025937E-01  0.76811068030E+01  0.51100000000E-03 0. -1.
        -11    1    3    3    0    0 -0.33061096468E+00  0.20270594554E+01  0.79552391978E+01  0.82160881569E+01  0.51100000000E-03 0.  1.
        -12    1    3    3    0    0 -0.25277526566E+02 -0.23667161000E+02 -0.51368105854E+00  0.34631657877E+02  0.00000000000E+00 0.  1.
</event>
<event>
 7    1  0.1381607E-011  0.5052887E+02  0.7816164E-02  0.1300439E+00
        -11   -1    0    0    0    0  0.00000000000E+00  0.00000000000E+00  0.45593999997E+02  0.45594000000E+02  0.51100000000E-03 0.  1.
         11   -1    0    0    0    0 -0.00000000000E+00 -0.00000000000E+00 -0.45593999997E+02  0.45594000000E+02  0.51100000000E-03 0. -1.
    9900012    2    1    2    0    0  0.15852530993E+02 -0.83506093662E+00  0.37432139445E+02  0.50528866597E+02  0.30000020508E+02 0.  0.
         12    1    1    2    0    0 -0.15852530993E+02  0.83506093662E+00 -0.37432139445E+02  0.40659133403E+02  0.00000000000E+00 0. -1.
         11    1    3    3    0    0  0.55615379646E+01  0.74027710467E+00 -0.28910617119E+01  0.63116521456E+01  0.51100000000E-03 0. -1.
        -11    1    3    3    0    0 -0.37514633211E+01 -0.14489720365E+01  0.10795847101E+02  0.11520560398E+02  0.51100000000E-03 0.  1.
        -12    1    3    3    0    0  0.14042456349E+02 -0.12636600479E+00  0.29527354056E+02  0.32696654053E+02  0.00000000000E+00 0.  1.
</event>
<event>
 7    1  0.1381607E-011  0.5052885E+02  0.7816164E-02  0.1300439E+00
        -11   -1    0    0    0    0  0.00000000000E+00  0.00000000000E+00  0.45593999997E+02  0.45594000000E+02  0.51100000000E-03 0.  1.
         11   -1    0    0    0    0 -0.00000000000E+00 -0.00000000000E+00 -0.45593999997E+02  0.45594000000E+02  0.51100000000E-03 0. -1.
    9900012    2    1    2    0    0 -0.17403332895E+02 -0.14383991819E+02  0.33814065638E+02  0.50528852794E+02  0.29999978554E+02 0.  0.
         12    1    1    2    0    0  0.17403332895E+02  0.14383991819E+02 -0.33814065638E+02  0.40659147206E+02  0.00000000000E+00 0. -1.
         11    1    3    3    0    0 -0.83245465953E+01  0.12623272941E+00  0.21145917240E+02  0.22725840510E+02  0.51100000000E-03 0. -1.
        -11    1    3    3    0    0  0.31252073576E+01  0.23258589646E+01  0.27237134077E+01  0.47534362244E+01  0.51100000000E-03 0.  1.
         12    1    3    3    0    0 -0.12203993658E+02 -0.16836083513E+02  0.99444349904E+01  0.23049576059E+02  0.00000000000E+00 0. -1.
</event>
<event>
 7    1  0.1381607E-011  0.5052886E+02  0.7816164E-02  0.1300439E+00
        -11   -1    0    0    0    0  0.00000000000E+00  0.00000000000E+00  0.45593999997E+02  0.45594000000E+02  0.51100000000E-03 0. -1.
         11   -1    0    0    0    0 -0.00000000000E+00 -0.00000000000E+00 -0.45593999997E+02  0.45594000000E+02  0.51100000000E-03 0.  1.
    9900012    2    1    2    0    0  0.22201477256E+02  0.32187230646E+02 -0.11146386962E+02  0.50528863865E+02  0.30000012203E+02 0.  0.
         12    1    1    2    0    0 -0.22201477256E+02 -0.32187230646E+02  0.11146386962E+02  0.40659136135E+02  0.00000000000E+00 0. -1.
         11    1    3    3    0    0  0.53946959823E+01  0.15827129618E+02  0.53605464168E+01  0.17559505541E+02  0.51100000000E-03 0. -1.
        -11    1    3    3    0    0  0.38708413387E+01  0.14935256835E+02 -0.75994110343E+01  0.17198731283E+02  0.51100000000E-03 0.  1.
        -12    1    3    3    0    0  0.12935939934E+02  0.14248441924E+01 -0.89075223441E+01  0.15770627041E+02  0.00000000000E+00 0.  1.
</event>
<event>
 7    1  0.1381607E-011  0.5052886E+02  0.7816164E-02  0.1300439E+00
        -11   -1    0    0    0    0  0.00000000000E+00  0.00000000000E+00  0.45593999997E+02  0.45594000000E+02  0.51100000000E-03 0. -1.
         11   -1    0    0    0    0 -0.00000000000E+00 -0.00000000000E+00 -0.45593999997E+02  0.45594000000E+02  0.51100000000E-03 0.  1.
    9900012    2    1    2    0    0 -0.16134558137E+02 -0.35349436515E+02  0.11969076526E+02  0.50528863006E+02  0.30000009593E+02 0.  0.
         12    1    1    2    0    0  0.16134558137E+02  0.35349436515E+02 -0.11969076526E+02  0.40659136994E+02  0.00000000000E+00 0. -1.
         11    1    3    3    0    0 -0.16209687779E+02 -0.29317030036E+02  0.75214958508E+01  0.34333877266E+02  0.51100000000E-03 0. -1.
        -11    1    3    3    0    0 -0.24134976426E+01 -0.10041171620E+02  0.10495643264E+01  0.10380350857E+02  0.51100000000E-03 0.  1.
         12    1    3    3    0    0  0.24886272844E+01  0.40087651409E+01  0.33980163489E+01  0.58146348831E+01  0.00000000000E+00 0. -1.
</event>
<event>
 7    1  0.1381607E-011  0.5052886E+02  0.7816164E-02  0.1300439E+00
        -11   -1    0    0    0    0  0.00000000000E+00  0.00000000000E+00  0.45593999997E+02  0.45594000000E+02  0.51100000000E-03 0. -1.
         11   -1    0    0    0    0 -0.00000000000E+00 -0.00000000000E+00 -0.45593999997E+02  0.45594000000E+02  0.51100000000E-03 0.  1.
    9900012    2    1    2    0    0  0.23373622907E+02 -0.13377443900E+01 -0.33242290825E+02  0.50528859489E+02  0.29999998903E+02 0.  0.
         12    1    1    2    0    0 -0.23373622907E+02  0.13377443900E+01  0.33242290825E+02  0.40659140511E+02  0.00000000000E+00 0. -1.
         11    1    3    3    0    0  0.16448278813E+02  0.14339417411E+01 -0.16828748738E+02  0.23575598597E+02  0.51100000000E-03 0.  1.
        -11    1    3    3    0    0  0.43595995124E+01  0.83879492124E+01 -0.10270440129E+02  0.13958715578E+02  0.51100000000E-03 0. -1.
         12    1    3    3    0    0  0.25657445810E+01 -0.11159635344E+02 -0.61431019577E+01  0.12994545314E+02  0.00000000000E+00 0. -1.
</event>
<event>
 7    1  0.1381607E-011  0.5052885E+02  0.7816164E-02  0.1300439E+00
        -11   -1    0    0    0    0  0.00000000000E+00  0.00000000000E+00  0.45593999997E+02  0.45594000000E+02  0.51100000000E-03 0.  1.
         11   -1    0    0    0    0 -0.00000000000E+00 -0.00000000000E+00 -0.45593999997E+02  0.45594000000E+02  0.51100000000E-03 0. -1.
    9900012    2    1    2    0    0  0.26623592309E+01 -0.34951245264E+02  0.20603116256E+02  0.50528854637E+02  0.29999984155E+02 0.  0.
         12    1    1    2    0    0 -0.26623592309E+01  0.34951245264E+02 -0.20603116256E+02  0.40659145363E+02  0.00000000000E+00 0. -1.
         11    1    3    3    0    0  0.44129972718E+01  0.21076836758E+01  0.63482213028E+01  0.80135378809E+01  0.51100000000E-03 0. -1.
        -11    1    3    3    0    0 -0.48888851316E+01 -0.82484301001E+01  0.88223100247E+01  0.13029618236E+02  0.51100000000E-03 0.  1.
         12    1    3    3    0    0  0.31382470907E+01 -0.28810498840E+02  0.54325849283E+01  0.29485698520E+02  0.00000000000E+00 0. -1.
</event>
<event>
 7    1  0.1381607E-011  0.5052886E+02  0.7816164E-02  0.1300439E+00
        -11   -1    0    0    0    0  0.00000000000E+00  0.00000000000E+00  0.45593999997E+02  0.45594000000E+02  0.51100000000E-03 0.  1.
         11   -1    0    0    0    0 -0.00000000000E+00 -0.00000000000E+00 -0.45593999997E+02  0.45594000000E+02  0.51100000000E-03 0. -1.
    9900012    2    1    2    0    0  0.36288144694E+02 -0.93751285821E+01  0.15762087856E+02  0.50528857180E+02  0.29999991884E+02 0.  0.
         12    1    1    2    0    0 -0.36288144694E+02  0.93751285821E+01 -0.15762087856E+02  0.40659142820E+02  0.00000000000E+00 0. -1.
         11    1    3    3    0    0  0.18407689586E+01  0.31944136492E+01  0.20400433503E+01  0.42136072495E+01  0.51100000000E-03 0. -1.
        -11    1    3    3    0    0  0.24663710884E+02 -0.18693648323E+02  0.39630594441E+01  0.31200271836E+02  0.51100000000E-03 0.  1.
         12    1    3    3    0    0  0.97836648519E+01  0.61241060921E+01  0.97589850621E+01  0.15114978095E+02  0.00000000000E+00 0. -1.
</event>
<event>
 7    1  0.1381607E-011  0.5052886E+02  0.7816164E-02  0.1300439E+00
        -11   -1    0    0    0    0  0.00000000000E+00  0.00000000000E+00  0.45593999997E+02  0.45594000000E+02  0.51100000000E-03 0.  1.
         11   -1    0    0    0    0 -0.00000000000E+00 -0.00000000000E+00 -0.45593999997E+02  0.45594000000E+02  0.51100000000E-03 0. -1.
    9900012    2    1    2    0    0  0.23668243823E+02  0.33045311192E+02  0.99372221326E+00  0.50528857839E+02  0.29999993887E+02 0.  0.
         12    1    1    2    0    0 -0.23668243823E+02 -0.33045311192E+02 -0.99372221326E+00  0.40659142161E+02  0.00000000000E+00 0. -1.
         11    1    3    3    0    0  0.53148204656E+01  0.21439892556E+02 -0.26272953554E+01  0.22244527205E+02  0.51100000000E-03 0. -1.
        -11    1    3    3    0    0  0.62279246223E+00  0.73326623067E+01  0.65020276197E+01  0.98199883087E+01  0.51100000000E-03 0.  1.
         12    1    3    3    0    0  0.17730630895E+02  0.42727563290E+01 -0.28810100511E+01  0.18464342325E+02  0.00000000000E+00 0. -1.
</event>
<event>
 7    1  0.1381607E-011  0.5052886E+02  0.7816164E-02  0.1300439E+00
        -11   -1    0    0    0    0  0.00000000000E+00  0.00000000000E+00  0.45593999997E+02  0.45594000000E+02  0.51100000000E-03 0.  1.
         11   -1    0    0    0    0 -0.00000000000E+00 -0.00000000000E+00 -0.45593999997E+02  0.45594000000E+02  0.51100000000E-03 0. -1.
    9900012    2    1    2    0    0 -0.11607164330E+02 -0.87236248211E+01  0.37978123197E+02  0.50528859141E+02  0.29999997845E+02 0.  0.
         12    1    1    2    0    0  0.11607164330E+02  0.87236248211E+01 -0.37978123197E+02  0.40659140859E+02  0.00000000000E+00 0. -1.
         11    1    3    3    0    0 -0.61534656312E+00 -0.93113726470E+01  0.21069195557E+01  0.95665783977E+01  0.51100000000E-03 0. -1.
        -11    1    3    3    0    0 -0.36318232552E+01  0.58970181741E+01  0.43916244226E+01  0.82006907534E+01  0.51100000000E-03 0.  1.
        -12    1    3    3    0    0 -0.73599945120E+01 -0.53092703482E+01  0.31479579219E+02  0.32761589990E+02  0.00000000000E+00 0.  1.
</event>
<event>
 7    1  0.1381607E-011  0.5052886E+02  0.7816164E-02  0.1300439E+00
        -11   -1    0    0    0    0  0.00000000000E+00  0.00000000000E+00  0.45593999997E+02  0.45594000000E+02  0.51100000000E-03 0.  1.
         11   -1    0    0    0    0 -0.00000000000E+00 -0.00000000000E+00 -0.45593999997E+02  0.45594000000E+02  0.51100000000E-03 0. -1.
    9900012    2    1    2    0    0  0.76194840063E+01 -0.32262757819E+01  0.39808298312E+02  0.50528855808E+02  0.29999987713E+02 0.  0.
         12    1    1    2    0    0 -0.76194840063E+01  0.32262757819E+01 -0.39808298312E+02  0.40659144192E+02  0.00000000000E+00 0. -1.
         11    1    3    3    0    0  0.96931478655E+01 -0.23191473166E+00  0.36063962113E+01  0.10344901830E+02  0.51100000000E-03 0. -1.
        -11    1    3    3    0    0  0.36239146309E+01 -0.86705566734E+01  0.19679185147E+02  0.21807834339E+02  0.51100000000E-03 0.  1.
         12    1    3    3    0    0 -0.56975784902E+01  0.56761956232E+01  0.16522716954E+02  0.18376119638E+02  0.00000000000E+00 0. -1.
</event>
<event>
 7    1  0.1381607E-011  0.5052889E+02  0.7816164E-02  0.1300439E+00
        -11   -1    0    0    0    0  0.00000000000E+00  0.00000000000E+00  0.45593999997E+02  0.45594000000E+02  0.51100000000E-03 0.  1.
         11   -1    0    0    0    0 -0.00000000000E+00 -0.00000000000E+00 -0.45593999997E+02  0.45594000000E+02  0.51100000000E-03 0. -1.
    9900012    2    1    2    0    0  0.30833548650E+01 -0.28702573704E+02  0.28632477004E+02  0.50528885969E+02  0.30000079390E+02 0.  0.
         12    1    1    2    0    0 -0.30833548650E+01  0.28702573704E+02 -0.28632477004E+02  0.40659114031E+02  0.00000000000E+00 0. -1.
         11    1    3    3    0    0  0.13148441503E+01 -0.21154731272E+02  0.83422081204E+01  0.22778145379E+02  0.51100000000E-03 0. -1.
        -11    1    3    3    0    0  0.44637162038E+01 -0.11483152534E+02  0.19271950118E+02  0.22873469699E+02  0.51100000000E-03 0.  1.
         12    1    3    3    0    0 -0.26952054891E+01  0.39353101024E+01  0.10183187659E+01  0.48772708905E+01  0.00000000000E+00 0. -1.
</event>
<event>
 7    1  0.1381607E-011  0.5052886E+02  0.7816164E-02  0.1300439E+00
        -11   -1    0    0    0    0  0.00000000000E+00  0.00000000000E+00  0.45593999997E+02  0.45594000000E+02  0.51100000000E-03 0. -1.
         11   -1    0    0    0    0 -0.00000000000E+00 -0.00000000000E+00 -0.45593999997E+02  0.45594000000E+02  0.51100000000E-03 0.  1.
    9900012    2    1    2    0    0  0.33418607904E+02  0.20661030836E+02 -0.10463454808E+02  0.50528862824E+02  0.30000009039E+02 0.  0.
         12    1    1    2    0    0 -0.33418607904E+02 -0.20661030836E+02  0.10463454808E+02  0.40659137176E+02  0.00000000000E+00 0. -1.
         11    1    3    3    0    0  0.14948391581E+02  0.20335478042E+02 -0.36935370793E+01  0.25507416461E+02  0.51100000000E-03 0.  1.
        -11    1    3    3    0    0  0.12122090260E+02  0.71319436115E+01 -0.10647382055E+01  0.14104728273E+02  0.51100000000E-03 0. -1.
         12    1    3    3    0    0  0.63481260621E+01 -0.68063908180E+01 -0.57051795230E+01  0.10916718090E+02  0.00000000000E+00 0. -1.
</event>
<event>
 7    1  0.1381607E-011  0.5052885E+02  0.7816164E-02  0.1300439E+00
        -11   -1    0    0    0    0  0.00000000000E+00  0.00000000000E+00  0.45593999997E+02  0.45594000000E+02  0.51100000000E-03 0.  1.
         11   -1    0    0    0    0 -0.00000000000E+00 -0.00000000000E+00 -0.45593999997E+02  0.45594000000E+02  0.51100000000E-03 0. -1.
    9900012    2    1    2    0    0  0.20443245007E+01 -0.31525801709E+02 -0.25595129843E+02  0.50528854563E+02  0.29999983929E+02 0.  0.
         12    1    1    2    0    0 -0.20443245007E+01  0.31525801709E+02  0.25595129843E+02  0.40659145437E+02  0.00000000000E+00 0. -1.
         11    1    3    3    0    0  0.22616452780E+01 -0.89401764285E+01  0.14359009129E+01  0.93329312452E+01  0.51100000000E-03 0. -1.
        -11    1    3    3    0    0  0.65648709430E+01 -0.15557649156E+02 -0.58484761916E+01  0.17870160934E+02  0.51100000000E-03 0.  1.
         12    1    3    3    0    0 -0.67821917203E+01 -0.70279761237E+01 -0.21182554564E+02  0.23325762384E+02  0.00000000000E+00 0. -1.
</event>
<event>
 7    1  0.1381607E-011  0.5052878E+02  0.7816164E-02  0.1300439E+00
        -11   -1    0    0    0    0  0.00000000000E+00  0.00000000000E+00  0.45593999997E+02  0.45594000000E+02  0.51100000000E-03 0. -1.
         11   -1    0    0    0    0 -0.00000000000E+00 -0.00000000000E+00 -0.45593999997E+02  0.45594000000E+02  0.51100000000E-03 0.  1.
    9900012    2    1    2    0    0 -0.31924174894E+02 -0.23306468493E+02 -0.95303694769E+01  0.50528777693E+02  0.29999750273E+02 0.  0.
         12    1    1    2    0    0  0.31924174894E+02  0.23306468493E+02  0.95303694769E+01  0.40659222307E+02  0.00000000000E+00 0. -1.
         11    1    3    3    0    0 -0.15099952496E+02 -0.85335435856E+01 -0.10501038019E+02  0.20275643794E+02  0.51100000000E-03 0.  1.
        -11    1    3    3    0    0 -0.15459155128E+02 -0.10035893007E+00  0.12951021257E+01  0.15513633970E+02  0.51100000000E-03 0. -1.
         12    1    3    3    0    0 -0.13650672708E+01 -0.14672565977E+02 -0.32443358316E+00  0.14739499929E+02  0.00000000000E+00 0. -1.
</event>
<event>
 7    1  0.1381607E-011  0.5052887E+02  0.7816164E-02  0.1300439E+00
        -11   -1    0    0    0    0  0.00000000000E+00  0.00000000000E+00  0.45593999997E+02  0.45594000000E+02  0.51100000000E-03 0.  1.
         11   -1    0    0    0    0 -0.00000000000E+00 -0.00000000000E+00 -0.45593999997E+02  0.45594000000E+02  0.51100000000E-03 0. -1.
    9900012    2    1    2    0    0 -0.55186468775E+01  0.26385809789E+02 -0.30438439431E+02  0.50528867980E+02  0.30000024713E+02 0.  0.
         12    1    1    2    0    0  0.55186468775E+01 -0.26385809789E+02  0.30438439431E+02  0.40659132020E+02  0.00000000000E+00 0. -1.
         11    1    3    3    0    0  0.90193042409E+01  0.94438645191E+01 -0.54677677605E+01  0.14157362416E+02  0.51100000000E-03 0. -1.
        -11    1    3    3    0    0 -0.32929545902E+01  0.12599909168E+02 -0.18688516447E+02  0.22778540520E+02  0.51100000000E-03 0.  1.
         12    1    3    3    0    0 -0.11244996528E+02  0.43420361022E+01 -0.62821552241E+01  0.13592965044E+02  0.00000000000E+00 0. -1.
</event>
<event>
 7    1  0.1381607E-011  0.5052886E+02  0.7816164E-02  0.1300439E+00
        -11   -1    0    0    0    0  0.00000000000E+00  0.00000000000E+00  0.45593999997E+02  0.45594000000E+02  0.51100000000E-03 0. -1.
         11   -1    0    0    0    0 -0.00000000000E+00 -0.00000000000E+00 -0.45593999997E+02  0.45594000000E+02  0.51100000000E-03 0.  1.
    9900012    2    1    2    0    0 -0.22610512463E+02  0.21740128497E+02 -0.25870776863E+02  0.50528861342E+02  0.30000004535E+02 0.  0.
         12    1    1    2    0    0  0.22610512463E+02 -0.21740128497E+02  0.25870776863E+02  0.40659138658E+02  0.00000000000E+00 0. -1.
         11    1    3    3    0    0 -0.10968764755E+02  0.14486645803E+02  0.19703679167E+01  0.18277282535E+02  0.51100000000E-03 0. -1.
        -11    1    3    3    0    0  0.11706545657E+01  0.21734991070E+01 -0.35779545119E+01  0.43469862239E+01  0.51100000000E-03 0.  1.
        -12    1    3    3    0    0 -0.12812402274E+02  0.50799835873E+01 -0.24263190268E+02  0.27904592584E+02  0.00000000000E+00 0.  1.
</event>
<event>
 7    1  0.1381607E-011  0.5052889E+02  0.7816164E-02  0.1300439E+00
        -11   -1    0    0    0    0  0.00000000000E+00  0.00000000000E+00  0.45593999997E+02  0.45594000000E+02  0.51100000000E-03 0.  1.
         11   -1    0    0    0    0 -0.00000000000E+00 -0.00000000000E+00 -0.45593999997E+02  0.45594000000E+02  0.51100000000E-03 0. -1.
    9900012    2    1    2    0    0  0.11938653410E+02  0.22937344419E+02  0.31376899663E+02  0.50528892205E+02  0.30000098346E+02 0.  0.
         12    1    1    2    0    0 -0.11938653410E+02 -0.22937344419E+02 -0.31376899663E+02  0.40659107795E+02  0.00000000000E+00 0. -1.
         11    1    3    3    0    0 -0.29779737676E+01  0.89490077004E+01  0.10862656662E+02  0.14385769934E+02  0.51100000000E-03 0. -1.
        -11    1    3    3    0    0  0.18827253477E+02  0.16475073340E+02  0.18363596092E+02  0.31034097002E+02  0.51100000000E-03 0.  1.
         12    1    3    3    0    0 -0.39106262986E+01 -0.24867366215E+01  0.21506469090E+01  0.51090252690E+01  0.00000000000E+00 0. -1.
</event>
<event>
 7    1  0.1381607E-011  0.5052887E+02  0.7816164E-02  0.1300439E+00
        -11   -1    0    0    0    0  0.00000000000E+00  0.00000000000E+00  0.45593999997E+02  0.45594000000E+02  0.51100000000E-03 0.  1.
         11   -1    0    0    0    0 -0.00000000000E+00 -0.00000000000E+00 -0.45593999997E+02  0.45594000000E+02  0.51100000000E-03 0. -1.
    9900012    2    1    2    0    0  0.16066282981E+02 -0.29599290973E+02  0.22779854117E+02  0.50528865375E+02  0.30000016792E+02 0.  0.
         12    1    1    2    0    0 -0.16066282981E+02  0.29599290973E+02 -0.22779854117E+02  0.40659134625E+02  0.00000000000E+00 0. -1.
         11    1    3    3    0    0 -0.65685918812E+00 -0.49703657743E+00  0.84992116297E+01  0.85390343681E+01  0.51100000000E-03 0.  1.
        -11    1    3    3    0    0 -0.39406147745E+01 -0.78294562600E+01 -0.64511162854E+00  0.87889134370E+01  0.51100000000E-03 0. -1.
         12    1    3    3    0    0  0.20663756944E+02 -0.21272798135E+02  0.14925754115E+02  0.33200917569E+02  0.00000000000E+00 0. -1.
</event>
<event>
 7    1  0.1381607E-011  0.5052886E+02  0.7816164E-02  0.1300439E+00
        -11   -1    0    0    0    0  0.00000000000E+00  0.00000000000E+00  0.45593999997E+02  0.45594000000E+02  0.51100000000E-03 0.  1.
         11   -1    0    0    0    0 -0.00000000000E+00 -0.00000000000E+00 -0.45593999997E+02  0.45594000000E+02  0.51100000000E-03 0. -1.
    9900012    2    1    2    0    0 -0.20567502956E+02  0.20028773120E+02  0.28792215033E+02  0.50528861088E+02  0.30000003764E+02 0.  0.
         12    1    1    2    0    0  0.20567502956E+02 -0.20028773120E+02 -0.28792215033E+02  0.40659138912E+02  0.00000000000E+00 0. -1.
         11    1    3    3    0    0 -0.16477437537E+02  0.18883629526E+02  0.14432657190E+02  0.28920563717E+02  0.51100000000E-03 0. -1.
        -11    1    3    3    0    0  0.18570979225E+01  0.15675022025E+01 -0.26431444303E+01  0.35905554709E+01  0.51100000000E-03 0.  1.
        -12    1    3    3    0    0 -0.59471633416E+01 -0.42235860854E+00  0.17002702273E+02  0.18017741901E+02  0.00000000000E+00 0.  1.
</event>
<event>
 7    1  0.1381607E-011  0.5052886E+02  0.7816164E-02  0.1300439E+00
        -11   -1    0    0    0    0  0.00000000000E+00  0.00000000000E+00  0.45593999997E+02  0.45594000000E+02  0.51100000000E-03 0.  1.
         11   -1    0    0    0    0 -0.00000000000E+00 -0.00000000000E+00 -0.45593999997E+02  0.45594000000E+02  0.51100000000E-03 0. -1.
    9900012    2    1    2    0    0  0.34291007426E+01 -0.11495717034E+02  0.38849139595E+02  0.50528857249E+02  0.29999992093E+02 0.  0.
         12    1    1    2    0    0 -0.34291007426E+01  0.11495717034E+02 -0.38849139595E+02  0.40659142751E+02  0.00000000000E+00 0. -1.
         11    1    3    3    0    0  0.80323510674E+00  0.54958102234E+01  0.41424076814E+01  0.69288280616E+01  0.51100000000E-03 0. -1.
        -11    1    3    3    0    0  0.42429177446E+01  0.36945303327E+01  0.80025470659E+01  0.97822627837E+01  0.51100000000E-03 0.  1.
         12    1    3    3    0    0 -0.16170521087E+01 -0.20686057590E+02  0.26704184847E+02  0.33817766403E+02  0.00000000000E+00 0. -1.
</event>
<event>
 7    1  0.1381607E-011  0.5052886E+02  0.7816164E-02  0.1300439E+00
        -11   -1    0    0    0    0  0.00000000000E+00  0.00000000000E+00  0.45593999997E+02  0.45594000000E+02  0.51100000000E-03 0. -1.
         11   -1    0    0    0    0 -0.00000000000E+00 -0.00000000000E+00 -0.45593999997E+02  0.45594000000E+02  0.51100000000E-03 0.  1.
    9900012    2    1    2    0    0 -0.38905928836E+02 -0.25920492065E+01 -0.11522824323E+02  0.50528862060E+02  0.30000006717E+02 0.  0.
         12    1    1    2    0    0  0.38905928836E+02  0.25920492065E+01  0.11522824323E+02  0.40659137940E+02  0.00000000000E+00 0. -1.
         11    1    3    3    0    0  0.20917223785E+00 -0.50153128900E+01 -0.32272830895E+00  0.50300368022E+01  0.51100000000E-03 0. -1.
        -11    1    3    3    0    0 -0.73045358841E+01  0.90037846113E+01 -0.23371825667E+01  0.11827375213E+02  0.51100000000E-03 0.  1.
         12    1    3    3    0    0 -0.31810565190E+02 -0.65805209278E+01 -0.88629134470E+01  0.33671450045E+02  0.00000000000E+00 0. -1.
</event>
<event>
 7    1  0.1381607E-011  0.5052886E+02  0.7816164E-02  0.1300439E+00
        -11   -1    0    0    0    0  0.00000000000E+00  0.00000000000E+00  0.45593999997E+02  0.45594000000E+02  0.51100000000E-03 0. -1.
         11   -1    0    0    0    0 -0.00000000000E+00 -0.00000000000E+00 -0.45593999997E+02  0.45594000000E+02  0.51100000000E-03 0.  1.
    9900012    2    1    2    0    0 -0.21222771366E+02 -0.27414493380E+02 -0.21241583843E+02  0.50528863808E+02  0.30000012030E+02 0.  0.
         12    1    1    2    0    0  0.21222771366E+02  0.27414493380E+02  0.21241583843E+02  0.40659136192E+02  0.00000000000E+00 0. -1.
         11    1    3    3    0    0 -0.10974936579E+02 -0.32242257201E+01 -0.15406003198E+02  0.19188272439E+02  0.51100000000E-03 0.  1.
        -11    1    3    3    0    0 -0.47433942662E+01 -0.19371702370E+02 -0.10624058938E+02  0.22597196075E+02  0.51100000000E-03 0. -1.
         12    1    3    3    0    0 -0.55044405201E+01 -0.48185652907E+01  0.47884782928E+01  0.87433952937E+01  0.00000000000E+00 0. -1.
</event>
<event>
 7    1  0.1381607E-011  0.5052885E+02  0.7816164E-02  0.1300439E+00
        -11   -1    0    0    0    0  0.00000000000E+00  0.00000000000E+00  0.45593999997E+02  0.45594000000E+02  0.51100000000E-03 0. -1.
         11   -1    0    0    0    0 -0.00000000000E+00 -0.00000000000E+00 -0.45593999997E+02  0.45594000000E+02  0.51100000000E-03 0.  1.
    9900012    2    1    2    0    0 -0.22154376446E+02 -0.28067208496E+02 -0.19354112310E+02  0.50528852790E+02  0.29999978542E+02 0.  0.
         12    1    1    2    0    0  0.22154376446E+02  0.28067208496E+02  0.19354112310E+02  0.40659147210E+02  0.00000000000E+00 0. -1.
         11    1    3    3    0    0 -0.78832800520E+01 -0.24789807232E+02 -0.56302208115E+01  0.26615409702E+02  0.51100000000E-03 0. -1.
        -11    1    3    3    0    0 -0.11223919118E+02 -0.77112233783E+01 -0.70288158541E+01  0.15324606975E+02  0.51100000000E-03 0.  1.
         12    1    3    3    0    0 -0.30471772765E+01  0.44338221141E+01 -0.66950756447E+01  0.85888361134E+01  0.00000000000E+00 0. -1.
</event>
<event>
 7    1  0.1381607E-011  0.5052882E+02  0.7816164E-02  0.1300439E+00
        -11   -1    0    0    0    0  0.00000000000E+00  0.00000000000E+00  0.45593999997E+02  0.45594000000E+02  0.51100000000E-03 0.  1.
         11   -1    0    0    0    0 -0.00000000000E+00 -0.00000000000E+00 -0.45593999997E+02  0.45594000000E+02  0.51100000000E-03 0. -1.
    9900012    2    1    2    0    0 -0.24794451736E+02 -0.16939152059E+02  0.27412931747E+02  0.50528824697E+02  0.29999893148E+02 0.  0.
         12    1    1    2    0    0  0.24794451736E+02  0.16939152059E+02 -0.27412931747E+02  0.40659175303E+02  0.00000000000E+00 0. -1.
         11    1    3    3    0    0  0.25042395485E+01  0.25058294408E+01  0.18514908176E+01  0.39973010159E+01  0.51100000000E-03 0. -1.
        -11    1    3    3    0    0 -0.73180068142E+01 -0.13774167394E+01  0.16512906208E+02  0.18114264332E+02  0.51100000000E-03 0.  1.
         12    1    3    3    0    0 -0.19980684470E+02 -0.18067564760E+02  0.90485347217E+01  0.28417259348E+02  0.00000000000E+00 0. -1.
</event>
<event>
 7    1  0.1381607E-011  0.5052886E+02  0.7816164E-02  0.1300439E+00
        -11   -1    0    0    0    0  0.00000000000E+00  0.00000000000E+00  0.45593999997E+02  0.45594000000E+02  0.51100000000E-03 0. -1.
         11   -1    0    0    0    0 -0.00000000000E+00 -0.00000000000E+00 -0.45593999997E+02  0.45594000000E+02  0.51100000000E-03 0.  1.
    9900012    2    1    2    0    0 -0.11152841604E+02 -0.35666750029E+01 -0.38936593756E+02  0.50528863514E+02  0.30000011138E+02 0.  0.
         12    1    1    2    0    0  0.11152841604E+02  0.35666750029E+01  0.38936593756E+02  0.40659136486E+02  0.00000000000E+00 0. -1.
         11    1    3    3    0    0  0.23281420893E+01  0.37216670930E+01 -0.19375613294E+02  0.19866691781E+02  0.51100000000E-03 0. -1.
        -11    1    3    3    0    0 -0.15645689103E+02  0.27776486979E+00 -0.11696615749E+02  0.19536518653E+02  0.51100000000E-03 0.  1.
         12    1    3    3    0    0  0.21647054091E+01 -0.75661069658E+01 -0.78643647125E+01  0.11125653080E+02  0.00000000000E+00 0. -1.
</event>
<event>
 7    1  0.1381607E-011  0.5052884E+02  0.7816164E-02  0.1300439E+00
        -11   -1    0    0    0    0  0.00000000000E+00  0.00000000000E+00  0.45593999997E+02  0.45594000000E+02  0.51100000000E-03 0. -1.
         11   -1    0    0    0    0 -0.00000000000E+00 -0.00000000000E+00 -0.45593999997E+02  0.45594000000E+02  0.51100000000E-03 0.  1.
    9900012    2    1    2    0    0 -0.11160176027E+02  0.21640406308E+02 -0.32562405412E+02  0.50528844078E+02  0.29999952058E+02 0.  0.
         12    1    1    2    0    0  0.11160176027E+02 -0.21640406308E+02  0.32562405412E+02  0.40659155922E+02  0.00000000000E+00 0. -1.
         11    1    3    3    0    0 -0.26181688153E+01  0.55193614712E+01 -0.36119007343E+01  0.70967588497E+01  0.51100000000E-03 0. -1.
        -11    1    3    3    0    0  0.32305952582E+01  0.19663388097E+02 -0.19935061999E+02  0.28186739335E+02  0.51100000000E-03 0.  1.
         12    1    3    3    0    0 -0.11772602470E+02 -0.35423432606E+01 -0.90154426784E+01  0.15245345893E+02  0.00000000000E+00 0. -1.
</event>
<event>
 7    1  0.1381607E-011  0.5052885E+02  0.7816164E-02  0.1300439E+00
        -11   -1    0    0    0    0  0.00000000000E+00  0.00000000000E+00  0.45593999997E+02  0.45594000000E+02  0.51100000000E-03 0.  1.
         11   -1    0    0    0    0 -0.00000000000E+00 -0.00000000000E+00 -0.45593999997E+02  0.45594000000E+02  0.51100000000E-03 0. -1.
    9900012    2    1    2    0    0  0.38157087437E+02  0.13027122367E+02 -0.52438086483E+01  0.50528846443E+02  0.29999959248E+02 0.  0.
         12    1    1    2    0    0 -0.38157087437E+02 -0.13027122367E+02  0.52438086483E+01  0.40659153557E+02  0.00000000000E+00 0. -1.
         11    1    3    3    0    0 -0.19968325175E+01 -0.12348459186E+00  0.10919551378E+01  0.22792443554E+01  0.51100000000E-03 0. -1.
        -11    1    3    3    0    0  0.24317958483E+02  0.18441503167E+01  0.61230778414E+01  0.25144702776E+02  0.51100000000E-03 0.  1.
         12    1    3    3    0    0  0.15835961472E+02  0.11306456642E+02 -0.12458841628E+02  0.23104899312E+02  0.00000000000E+00 0. -1.
</event>
<event>
 7    1  0.1381607E-011  0.5052886E+02  0.7816164E-02  0.1300439E+00
        -11   -1    0    0    0    0  0.00000000000E+00  0.00000000000E+00  0.45593999997E+02  0.45594000000E+02  0.51100000000E-03 0. -1.
         11   -1    0    0    0    0 -0.00000000000E+00 -0.00000000000E+00 -0.45593999997E+02  0.45594000000E+02  0.51100000000E-03 0.  1.
    9900012    2    1    2    0    0 -0.12067592534E+01 -0.33088510146E+02 -0.23597877605E+02  0.50528860817E+02  0.30000002941E+02 0.  0.
         12    1    1    2    0    0  0.12067592534E+01  0.33088510146E+02  0.23597877605E+02  0.40659139183E+02  0.00000000000E+00 0. -1.
         11    1    3    3    0    0 -0.11416252453E+01 -0.99430289667E+00  0.30781114770E+01  0.34302648552E+01  0.51100000000E-03 0. -1.
        -11    1    3    3    0    0 -0.79647178827E+01 -0.10077090248E+02 -0.18079151976E+02  0.22177470894E+02  0.51100000000E-03 0.  1.
        -12    1    3    3    0    0  0.78995838745E+01 -0.22017117001E+02 -0.85968371065E+01  0.24921125068E+02  0.00000000000E+00 0.  1.
</event>
<event>
 7    1  0.1381607E-011  0.5052887E+02  0.7816164E-02  0.1300439E+00
        -11   -1    0    0    0    0  0.00000000000E+00  0.00000000000E+00  0.45593999997E+02  0.45594000000E+02  0.51100000000E-03 0. -1.
         11   -1    0    0    0    0 -0.00000000000E+00 -0.00000000000E+00 -0.45593999997E+02  0.45594000000E+02  0.51100000000E-03 0.  1.
    9900012    2    1    2    0    0 -0.12854297539E+02 -0.23031210022E+02 -0.30943426026E+02  0.50528865547E+02  0.30000017315E+02 0.  0.
         12    1    1    2    0    0  0.12854297539E+02  0.23031210022E+02  0.30943426026E+02  0.40659134453E+02  0.00000000000E+00 0. -1.
         11    1    3    3    0    0 -0.10420736361E+01 -0.17134788829E+02 -0.97736388757E+01  0.19753757183E+02  0.51100000000E-03 0. -1.
        -11    1    3    3    0    0  0.37320503125E+01  0.24222162871E+01 -0.25291788616E+01  0.51178195798E+01  0.51100000000E-03 0.  1.
         12    1    3    3    0    0 -0.15544274215E+02 -0.83186374795E+01 -0.18640608289E+02  0.25657288784E+02  0.00000000000E+00 0. -1.
</event>
<event>
 7    1  0.1381607E-011  0.5052885E+02  0.7816164E-02  0.1300439E+00
        -11   -1    0    0    0    0  0.00000000000E+00  0.00000000000E+00  0.45593999997E+02  0.45594000000E+02  0.51100000000E-03 0. -1.
         11   -1    0    0    0    0 -0.00000000000E+00 -0.00000000000E+00 -0.45593999997E+02  0.45594000000E+02  0.51100000000E-03 0.  1.
    9900012    2    1    2    0    0  0.15706617852E+02  0.13107649827E+02 -0.35137697339E+02  0.50528854625E+02  0.29999984119E+02 0.  0.
         12    1    1    2    0    0 -0.15706617852E+02 -0.13107649827E+02  0.35137697339E+02  0.40659145375E+02  0.00000000000E+00 0. -1.
         11    1    3    3    0    0  0.19818191030E+02  0.44562922828E+01 -0.18224359053E+02  0.27290043968E+02  0.51100000000E-03 0. -1.
        -11    1    3    3    0    0  0.33660779068E+01  0.46382384693E+01 -0.12322934555E+02  0.13590380895E+02  0.51100000000E-03 0.  1.
         12    1    3    3    0    0 -0.74776510848E+01  0.40131190752E+01 -0.45904037302E+01  0.96484297616E+01  0.00000000000E+00 0. -1.
</event>
<event>
 7    1  0.1381607E-011  0.5052887E+02  0.7816164E-02  0.1300439E+00
        -11   -1    0    0    0    0  0.00000000000E+00  0.00000000000E+00  0.45593999997E+02  0.45594000000E+02  0.51100000000E-03 0. -1.
         11   -1    0    0    0    0 -0.00000000000E+00 -0.00000000000E+00 -0.45593999997E+02  0.45594000000E+02  0.51100000000E-03 0.  1.
    9900012    2    1    2    0    0  0.40025931085E+02 -0.19282682452E+01 -0.68827109229E+01  0.50528867110E+02  0.30000022069E+02 0.  0.
         12    1    1    2    0    0 -0.40025931085E+02  0.19282682452E+01  0.68827109229E+01  0.40659132890E+02  0.00000000000E+00 0. -1.
         11    1    3    3    0    0  0.15499781620E+01 -0.30486877317E+01 -0.67127603811E+01  0.75337959478E+01  0.51100000000E-03 0. -1.
        -11    1    3    3    0    0  0.23243685839E+02  0.57214502633E+01 -0.80289010337E+01  0.25248112337E+02  0.51100000000E-03 0.  1.
         12    1    3    3    0    0  0.15232267084E+02 -0.46010307768E+01  0.78589504918E+01  0.17746958826E+02  0.00000000000E+00 0. -1.
</event>
<event>
 7    1  0.1381607E-011  0.5052885E+02  0.7816164E-02  0.1300439E+00
        -11   -1    0    0    0    0  0.00000000000E+00  0.00000000000E+00  0.45593999997E+02  0.45594000000E+02  0.51100000000E-03 0.  1.
         11   -1    0    0    0    0 -0.00000000000E+00 -0.00000000000E+00 -0.45593999997E+02  0.45594000000E+02  0.51100000000E-03 0. -1.
    9900012    2    1    2    0    0  0.10045586034E+02  0.22621766105E+02 -0.32256909601E+02  0.50528851983E+02  0.29999976089E+02 0.  0.
         12    1    1    2    0    0 -0.10045586034E+02 -0.22621766105E+02  0.32256909601E+02  0.40659148017E+02  0.00000000000E+00 0. -1.
         11    1    3    3    0    0 -0.14763119815E+01 -0.28766960834E+01 -0.10867994779E+02  0.11338791303E+02  0.51100000000E-03 0. -1.
        -11    1    3    3    0    0 -0.21770986536E+01  0.12149747912E+02 -0.14053540606E+02  0.18704495093E+02  0.51100000000E-03 0.  1.
        -12    1    3    3    0    0  0.13698996669E+02  0.13348714276E+02 -0.73353742154E+01  0.20485565588E+02  0.00000000000E+00 0.  1.
</event>
<event>
 7    1  0.1381607E-011  0.5052890E+02  0.7816164E-02  0.1300439E+00
        -11   -1    0    0    0    0  0.00000000000E+00  0.00000000000E+00  0.45593999997E+02  0.45594000000E+02  0.51100000000E-03 0.  1.
         11   -1    0    0    0    0 -0.00000000000E+00 -0.00000000000E+00 -0.45593999997E+02  0.45594000000E+02  0.51100000000E-03 0. -1.
    9900012    2    1    2    0    0  0.88434599224E+01  0.13898753047E+02  0.37172310874E+02  0.50528895050E+02  0.30000106993E+02 0.  0.
         12    1    1    2    0    0 -0.88434599224E+01 -0.13898753047E+02 -0.37172310874E+02  0.40659104950E+02  0.00000000000E+00 0. -1.
         11    1    3    3    0    0  0.68635017513E+01  0.70134679853E+01  0.32949016613E+01  0.10351462056E+02  0.51100000000E-03 0. -1.
        -11    1    3    3    0    0  0.28546414588E+01  0.85418852780E+01  0.36136935055E+02  0.37242326154E+02  0.51100000000E-03 0.  1.
         12    1    3    3    0    0 -0.87468328763E+00 -0.16566002167E+01 -0.22595258419E+01  0.29351068399E+01  0.00000000000E+00 0. -1.
</event>
<event>
 7    1  0.1381607E-011  0.5052886E+02  0.7816164E-02  0.1300439E+00
        -11   -1    0    0    0    0  0.00000000000E+00  0.00000000000E+00  0.45593999997E+02  0.45594000000E+02  0.51100000000E-03 0. -1.
         11   -1    0    0    0    0 -0.00000000000E+00 -0.00000000000E+00 -0.45593999997E+02  0.45594000000E+02  0.51100000000E-03 0.  1.
    9900012    2    1    2    0    0 -0.60159358935E+01  0.13306216216E+02 -0.37946260542E+02  0.50528861251E+02  0.30000004258E+02 0.  0.
         12    1    1    2    0    0  0.60159358935E+01 -0.13306216216E+02  0.37946260542E+02  0.40659138749E+02  0.00000000000E+00 0. -1.
         11    1    3    3    0    0 -0.24661702942E+01  0.20301824345E+01  0.23902439126E+01  0.39895993358E+01  0.51100000000E-03 0. -1.
        -11    1    3    3    0    0 -0.10749241457E+02  0.60347144145E+01 -0.13584606528E+02  0.18344086369E+02  0.51100000000E-03 0.  1.
        -12    1    3    3    0    0  0.71994758576E+01  0.52413193670E+01 -0.26751897927E+02  0.28195175546E+02  0.00000000000E+00 0.  1.
</event>
<event>
 7    1  0.1381607E-011  0.5052886E+02  0.7816164E-02  0.1300439E+00
        -11   -1    0    0    0    0  0.00000000000E+00  0.00000000000E+00  0.45593999997E+02  0.45594000000E+02  0.51100000000E-03 0.  1.
         11   -1    0    0    0    0 -0.00000000000E+00 -0.00000000000E+00 -0.45593999997E+02  0.45594000000E+02  0.51100000000E-03 0. -1.
    9900012    2    1    2    0    0 -0.14718434514E+02  0.18473303022E+02  0.33094875385E+02  0.50528855693E+02  0.29999987363E+02 0.  0.
         12    1    1    2    0    0  0.14718434514E+02 -0.18473303022E+02 -0.33094875385E+02  0.40659144307E+02  0.00000000000E+00 0. -1.
         11    1    3    3    0    0  0.51095143043E+01 -0.22286134324E+00  0.13716067441E+02  0.14638555596E+02  0.51100000000E-03 0. -1.
        -11    1    3    3    0    0 -0.82571820655E+01  0.41929960887E+01  0.13607998250E+02  0.16460251775E+02  0.51100000000E-03 0.  1.
        -12    1    3    3    0    0 -0.11570766753E+02  0.14503168276E+02  0.57708096937E+01  0.19430048322E+02  0.00000000000E+00 0.  1.
</event>
<event>
 7    1  0.1381607E-011  0.5052886E+02  0.7816164E-02  0.1300439E+00
        -11   -1    0    0    0    0  0.00000000000E+00  0.00000000000E+00  0.45593999997E+02  0.45594000000E+02  0.51100000000E-03 0.  1.
         11   -1    0    0    0    0 -0.00000000000E+00 -0.00000000000E+00 -0.45593999997E+02  0.45594000000E+02  0.51100000000E-03 0. -1.
    9900012    2    1    2    0    0  0.20220933746E+02  0.14368527491E+02  0.32215293124E+02  0.50528857671E+02  0.29999993376E+02 0.  0.
         12    1    1    2    0    0 -0.20220933746E+02 -0.14368527491E+02 -0.32215293124E+02  0.40659142329E+02  0.00000000000E+00 0. -1.
         11    1    3    3    0    0 -0.19989680948E+00 -0.41054774871E+01  0.35088976794E+01  0.54043748313E+01  0.51100000000E-03 0. -1.
        -11    1    3    3    0    0  0.22788440556E+02  0.81775933674E+01  0.20963717194E+02  0.32025981564E+02  0.51100000000E-03 0.  1.
         12    1    3    3    0    0 -0.23676100001E+01  0.10296411611E+02  0.77426782508E+01  0.13098501276E+02  0.00000000000E+00 0. -1.
</event>
<event>
 7    1  0.1381607E-011  0.5052885E+02  0.7816164E-02  0.1300439E+00
        -11   -1    0    0    0    0  0.00000000000E+00  0.00000000000E+00  0.45593999997E+02  0.45594000000E+02  0.51100000000E-03 0. -1.
         11   -1    0    0    0    0 -0.00000000000E+00 -0.00000000000E+00 -0.45593999997E+02  0.45594000000E+02  0.51100000000E-03 0.  1.
    9900012    2    1    2    0    0  0.36059143598E+01 -0.36639168384E+02 -0.17254994591E+02  0.50528854453E+02  0.29999983596E+02 0.  0.
         12    1    1    2    0    0 -0.36059143598E+01  0.36639168384E+02  0.17254994591E+02  0.40659145547E+02  0.00000000000E+00 0. -1.
         11    1    3    3    0    0  0.22681993868E+01 -0.30250911822E+00 -0.92938680203E+01  0.95714274413E+01  0.51100000000E-03 0. -1.
        -11    1    3    3    0    0  0.46237697492E+01 -0.16921356352E+02 -0.11465835749E+02  0.20956548790E+02  0.51100000000E-03 0.  1.
         12    1    3    3    0    0 -0.32860547762E+01 -0.19415302914E+02  0.35047091781E+01  0.20000878222E+02  0.00000000000E+00 0. -1.
</event>
<event>
 7    1  0.1381607E-011  0.5052884E+02  0.7816164E-02  0.1300439E+00
        -11   -1    0    0    0    0  0.00000000000E+00  0.00000000000E+00  0.45593999997E+02  0.45594000000E+02  0.51100000000E-03 0.  1.
         11   -1    0    0    0    0 -0.00000000000E+00 -0.00000000000E+00 -0.45593999997E+02  0.45594000000E+02  0.51100000000E-03 0. -1.
    9900012    2    1    2    0    0 -0.26859823500E+02 -0.30418096838E+02 -0.25409086508E+01  0.50528844199E+02  0.29999952426E+02 0.  0.
         12    1    1    2    0    0  0.26859823500E+02  0.30418096838E+02  0.25409086508E+01  0.40659155801E+02  0.00000000000E+00 0. -1.
         11    1    3    3    0    0 -0.14426922887E+02 -0.17689323608E+01 -0.83739437034E+01  0.16774628434E+02  0.51100000000E-03 0. -1.
        -11    1    3    3    0    0  0.17019508953E+01 -0.44234684587E+01 -0.10928897908E+01  0.48639611851E+01  0.51100000000E-03 0.  1.
        -12    1    3    3    0    0 -0.14134851508E+02 -0.24225696019E+02  0.69259248434E+01  0.28890254580E+02  0.00000000000E+00 0.  1.
</event>
<event>
 7    1  0.1381607E-011  0.5052888E+02  0.7816164E-02  0.1300439E+00
        -11   -1    0    0    0    0  0.00000000000E+00  0.00000000000E+00  0.45593999997E+02  0.45594000000E+02  0.51100000000E-03 0.  1.
         11   -1    0    0    0    0 -0.00000000000E+00 -0.00000000000E+00 -0.45593999997E+02  0.45594000000E+02  0.51100000000E-03 0. -1.
    9900012    2    1    2    0    0 -0.31020797946E+02  0.24065054153E+02  0.10571046296E+02  0.50528883478E+02  0.30000071818E+02 0.  0.
         12    1    1    2    0    0  0.31020797946E+02 -0.24065054153E+02 -0.10571046296E+02  0.40659116522E+02  0.00000000000E+00 0. -1.
         11    1    3    3    0    0 -0.12940113758E+02  0.86695224500E+01  0.68704011642E+01  0.17023794407E+02  0.51100000000E-03 0. -1.
        -11    1    3    3    0    0 -0.48197025190E+01 -0.13595728475E+01  0.10037491501E+02  0.11217361838E+02  0.51100000000E-03 0.  1.
         12    1    3    3    0    0 -0.13260981669E+02  0.16755104550E+02 -0.63368463691E+01  0.22287727233E+02  0.00000000000E+00 0. -1.
</event>
<event>
 7    1  0.1381607E-011  0.5052886E+02  0.7816164E-02  0.1300439E+00
        -11   -1    0    0    0    0  0.00000000000E+00  0.00000000000E+00  0.45593999997E+02  0.45594000000E+02  0.51100000000E-03 0.  1.
         11   -1    0    0    0    0 -0.00000000000E+00 -0.00000000000E+00 -0.45593999997E+02  0.45594000000E+02  0.51100000000E-03 0. -1.
    9900012    2    1    2    0    0 -0.79613486712E+01 -0.98749122236E+01  0.38629894010E+02  0.50528859880E+02  0.30000000090E+02 0.  0.
         12    1    1    2    0    0  0.79613486712E+01  0.98749122236E+01 -0.38629894010E+02  0.40659140120E+02  0.00000000000E+00 0. -1.
         11    1    3    3    0    0  0.42981609849E+01 -0.39360475940E+01  0.61855410140E+01  0.84986808630E+01  0.51100000000E-03 0. -1.
        -11    1    3    3    0    0  0.21534262907E+01 -0.78791252569E+01  0.23683011193E+02  0.25052003494E+02  0.51100000000E-03 0.  1.
         12    1    3    3    0    0 -0.14412935947E+02  0.19402606273E+01  0.87613418031E+01  0.16978175523E+02  0.00000000000E+00 0. -1.
</event>
<event>
 7    1  0.1381607E-011  0.5052887E+02  0.7816164E-02  0.1300439E+00
        -11   -1    0    0    0    0  0.00000000000E+00  0.00000000000E+00  0.45593999997E+02  0.45594000000E+02  0.51100000000E-03 0.  1.
         11   -1    0    0    0    0 -0.00000000000E+00 -0.00000000000E+00 -0.45593999997E+02  0.45594000000E+02  0.51100000000E-03 0. -1.
    9900012    2    1    2    0    0 -0.21059334189E+02  0.34737886794E+02 -0.17172178365E+01  0.50528866063E+02  0.30000018884E+02 0.  0.
         12    1    1    2    0    0  0.21059334189E+02 -0.34737886794E+02  0.17172178365E+01  0.40659133937E+02  0.00000000000E+00 0. -1.
         11    1    3    3    0    0 -0.94322405092E+01 -0.15561268429E+00 -0.69996610601E+01  0.11746771112E+02  0.51100000000E-03 0. -1.
        -11    1    3    3    0    0 -0.77408701411E+01  0.82417993055E+01 -0.14123893036E+00  0.11307885524E+02  0.51100000000E-03 0.  1.
         12    1    3    3    0    0 -0.38862235389E+01  0.26651700173E+02  0.54236821540E+01  0.27474209427E+02  0.00000000000E+00 0. -1.
</event>
<event>
 7    1  0.1381607E-011  0.5052886E+02  0.7816164E-02  0.1300439E+00
        -11   -1    0    0    0    0  0.00000000000E+00  0.00000000000E+00  0.45593999997E+02  0.45594000000E+02  0.51100000000E-03 0.  1.
         11   -1    0    0    0    0 -0.00000000000E+00 -0.00000000000E+00 -0.45593999997E+02  0.45594000000E+02  0.51100000000E-03 0. -1.
    9900012    2    1    2    0    0  0.27096360042E+02 -0.12763996125E+02  0.27496056499E+02  0.50528862680E+02  0.30000008603E+02 0.  0.
         12    1    1    2    0    0 -0.27096360042E+02  0.12763996125E+02 -0.27496056499E+02  0.40659137320E+02  0.00000000000E+00 0. -1.
         11    1    3    3    0    0  0.15236927197E+02 -0.24666736793E+01  0.20033994050E+02  0.25290499151E+02  0.51100000000E-03 0. -1.
        -11    1    3    3    0    0  0.13821201364E+02 -0.22269270516E+01  0.92016015827E+01  0.16752739573E+02  0.51100000000E-03 0.  1.
         12    1    3    3    0    0 -0.19617685197E+01 -0.80703953937E+01 -0.17395391332E+01  0.84856239565E+01  0.00000000000E+00 0. -1.
</event>
<event>
 7    1  0.1381607E-011  0.5052885E+02  0.7816164E-02  0.1300439E+00
        -11   -1    0    0    0    0  0.00000000000E+00  0.00000000000E+00  0.45593999997E+02  0.45594000000E+02  0.51100000000E-03 0.  1.
         11   -1    0    0    0    0 -0.00000000000E+00 -0.00000000000E+00 -0.45593999997E+02  0.45594000000E+02  0.51100000000E-03 0. -1.
    9900012    2    1    2    0    0 -0.18821160472E+02  0.31376767460E+01  0.35903832016E+02  0.50528852809E+02  0.29999978599E+02 0.  0.
         12    1    1    2    0    0  0.18821160472E+02 -0.31376767460E+01 -0.35903832016E+02  0.40659147191E+02  0.00000000000E+00 0. -1.
         11    1    3    3    0    0 -0.25256037786E+01  0.10208815418E+01 -0.32980612176E+01  0.42776256995E+01  0.51100000000E-03 0. -1.
        -11    1    3    3    0    0 -0.13329661650E+02 -0.44008391468E+01  0.13155211648E+02  0.19238161520E+02  0.51100000000E-03 0.  1.
        -12    1    3    3    0    0 -0.29658950432E+01  0.65176343510E+01  0.26046681585E+02  0.27013065590E+02  0.00000000000E+00 0.  1.
</event>
<event>
 7    1  0.1381607E-011  0.5052886E+02  0.7816164E-02  0.1300439E+00
        -11   -1    0    0    0    0  0.00000000000E+00  0.00000000000E+00  0.45593999997E+02  0.45594000000E+02  0.51100000000E-03 0.  1.
         11   -1    0    0    0    0 -0.00000000000E+00 -0.00000000000E+00 -0.45593999997E+02  0.45594000000E+02  0.51100000000E-03 0. -1.
    9900012    2    1    2    0    0 -0.12215478308E+02  0.12695654933E+02  0.36643802610E+02  0.50528857926E+02  0.29999994151E+02 0.  0.
         12    1    1    2    0    0  0.12215478308E+02 -0.12695654933E+02 -0.36643802610E+02  0.40659142074E+02  0.00000000000E+00 0. -1.
         11    1    3    3    0    0 -0.84426356001E+01 -0.87203418850E+00  0.35752993617E+01  0.92098482772E+01  0.51100000000E-03 0. -1.
        -11    1    3    3    0    0 -0.48142677118E+01  0.17019785467E+01  0.27850759523E+02  0.28314990921E+02  0.51100000000E-03 0.  1.
         12    1    3    3    0    0  0.10414250037E+01  0.11865710575E+02  0.52177437252E+01  0.13004018728E+02  0.00000000000E+00 0. -1.
</event>
<event>
 7    1  0.1381607E-011  0.5052888E+02  0.7816164E-02  0.1300439E+00
        -11   -1    0    0    0    0  0.00000000000E+00  0.00000000000E+00  0.45593999997E+02  0.45594000000E+02  0.51100000000E-03 0. -1.
         11   -1    0    0    0    0 -0.00000000000E+00 -0.00000000000E+00 -0.45593999997E+02  0.45594000000E+02  0.51100000000E-03 0.  1.
    9900012    2    1    2    0    0  0.26453290137E+02 -0.51937942949E+01 -0.30437020334E+02  0.50528877222E+02  0.30000052804E+02 0.  0.
         12    1    1    2    0    0 -0.26453290137E+02  0.51937942949E+01  0.30437020334E+02  0.40659122778E+02  0.00000000000E+00 0. -1.
         11    1    3    3    0    0  0.16230857248E+00  0.84348002464E+01 -0.14583129190E+02  0.16847547493E+02  0.51100000000E-03 0. -1.
        -11    1    3    3    0    0  0.76857252439E+01 -0.31733261001E+01 -0.54204408078E+01  0.99258022283E+01  0.51100000000E-03 0.  1.
        -12    1    3    3    0    0  0.18605256321E+02 -0.10455268441E+02 -0.10433450336E+02  0.23755527501E+02  0.00000000000E+00 0.  1.
</event>
<event>
 7    1  0.1381607E-011  0.5052886E+02  0.7816164E-02  0.1300439E+00
        -11   -1    0    0    0    0  0.00000000000E+00  0.00000000000E+00  0.45593999997E+02  0.45594000000E+02  0.51100000000E-03 0.  1.
         11   -1    0    0    0    0 -0.00000000000E+00 -0.00000000000E+00 -0.45593999997E+02  0.45594000000E+02  0.51100000000E-03 0. -1.
    9900012    2    1    2    0    0 -0.32019197814E+02  0.10801377988E+02  0.22611213947E+02  0.50528858454E+02  0.29999995756E+02 0.  0.
         12    1    1    2    0    0  0.32019197814E+02 -0.10801377988E+02 -0.22611213947E+02  0.40659141546E+02  0.00000000000E+00 0. -1.
         11    1    3    3    0    0 -0.54387336426E+01  0.59536192689E+01  0.17370807458E+02  0.19151249517E+02  0.51100000000E-03 0. -1.
        -11    1    3    3    0    0 -0.71865014299E+01  0.12088505538E+01  0.86950472827E+01  0.11345085719E+02  0.51100000000E-03 0.  1.
         12    1    3    3    0    0 -0.19393962742E+02  0.36389081654E+01 -0.34546407936E+01  0.20032523218E+02  0.00000000000E+00 0. -1.
</event>
<event>
 7    1  0.1381607E-011  0.5052891E+02  0.7816164E-02  0.1300439E+00
        -11   -1    0    0    0    0  0.00000000000E+00  0.00000000000E+00  0.45593999997E+02  0.45594000000E+02  0.51100000000E-03 0.  1.
         11   -1    0    0    0    0 -0.00000000000E+00 -0.00000000000E+00 -0.45593999997E+02  0.45594000000E+02  0.51100000000E-03 0. -1.
    9900012    2    1    2    0    0 -0.13888257773E+02 -0.15526380436E+02  0.34917180917E+02  0.50528908561E+02  0.30000148062E+02 0.  0.
         12    1    1    2    0    0  0.13888257773E+02  0.15526380436E+02 -0.34917180917E+02  0.40659091439E+02  0.00000000000E+00 0. -1.
         11    1    3    3    0    0  0.15734683496E+01  0.48553442993E-01  0.22193650448E+02  0.22249410791E+02  0.51100000000E-03 0.  1.
        -11    1    3    3    0    0 -0.12678746090E+01 -0.84033858398E+01  0.80460891113E+01  0.11703159823E+02  0.51100000000E-03 0. -1.
         12    1    3    3    0    0 -0.14193851514E+02 -0.71715480394E+01  0.46774413579E+01  0.16576337947E+02  0.00000000000E+00 0. -1.
</event>
<event>
 7    1  0.1381607E-011  0.5052885E+02  0.7816164E-02  0.1300439E+00
        -11   -1    0    0    0    0  0.00000000000E+00  0.00000000000E+00  0.45593999997E+02  0.45594000000E+02  0.51100000000E-03 0.  1.
         11   -1    0    0    0    0 -0.00000000000E+00 -0.00000000000E+00 -0.45593999997E+02  0.45594000000E+02  0.51100000000E-03 0. -1.
    9900012    2    1    2    0    0  0.11542588431E+02 -0.21226606739E+02  0.32701163647E+02  0.50528852380E+02  0.29999977293E+02 0.  0.
         12    1    1    2    0    0 -0.11542588431E+02  0.21226606739E+02 -0.32701163647E+02  0.40659147620E+02  0.00000000000E+00 0. -1.
         11    1    3    3    0    0 -0.54431126821E+01 -0.81399452931E+00  0.69236889855E+01  0.88446329598E+01  0.51100000000E-03 0. -1.
        -11    1    3    3    0    0  0.10661014990E+02 -0.32624256030E+01  0.19304555659E+02  0.22292746150E+02  0.51100000000E-03 0.  1.
         12    1    3    3    0    0  0.63246861223E+01 -0.17150186606E+02  0.64729190030E+01  0.19391473270E+02  0.00000000000E+00 0. -1.
</event>
<event>
 7    1  0.1381607E-011  0.5052885E+02  0.7816164E-02  0.1300439E+00
        -11   -1    0    0    0    0  0.00000000000E+00  0.00000000000E+00  0.45593999997E+02  0.45594000000E+02  0.51100000000E-03 0.  1.
         11   -1    0    0    0    0 -0.00000000000E+00 -0.00000000000E+00 -0.45593999997E+02  0.45594000000E+02  0.51100000000E-03 0. -1.
    9900012    2    1    2    0    0 -0.66149320586E+01  0.35531932831E+02  0.18624998750E+02  0.50528853978E+02  0.29999982150E+02 0.  0.
         12    1    1    2    0    0  0.66149320586E+01 -0.35531932831E+02 -0.18624998750E+02  0.40659146022E+02  0.00000000000E+00 0. -1.
         11    1    3    3    0    0 -0.54443948008E+01  0.88943092890E+00 -0.32439347095E+01  0.63996589585E+01  0.51100000000E-03 0. -1.
        -11    1    3    3    0    0 -0.21581587483E+01  0.48687664797E+01  0.11348514063E+02  0.12536000475E+02  0.51100000000E-03 0.  1.
         12    1    3    3    0    0  0.98762149051E+00  0.29773735422E+02  0.10520419396E+02  0.31593194544E+02  0.00000000000E+00 0. -1.
</event>
<event>
 7    1  0.1381607E-011  0.5052885E+02  0.7816164E-02  0.1300439E+00
        -11   -1    0    0    0    0  0.00000000000E+00  0.00000000000E+00  0.45593999997E+02  0.45594000000E+02  0.51100000000E-03 0. -1.
         11   -1    0    0    0    0 -0.00000000000E+00 -0.00000000000E+00 -0.45593999997E+02  0.45594000000E+02  0.51100000000E-03 0.  1.
    9900012    2    1    2    0    0  0.13335296913E+01 -0.15379416357E+02 -0.37614648319E+02  0.50528849529E+02  0.29999968628E+02 0.  0.
         12    1    1    2    0    0 -0.13335296913E+01  0.15379416357E+02  0.37614648319E+02  0.40659150471E+02  0.00000000000E+00 0. -1.
         11    1    3    3    0    0 -0.22676523187E+01 -0.40498237622E+01  0.21344302663E+01  0.51087290362E+01  0.51100000000E-03 0. -1.
        -11    1    3    3    0    0  0.54810627879E+01 -0.13016037601E+02 -0.15226719777E+02  0.20768059119E+02  0.51100000000E-03 0.  1.
        -12    1    3    3    0    0 -0.18798807779E+01  0.16864450067E+01 -0.24522358808E+02  0.24652061374E+02  0.00000000000E+00 0.  1.
</event>
<event>
 7    1  0.1381607E-011  0.5052886E+02  0.7816164E-02  0.1300439E+00
        -11   -1    0    0    0    0  0.00000000000E+00  0.00000000000E+00  0.45593999997E+02  0.45594000000E+02  0.51100000000E-03 0. -1.
         11   -1    0    0    0    0 -0.00000000000E+00 -0.00000000000E+00 -0.45593999997E+02  0.45594000000E+02  0.51100000000E-03 0.  1.
    9900012    2    1    2    0    0 -0.40635972722E+02  0.16299513466E+00 -0.13625513654E+01  0.50528863355E+02  0.30000010654E+02 0.  0.
         12    1    1    2    0    0  0.40635972722E+02 -0.16299513466E+00  0.13625513654E+01  0.40659136645E+02  0.00000000000E+00 0. -1.
         11    1    3    3    0    0 -0.60421602750E+01 -0.76466588924E+01  0.17185204623E+01  0.98960803274E+01  0.51100000000E-03 0. -1.
        -11    1    3    3    0    0 -0.21668292196E+02 -0.35107208041E+01  0.35105681756E+01  0.22229802888E+02  0.51100000000E-03 0.  1.
         12    1    3    3    0    0 -0.12925520251E+02  0.11320374831E+02 -0.65916400034E+01  0.18402980139E+02  0.00000000000E+00 0. -1.
</event>
<event>
 7    1  0.1381607E-011  0.5052886E+02  0.7816164E-02  0.1300439E+00
        -11   -1    0    0    0    0  0.00000000000E+00  0.00000000000E+00  0.45593999997E+02  0.45594000000E+02  0.51100000000E-03 0. -1.
         11   -1    0    0    0    0 -0.00000000000E+00 -0.00000000000E+00 -0.45593999997E+02  0.45594000000E+02  0.51100000000E-03 0.  1.
    9900012    2    1    2    0    0  0.18839948098E+02 -0.10262991281E+02 -0.34538281021E+02  0.50528862155E+02  0.30000007008E+02 0.  0.
         12    1    1    2    0    0 -0.18839948098E+02  0.10262991281E+02  0.34538281021E+02  0.40659137845E+02  0.00000000000E+00 0. -1.
         11    1    3    3    0    0 -0.10596093593E+00  0.49382861060E+00 -0.44424367480E+01  0.44710556849E+01  0.51100000000E-03 0. -1.
        -11    1    3    3    0    0  0.50207172768E+01 -0.11729621014E+02 -0.29436984020E+02  0.32083136373E+02  0.51100000000E-03 0.  1.
        -12    1    3    3    0    0  0.13925191757E+02  0.97280112197E+00 -0.65886025341E+00  0.13974670098E+02  0.00000000000E+00 0.  1.
</event>
<event>
 7    1  0.1381607E-011  0.5052885E+02  0.7816164E-02  0.1300439E+00
        -11   -1    0    0    0    0  0.00000000000E+00  0.00000000000E+00  0.45593999997E+02  0.45594000000E+02  0.51100000000E-03 0.  1.
         11   -1    0    0    0    0 -0.00000000000E+00 -0.00000000000E+00 -0.45593999997E+02  0.45594000000E+02  0.51100000000E-03 0. -1.
    9900012    2    1    2    0    0 -0.37320303311E+02  0.16104326585E+02 -0.10060449391E+01  0.50528849734E+02  0.29999969251E+02 0.  0.
         12    1    1    2    0    0  0.37320303311E+02 -0.16104326585E+02  0.10060449391E+01  0.40659150266E+02  0.00000000000E+00 0. -1.
         11    1    3    3    0    0 -0.18796645691E+02  0.17549475611E+02  0.82224787684E+00  0.25728856860E+02  0.51100000000E-03 0. -1.
        -11    1    3    3    0    0  0.26111505227E+01 -0.73970968414E+00  0.19191750985E+01  0.33239300216E+01  0.51100000000E-03 0.  1.
        -12    1    3    3    0    0 -0.21134808142E+02 -0.70543934250E+00 -0.37474679144E+01  0.21476062852E+02  0.00000000000E+00 0.  1.
</event>
<event>
 7    1  0.1381607E-011  0.5052886E+02  0.7816164E-02  0.1300439E+00
        -11   -1    0    0    0    0  0.00000000000E+00  0.00000000000E+00  0.45593999997E+02  0.45594000000E+02  0.51100000000E-03 0.  1.
         11   -1    0    0    0    0 -0.00000000000E+00 -0.00000000000E+00 -0.45593999997E+02  0.45594000000E+02  0.51100000000E-03 0. -1.
    9900012    2    1    2    0    0 -0.18306869512E+02  0.34027065246E+02 -0.12656348307E+02  0.50528858432E+02  0.29999995689E+02 0.  0.
         12    1    1    2    0    0  0.18306869512E+02 -0.34027065246E+02  0.12656348307E+02  0.40659141568E+02  0.00000000000E+00 0. -1.
         11    1    3    3    0    0 -0.33537188471E+01  0.15976217544E+02  0.33944595871E+01  0.16673611285E+02  0.51100000000E-03 0. -1.
        -11    1    3    3    0    0 -0.11313717395E+02  0.20341123958E+02 -0.77944088112E+01  0.24546167403E+02  0.51100000000E-03 0.  1.
         12    1    3    3    0    0 -0.36394332698E+01 -0.22902762570E+01 -0.82563990832E+01  0.93090797440E+01  0.00000000000E+00 0. -1.
</event>
<event>
 7    1  0.1381607E-011  0.5052884E+02  0.7816164E-02  0.1300439E+00
        -11   -1    0    0    0    0  0.00000000000E+00  0.00000000000E+00  0.45593999997E+02  0.45594000000E+02  0.51100000000E-03 0. -1.
         11   -1    0    0    0    0 -0.00000000000E+00 -0.00000000000E+00 -0.45593999997E+02  0.45594000000E+02  0.51100000000E-03 0.  1.
    9900012    2    1    2    0    0 -0.28647394158E+02 -0.28820059252E+02 -0.13778855418E+01  0.50528836507E+02  0.29999929048E+02 0.  0.
         12    1    1    2    0    0  0.28647394158E+02  0.28820059252E+02  0.13778855418E+01  0.40659163493E+02  0.00000000000E+00 0. -1.
         11    1    3    3    0    0 -0.40895950936E+01  0.17974078048E+01  0.32251035458E+01  0.55096965423E+01  0.51100000000E-03 0. -1.
        -11    1    3    3    0    0 -0.30940423169E+01 -0.57166320137E+01  0.75566375017E+01  0.99677354515E+01  0.51100000000E-03 0.  1.
        -12    1    3    3    0    0 -0.21463756748E+02 -0.24900835043E+02 -0.12159626589E+02  0.35051404513E+02  0.00000000000E+00 0.  1.
</event>
<event>
 7    1  0.1381607E-011  0.5052884E+02  0.7816164E-02  0.1300439E+00
        -11   -1    0    0    0    0  0.00000000000E+00  0.00000000000E+00  0.45593999997E+02  0.45594000000E+02  0.51100000000E-03 0.  1.
         11   -1    0    0    0    0 -0.00000000000E+00 -0.00000000000E+00 -0.45593999997E+02  0.45594000000E+02  0.51100000000E-03 0. -1.
    9900012    2    1    2    0    0  0.30270175429E+02  0.24993191565E+02 -0.10593586086E+02  0.50528840992E+02  0.29999942680E+02 0.  0.
         12    1    1    2    0    0 -0.30270175429E+02 -0.24993191565E+02  0.10593586086E+02  0.40659159008E+02  0.00000000000E+00 0. -1.
         11    1    3    3    0    0  0.76405418798E+01  0.18112091626E+02 -0.94030984041E+01  0.21790915611E+02  0.51100000000E-03 0. -1.
        -11    1    3    3    0    0  0.16540287219E+01  0.27871366620E+01  0.54653697482E+01  0.63540702334E+01  0.51100000000E-03 0.  1.
        -12    1    3    3    0    0  0.20975604827E+02  0.40939632765E+01 -0.66558574301E+01  0.22383855148E+02  0.00000000000E+00 0.  1.
</event>
<event>
 7    1  0.1381607E-011  0.5052887E+02  0.7816164E-02  0.1300439E+00
        -11   -1    0    0    0    0  0.00000000000E+00  0.00000000000E+00  0.45593999997E+02  0.45594000000E+02  0.51100000000E-03 0.  1.
         11   -1    0    0    0    0 -0.00000000000E+00 -0.00000000000E+00 -0.45593999997E+02  0.45594000000E+02  0.51100000000E-03 0. -1.
    9900012    2    1    2    0    0 -0.28802028491E+02  0.24314322765E+02 -0.15245392176E+02  0.50528866717E+02  0.30000020874E+02 0.  0.
         12    1    1    2    0    0  0.28802028491E+02 -0.24314322765E+02  0.15245392176E+02  0.40659133283E+02  0.00000000000E+00 0. -1.
         11    1    3    3    0    0 -0.11803506607E+02  0.10861535644E+02 -0.66420677905E+01  0.17361243894E+02  0.51100000000E-03 0. -1.
        -11    1    3    3    0    0 -0.50839590055E+01  0.37718920143E+01 -0.15194710346E+02  0.16460650999E+02  0.51100000000E-03 0.  1.
         12    1    3    3    0    0 -0.11914562879E+02  0.96808951059E+01  0.65913859608E+01  0.16706971824E+02  0.00000000000E+00 0. -1.
</event>
<event>
 7    1  0.1381607E-011  0.5052885E+02  0.7816164E-02  0.1300439E+00
        -11   -1    0    0    0    0  0.00000000000E+00  0.00000000000E+00  0.45593999997E+02  0.45594000000E+02  0.51100000000E-03 0.  1.
         11   -1    0    0    0    0 -0.00000000000E+00 -0.00000000000E+00 -0.45593999997E+02  0.45594000000E+02  0.51100000000E-03 0. -1.
    9900012    2    1    2    0    0 -0.29429620779E+01 -0.11107826231E+02  0.39001554402E+02  0.50528854963E+02  0.29999985146E+02 0.  0.
         12    1    1    2    0    0  0.29429620779E+01  0.11107826231E+02 -0.39001554402E+02  0.40659145037E+02  0.00000000000E+00 0. -1.
         11    1    3    3    0    0 -0.70147321743E+01  0.23293492561E+01  0.19343761050E+01  0.76402975473E+01  0.51100000000E-03 0. -1.
        -11    1    3    3    0    0 -0.35410654614E+01 -0.10192209483E+02  0.10473868956E+02  0.15037360470E+02  0.51100000000E-03 0.  1.
         12    1    3    3    0    0  0.76128355579E+01 -0.32449660039E+01  0.26593309341E+02  0.27851196946E+02  0.00000000000E+00 0. -1.
</event>
<event>
 7    1  0.1381607E-011  0.5052886E+02  0.7816164E-02  0.1300439E+00
        -11   -1    0    0    0    0  0.00000000000E+00  0.00000000000E+00  0.45593999997E+02  0.45594000000E+02  0.51100000000E-03 0.  1.
         11   -1    0    0    0    0 -0.00000000000E+00 -0.00000000000E+00 -0.45593999997E+02  0.45594000000E+02  0.51100000000E-03 0. -1.
    9900012    2    1    2    0    0  0.20548470868E+02  0.98504982823E+01  0.33673339159E+02  0.50528859065E+02  0.29999997615E+02 0.  0.
         12    1    1    2    0    0 -0.20548470868E+02 -0.98504982823E+01 -0.33673339159E+02  0.40659140935E+02  0.00000000000E+00 0. -1.
         11    1    3    3    0    0 -0.24476815217E+01 -0.16912470581E+01 -0.62207436262E+00  0.30394799254E+01  0.51100000000E-03 0. -1.
        -11    1    3    3    0    0  0.90226921392E+01 -0.52351806332E+01  0.15480292266E+02  0.18666963829E+02  0.51100000000E-03 0.  1.
        -12    1    3    3    0    0  0.13973460251E+02  0.16776925974E+02  0.18815121256E+02  0.28822415311E+02  0.00000000000E+00 0.  1.
</event>
<event>
 7    1  0.1381607E-011  0.5052884E+02  0.7816164E-02  0.1300439E+00
        -11   -1    0    0    0    0  0.00000000000E+00  0.00000000000E+00  0.45593999997E+02  0.45594000000E+02  0.51100000000E-03 0. -1.
         11   -1    0    0    0    0 -0.00000000000E+00 -0.00000000000E+00 -0.45593999997E+02  0.45594000000E+02  0.51100000000E-03 0.  1.
    9900012    2    1    2    0    0 -0.91731040119E+01 -0.11347762845E+02 -0.37950617300E+02  0.50528844668E+02  0.29999953854E+02 0.  0.
         12    1    1    2    0    0  0.91731040119E+01  0.11347762845E+02  0.37950617300E+02  0.40659155332E+02  0.00000000000E+00 0. -1.
         11    1    3    3    0    0 -0.59788685001E+01 -0.12590878477E+02 -0.28678464550E+02  0.31886226157E+02  0.51100000000E-03 0. -1.
        -11    1    3    3    0    0 -0.45478089162E+00 -0.72419849910E+01 -0.40772414836E+01  0.83232848471E+01  0.51100000000E-03 0.  1.
         12    1    3    3    0    0 -0.27394546202E+01  0.84851006227E+01 -0.51949112672E+01  0.10319333664E+02  0.00000000000E+00 0. -1.
</event>
<event>
 7    1  0.1381607E-011  0.5052889E+02  0.7816164E-02  0.1300439E+00
        -11   -1    0    0    0    0  0.00000000000E+00  0.00000000000E+00  0.45593999997E+02  0.45594000000E+02  0.51100000000E-03 0.  1.
         11   -1    0    0    0    0 -0.00000000000E+00 -0.00000000000E+00 -0.45593999997E+02  0.45594000000E+02  0.51100000000E-03 0. -1.
    9900012    2    1    2    0    0  0.16839749758E+02 -0.22724571168E+02  0.29209250475E+02  0.50528885154E+02  0.30000076914E+02 0.  0.
         12    1    1    2    0    0 -0.16839749758E+02  0.22724571168E+02 -0.29209250475E+02  0.40659114846E+02  0.00000000000E+00 0. -1.
         11    1    3    3    0    0  0.46431958763E+01 -0.39711949508E+01  0.18084872350E+02  0.19089061408E+02  0.51100000000E-03 0.  1.
        -11    1    3    3    0    0  0.10469423971E+02 -0.19105881148E+02  0.17005844241E+01  0.21852586126E+02  0.51100000000E-03 0. -1.
         12    1    3    3    0    0  0.17271299108E+01  0.35250493058E+00  0.94237937015E+01  0.95872376200E+01  0.00000000000E+00 0. -1.
</event>
<event>
 7    1  0.1381607E-011  0.5052889E+02  0.7816164E-02  0.1300439E+00
        -11   -1    0    0    0    0  0.00000000000E+00  0.00000000000E+00  0.45593999997E+02  0.45594000000E+02  0.51100000000E-03 0. -1.
         11   -1    0    0    0    0 -0.00000000000E+00 -0.00000000000E+00 -0.45593999997E+02  0.45594000000E+02  0.51100000000E-03 0.  1.
    9900012    2    1    2    0    0 -0.20577769016E+02  0.31511640457E+02 -0.15386194457E+02  0.50528892265E+02  0.30000098527E+02 0.  0.
         12    1    1    2    0    0  0.20577769016E+02 -0.31511640457E+02  0.15386194457E+02  0.40659107735E+02  0.00000000000E+00 0. -1.
         11    1    3    3    0    0 -0.10094705713E+02  0.54090081264E+01  0.69288857379E+00  0.11473471452E+02  0.51100000000E-03 0. -1.
        -11    1    3    3    0    0 -0.16910631415E+02  0.20923612943E+02 -0.14791771472E+02  0.30701197647E+02  0.51100000000E-03 0.  1.
         12    1    3    3    0    0  0.64275681110E+01  0.51790193878E+01 -0.12873115585E+01  0.83542231649E+01  0.00000000000E+00 0. -1.
</event>
<event>
 7    1  0.1381607E-011  0.5052886E+02  0.7816164E-02  0.1300439E+00
        -11   -1    0    0    0    0  0.00000000000E+00  0.00000000000E+00  0.45593999997E+02  0.45594000000E+02  0.51100000000E-03 0. -1.
         11   -1    0    0    0    0 -0.00000000000E+00 -0.00000000000E+00 -0.45593999997E+02  0.45594000000E+02  0.51100000000E-03 0.  1.
    9900012    2    1    2    0    0  0.32411986318E+02  0.18488054655E+02 -0.16149940469E+02  0.50528860816E+02  0.30000002937E+02 0.  0.
         12    1    1    2    0    0 -0.32411986318E+02 -0.18488054655E+02  0.16149940469E+02  0.40659139184E+02  0.00000000000E+00 0. -1.
         11    1    3    3    0    0  0.25845825615E+01  0.49906218074E+01 -0.66547582782E+01  0.87104638822E+01  0.51100000000E-03 0. -1.
        -11    1    3    3    0    0  0.32836546385E+01 -0.62182204310E+01 -0.45758644934E+01  0.83897073391E+01  0.51100000000E-03 0.  1.
         12    1    3    3    0    0  0.26543749118E+02  0.19715653278E+02 -0.49193176979E+01  0.33428689595E+02  0.00000000000E+00 0. -1.
</event>
<event>
 7    1  0.1381607E-011  0.5052886E+02  0.7816164E-02  0.1300439E+00
        -11   -1    0    0    0    0  0.00000000000E+00  0.00000000000E+00  0.45593999997E+02  0.45594000000E+02  0.51100000000E-03 0.  1.
         11   -1    0    0    0    0 -0.00000000000E+00 -0.00000000000E+00 -0.45593999997E+02  0.45594000000E+02  0.51100000000E-03 0. -1.
    9900012    2    1    2    0    0  0.32368464980E+01  0.20711776738E+02  0.34838352256E+02  0.50528860083E+02  0.30000000708E+02 0.  0.
         12    1    1    2    0    0 -0.32368464980E+01 -0.20711776738E+02 -0.34838352256E+02  0.40659139917E+02  0.00000000000E+00 0. -1.
         11    1    3    3    0    0 -0.88063769462E+01  0.21400060813E+01  0.22257191091E+02  0.24031530465E+02  0.51100000000E-03 0. -1.
        -11    1    3    3    0    0  0.86418244828E+01  0.12082341848E+02  0.12092138140E+02  0.19154214157E+02  0.51100000000E-03 0.  1.
        -12    1    3    3    0    0  0.34013989614E+01  0.64894288089E+01  0.48902302510E+00  0.73431154614E+01  0.00000000000E+00 0.  1.
</event>
<event>
 7    1  0.1381607E-011  0.5052886E+02  0.7816164E-02  0.1300439E+00
        -11   -1    0    0    0    0  0.00000000000E+00  0.00000000000E+00  0.45593999997E+02  0.45594000000E+02  0.51100000000E-03 0.  1.
         11   -1    0    0    0    0 -0.00000000000E+00 -0.00000000000E+00 -0.45593999997E+02  0.45594000000E+02  0.51100000000E-03 0. -1.
    9900012    2    1    2    0    0 -0.19919973644E+02  0.26886101554E+02  0.23097568787E+02  0.50528862151E+02  0.30000006996E+02 0.  0.
         12    1    1    2    0    0  0.19919973644E+02 -0.26886101554E+02 -0.23097568787E+02  0.40659137849E+02  0.00000000000E+00 0. -1.
         11    1    3    3    0    0  0.35082455655E+01  0.42516561030E+01  0.46066059513E+00  0.55314170888E+01  0.51100000000E-03 0. -1.
        -11    1    3    3    0    0 -0.86544410774E+01  0.16709044978E+02  0.19831343478E+01  0.18921531559E+02  0.51100000000E-03 0.  1.
        -12    1    3    3    0    0 -0.14773778132E+02  0.59254004728E+01  0.20653773844E+02  0.26075913504E+02  0.00000000000E+00 0.  1.
</event>
<event>
 7    1  0.1381607E-011  0.5052887E+02  0.7816164E-02  0.1300439E+00
        -11   -1    0    0    0    0  0.00000000000E+00  0.00000000000E+00  0.45593999997E+02  0.45594000000E+02  0.51100000000E-03 0.  1.
         11   -1    0    0    0    0 -0.00000000000E+00 -0.00000000000E+00 -0.45593999997E+02  0.45594000000E+02  0.51100000000E-03 0. -1.
    9900012    2    1    2    0    0 -0.28374383684E+02  0.79075635035E+01  0.28027307137E+02  0.50528866274E+02  0.30000019526E+02 0.  0.
         12    1    1    2    0    0  0.28374383684E+02 -0.79075635035E+01 -0.28027307137E+02  0.40659133726E+02  0.00000000000E+00 0. -1.
         11    1    3    3    0    0 -0.14191003346E+02  0.84704179714E+01  0.35758440664E+01  0.16909145976E+02  0.51100000000E-03 0. -1.
        -11    1    3    3    0    0 -0.11583252940E+02  0.80311712359E+01  0.15006370348E+02  0.20587923921E+02  0.51100000000E-03 0.  1.
        -12    1    3    3    0    0 -0.26001273983E+01 -0.85940257038E+01  0.94450927225E+01  0.13031796377E+02  0.00000000000E+00 0.  1.
</event>
<event>
 7    1  0.1381607E-011  0.5052883E+02  0.7816164E-02  0.1300439E+00
        -11   -1    0    0    0    0  0.00000000000E+00  0.00000000000E+00  0.45593999997E+02  0.45594000000E+02  0.51100000000E-03 0. -1.
         11   -1    0    0    0    0 -0.00000000000E+00 -0.00000000000E+00 -0.45593999997E+02  0.45594000000E+02  0.51100000000E-03 0.  1.
    9900012    2    1    2    0    0 -0.75536278390E+01 -0.39699174116E+02  0.44817727343E+01  0.50528831220E+02  0.29999912977E+02 0.  0.
         12    1    1    2    0    0  0.75536278390E+01  0.39699174116E+02 -0.44817727343E+01  0.40659168780E+02  0.00000000000E+00 0. -1.
         11    1    3    3    0    0 -0.56096099097E+00 -0.95782057556E+01  0.33509268783E+01  0.10162943173E+02  0.51100000000E-03 0.  1.
        -11    1    3    3    0    0  0.89003783372E+01 -0.11213300305E+02 -0.45483962236E+01  0.15021409612E+02  0.51100000000E-03 0. -1.
         12    1    3    3    0    0 -0.15893045185E+02 -0.18907668055E+02  0.56792420796E+01  0.25344478435E+02  0.00000000000E+00 0. -1.
</event>
<event>
 7    1  0.1381607E-011  0.5052885E+02  0.7816164E-02  0.1300439E+00
        -11   -1    0    0    0    0  0.00000000000E+00  0.00000000000E+00  0.45593999997E+02  0.45594000000E+02  0.51100000000E-03 0.  1.
         11   -1    0    0    0    0 -0.00000000000E+00 -0.00000000000E+00 -0.45593999997E+02  0.45594000000E+02  0.51100000000E-03 0. -1.
    9900012    2    1    2    0    0 -0.23412348974E+02 -0.15286684432E+02  0.29518566211E+02  0.50528849043E+02  0.29999967150E+02 0.  0.
         12    1    1    2    0    0  0.23412348974E+02  0.15286684432E+02 -0.29518566211E+02  0.40659150957E+02  0.00000000000E+00 0. -1.
         11    1    3    3    0    0 -0.38392065643E+01 -0.55678635445E+00  0.18617589211E+02  0.19017469505E+02  0.51100000000E-03 0. -1.
        -11    1    3    3    0    0 -0.17978558380E+02 -0.12631245058E+02  0.15024185811E+02  0.26617721027E+02  0.51100000000E-03 0.  1.
         12    1    3    3    0    0 -0.15945840292E+01 -0.20986530202E+01 -0.41232088105E+01  0.48936585108E+01  0.00000000000E+00 0. -1.
</event>
<event>
 7    1  0.1381607E-011  0.5052886E+02  0.7816164E-02  0.1300439E+00
        -11   -1    0    0    0    0  0.00000000000E+00  0.00000000000E+00  0.45593999997E+02  0.45594000000E+02  0.51100000000E-03 0. -1.
         11   -1    0    0    0    0 -0.00000000000E+00 -0.00000000000E+00 -0.45593999997E+02  0.45594000000E+02  0.51100000000E-03 0.  1.
    9900012    2    1    2    0    0 -0.39224951355E+02  0.30632261994E+01 -0.10255998845E+02  0.50528859873E+02  0.30000000070E+02 0.  0.
         12    1    1    2    0    0  0.39224951355E+02 -0.30632261994E+01  0.10255998845E+02  0.40659140127E+02  0.00000000000E+00 0. -1.
         11    1    3    3    0    0 -0.42718461652E+01 -0.14345699715E+01 -0.12115251703E+02  0.12926174405E+02  0.51100000000E-03 0. -1.
        -11    1    3    3    0    0 -0.11153195583E+02 -0.46161616626E+01  0.70214344576E+00  0.12091142456E+02  0.51100000000E-03 0.  1.
        -12    1    3    3    0    0 -0.23799909606E+02  0.91139578335E+01  0.11571094122E+01  0.25511543012E+02  0.00000000000E+00 0.  1.
</event>
<event>
 7    1  0.1381607E-011  0.5052886E+02  0.7816164E-02  0.1300439E+00
        -11   -1    0    0    0    0  0.00000000000E+00  0.00000000000E+00  0.45593999997E+02  0.45594000000E+02  0.51100000000E-03 0.  1.
         11   -1    0    0    0    0 -0.00000000000E+00 -0.00000000000E+00 -0.45593999997E+02  0.45594000000E+02  0.51100000000E-03 0. -1.
    9900012    2    1    2    0    0 -0.23394979496E+02 -0.17380654046E+02  0.28350548586E+02  0.50528858274E+02  0.29999995211E+02 0.  0.
         12    1    1    2    0    0  0.23394979496E+02  0.17380654046E+02 -0.28350548586E+02  0.40659141726E+02  0.00000000000E+00 0. -1.
         11    1    3    3    0    0 -0.63967372282E+01  0.38510738634E+01  0.10514809413E+02  0.12896132533E+02  0.51100000000E-03 0. -1.
        -11    1    3    3    0    0 -0.11629406963E+02 -0.11215371017E+02  0.20359777241E+02  0.25991309758E+02  0.51100000000E-03 0.  1.
         12    1    3    3    0    0 -0.53688353050E+01 -0.10016356892E+02 -0.25240380675E+01  0.11641415983E+02  0.00000000000E+00 0. -1.
</event>
<event>
 7    1  0.1381607E-011  0.5052887E+02  0.7816164E-02  0.1300439E+00
        -11   -1    0    0    0    0  0.00000000000E+00  0.00000000000E+00  0.45593999997E+02  0.45594000000E+02  0.51100000000E-03 0.  1.
         11   -1    0    0    0    0 -0.00000000000E+00 -0.00000000000E+00 -0.45593999997E+02  0.45594000000E+02  0.51100000000E-03 0. -1.
    9900012    2    1    2    0    0 -0.20537240770E+02  0.21579786483E+02  0.27671281296E+02  0.50528865090E+02  0.30000015926E+02 0.  0.
         12    1    1    2    0    0  0.20537240770E+02 -0.21579786483E+02 -0.27671281296E+02  0.40659134910E+02  0.00000000000E+00 0. -1.
         11    1    3    3    0    0 -0.87379507595E+01  0.23452863294E+00  0.13979490674E+02  0.16487357185E+02  0.51100000000E-03 0. -1.
        -11    1    3    3    0    0  0.11098972830E+01  0.67180009741E+01  0.12816322554E+02  0.14512805833E+02  0.51100000000E-03 0.  1.
         12    1    3    3    0    0 -0.12909187294E+02  0.14627256876E+02  0.87546806758E+00  0.19528702073E+02  0.00000000000E+00 0. -1.
</event>
<event>
 7    1  0.1381607E-011  0.5052886E+02  0.7816164E-02  0.1300439E+00
        -11   -1    0    0    0    0  0.00000000000E+00  0.00000000000E+00  0.45593999997E+02  0.45594000000E+02  0.51100000000E-03 0. -1.
         11   -1    0    0    0    0 -0.00000000000E+00 -0.00000000000E+00 -0.45593999997E+02  0.45594000000E+02  0.51100000000E-03 0.  1.
    9900012    2    1    2    0    0  0.21650000663E+02  0.34133862657E+02  0.43957817142E+01  0.50528855820E+02  0.29999987750E+02 0.  0.
         12    1    1    2    0    0 -0.21650000663E+02 -0.34133862657E+02 -0.43957817142E+01  0.40659144180E+02  0.00000000000E+00 0. -1.
         11    1    3    3    0    0  0.22963822371E+01 -0.14521562787E+01 -0.47909616640E+01  0.55077620831E+01  0.51100000000E-03 0. -1.
        -11    1    3    3    0    0  0.56246582088E+01  0.17128530878E+02 -0.40546304126E+01  0.18478727717E+02  0.51100000000E-03 0.  1.
        -12    1    3    3    0    0  0.13728960217E+02  0.18457488058E+02  0.13241373791E+02  0.26542366019E+02  0.00000000000E+00 0.  1.
</event>
<event>
 7    1  0.1381607E-011  0.5052886E+02  0.7816164E-02  0.1300439E+00
        -11   -1    0    0    0    0  0.00000000000E+00  0.00000000000E+00  0.45593999997E+02  0.45594000000E+02  0.51100000000E-03 0.  1.
         11   -1    0    0    0    0 -0.00000000000E+00 -0.00000000000E+00 -0.45593999997E+02  0.45594000000E+02  0.51100000000E-03 0. -1.
    9900012    2    1    2    0    0 -0.30890154057E+02 -0.75228911852E+00  0.26427222970E+02  0.50528859940E+02  0.30000000273E+02 0.  0.
         12    1    1    2    0    0  0.30890154057E+02  0.75228911852E+00 -0.26427222970E+02  0.40659140060E+02  0.00000000000E+00 0. -1.
         11    1    3    3    0    0 -0.80433044402E+01 -0.16810944954E+01 -0.23675081268E+01  0.85513694816E+01  0.51100000000E-03 0. -1.
        -11    1    3    3    0    0 -0.21027226769E+02 -0.59512850046E+01  0.15158531730E+02  0.26595923434E+02  0.51100000000E-03 0.  1.
        -12    1    3    3    0    0 -0.18196228469E+01  0.68800903815E+01  0.13636199366E+02  0.15381567024E+02  0.00000000000E+00 0.  1.
</event>
<event>
 7    1  0.1381607E-011  0.5052886E+02  0.7816164E-02  0.1300439E+00
        -11   -1    0    0    0    0  0.00000000000E+00  0.00000000000E+00  0.45593999997E+02  0.45594000000E+02  0.51100000000E-03 0. -1.
         11   -1    0    0    0    0 -0.00000000000E+00 -0.00000000000E+00 -0.45593999997E+02  0.45594000000E+02  0.51100000000E-03 0.  1.
    9900012    2    1    2    0    0 -0.36317614279E+02  0.15143376220E+02  0.10240837256E+02  0.50528859602E+02  0.29999999245E+02 0.  0.
         12    1    1    2    0    0  0.36317614279E+02 -0.15143376220E+02 -0.10240837256E+02  0.40659140398E+02  0.00000000000E+00 0. -1.
         11    1    3    3    0    0  0.19064152237E+01 -0.28202770602E+00 -0.54562743755E+00  0.20029149243E+01  0.51100000000E-03 0. -1.
        -11    1    3    3    0    0 -0.74554593243E+01  0.96877842254E+01  0.12098959901E+02  0.17199472896E+02  0.51100000000E-03 0.  1.
        -12    1    3    3    0    0 -0.30768570178E+02  0.57376197011E+01 -0.13124952080E+01  0.31326471782E+02  0.00000000000E+00 0.  1.
</event>
<event>
 7    1  0.1381607E-011  0.5052887E+02  0.7816164E-02  0.1300439E+00
        -11   -1    0    0    0    0  0.00000000000E+00  0.00000000000E+00  0.45593999997E+02  0.45594000000E+02  0.51100000000E-03 0. -1.
         11   -1    0    0    0    0 -0.00000000000E+00 -0.00000000000E+00 -0.45593999997E+02  0.45594000000E+02  0.51100000000E-03 0.  1.
    9900012    2    1    2    0    0  0.50809181869E+01 -0.82720635949E+01 -0.39483190988E+02  0.50528866508E+02  0.30000020237E+02 0.  0.
         12    1    1    2    0    0 -0.50809181869E+01  0.82720635949E+01  0.39483190988E+02  0.40659133492E+02  0.00000000000E+00 0. -1.
         11    1    3    3    0    0 -0.54032578746E+01 -0.62396916493E+01 -0.13489490693E+02  0.15814401884E+02  0.51100000000E-03 0. -1.
        -11    1    3    3    0    0 -0.85163641101E+00  0.47078425029E+01 -0.19377985557E+02  0.19959844441E+02  0.51100000000E-03 0.  1.
         12    1    3    3    0    0  0.11335812473E+02 -0.67402144485E+01 -0.66157147380E+01  0.14754620182E+02  0.00000000000E+00 0. -1.
</event>
<event>
 7    1  0.1381607E-011  0.5052886E+02  0.7816164E-02  0.1300439E+00
        -11   -1    0    0    0    0  0.00000000000E+00  0.00000000000E+00  0.45593999997E+02  0.45594000000E+02  0.51100000000E-03 0. -1.
         11   -1    0    0    0    0 -0.00000000000E+00 -0.00000000000E+00 -0.45593999997E+02  0.45594000000E+02  0.51100000000E-03 0.  1.
    9900012    2    1    2    0    0  0.73732418741E+01  0.71840165693E+01 -0.39334348471E+02  0.50528858845E+02  0.29999996945E+02 0.  0.
         12    1    1    2    0    0 -0.73732418741E+01 -0.71840165693E+01  0.39334348471E+02  0.40659141155E+02  0.00000000000E+00 0. -1.
         11    1    3    3    0    0  0.31472127168E+01  0.13318058362E+02 -0.18101441615E+02  0.22692241301E+02  0.51100000000E-03 0. -1.
        -11    1    3    3    0    0  0.68606862407E+01  0.12934980648E+01 -0.18021274927E+02  0.19326368081E+02  0.51100000000E-03 0.  1.
         12    1    3    3    0    0 -0.26346570833E+01 -0.74275398578E+01 -0.32116319284E+01  0.85102494634E+01  0.00000000000E+00 0. -1.
</event>
<event>
 7    1  0.1381607E-011  0.5052887E+02  0.7816164E-02  0.1300439E+00
        -11   -1    0    0    0    0  0.00000000000E+00  0.00000000000E+00  0.45593999997E+02  0.45594000000E+02  0.51100000000E-03 0.  1.
         11   -1    0    0    0    0 -0.00000000000E+00 -0.00000000000E+00 -0.45593999997E+02  0.45594000000E+02  0.51100000000E-03 0. -1.
    9900012    2    1    2    0    0  0.86622772430E+01  0.14582322423E+02  0.36952483809E+02  0.50528865308E+02  0.30000016589E+02 0.  0.
         12    1    1    2    0    0 -0.86622772430E+01 -0.14582322423E+02 -0.36952483809E+02  0.40659134692E+02  0.00000000000E+00 0. -1.
         11    1    3    3    0    0  0.10293271269E+00  0.27229889754E+01 -0.76930701586E+00  0.28314479775E+01  0.51100000000E-03 0. -1.
        -11    1    3    3    0    0  0.14966694958E+02  0.15672779052E+02  0.26652379918E+02  0.34350943462E+02  0.51100000000E-03 0.  1.
        -12    1    3    3    0    0 -0.64073504277E+01 -0.38134456045E+01  0.11069410907E+02  0.13346473868E+02  0.00000000000E+00 0.  1.
</event>
<event>
 7    1  0.1381607E-011  0.5052886E+02  0.7816164E-02  0.1300439E+00
        -11   -1    0    0    0    0  0.00000000000E+00  0.00000000000E+00  0.45593999997E+02  0.45594000000E+02  0.51100000000E-03 0.  1.
         11   -1    0    0    0    0 -0.00000000000E+00 -0.00000000000E+00 -0.45593999997E+02  0.45594000000E+02  0.51100000000E-03 0. -1.
    9900012    2    1    2    0    0 -0.36221582999E+02  0.14974410734E+01  0.18409784695E+02  0.50528861086E+02  0.30000003757E+02 0.  0.
         12    1    1    2    0    0  0.36221582999E+02 -0.14974410734E+01 -0.18409784695E+02  0.40659138914E+02  0.00000000000E+00 0. -1.
         11    1    3    3    0    0 -0.12261872036E+02  0.10905524504E+02  0.93942837751E+01  0.18908636609E+02  0.51100000000E-03 0. -1.
        -11    1    3    3    0    0 -0.16682720028E+02 -0.89564147781E+00  0.11327873436E+02  0.20185044910E+02  0.51100000000E-03 0.  1.
         12    1    3    3    0    0 -0.72769909356E+01 -0.85124419523E+01 -0.23123725157E+01  0.11435179567E+02  0.00000000000E+00 0. -1.
</event>
<event>
 7    1  0.1381607E-011  0.5052886E+02  0.7816164E-02  0.1300439E+00
        -11   -1    0    0    0    0  0.00000000000E+00  0.00000000000E+00  0.45593999997E+02  0.45594000000E+02  0.51100000000E-03 0.  1.
         11   -1    0    0    0    0 -0.00000000000E+00 -0.00000000000E+00 -0.45593999997E+02  0.45594000000E+02  0.51100000000E-03 0. -1.
    9900012    2    1    2    0    0 -0.19844626584E+02  0.23838835761E+02  0.26288142519E+02  0.50528859186E+02  0.29999997980E+02 0.  0.
         12    1    1    2    0    0  0.19844626584E+02 -0.23838835761E+02 -0.26288142519E+02  0.40659140814E+02  0.00000000000E+00 0. -1.
         11    1    3    3    0    0 -0.73176729266E+01 -0.35392462577E+01 -0.17653137734E+01  0.83181088063E+01  0.51100000000E-03 0. -1.
        -11    1    3    3    0    0 -0.27689026247E+01  0.62114854304E+01  0.16624111136E+01  0.70009273649E+01  0.51100000000E-03 0.  1.
        -12    1    3    3    0    0 -0.97580510325E+01  0.21166596588E+02  0.26391045179E+02  0.35209823014E+02  0.00000000000E+00 0.  1.
</event>
<event>
 7    1  0.1381607E-011  0.5052886E+02  0.7816164E-02  0.1300439E+00
        -11   -1    0    0    0    0  0.00000000000E+00  0.00000000000E+00  0.45593999997E+02  0.45594000000E+02  0.51100000000E-03 0.  1.
         11   -1    0    0    0    0 -0.00000000000E+00 -0.00000000000E+00 -0.45593999997E+02  0.45594000000E+02  0.51100000000E-03 0. -1.
    9900012    2    1    2    0    0 -0.21074730151E+02  0.31735773629E+02  0.14207815054E+02  0.50528860961E+02  0.30000003376E+02 0.  0.
         12    1    1    2    0    0  0.21074730151E+02 -0.31735773629E+02 -0.14207815054E+02  0.40659139039E+02  0.00000000000E+00 0. -1.
         11    1    3    3    0    0  0.12194657113E+01 -0.23010303764E+00 -0.21515047169E+01  0.24837505585E+01  0.51100000000E-03 0. -1.
        -11    1    3    3    0    0  0.44665022993E+01  0.22588485296E+01  0.49442435008E+00  0.50295621249E+01  0.51100000000E-03 0.  1.
        -12    1    3    3    0    0 -0.26760698162E+02  0.29707028137E+02  0.15864895421E+02  0.43015548277E+02  0.00000000000E+00 0.  1.
</event>
<event>
 7    1  0.1381607E-011  0.5052886E+02  0.7816164E-02  0.1300439E+00
        -11   -1    0    0    0    0  0.00000000000E+00  0.00000000000E+00  0.45593999997E+02  0.45594000000E+02  0.51100000000E-03 0.  1.
         11   -1    0    0    0    0 -0.00000000000E+00 -0.00000000000E+00 -0.45593999997E+02  0.45594000000E+02  0.51100000000E-03 0. -1.
    9900012    2    1    2    0    0  0.35881278821E+02 -0.16760297635E+02  0.92082720221E+01  0.50528855638E+02  0.29999987197E+02 0.  0.
         12    1    1    2    0    0 -0.35881278821E+02  0.16760297635E+02 -0.92082720221E+01  0.40659144362E+02  0.00000000000E+00 0. -1.
         11    1    3    3    0    0  0.14650787416E+01 -0.28983206792E+01 -0.27321129579E+01  0.42439556966E+01  0.51100000000E-03 0. -1.
        -11    1    3    3    0    0  0.17462563226E+02 -0.15289462135E+02  0.16728518314E+02  0.28610349387E+02  0.51100000000E-03 0.  1.
         12    1    3    3    0    0  0.16953636853E+02  0.14274851798E+01 -0.47881333337E+01  0.17674550554E+02  0.00000000000E+00 0. -1.
</event>
<event>
 7    1  0.1381607E-011  0.5052887E+02  0.7816164E-02  0.1300439E+00
        -11   -1    0    0    0    0  0.00000000000E+00  0.00000000000E+00  0.45593999997E+02  0.45594000000E+02  0.51100000000E-03 0.  1.
         11   -1    0    0    0    0 -0.00000000000E+00 -0.00000000000E+00 -0.45593999997E+02  0.45594000000E+02  0.51100000000E-03 0. -1.
    9900012    2    1    2    0    0 -0.10837404517E+01 -0.40012280659E+02 -0.71419891860E+01  0.50528866875E+02  0.30000021354E+02 0.  0.
         12    1    1    2    0    0  0.10837404517E+01  0.40012280659E+02  0.71419891860E+01  0.40659133125E+02  0.00000000000E+00 0. -1.
         11    1    3    3    0    0 -0.23019880270E+01 -0.12110353085E+01 -0.52233005841E+01  0.58351199343E+01  0.51100000000E-03 0. -1.
        -11    1    3    3    0    0  0.93974554699E+01 -0.78247318904E+01 -0.31643501717E+01  0.12631378022E+02  0.51100000000E-03 0.  1.
        -12    1    3    3    0    0 -0.81792078947E+01 -0.30976513460E+02  0.12456615698E+01  0.32062368919E+02  0.00000000000E+00 0.  1.
</event>
<event>
 7    1  0.1381607E-011  0.5052886E+02  0.7816164E-02  0.1300439E+00
        -11   -1    0    0    0    0  0.00000000000E+00  0.00000000000E+00  0.45593999997E+02  0.45594000000E+02  0.51100000000E-03 0.  1.
         11   -1    0    0    0    0 -0.00000000000E+00 -0.00000000000E+00 -0.45593999997E+02  0.45594000000E+02  0.51100000000E-03 0. -1.
    9900012    2    1    2    0    0  0.12681542403E+01  0.42157333129E+01  0.40420103356E+02  0.50528863538E+02  0.30000011209E+02 0.  0.
         12    1    1    2    0    0 -0.12681542403E+01 -0.42157333129E+01 -0.40420103356E+02  0.40659136462E+02  0.00000000000E+00 0. -1.
         11    1    3    3    0    0 -0.34322054721E+01  0.57145374154E+01 -0.20806490557E+01  0.69831993405E+01  0.51100000000E-03 0. -1.
        -11    1    3    3    0    0  0.34433974361E+01 -0.42291517801E+01  0.16642387222E+02  0.17513188271E+02  0.51100000000E-03 0.  1.
        -12    1    3    3    0    0  0.12569622763E+01  0.27303476776E+01  0.25858365189E+02  0.26032475927E+02  0.00000000000E+00 0.  1.
</event>
<event>
 7    1  0.1381607E-011  0.5052885E+02  0.7816164E-02  0.1300439E+00
        -11   -1    0    0    0    0  0.00000000000E+00  0.00000000000E+00  0.45593999997E+02  0.45594000000E+02  0.51100000000E-03 0. -1.
         11   -1    0    0    0    0 -0.00000000000E+00 -0.00000000000E+00 -0.45593999997E+02  0.45594000000E+02  0.51100000000E-03 0.  1.
    9900012    2    1    2    0    0 -0.21000282238E+02 -0.32724060407E+02 -0.11886552290E+02  0.50528854548E+02  0.29999983883E+02 0.  0.
         12    1    1    2    0    0  0.21000282238E+02  0.32724060407E+02  0.11886552290E+02  0.40659145452E+02  0.00000000000E+00 0. -1.
         11    1    3    3    0    0  0.44525069074E+01 -0.50313978373E+01 -0.91848895011E+01  0.11379893557E+02  0.51100000000E-03 0. -1.
        -11    1    3    3    0    0 -0.59062323283E+01 -0.77230370439E+01 -0.53197737651E+01  0.11082818896E+02  0.51100000000E-03 0.  1.
        -12    1    3    3    0    0 -0.19546556817E+02 -0.19969625525E+02  0.26181109766E+01  0.28066142095E+02  0.00000000000E+00 0.  1.
</event>
<event>
 7    1  0.1381607E-011  0.5052883E+02  0.7816164E-02  0.1300439E+00
        -11   -1    0    0    0    0  0.00000000000E+00  0.00000000000E+00  0.45593999997E+02  0.45594000000E+02  0.51100000000E-03 0.  1.
         11   -1    0    0    0    0 -0.00000000000E+00 -0.00000000000E+00 -0.45593999997E+02  0.45594000000E+02  0.51100000000E-03 0. -1.
    9900012    2    1    2    0    0  0.35928977632E+02 -0.99181431579E+01  0.16245207330E+02  0.50528834261E+02  0.29999922221E+02 0.  0.
         12    1    1    2    0    0 -0.35928977632E+02  0.99181431579E+01 -0.16245207330E+02  0.40659165739E+02  0.00000000000E+00 0. -1.
         11    1    3    3    0    0  0.28168088143E+02 -0.68800558913E+01  0.50674146745E+01  0.29435608545E+02  0.51100000000E-03 0. -1.
        -11    1    3    3    0    0  0.10740555827E+02  0.29672915794E+01  0.62799480722E+01  0.12790703923E+02  0.51100000000E-03 0.  1.
         12    1    3    3    0    0 -0.29796663379E+01 -0.60053788460E+01  0.48978445830E+01  0.83025217933E+01  0.00000000000E+00 0. -1.
</event>
<event>
 7    1  0.1381607E-011  0.5052887E+02  0.7816164E-02  0.1300439E+00
        -11   -1    0    0    0    0  0.00000000000E+00  0.00000000000E+00  0.45593999997E+02  0.45594000000E+02  0.51100000000E-03 0.  1.
         11   -1    0    0    0    0 -0.00000000000E+00 -0.00000000000E+00 -0.45593999997E+02  0.45594000000E+02  0.51100000000E-03 0. -1.
    9900012    2    1    2    0    0 -0.38163378990E+02  0.18188877798E+01  0.13907300856E+02  0.50528869835E+02  0.30000030350E+02 0.  0.
         12    1    1    2    0    0  0.38163378990E+02 -0.18188877798E+01 -0.13907300856E+02  0.40659130165E+02  0.00000000000E+00 0. -1.
         11    1    3    3    0    0 -0.25207319704E+02  0.10378354333E+02 -0.19140771151E+01  0.27327328754E+02  0.51100000000E-03 0. -1.
        -11    1    3    3    0    0 -0.89295501629E+01 -0.18328196228E+01  0.89919910412E+01  0.12804374137E+02  0.51100000000E-03 0.  1.
        -12    1    3    3    0    0 -0.40265091229E+01 -0.67266469301E+01  0.68293869297E+01  0.10397166945E+02  0.00000000000E+00 0.  1.
</event>
<event>
 7    1  0.1381607E-011  0.5052886E+02  0.7816164E-02  0.1300439E+00
        -11   -1    0    0    0    0  0.00000000000E+00  0.00000000000E+00  0.45593999997E+02  0.45594000000E+02  0.51100000000E-03 0.  1.
         11   -1    0    0    0    0 -0.00000000000E+00 -0.00000000000E+00 -0.45593999997E+02  0.45594000000E+02  0.51100000000E-03 0. -1.
    9900012    2    1    2    0    0 -0.18727528357E+02 -0.34775061846E+02  0.96509097395E+01  0.50528864451E+02  0.30000013985E+02 0.  0.
         12    1    1    2    0    0  0.18727528357E+02  0.34775061846E+02 -0.96509097395E+01  0.40659135549E+02  0.00000000000E+00 0. -1.
         11    1    3    3    0    0 -0.74476808547E+00  0.30320270774E+01  0.19269148628E+00  0.31280981394E+01  0.51100000000E-03 0. -1.
        -11    1    3    3    0    0 -0.81157462955E+01 -0.10187424304E+02 -0.58940344219E+01  0.14296453893E+02  0.51100000000E-03 0.  1.
        -12    1    3    3    0    0 -0.98670139763E+01 -0.27619664620E+02  0.15352252675E+02  0.33104312419E+02  0.00000000000E+00 0.  1.
</event>
<event>
 7    1  0.1381607E-011  0.5052885E+02  0.7816164E-02  0.1300439E+00
        -11   -1    0    0    0    0  0.00000000000E+00  0.00000000000E+00  0.45593999997E+02  0.45594000000E+02  0.51100000000E-03 0.  1.
         11   -1    0    0    0    0 -0.00000000000E+00 -0.00000000000E+00 -0.45593999997E+02  0.45594000000E+02  0.51100000000E-03 0. -1.
    9900012    2    1    2    0    0 -0.16051456394E+02 -0.36838787086E+02  0.61984366915E+01  0.50528854611E+02  0.29999984074E+02 0.  0.
         12    1    1    2    0    0  0.16051456394E+02  0.36838787086E+02 -0.61984366915E+01  0.40659145389E+02  0.00000000000E+00 0. -1.
         11    1    3    3    0    0 -0.38234517134E+01 -0.15773738058E+02  0.39170419869E+01  0.16696491054E+02  0.51100000000E-03 0. -1.
        -11    1    3    3    0    0 -0.83503613674E+01 -0.20180635430E+02  0.10849297391E+02  0.24386345267E+02  0.51100000000E-03 0.  1.
         12    1    3    3    0    0 -0.38776433136E+01 -0.88441359862E+00 -0.85679026868E+01  0.94460182898E+01  0.00000000000E+00 0. -1.
</event>
<event>
 7    1  0.1381607E-011  0.5052886E+02  0.7816164E-02  0.1300439E+00
        -11   -1    0    0    0    0  0.00000000000E+00  0.00000000000E+00  0.45593999997E+02  0.45594000000E+02  0.51100000000E-03 0.  1.
         11   -1    0    0    0    0 -0.00000000000E+00 -0.00000000000E+00 -0.45593999997E+02  0.45594000000E+02  0.51100000000E-03 0. -1.
    9900012    2    1    2    0    0 -0.13835741645E+02  0.53433457038E+01  0.37857452949E+02  0.50528857929E+02  0.29999994162E+02 0.  0.
         12    1    1    2    0    0  0.13835741645E+02 -0.53433457038E+01 -0.37857452949E+02  0.40659142071E+02  0.00000000000E+00 0. -1.
         11    1    3    3    0    0 -0.20926235829E+02  0.47180810672E+01  0.28355385062E+02  0.35555526957E+02  0.51100000000E-03 0.  1.
        -11    1    3    3    0    0  0.12293939077E+01 -0.39380659698E+01  0.38019289046E+01  0.56102082510E+01  0.51100000000E-03 0. -1.
        -12    1    3    3    0    0  0.58611002763E+01  0.45633306064E+01  0.57001389817E+01  0.93631227208E+01  0.00000000000E+00 0.  1.
</event>
<event>
 7    1  0.1381607E-011  0.5052886E+02  0.7816164E-02  0.1300439E+00
        -11   -1    0    0    0    0  0.00000000000E+00  0.00000000000E+00  0.45593999997E+02  0.45594000000E+02  0.51100000000E-03 0. -1.
         11   -1    0    0    0    0 -0.00000000000E+00 -0.00000000000E+00 -0.45593999997E+02  0.45594000000E+02  0.51100000000E-03 0.  1.
    9900012    2    1    2    0    0  0.23746801199E+02 -0.16746009309E+02 -0.28439868399E+02  0.50528861919E+02  0.30000006290E+02 0.  0.
         12    1    1    2    0    0 -0.23746801199E+02  0.16746009309E+02  0.28439868399E+02  0.40659138081E+02  0.00000000000E+00 0. -1.
         11    1    3    3    0    0  0.14387202342E+02 -0.88830967109E+01 -0.11167826073E+02  0.20263793768E+02  0.51100000000E-03 0. -1.
        -11    1    3    3    0    0  0.11781180665E+02 -0.15116605349E+01 -0.18885778274E+00  0.11879267779E+02  0.51100000000E-03 0.  1.
         12    1    3    3    0    0 -0.24215818082E+01 -0.63512520627E+01 -0.17083184543E+02  0.18385800373E+02  0.00000000000E+00 0. -1.
</event>
<event>
 7    1  0.1381607E-011  0.5052886E+02  0.7816164E-02  0.1300439E+00
        -11   -1    0    0    0    0  0.00000000000E+00  0.00000000000E+00  0.45593999997E+02  0.45594000000E+02  0.51100000000E-03 0. -1.
         11   -1    0    0    0    0 -0.00000000000E+00 -0.00000000000E+00 -0.45593999997E+02  0.45594000000E+02  0.51100000000E-03 0.  1.
    9900012    2    1    2    0    0  0.25728895994E+02  0.26386903675E+02 -0.17173264199E+02  0.50528858619E+02  0.29999996257E+02 0.  0.
         12    1    1    2    0    0 -0.25728895994E+02 -0.26386903675E+02  0.17173264199E+02  0.40659141381E+02  0.00000000000E+00 0. -1.
         11    1    3    3    0    0  0.14016758205E+02  0.10436264213E+02 -0.56502013251E+01  0.18365998382E+02  0.51100000000E-03 0. -1.
        -11    1    3    3    0    0  0.10935338984E+02  0.20728534600E+02 -0.13370206666E+02  0.26981775551E+02  0.51100000000E-03 0.  1.
         12    1    3    3    0    0  0.77679880519E+00 -0.47778951374E+01  0.18471437920E+01  0.51810846853E+01  0.00000000000E+00 0. -1.
</event>
<event>
 7    1  0.1381607E-011  0.5052886E+02  0.7816164E-02  0.1300439E+00
        -11   -1    0    0    0    0  0.00000000000E+00  0.00000000000E+00  0.45593999997E+02  0.45594000000E+02  0.51100000000E-03 0. -1.
         11   -1    0    0    0    0 -0.00000000000E+00 -0.00000000000E+00 -0.45593999997E+02  0.45594000000E+02  0.51100000000E-03 0.  1.
    9900012    2    1    2    0    0 -0.14974008542E+01 -0.39817947633E+02 -0.80904119822E+01  0.50528856759E+02  0.29999990605E+02 0.  0.
         12    1    1    2    0    0  0.14974008542E+01  0.39817947633E+02  0.80904119822E+01  0.40659143241E+02  0.00000000000E+00 0. -1.
         11    1    3    3    0    0 -0.34856570770E+01 -0.89903259992E+01 -0.10938830012E+02  0.14581967258E+02  0.51100000000E-03 0.  1.
        -11    1    3    3    0    0 -0.63472206571E+00  0.21081626558E+01  0.18760168038E+01  0.28925181406E+01  0.51100000000E-03 0. -1.
        -12    1    3    3    0    0  0.26229782885E+01 -0.32935784290E+02  0.97240122579E+00  0.33054371360E+02  0.00000000000E+00 0.  1.
</event>
<event>
 7    1  0.1381607E-011  0.5052885E+02  0.7816164E-02  0.1300439E+00
        -11   -1    0    0    0    0  0.00000000000E+00  0.00000000000E+00  0.45593999997E+02  0.45594000000E+02  0.51100000000E-03 0.  1.
         11   -1    0    0    0    0 -0.00000000000E+00 -0.00000000000E+00 -0.45593999997E+02  0.45594000000E+02  0.51100000000E-03 0. -1.
    9900012    2    1    2    0    0  0.18545346507E+02  0.21800801425E+02  0.28878397332E+02  0.50528847865E+02  0.29999963571E+02 0.  0.
         12    1    1    2    0    0 -0.18545346507E+02 -0.21800801425E+02 -0.28878397332E+02  0.40659152135E+02  0.00000000000E+00 0. -1.
         11    1    3    3    0    0  0.14881873514E+02  0.18517354779E+02  0.25215383791E+02  0.34643587679E+02  0.51100000000E-03 0.  1.
        -11    1    3    3    0    0  0.29841396567E+01 -0.31430679339E+01  0.72852873682E+01  0.84769910833E+01  0.51100000000E-03 0. -1.
         12    1    3    3    0    0  0.67933333658E+00  0.64265145796E+01 -0.36222738268E+01  0.74082691029E+01  0.00000000000E+00 0. -1.
</event>
<event>
 7    1  0.1381607E-011  0.5052886E+02  0.7816164E-02  0.1300439E+00
        -11   -1    0    0    0    0  0.00000000000E+00  0.00000000000E+00  0.45593999997E+02  0.45594000000E+02  0.51100000000E-03 0.  1.
         11   -1    0    0    0    0 -0.00000000000E+00 -0.00000000000E+00 -0.45593999997E+02  0.45594000000E+02  0.51100000000E-03 0. -1.
    9900012    2    1    2    0    0 -0.16843669667E+02 -0.75655869789E+01  0.36224551868E+02  0.50528862378E+02  0.30000007683E+02 0.  0.
         12    1    1    2    0    0  0.16843669667E+02  0.75655869789E+01 -0.36224551868E+02  0.40659137622E+02  0.00000000000E+00 0. -1.
         11    1    3    3    0    0 -0.37430635772E+01 -0.89982290609E+00 -0.72027214023E+00  0.39165033413E+01  0.51100000000E-03 0. -1.
        -11    1    3    3    0    0 -0.16081353504E+02 -0.13220896548E+02  0.23767542427E+02  0.31595855889E+02  0.51100000000E-03 0.  1.
        -12    1    3    3    0    0  0.29807474149E+01  0.65551324751E+01  0.13177281581E+02  0.15016503148E+02  0.00000000000E+00 0.  1.
</event>
<event>
 7    1  0.1381607E-011  0.5052894E+02  0.7816164E-02  0.1300439E+00
        -11   -1    0    0    0    0  0.00000000000E+00  0.00000000000E+00  0.45593999997E+02  0.45594000000E+02  0.51100000000E-03 0.  1.
         11   -1    0    0    0    0 -0.00000000000E+00 -0.00000000000E+00 -0.45593999997E+02  0.45594000000E+02  0.51100000000E-03 0. -1.
    9900012    2    1    2    0    0 -0.38192463722E+02 -0.49104696249E+01  0.13053066459E+02  0.50528935315E+02  0.30000229381E+02 0.  0.
         12    1    1    2    0    0  0.38192463722E+02  0.49104696249E+01 -0.13053066459E+02  0.40659064685E+02  0.00000000000E+00 0. -1.
         11    1    3    3    0    0 -0.15649957739E+02 -0.15917842818E+01 -0.12437560499E+01  0.15779793528E+02  0.51100000000E-03 0. -1.
        -11    1    3    3    0    0  0.77451299608E+00 -0.77406243427E+01  0.20594470335E+01  0.80472640034E+01  0.51100000000E-03 0.  1.
         12    1    3    3    0    0 -0.23317018980E+02  0.44219389997E+01  0.12237375475E+02  0.26701877783E+02  0.00000000000E+00 0. -1.
</event>
<event>
 7    1  0.1381607E-011  0.5052887E+02  0.7816164E-02  0.1300439E+00
        -11   -1    0    0    0    0  0.00000000000E+00  0.00000000000E+00  0.45593999997E+02  0.45594000000E+02  0.51100000000E-03 0.  1.
         11   -1    0    0    0    0 -0.00000000000E+00 -0.00000000000E+00 -0.45593999997E+02  0.45594000000E+02  0.51100000000E-03 0. -1.
    9900012    2    1    2    0    0 -0.23876810985E+02  0.87442950661E+01  0.31726961301E+02  0.50528869753E+02  0.30000030102E+02 0.  0.
         12    1    1    2    0    0  0.23876810985E+02 -0.87442950661E+01 -0.31726961301E+02  0.40659130247E+02  0.00000000000E+00 0. -1.
         11    1    3    3    0    0 -0.11107629822E+02  0.16741381025E+02  0.13989958391E+02  0.24482079465E+02  0.51100000000E-03 0. -1.
        -11    1    3    3    0    0  0.39357216594E-01  0.25079651312E+01  0.24078773989E+01  0.34769687832E+01  0.51100000000E-03 0.  1.
        -12    1    3    3    0    0 -0.12808538380E+02 -0.10505051090E+02  0.15329125511E+02  0.22569821505E+02  0.00000000000E+00 0.  1.
</event>
<event>
 7    1  0.1381607E-011  0.5052886E+02  0.7816164E-02  0.1300439E+00
        -11   -1    0    0    0    0  0.00000000000E+00  0.00000000000E+00  0.45593999997E+02  0.45594000000E+02  0.51100000000E-03 0.  1.
         11   -1    0    0    0    0 -0.00000000000E+00 -0.00000000000E+00 -0.45593999997E+02  0.45594000000E+02  0.51100000000E-03 0. -1.
    9900012    2    1    2    0    0 -0.40037615726E+02  0.60322715805E+01 -0.37103553919E+01  0.50528859446E+02  0.29999998773E+02 0.  0.
         12    1    1    2    0    0  0.40037615726E+02 -0.60322715805E+01  0.37103553919E+01  0.40659140554E+02  0.00000000000E+00 0. -1.
         11    1    3    3    0    0 -0.27705119503E+02 -0.64011746106E+01 -0.10315850954E+02  0.30248396060E+02  0.51100000000E-03 0. -1.
        -11    1    3    3    0    0 -0.13596074831E+01 -0.29379803706E+00  0.26863623205E+01  0.30251268688E+01  0.51100000000E-03 0.  1.
        -12    1    3    3    0    0 -0.10972888740E+02  0.12727244228E+02  0.39191332418E+01  0.17255336517E+02  0.00000000000E+00 0.  1.
</event>
<event>
 7    1  0.1381607E-011  0.5052886E+02  0.7816164E-02  0.1300439E+00
        -11   -1    0    0    0    0  0.00000000000E+00  0.00000000000E+00  0.45593999997E+02  0.45594000000E+02  0.51100000000E-03 0. -1.
         11   -1    0    0    0    0 -0.00000000000E+00 -0.00000000000E+00 -0.45593999997E+02  0.45594000000E+02  0.51100000000E-03 0.  1.
    9900012    2    1    2    0    0 -0.39157289424E+02  0.79149751344E+01 -0.75647649986E+01  0.50528858151E+02  0.29999994834E+02 0.  0.
         12    1    1    2    0    0  0.39157289424E+02 -0.79149751344E+01  0.75647649986E+01  0.40659141849E+02  0.00000000000E+00 0. -1.
         11    1    3    3    0    0 -0.22666578571E+02  0.10198124357E+02 -0.14013245781E+02  0.28533253969E+02  0.51100000000E-03 0.  1.
        -11    1    3    3    0    0 -0.23924302568E+01  0.45447925015E+01  0.30267871988E+01  0.59615687887E+01  0.51100000000E-03 0. -1.
        -12    1    3    3    0    0 -0.14098280597E+02 -0.68279417245E+01  0.34216935834E+01  0.16034035392E+02  0.00000000000E+00 0.  1.
</event>
<event>
 7    1  0.1381607E-011  0.5052886E+02  0.7816164E-02  0.1300439E+00
        -11   -1    0    0    0    0  0.00000000000E+00  0.00000000000E+00  0.45593999997E+02  0.45594000000E+02  0.51100000000E-03 0. -1.
         11   -1    0    0    0    0 -0.00000000000E+00 -0.00000000000E+00 -0.45593999997E+02  0.45594000000E+02  0.51100000000E-03 0.  1.
    9900012    2    1    2    0    0 -0.30109988446E+02  0.15714674154E+02 -0.22351805795E+02  0.50528860679E+02  0.30000002520E+02 0.  0.
         12    1    1    2    0    0  0.30109988446E+02 -0.15714674154E+02  0.22351805795E+02  0.40659139321E+02  0.00000000000E+00 0. -1.
         11    1    3    3    0    0 -0.10795853331E+01 -0.39085904192E-01  0.24070284793E+01  0.26383363244E+01  0.51100000000E-03 0. -1.
        -11    1    3    3    0    0 -0.13172370440E+02 -0.43026848536E+01 -0.15264778341E+02  0.20616447270E+02  0.51100000000E-03 0.  1.
         12    1    3    3    0    0 -0.15858032673E+02  0.20056444912E+02 -0.94940559339E+01  0.27274077085E+02  0.00000000000E+00 0. -1.
</event>
<event>
 7    1  0.1381607E-011  0.5052887E+02  0.7816164E-02  0.1300439E+00
        -11   -1    0    0    0    0  0.00000000000E+00  0.00000000000E+00  0.45593999997E+02  0.45594000000E+02  0.51100000000E-03 0. -1.
         11   -1    0    0    0    0 -0.00000000000E+00 -0.00000000000E+00 -0.45593999997E+02  0.45594000000E+02  0.51100000000E-03 0.  1.
    9900012    2    1    2    0    0  0.13578329870E+02  0.37927972509E+02  0.55011607205E+01  0.50528869291E+02  0.30000028697E+02 0.  0.
         12    1    1    2    0    0 -0.13578329870E+02 -0.37927972509E+02 -0.55011607205E+01  0.40659130709E+02  0.00000000000E+00 0. -1.
         11    1    3    3    0    0  0.21646031311E+02  0.21860170085E+02  0.83452670050E+01  0.31875714726E+02  0.51100000000E-03 0. -1.
        -11    1    3    3    0    0 -0.30250795836E+00  0.27478965089E+01 -0.15779587436E+01  0.31831431551E+01  0.51100000000E-03 0.  1.
         12    1    3    3    0    0 -0.77651934828E+01  0.13319905916E+02 -0.12661475409E+01  0.15470011410E+02  0.00000000000E+00 0. -1.
</event>
<event>
 7    1  0.1381607E-011  0.5052887E+02  0.7816164E-02  0.1300439E+00
        -11   -1    0    0    0    0  0.00000000000E+00  0.00000000000E+00  0.45593999997E+02  0.45594000000E+02  0.51100000000E-03 0. -1.
         11   -1    0    0    0    0 -0.00000000000E+00 -0.00000000000E+00 -0.45593999997E+02  0.45594000000E+02  0.51100000000E-03 0.  1.
    9900012    2    1    2    0    0  0.10316155901E+02 -0.33384394808E+02  0.20789997477E+02  0.50528869606E+02  0.30000029655E+02 0.  0.
         12    1    1    2    0    0 -0.10316155901E+02  0.33384394808E+02 -0.20789997477E+02  0.40659130394E+02  0.00000000000E+00 0. -1.
         11    1    3    3    0    0  0.19925897228E+00 -0.19000568847E+01 -0.53624066455E+01  0.56925675750E+01  0.51100000000E-03 0. -1.
        -11    1    3    3    0    0  0.26156619643E+01  0.36491468417E+00  0.56130085266E+01  0.62032826164E+01  0.51100000000E-03 0.  1.
        -12    1    3    3    0    0  0.75012349647E+01 -0.31849252607E+02  0.20539395596E+02  0.38633019415E+02  0.00000000000E+00 0.  1.
</event>
<event>
 7    1  0.1381607E-011  0.5052886E+02  0.7816164E-02  0.1300439E+00
        -11   -1    0    0    0    0  0.00000000000E+00  0.00000000000E+00  0.45593999997E+02  0.45594000000E+02  0.51100000000E-03 0.  1.
         11   -1    0    0    0    0 -0.00000000000E+00 -0.00000000000E+00 -0.45593999997E+02  0.45594000000E+02  0.51100000000E-03 0. -1.
    9900012    2    1    2    0    0  0.25534322525E+02 -0.70801999838E+01  0.30838848873E+02  0.50528862547E+02  0.30000008198E+02 0.  0.
         12    1    1    2    0    0 -0.25534322525E+02  0.70801999838E+01 -0.30838848873E+02  0.40659137453E+02  0.00000000000E+00 0. -1.
         11    1    3    3    0    0  0.82498735879E+01  0.66467341738E+01  0.80045099983E+01  0.13278240470E+02  0.51100000000E-03 0. -1.
        -11    1    3    3    0    0  0.17605030554E+02 -0.77498195152E+01  0.24393592395E+02  0.31065159802E+02  0.51100000000E-03 0.  1.
         12    1    3    3    0    0 -0.32058161748E+00 -0.59771146424E+01 -0.15592535198E+01  0.61854622754E+01  0.00000000000E+00 0. -1.
</event>
<event>
 7    1  0.1381607E-011  0.5052886E+02  0.7816164E-02  0.1300439E+00
        -11   -1    0    0    0    0  0.00000000000E+00  0.00000000000E+00  0.45593999997E+02  0.45594000000E+02  0.51100000000E-03 0. -1.
         11   -1    0    0    0    0 -0.00000000000E+00 -0.00000000000E+00 -0.45593999997E+02  0.45594000000E+02  0.51100000000E-03 0.  1.
    9900012    2    1    2    0    0 -0.22704907126E+01  0.20714148779E+02 -0.34913240706E+02  0.50528862474E+02  0.30000007977E+02 0.  0.
         12    1    1    2    0    0  0.22704907126E+01 -0.20714148779E+02  0.34913240706E+02  0.40659137526E+02  0.00000000000E+00 0. -1.
         11    1    3    3    0    0 -0.96586512240E+01  0.17145389899E+01 -0.18435003698E+02  0.20882493841E+02  0.51100000000E-03 0. -1.
        -11    1    3    3    0    0  0.16570376678E+01 -0.21002323943E+01 -0.99194823608E+00  0.28531932123E+01  0.51100000000E-03 0.  1.
        -12    1    3    3    0    0  0.57311228436E+01  0.21099842183E+02 -0.15486288772E+02  0.26793175421E+02  0.00000000000E+00 0.  1.
</event>
<event>
 7    1  0.1381607E-011  0.5052886E+02  0.7816164E-02  0.1300439E+00
        -11   -1    0    0    0    0  0.00000000000E+00  0.00000000000E+00  0.45593999997E+02  0.45594000000E+02  0.51100000000E-03 0. -1.
         11   -1    0    0    0    0 -0.00000000000E+00 -0.00000000000E+00 -0.45593999997E+02  0.45594000000E+02  0.51100000000E-03 0.  1.
    9900012    2    1    2    0    0  0.11133599265E+02 -0.10201376981E+02 -0.37751034546E+02  0.50528859156E+02  0.29999997891E+02 0.  0.
         12    1    1    2    0    0 -0.11133599265E+02  0.10201376981E+02  0.37751034546E+02  0.40659140844E+02  0.00000000000E+00 0. -1.
         11    1    3    3    0    0 -0.10283292039E+01 -0.20085708656E+01  0.21381548419E+01  0.31086209584E+01  0.51100000000E-03 0. -1.
        -11    1    3    3    0    0 -0.38209066130E+01 -0.37371718912E+01 -0.14272221691E+01  0.55319747352E+01  0.51100000000E-03 0.  1.
        -12    1    3    3    0    0  0.15982835082E+02 -0.44556342244E+01 -0.38461967218E+02  0.41888263462E+02  0.00000000000E+00 0.  1.
</event>
<event>
 7    1  0.1381607E-011  0.5052889E+02  0.7816164E-02  0.1300439E+00
        -11   -1    0    0    0    0  0.00000000000E+00  0.00000000000E+00  0.45593999997E+02  0.45594000000E+02  0.51100000000E-03 0.  1.
         11   -1    0    0    0    0 -0.00000000000E+00 -0.00000000000E+00 -0.45593999997E+02  0.45594000000E+02  0.51100000000E-03 0. -1.
    9900012    2    1    2    0    0 -0.59897910450E+01 -0.25588481875E+02  0.31024426506E+02  0.50528892269E+02  0.30000098541E+02 0.  0.
         12    1    1    2    0    0  0.59897910450E+01  0.25588481875E+02 -0.31024426506E+02  0.40659107731E+02  0.00000000000E+00 0. -1.
         11    1    3    3    0    0 -0.12712074964E+01 -0.84148688668E+01  0.24729540171E+01  0.88623635886E+01  0.51100000000E-03 0.  1.
        -11    1    3    3    0    0  0.17162486704E+01 -0.33524546256E+01  0.25923903092E+02  0.26196053392E+02  0.51100000000E-03 0. -1.
         12    1    3    3    0    0 -0.64348322190E+01 -0.13821158383E+02  0.26275693968E+01  0.15470475289E+02  0.00000000000E+00 0. -1.
</event>
<event>
 7    1  0.1381607E-011  0.5052882E+02  0.7816164E-02  0.1300439E+00
        -11   -1    0    0    0    0  0.00000000000E+00  0.00000000000E+00  0.45593999997E+02  0.45594000000E+02  0.51100000000E-03 0.  1.
         11   -1    0    0    0    0 -0.00000000000E+00 -0.00000000000E+00 -0.45593999997E+02  0.45594000000E+02  0.51100000000E-03 0. -1.
    9900012    2    1    2    0    0  0.13717223706E+02  0.31891003281E+02  0.21165321755E+02  0.50528817009E+02  0.29999869782E+02 0.  0.
         12    1    1    2    0    0 -0.13717223706E+02 -0.31891003281E+02 -0.21165321755E+02  0.40659182991E+02  0.00000000000E+00 0. -1.
         11    1    3    3    0    0  0.85195030570E+01  0.15732960461E+02 -0.15857372462E+01  0.17961696470E+02  0.51100000000E-03 0.  1.
        -11    1    3    3    0    0  0.32046482928E+01 -0.27735135833E+01  0.35423003222E+01  0.55235894227E+01  0.51100000000E-03 0. -1.
        -12    1    3    3    0    0  0.19930723564E+01  0.18931556403E+02  0.19208758679E+02  0.27043531116E+02  0.00000000000E+00 0.  1.
</event>
<event>
 7    1  0.1381607E-011  0.5052886E+02  0.7816164E-02  0.1300439E+00
        -11   -1    0    0    0    0  0.00000000000E+00  0.00000000000E+00  0.45593999997E+02  0.45594000000E+02  0.51100000000E-03 0.  1.
         11   -1    0    0    0    0 -0.00000000000E+00 -0.00000000000E+00 -0.45593999997E+02  0.45594000000E+02  0.51100000000E-03 0. -1.
    9900012    2    1    2    0    0  0.37955816544E+02  0.13966032859E+02 -0.41799427713E+01  0.50528855827E+02  0.29999987771E+02 0.  0.
         12    1    1    2    0    0 -0.37955816544E+02 -0.13966032859E+02  0.41799427713E+01  0.40659144173E+02  0.00000000000E+00 0. -1.
         11    1    3    3    0    0  0.49089485644E+01  0.47167820145E+01  0.54541631040E+01  0.87231705249E+01  0.51100000000E-03 0. -1.
        -11    1    3    3    0    0  0.28090524886E+02  0.10822516928E+02  0.83657125545E+00  0.30114852029E+02  0.51100000000E-03 0.  1.
         12    1    3    3    0    0  0.49563430937E+01 -0.15732660840E+01 -0.10470677131E+02  0.11690833273E+02  0.00000000000E+00 0. -1.
</event>
<event>
 7    1  0.1381607E-011  0.5052886E+02  0.7816164E-02  0.1300439E+00
        -11   -1    0    0    0    0  0.00000000000E+00  0.00000000000E+00  0.45593999997E+02  0.45594000000E+02  0.51100000000E-03 0. -1.
         11   -1    0    0    0    0 -0.00000000000E+00 -0.00000000000E+00 -0.45593999997E+02  0.45594000000E+02  0.51100000000E-03 0.  1.
    9900012    2    1    2    0    0 -0.82422817421E+01  0.17953429068E+02 -0.35537374865E+02  0.50528857905E+02  0.29999994087E+02 0.  0.
         12    1    1    2    0    0  0.82422817421E+01 -0.17953429068E+02  0.35537374865E+02  0.40659142095E+02  0.00000000000E+00 0. -1.
         11    1    3    3    0    0 -0.50645053104E+01  0.15473871538E+02 -0.33077115703E+01  0.16614176793E+02  0.51100000000E-03 0.  1.
        -11    1    3    3    0    0 -0.49783583864E+01  0.12365364160E-01 -0.75301716165E+01  0.90270532268E+01  0.51100000000E-03 0. -1.
        -12    1    3    3    0    0  0.18005819547E+01  0.24671921656E+01 -0.24699491678E+02  0.24887627885E+02  0.00000000000E+00 0.  1.
</event>
<event>
 7    1  0.1381607E-011  0.5052886E+02  0.7816164E-02  0.1300439E+00
        -11   -1    0    0    0    0  0.00000000000E+00  0.00000000000E+00  0.45593999997E+02  0.45594000000E+02  0.51100000000E-03 0.  1.
         11   -1    0    0    0    0 -0.00000000000E+00 -0.00000000000E+00 -0.45593999997E+02  0.45594000000E+02  0.51100000000E-03 0. -1.
    9900012    2    1    2    0    0 -0.30493543310E+02  0.11679291845E+02  0.24226090659E+02  0.50528861910E+02  0.30000006260E+02 0.  0.
         12    1    1    2    0    0  0.30493543310E+02 -0.11679291845E+02 -0.24226090659E+02  0.40659138090E+02  0.00000000000E+00 0. -1.
         11    1    3    3    0    0 -0.11607867483E+02 -0.55171792274E+01  0.23293045478E+01  0.13061681135E+02  0.51100000000E-03 0. -1.
        -11    1    3    3    0    0 -0.89325090704E+01 -0.26664786405E-01  0.12762629216E+02  0.15578033704E+02  0.51100000000E-03 0.  1.
        -12    1    3    3    0    0 -0.99531667568E+01  0.17223135859E+02  0.91341568952E+01  0.21889147071E+02  0.00000000000E+00 0.  1.
</event>
<event>
 7    1  0.1381607E-011  0.5052886E+02  0.7816164E-02  0.1300439E+00
        -11   -1    0    0    0    0  0.00000000000E+00  0.00000000000E+00  0.45593999997E+02  0.45594000000E+02  0.51100000000E-03 0. -1.
         11   -1    0    0    0    0 -0.00000000000E+00 -0.00000000000E+00 -0.45593999997E+02  0.45594000000E+02  0.51100000000E-03 0.  1.
    9900012    2    1    2    0    0 -0.19469073254E+02 -0.19415463878E+02 -0.29952644678E+02  0.50528856204E+02  0.29999988919E+02 0.  0.
         12    1    1    2    0    0  0.19469073254E+02  0.19415463878E+02  0.29952644678E+02  0.40659143796E+02  0.00000000000E+00 0. -1.
         11    1    3    3    0    0 -0.31194288397E+01  0.38401856085E+01 -0.10371193939E+02  0.11490845303E+02  0.51100000000E-03 0. -1.
        -11    1    3    3    0    0 -0.14940719372E+02 -0.95628050380E+01 -0.17848380756E+02  0.25164201387E+02  0.51100000000E-03 0.  1.
         12    1    3    3    0    0 -0.14089250420E+01 -0.13692844449E+02 -0.17330699823E+01  0.13873809514E+02  0.00000000000E+00 0. -1.
</event>
<event>
 7    1  0.1381607E-011  0.5052885E+02  0.7816164E-02  0.1300439E+00
        -11   -1    0    0    0    0  0.00000000000E+00  0.00000000000E+00  0.45593999997E+02  0.45594000000E+02  0.51100000000E-03 0.  1.
         11   -1    0    0    0    0 -0.00000000000E+00 -0.00000000000E+00 -0.45593999997E+02  0.45594000000E+02  0.51100000000E-03 0. -1.
    9900012    2    1    2    0    0  0.14267285192E+02 -0.13549196659E+02  0.35581315659E+02  0.50528853663E+02  0.29999981193E+02 0.  0.
         12    1    1    2    0    0 -0.14267285192E+02  0.13549196659E+02 -0.35581315659E+02  0.40659146337E+02  0.00000000000E+00 0. -1.
         11    1    3    3    0    0 -0.50315900590E+00 -0.12469908567E+02  0.26098776635E+02  0.28929188215E+02  0.51100000000E-03 0. -1.
        -11    1    3    3    0    0  0.21173869774E+01 -0.42206865587E+01  0.68171068094E+01  0.82927961599E+01  0.51100000000E-03 0.  1.
         12    1    3    3    0    0  0.12653057221E+02  0.31413984670E+01  0.26654322147E+01  0.13306869288E+02  0.00000000000E+00 0. -1.
</event>
<event>
 7    1  0.1381607E-011  0.5052886E+02  0.7816164E-02  0.1300439E+00
        -11   -1    0    0    0    0  0.00000000000E+00  0.00000000000E+00  0.45593999997E+02  0.45594000000E+02  0.51100000000E-03 0. -1.
         11   -1    0    0    0    0 -0.00000000000E+00 -0.00000000000E+00 -0.45593999997E+02  0.45594000000E+02  0.51100000000E-03 0.  1.
    9900012    2    1    2    0    0 -0.24658195245E+02 -0.32144702556E+02 -0.34434233702E+01  0.50528860072E+02  0.30000000676E+02 0.  0.
         12    1    1    2    0    0  0.24658195245E+02  0.32144702556E+02  0.34434233702E+01  0.40659139928E+02  0.00000000000E+00 0. -1.
         11    1    3    3    0    0 -0.79541401991E+01  0.33169354977E-01  0.21728830583E+01  0.82456574971E+01  0.51100000000E-03 0. -1.
        -11    1    3    3    0    0 -0.68458237596E+01 -0.12362172398E+02 -0.12746488395E+02  0.19030543240E+02  0.51100000000E-03 0.  1.
         12    1    3    3    0    0 -0.98582312860E+01 -0.19815699513E+02  0.71301819665E+01  0.23252659335E+02  0.00000000000E+00 0. -1.
</event>
<event>
 7    1  0.1381607E-011  0.5052886E+02  0.7816164E-02  0.1300439E+00
        -11   -1    0    0    0    0  0.00000000000E+00  0.00000000000E+00  0.45593999997E+02  0.45594000000E+02  0.51100000000E-03 0.  1.
         11   -1    0    0    0    0 -0.00000000000E+00 -0.00000000000E+00 -0.45593999997E+02  0.45594000000E+02  0.51100000000E-03 0. -1.
    9900012    2    1    2    0    0  0.32887819963E+02  0.19747596355E+02 -0.13475499403E+02  0.50528863907E+02  0.30000012331E+02 0.  0.
         12    1    1    2    0    0 -0.32887819963E+02 -0.19747596355E+02  0.13475499403E+02  0.40659136093E+02  0.00000000000E+00 0. -1.
         11    1    3    3    0    0  0.37125055724E+01  0.35005726723E+01  0.42358446121E+01  0.66316729788E+01  0.51100000000E-03 0. -1.
        -11    1    3    3    0    0  0.28649598384E+02  0.14777268113E+02 -0.68904689710E+01  0.32964309538E+02  0.51100000000E-03 0.  1.
         12    1    3    3    0    0  0.52571600668E+00  0.14697555693E+01 -0.10820875044E+02  0.10932881390E+02  0.00000000000E+00 0. -1.
</event>
<event>
 7    1  0.1381607E-011  0.5052885E+02  0.7816164E-02  0.1300439E+00
        -11   -1    0    0    0    0  0.00000000000E+00  0.00000000000E+00  0.45593999997E+02  0.45594000000E+02  0.51100000000E-03 0.  1.
         11   -1    0    0    0    0 -0.00000000000E+00 -0.00000000000E+00 -0.45593999997E+02  0.45594000000E+02  0.51100000000E-03 0. -1.
    9900012    2    1    2    0    0 -0.20207932185E+01  0.31122829096E+02  0.26085474886E+02  0.50528854704E+02  0.29999984358E+02 0.  0.
         12    1    1    2    0    0  0.20207932185E+01 -0.31122829096E+02 -0.26085474886E+02  0.40659145296E+02  0.00000000000E+00 0. -1.
         11    1    3    3    0    0 -0.55683546846E+01  0.10577058802E+02 -0.59933310843E+00  0.11968289236E+02  0.51100000000E-03 0. -1.
        -11    1    3    3    0    0 -0.28488624871E+01  0.20601978132E+02  0.16565253520E+02  0.26588816161E+02  0.51100000000E-03 0.  1.
        -12    1    3    3    0    0  0.63964239532E+01 -0.56207837554E-01  0.10119554474E+02  0.11971749307E+02  0.00000000000E+00 0.  1.
</event>
<event>
 7    1  0.1381607E-011  0.5052887E+02  0.7816164E-02  0.1300439E+00
        -11   -1    0    0    0    0  0.00000000000E+00  0.00000000000E+00  0.45593999997E+02  0.45594000000E+02  0.51100000000E-03 0.  1.
         11   -1    0    0    0    0 -0.00000000000E+00 -0.00000000000E+00 -0.45593999997E+02  0.45594000000E+02  0.51100000000E-03 0. -1.
    9900012    2    1    2    0    0  0.31556238125E+02  0.22437974283E+02  0.12405882509E+02  0.50528870947E+02  0.30000033732E+02 0.  0.
         12    1    1    2    0    0 -0.31556238125E+02 -0.22437974283E+02 -0.12405882509E+02  0.40659129053E+02  0.00000000000E+00 0. -1.
         11    1    3    3    0    0  0.90885993739E+01  0.87695427526E+01  0.11065580116E+02  0.16791503275E+02  0.51100000000E-03 0. -1.
        -11    1    3    3    0    0  0.24422056201E+02  0.16076230799E+02  0.41761149512E+01  0.29535097125E+02  0.51100000000E-03 0.  1.
         12    1    3    3    0    0 -0.19544174504E+01 -0.24077992692E+01 -0.28358125586E+01  0.42022705480E+01  0.00000000000E+00 0. -1.
</event>
<event>
 7    1  0.1381607E-011  0.5052886E+02  0.7816164E-02  0.1300439E+00
        -11   -1    0    0    0    0  0.00000000000E+00  0.00000000000E+00  0.45593999997E+02  0.45594000000E+02  0.51100000000E-03 0.  1.
         11   -1    0    0    0    0 -0.00000000000E+00 -0.00000000000E+00 -0.45593999997E+02  0.45594000000E+02  0.51100000000E-03 0. -1.
    9900012    2    1    2    0    0 -0.24059628390E+02  0.28732815117E+01  0.32650326374E+02  0.50528864776E+02  0.30000014972E+02 0.  0.
         12    1    1    2    0    0  0.24059628390E+02 -0.28732815117E+01 -0.32650326374E+02  0.40659135224E+02  0.00000000000E+00 0. -1.
         11    1    3    3    0    0 -0.18550937001E+02  0.65984042222E+01  0.96609286528E+01  0.21931934356E+02  0.51100000000E-03 0. -1.
        -11    1    3    3    0    0  0.76089268636E+00  0.49313471546E+00 -0.21569270488E+01  0.23397594070E+01  0.51100000000E-03 0.  1.
        -12    1    3    3    0    0 -0.62695840752E+01 -0.42182574260E+01  0.25146324770E+02  0.26257171013E+02  0.00000000000E+00 0.  1.
</event>
<event>
 7    1  0.1381607E-011  0.5052886E+02  0.7816164E-02  0.1300439E+00
        -11   -1    0    0    0    0  0.00000000000E+00  0.00000000000E+00  0.45593999997E+02  0.45594000000E+02  0.51100000000E-03 0.  1.
         11   -1    0    0    0    0 -0.00000000000E+00 -0.00000000000E+00 -0.45593999997E+02  0.45594000000E+02  0.51100000000E-03 0. -1.
    9900012    2    1    2    0    0 -0.38045929536E+02  0.11264918112E+02  0.88755012333E+01  0.50528860112E+02  0.30000000795E+02 0.  0.
         12    1    1    2    0    0  0.38045929536E+02 -0.11264918112E+02 -0.88755012333E+01  0.40659139888E+02  0.00000000000E+00 0. -1.
         11    1    3    3    0    0 -0.29903700247E+02 -0.38370153298E-01 -0.27613644509E+01  0.30030948947E+02  0.51100000000E-03 0. -1.
        -11    1    3    3    0    0  0.95035633913E+00 -0.15245649956E-01  0.39646130301E+01  0.40769555235E+01  0.51100000000E-03 0.  1.
        -12    1    3    3    0    0 -0.90925856275E+01  0.11318533915E+02  0.76722526541E+01  0.16420955641E+02  0.00000000000E+00 0.  1.
</event>
<event>
 7    1  0.1381607E-011  0.5052886E+02  0.7816164E-02  0.1300439E+00
        -11   -1    0    0    0    0  0.00000000000E+00  0.00000000000E+00  0.45593999997E+02  0.45594000000E+02  0.51100000000E-03 0.  1.
         11   -1    0    0    0    0 -0.00000000000E+00 -0.00000000000E+00 -0.45593999997E+02  0.45594000000E+02  0.51100000000E-03 0. -1.
    9900012    2    1    2    0    0 -0.15463529728E+02  0.34778879632E+02  0.14299466552E+02  0.50528856332E+02  0.29999989308E+02 0.  0.
         12    1    1    2    0    0  0.15463529728E+02 -0.34778879632E+02 -0.14299466552E+02  0.40659143668E+02  0.00000000000E+00 0. -1.
         11    1    3    3    0    0 -0.41613016246E+01 -0.20784955712E+01 -0.25453715841E+01  0.53024043427E+01  0.51100000000E-03 0. -1.
        -11    1    3    3    0    0 -0.11982379335E+02  0.17086423247E+02  0.14259433948E+02  0.25275575773E+02  0.51100000000E-03 0.  1.
        -12    1    3    3    0    0  0.68015123180E+00  0.19770951957E+02  0.25854041878E+01  0.19950876216E+02  0.00000000000E+00 0.  1.
</event>
<event>
 7    1  0.1381607E-011  0.5052884E+02  0.7816164E-02  0.1300439E+00
        -11   -1    0    0    0    0  0.00000000000E+00  0.00000000000E+00  0.45593999997E+02  0.45594000000E+02  0.51100000000E-03 0. -1.
         11   -1    0    0    0    0 -0.00000000000E+00 -0.00000000000E+00 -0.45593999997E+02  0.45594000000E+02  0.51100000000E-03 0.  1.
    9900012    2    1    2    0    0 -0.25682309707E+02  0.18407327017E+02 -0.25588203841E+02  0.50528844874E+02  0.29999954478E+02 0.  0.
         12    1    1    2    0    0  0.25682309707E+02 -0.18407327017E+02  0.25588203841E+02  0.40659155126E+02  0.00000000000E+00 0. -1.
         11    1    3    3    0    0 -0.21960833886E+02  0.36792968148E+01 -0.13915699060E+02  0.26257610908E+02  0.51100000000E-03 0. -1.
        -11    1    3    3    0    0 -0.59269888533E+01  0.32887547950E+01  0.12283414324E+01  0.68886811440E+01  0.51100000000E-03 0.  1.
        -12    1    3    3    0    0  0.22055130323E+01  0.11439275408E+02 -0.12900846213E+02  0.17382552822E+02  0.00000000000E+00 0.  1.
</event>
<event>
 7    1  0.1381607E-011  0.5052885E+02  0.7816164E-02  0.1300439E+00
        -11   -1    0    0    0    0  0.00000000000E+00  0.00000000000E+00  0.45593999997E+02  0.45594000000E+02  0.51100000000E-03 0.  1.
         11   -1    0    0    0    0 -0.00000000000E+00 -0.00000000000E+00 -0.45593999997E+02  0.45594000000E+02  0.51100000000E-03 0. -1.
    9900012    2    1    2    0    0  0.14703618161E+02 -0.97306269585E+01  0.36637210786E+02  0.50528847252E+02  0.29999961706E+02 0.  0.
         12    1    1    2    0    0 -0.14703618161E+02  0.97306269585E+01 -0.36637210786E+02  0.40659152748E+02  0.00000000000E+00 0. -1.
         11    1    3    3    0    0 -0.85075188793E+00  0.52425225410E+01  0.66668296724E+01  0.85237573586E+01  0.51100000000E-03 0. -1.
        -11    1    3    3    0    0 -0.11430623141E+01 -0.12484671047E+02  0.13381728506E+02  0.18336964326E+02  0.51100000000E-03 0.  1.
         12    1    3    3    0    0  0.16697432363E+02 -0.24884784522E+01  0.16588652608E+02  0.23668125567E+02  0.00000000000E+00 0. -1.
</event>
<event>
 7    1  0.1381607E-011  0.5052883E+02  0.7816164E-02  0.1300439E+00
        -11   -1    0    0    0    0  0.00000000000E+00  0.00000000000E+00  0.45593999997E+02  0.45594000000E+02  0.51100000000E-03 0.  1.
         11   -1    0    0    0    0 -0.00000000000E+00 -0.00000000000E+00 -0.45593999997E+02  0.45594000000E+02  0.51100000000E-03 0. -1.
    9900012    2    1    2    0    0 -0.28918625818E+02 -0.19467648772E+01  0.28514755138E+02  0.50528830391E+02  0.29999910456E+02 0.  0.
         12    1    1    2    0    0  0.28918625818E+02  0.19467648772E+01 -0.28514755138E+02  0.40659169609E+02  0.00000000000E+00 0. -1.
         11    1    3    3    0    0 -0.86108794426E+01 -0.44255661337E+01  0.58671923063E+00  0.96993360647E+01  0.51100000000E-03 0.  1.
        -11    1    3    3    0    0 -0.19098609967E+02 -0.66854004484E+01  0.16355016174E+02  0.26018032903E+02  0.51100000000E-03 0. -1.
        -12    1    3    3    0    0 -0.12091364089E+01  0.91642017049E+01  0.11573019733E+02  0.14811461423E+02  0.00000000000E+00 0.  1.
</event>
<event>
 7    1  0.1381607E-011  0.5052886E+02  0.7816164E-02  0.1300439E+00
        -11   -1    0    0    0    0  0.00000000000E+00  0.00000000000E+00  0.45593999997E+02  0.45594000000E+02  0.51100000000E-03 0. -1.
         11   -1    0    0    0    0 -0.00000000000E+00 -0.00000000000E+00 -0.45593999997E+02  0.45594000000E+02  0.51100000000E-03 0.  1.
    9900012    2    1    2    0    0 -0.24437887243E+02 -0.30480023415E+01 -0.32352202220E+02  0.50528860318E+02  0.30000001423E+02 0.  0.
         12    1    1    2    0    0  0.24437887243E+02  0.30480023415E+01  0.32352202220E+02  0.40659139682E+02  0.00000000000E+00 0. -1.
         11    1    3    3    0    0  0.17699235670E+01 -0.39909948908E+00  0.25661510263E+01  0.31427760318E+01  0.51100000000E-03 0. -1.
        -11    1    3    3    0    0 -0.75179329997E+01  0.62533665625E+01 -0.49433659222E+01  0.10957224870E+02  0.51100000000E-03 0.  1.
        -12    1    3    3    0    0 -0.18689877811E+02 -0.89022694149E+01 -0.29974987324E+02  0.36428859416E+02  0.00000000000E+00 0.  1.
</event>
<event>
 7    1  0.1381607E-011  0.5052886E+02  0.7816164E-02  0.1300439E+00
        -11   -1    0    0    0    0  0.00000000000E+00  0.00000000000E+00  0.45593999997E+02  0.45594000000E+02  0.51100000000E-03 0. -1.
         11   -1    0    0    0    0 -0.00000000000E+00 -0.00000000000E+00 -0.45593999997E+02  0.45594000000E+02  0.51100000000E-03 0.  1.
    9900012    2    1    2    0    0 -0.23536058676E+02 -0.76107194524E+01 -0.32269131652E+02  0.50528856303E+02  0.29999989220E+02 0.  0.
         12    1    1    2    0    0  0.23536058676E+02  0.76107194524E+01  0.32269131652E+02  0.40659143697E+02  0.00000000000E+00 0. -1.
         11    1    3    3    0    0 -0.71468803496E+01 -0.13832819080E+02 -0.74423817004E+01  0.17257283334E+02  0.51100000000E-03 0. -1.
        -11    1    3    3    0    0 -0.19417152983E+01  0.12859290788E+01  0.15481184270E+01  0.27965233453E+01  0.51100000000E-03 0.  1.
        -12    1    3    3    0    0 -0.14447463028E+02  0.49361705484E+01 -0.26374868378E+02  0.30475049624E+02  0.00000000000E+00 0.  1.
</event>
<event>
 7    1  0.1381607E-011  0.5052884E+02  0.7816164E-02  0.1300439E+00
        -11   -1    0    0    0    0  0.00000000000E+00  0.00000000000E+00  0.45593999997E+02  0.45594000000E+02  0.51100000000E-03 0.  1.
         11   -1    0    0    0    0 -0.00000000000E+00 -0.00000000000E+00 -0.45593999997E+02  0.45594000000E+02  0.51100000000E-03 0. -1.
    9900012    2    1    2    0    0  0.31766489421E+01  0.40464166718E+02 -0.23931970266E+01  0.50528840163E+02  0.29999940158E+02 0.  0.
         12    1    1    2    0    0 -0.31766489421E+01 -0.40464166718E+02  0.23931970266E+01  0.40659159837E+02  0.00000000000E+00 0. -1.
         11    1    3    3    0    0 -0.37472580158E+01  0.41068904439E+01  0.33067761465E+01  0.64686366802E+01  0.51100000000E-03 0. -1.
        -11    1    3    3    0    0 -0.72910594133E+01  0.21934443300E+02 -0.57115437184E+01  0.23809684629E+02  0.51100000000E-03 0.  1.
         12    1    3    3    0    0  0.14214966371E+02  0.14422832974E+02  0.11570545203E-01  0.20250518853E+02  0.00000000000E+00 0. -1.
</event>
<event>
 7    1  0.1381607E-011  0.5052888E+02  0.7816164E-02  0.1300439E+00
        -11   -1    0    0    0    0  0.00000000000E+00  0.00000000000E+00  0.45593999997E+02  0.45594000000E+02  0.51100000000E-03 0. -1.
         11   -1    0    0    0    0 -0.00000000000E+00 -0.00000000000E+00 -0.45593999997E+02  0.45594000000E+02  0.51100000000E-03 0.  1.
    9900012    2    1    2    0    0  0.57785136620E+01 -0.38005745608E+02 -0.13241440300E+02  0.50528884655E+02  0.30000075399E+02 0.  0.
         12    1    1    2    0    0 -0.57785136620E+01  0.38005745608E+02  0.13241440300E+02  0.40659115345E+02  0.00000000000E+00 0. -1.
         11    1    3    3    0    0  0.93641402946E+01 -0.10470621695E+02  0.22715700455E+01  0.14229584424E+02  0.51100000000E-03 0. -1.
        -11    1    3    3    0    0  0.81698461700E+00 -0.28187053349E+02 -0.12075077963E+02  0.30675477966E+02  0.51100000000E-03 0.  1.
         12    1    3    3    0    0 -0.44026112497E+01  0.65192943637E+00 -0.34379323823E+01  0.56238222652E+01  0.00000000000E+00 0. -1.
</event>
<event>
 7    1  0.1381607E-011  0.5052887E+02  0.7816164E-02  0.1300439E+00
        -11   -1    0    0    0    0  0.00000000000E+00  0.00000000000E+00  0.45593999997E+02  0.45594000000E+02  0.51100000000E-03 0. -1.
         11   -1    0    0    0    0 -0.00000000000E+00 -0.00000000000E+00 -0.45593999997E+02  0.45594000000E+02  0.51100000000E-03 0.  1.
    9900012    2    1    2    0    0 -0.33234125872E+02 -0.34474726256E+01 -0.23168361762E+02  0.50528866011E+02  0.30000018727E+02 0.  0.
         12    1    1    2    0    0  0.33234125872E+02  0.34474726256E+01  0.23168361762E+02  0.40659133989E+02  0.00000000000E+00 0. -1.
         11    1    3    3    0    0 -0.13551634436E+02  0.15863365245E+01 -0.17445402171E+02  0.22147354619E+02  0.51100000000E-03 0.  1.
        -11    1    3    3    0    0 -0.11104628624E+02  0.67412181021E+01 -0.45571595249E+01  0.13766789806E+02  0.51100000000E-03 0. -1.
         12    1    3    3    0    0 -0.85778628127E+01 -0.11775027252E+02 -0.11658000658E+01  0.14614721585E+02  0.00000000000E+00 0. -1.
</event>
<event>
 7    1  0.1381607E-011  0.5052886E+02  0.7816164E-02  0.1300439E+00
        -11   -1    0    0    0    0  0.00000000000E+00  0.00000000000E+00  0.45593999997E+02  0.45594000000E+02  0.51100000000E-03 0. -1.
         11   -1    0    0    0    0 -0.00000000000E+00 -0.00000000000E+00 -0.45593999997E+02  0.45594000000E+02  0.51100000000E-03 0.  1.
    9900012    2    1    2    0    0 -0.21551851581E+02 -0.27788236078E+02  0.20408263947E+02  0.50528860704E+02  0.30000002596E+02 0.  0.
         12    1    1    2    0    0  0.21551851581E+02  0.27788236078E+02 -0.20408263947E+02  0.40659139296E+02  0.00000000000E+00 0. -1.
         11    1    3    3    0    0 -0.14516003526E+02 -0.34148235126E+01  0.90948342616E+00  0.14939964470E+02  0.51100000000E-03 0. -1.
        -11    1    3    3    0    0 -0.11978016334E+02 -0.18782686089E+02  0.13869061687E+02  0.26241437543E+02  0.51100000000E-03 0.  1.
         12    1    3    3    0    0  0.49421682784E+01 -0.55907264770E+01  0.56297188344E+01  0.93474586914E+01  0.00000000000E+00 0. -1.
</event>
<event>
 7    1  0.1381607E-011  0.5052886E+02  0.7816164E-02  0.1300439E+00
        -11   -1    0    0    0    0  0.00000000000E+00  0.00000000000E+00  0.45593999997E+02  0.45594000000E+02  0.51100000000E-03 0.  1.
         11   -1    0    0    0    0 -0.00000000000E+00 -0.00000000000E+00 -0.45593999997E+02  0.45594000000E+02  0.51100000000E-03 0. -1.
    9900012    2    1    2    0    0 -0.20999520835E+02  0.67471240793E+00  0.34809915391E+02  0.50528864228E+02  0.30000013309E+02 0.  0.
         12    1    1    2    0    0  0.20999520835E+02 -0.67471240793E+00 -0.34809915391E+02  0.40659135772E+02  0.00000000000E+00 0. -1.
         11    1    3    3    0    0 -0.35682776067E+01  0.49250479535E+01 -0.53693851874E+00  0.61054897966E+01  0.51100000000E-03 0. -1.
        -11    1    3    3    0    0  0.76536947220E+00 -0.66796667758E+01  0.17803436038E+02  0.19030661409E+02  0.51100000000E-03 0.  1.
        -12    1    3    3    0    0 -0.18196612701E+02  0.24293312302E+01  0.17543417873E+02  0.25392713023E+02  0.00000000000E+00 0.  1.
</event>
<event>
 7    1  0.1381607E-011  0.5052887E+02  0.7816164E-02  0.1300439E+00
        -11   -1    0    0    0    0  0.00000000000E+00  0.00000000000E+00  0.45593999997E+02  0.45594000000E+02  0.51100000000E-03 0.  1.
         11   -1    0    0    0    0 -0.00000000000E+00 -0.00000000000E+00 -0.45593999997E+02  0.45594000000E+02  0.51100000000E-03 0. -1.
    9900012    2    1    2    0    0  0.45809880174E+01 -0.22152558262E+02  0.33785252225E+02  0.50528873636E+02  0.30000041904E+02 0.  0.
         12    1    1    2    0    0 -0.45809880174E+01  0.22152558262E+02 -0.33785252225E+02  0.40659126364E+02  0.00000000000E+00 0. -1.
         11    1    3    3    0    0  0.30252019200E+01 -0.43037277080E+01  0.63490387491E+00  0.52987755221E+01  0.51100000000E-03 0. -1.
        -11    1    3    3    0    0 -0.10626346248E+02 -0.14763257312E+02  0.18940938390E+02  0.26260848204E+02  0.51100000000E-03 0.  1.
         12    1    3    3    0    0  0.12182132346E+02 -0.30855732417E+01  0.14209409960E+02  0.18969249910E+02  0.00000000000E+00 0. -1.
</event>
<event>
 7    1  0.1381607E-011  0.5052886E+02  0.7816164E-02  0.1300439E+00
        -11   -1    0    0    0    0  0.00000000000E+00  0.00000000000E+00  0.45593999997E+02  0.45594000000E+02  0.51100000000E-03 0.  1.
         11   -1    0    0    0    0 -0.00000000000E+00 -0.00000000000E+00 -0.45593999997E+02  0.45594000000E+02  0.51100000000E-03 0. -1.
    9900012    2    1    2    0    0 -0.59102904025E+01 -0.39104750352E+02  0.94367632796E+01  0.50528861618E+02  0.30000005374E+02 0.  0.
         12    1    1    2    0    0  0.59102904025E+01  0.39104750352E+02 -0.94367632796E+01  0.40659138382E+02  0.00000000000E+00 0. -1.
         11    1    3    3    0    0  0.18415302046E+01 -0.18551715007E+02 -0.16845469847E+01  0.18718842432E+02  0.51100000000E-03 0. -1.
        -11    1    3    3    0    0  0.67486964644E+01 -0.73937270396E+01  0.55748124472E+01  0.11458212670E+02  0.51100000000E-03 0.  1.
         12    1    3    3    0    0 -0.14500517072E+02 -0.13159308306E+02  0.55464978171E+01  0.20351806516E+02  0.00000000000E+00 0. -1.
</event>
<event>
 7    1  0.1381607E-011  0.5052885E+02  0.7816164E-02  0.1300439E+00
        -11   -1    0    0    0    0  0.00000000000E+00  0.00000000000E+00  0.45593999997E+02  0.45594000000E+02  0.51100000000E-03 0. -1.
         11   -1    0    0    0    0 -0.00000000000E+00 -0.00000000000E+00 -0.45593999997E+02  0.45594000000E+02  0.51100000000E-03 0.  1.
    9900012    2    1    2    0    0 -0.62429769092E+01 -0.71918044033E+00 -0.40170562859E+02  0.50528854638E+02  0.29999984157E+02 0.  0.
         12    1    1    2    0    0  0.62429769092E+01  0.71918044033E+00  0.40170562859E+02  0.40659145362E+02  0.00000000000E+00 0. -1.
         11    1    3    3    0    0  0.81589567018E+01 -0.11863700056E+01 -0.46524098655E+01  0.94668350609E+01  0.51100000000E-03 0. -1.
        -11    1    3    3    0    0 -0.71292742686E+01 -0.71209536029E+01 -0.18234452371E+02  0.20833381515E+02  0.51100000000E-03 0.  1.
        -12    1    3    3    0    0 -0.72726593423E+01  0.75881431682E+01 -0.17283700622E+02  0.20228638062E+02  0.00000000000E+00 0.  1.
</event>
<event>
 7    1  0.1381607E-011  0.5052886E+02  0.7816164E-02  0.1300439E+00
        -11   -1    0    0    0    0  0.00000000000E+00  0.00000000000E+00  0.45593999997E+02  0.45594000000E+02  0.51100000000E-03 0.  1.
         11   -1    0    0    0    0 -0.00000000000E+00 -0.00000000000E+00 -0.45593999997E+02  0.45594000000E+02  0.51100000000E-03 0. -1.
    9900012    2    1    2    0    0  0.39308128436E+01  0.25636006404E+02  0.31313091133E+02  0.50528858466E+02  0.29999995794E+02 0.  0.
         12    1    1    2    0    0 -0.39308128436E+01 -0.25636006404E+02 -0.31313091133E+02  0.40659141534E+02  0.00000000000E+00 0. -1.
         11    1    3    3    0    0 -0.78209462341E+01  0.53953327152E+00  0.15698878175E+02  0.17547452019E+02  0.51100000000E-03 0. -1.
        -11    1    3    3    0    0  0.15257785687E+01  0.13515651444E+02  0.73688894072E+01  0.15469368622E+02  0.51100000000E-03 0.  1.
        -12    1    3    3    0    0  0.10225980509E+02  0.11580821688E+02  0.82453235509E+01  0.17512037825E+02  0.00000000000E+00 0.  1.
</event>
<event>
 7    1  0.1381607E-011  0.5052886E+02  0.7816164E-02  0.1300439E+00
        -11   -1    0    0    0    0  0.00000000000E+00  0.00000000000E+00  0.45593999997E+02  0.45594000000E+02  0.51100000000E-03 0. -1.
         11   -1    0    0    0    0 -0.00000000000E+00 -0.00000000000E+00 -0.45593999997E+02  0.45594000000E+02  0.51100000000E-03 0.  1.
    9900012    2    1    2    0    0 -0.69763828541E+00 -0.40400622768E+02  0.45241918024E+01  0.50528864118E+02  0.30000012972E+02 0.  0.
         12    1    1    2    0    0  0.69763828541E+00  0.40400622768E+02 -0.45241918024E+01  0.40659135882E+02  0.00000000000E+00 0. -1.
         11    1    3    3    0    0 -0.11597015977E+02 -0.15547598400E+02  0.28281615322E+01  0.19601456413E+02  0.51100000000E-03 0. -1.
        -11    1    3    3    0    0 -0.22357312651E+01 -0.49877532995E+00  0.23056493041E+01  0.32501215506E+01  0.51100000000E-03 0.  1.
        -12    1    3    3    0    0  0.13135108956E+02 -0.24354249038E+02 -0.60961903383E+00  0.27677286154E+02  0.00000000000E+00 0.  1.
</event>
<event>
 7    1  0.1381607E-011  0.5052886E+02  0.7816164E-02  0.1300439E+00
        -11   -1    0    0    0    0  0.00000000000E+00  0.00000000000E+00  0.45593999997E+02  0.45594000000E+02  0.51100000000E-03 0. -1.
         11   -1    0    0    0    0 -0.00000000000E+00 -0.00000000000E+00 -0.45593999997E+02  0.45594000000E+02  0.51100000000E-03 0.  1.
    9900012    2    1    2    0    0  0.77194854420E+01  0.39620446282E+02  0.48780417797E+01  0.50528861905E+02  0.30000006246E+02 0.  0.
         12    1    1    2    0    0 -0.77194854420E+01 -0.39620446282E+02 -0.48780417797E+01  0.40659138095E+02  0.00000000000E+00 0. -1.
         11    1    3    3    0    0  0.99727061292E+01  0.76092852953E+01 -0.15928103845E+01  0.12644885742E+02  0.51100000000E-03 0. -1.
        -11    1    3    3    0    0  0.22314741210E+01  0.22197757006E+02 -0.42083014379E+01  0.22703076754E+02  0.51100000000E-03 0.  1.
         12    1    3    3    0    0 -0.44846948083E+01  0.98134039803E+01  0.10679153602E+02  0.15180899409E+02  0.00000000000E+00 0. -1.
</event>
<event>
 7    1  0.1381607E-011  0.5052885E+02  0.7816164E-02  0.1300439E+00
        -11   -1    0    0    0    0  0.00000000000E+00  0.00000000000E+00  0.45593999997E+02  0.45594000000E+02  0.51100000000E-03 0.  1.
         11   -1    0    0    0    0 -0.00000000000E+00 -0.00000000000E+00 -0.45593999997E+02  0.45594000000E+02  0.51100000000E-03 0. -1.
    9900012    2    1    2    0    0  0.41069116072E+01  0.37239877533E+02  0.15795282379E+02  0.50528854078E+02  0.29999982457E+02 0.  0.
         12    1    1    2    0    0 -0.41069116072E+01 -0.37239877533E+02 -0.15795282379E+02  0.40659145922E+02  0.00000000000E+00 0. -1.
         11    1    3    3    0    0  0.73993546765E+01  0.37518086331E+02  0.59855984831E+01  0.38706390184E+02  0.51100000000E-03 0.  1.
        -11    1    3    3    0    0 -0.38216371896E+01  0.40629667948E-01  0.26842753341E+01  0.46703207501E+01  0.51100000000E-03 0. -1.
        -12    1    3    3    0    0  0.52919412023E+00 -0.31883846603E+00  0.71254085620E+01  0.71521431445E+01  0.00000000000E+00 0.  1.
</event>
<event>
 7    1  0.1381607E-011  0.5052886E+02  0.7816164E-02  0.1300439E+00
        -11   -1    0    0    0    0  0.00000000000E+00  0.00000000000E+00  0.45593999997E+02  0.45594000000E+02  0.51100000000E-03 0.  1.
         11   -1    0    0    0    0 -0.00000000000E+00 -0.00000000000E+00 -0.45593999997E+02  0.45594000000E+02  0.51100000000E-03 0. -1.
    9900012    2    1    2    0    0  0.51016769363E+01  0.21934527758E+02  0.33852841266E+02  0.50528862314E+02  0.30000007491E+02 0.  0.
         12    1    1    2    0    0 -0.51016769363E+01 -0.21934527758E+02 -0.33852841266E+02  0.40659137686E+02  0.00000000000E+00 0. -1.
         11    1    3    3    0    0 -0.37361287147E+01 -0.20970980504E+00  0.91250511631E+01  0.98625146370E+01  0.51100000000E-03 0. -1.
        -11    1    3    3    0    0  0.12947571493E+02  0.98600044736E+01  0.22105381774E+02  0.27450085599E+02  0.51100000000E-03 0.  1.
         12    1    3    3    0    0 -0.41097658416E+01  0.12284233090E+02  0.26224083295E+01  0.13216262078E+02  0.00000000000E+00 0. -1.
</event>
<event>
 7    1  0.1381607E-011  0.5052886E+02  0.7816164E-02  0.1300439E+00
        -11   -1    0    0    0    0  0.00000000000E+00  0.00000000000E+00  0.45593999997E+02  0.45594000000E+02  0.51100000000E-03 0.  1.
         11   -1    0    0    0    0 -0.00000000000E+00 -0.00000000000E+00 -0.45593999997E+02  0.45594000000E+02  0.51100000000E-03 0. -1.
    9900012    2    1    2    0    0 -0.31835307546E+02  0.25278289314E+02  0.82875781734E+00  0.50528861339E+02  0.30000004525E+02 0.  0.
         12    1    1    2    0    0  0.31835307546E+02 -0.25278289314E+02 -0.82875781734E+00  0.40659138661E+02  0.00000000000E+00 0. -1.
         11    1    3    3    0    0 -0.17866724154E+02  0.17801641241E+02  0.11990712083E+02  0.27926608090E+02  0.51100000000E-03 0. -1.
        -11    1    3    3    0    0 -0.45865147425E+00  0.51614188587E+01 -0.44078434738E+00  0.52004708356E+01  0.51100000000E-03 0.  1.
         12    1    3    3    0    0 -0.13509931917E+02  0.23152292138E+01 -0.10721169919E+02  0.17401782413E+02  0.00000000000E+00 0. -1.
</event>
<event>
 7    1  0.1381607E-011  0.5052886E+02  0.7816164E-02  0.1300439E+00
        -11   -1    0    0    0    0  0.00000000000E+00  0.00000000000E+00  0.45593999997E+02  0.45594000000E+02  0.51100000000E-03 0.  1.
         11   -1    0    0    0    0 -0.00000000000E+00 -0.00000000000E+00 -0.45593999997E+02  0.45594000000E+02  0.51100000000E-03 0. -1.
    9900012    2    1    2    0    0 -0.26769243573E+02 -0.11536668373E+02  0.28345698322E+02  0.50528859183E+02  0.29999997973E+02 0.  0.
         12    1    1    2    0    0  0.26769243573E+02  0.11536668373E+02 -0.28345698322E+02  0.40659140817E+02  0.00000000000E+00 0. -1.
         11    1    3    3    0    0 -0.12160598292E+02 -0.83870340101E+01  0.12081810243E+02  0.19083831620E+02  0.51100000000E-03 0.  1.
        -11    1    3    3    0    0 -0.28912542763E+01 -0.11058778522E+01  0.18991390396E+02  0.19242017216E+02  0.51100000000E-03 0. -1.
         12    1    3    3    0    0 -0.11717391004E+02 -0.20437565108E+01 -0.27275023170E+01  0.12203010346E+02  0.00000000000E+00 0. -1.
</event>
<event>
 7    1  0.1381607E-011  0.5052886E+02  0.7816164E-02  0.1300439E+00
        -11   -1    0    0    0    0  0.00000000000E+00  0.00000000000E+00  0.45593999997E+02  0.45594000000E+02  0.51100000000E-03 0.  1.
         11   -1    0    0    0    0 -0.00000000000E+00 -0.00000000000E+00 -0.45593999997E+02  0.45594000000E+02  0.51100000000E-03 0. -1.
    9900012    2    1    2    0    0 -0.54055662589E+01 -0.10385556919E+02  0.38936944645E+02  0.50528860838E+02  0.30000003003E+02 0.  0.
         12    1    1    2    0    0  0.54055662589E+01  0.10385556919E+02 -0.38936944645E+02  0.40659139162E+02  0.00000000000E+00 0. -1.
         11    1    3    3    0    0  0.48421582676E+00  0.28513406680E+01  0.95705745584E+00  0.30464024368E+01  0.51100000000E-03 0. -1.
        -11    1    3    3    0    0  0.38630632864E+01 -0.17450833379E+02  0.23831351183E+02  0.29789060795E+02  0.51100000000E-03 0.  1.
         12    1    3    3    0    0 -0.97528453721E+01  0.42139357928E+01  0.14148536007E+02  0.17693397606E+02  0.00000000000E+00 0. -1.
</event>
<event>
 7    1  0.1381607E-011  0.5052881E+02  0.7816164E-02  0.1300439E+00
        -11   -1    0    0    0    0  0.00000000000E+00  0.00000000000E+00  0.45593999997E+02  0.45594000000E+02  0.51100000000E-03 0.  1.
         11   -1    0    0    0    0 -0.00000000000E+00 -0.00000000000E+00 -0.45593999997E+02  0.45594000000E+02  0.51100000000E-03 0. -1.
    9900012    2    1    2    0    0  0.29634656293E+02 -0.15571125881E+01 -0.27794458513E+02  0.50528814356E+02  0.29999861716E+02 0.  0.
         12    1    1    2    0    0 -0.29634656293E+02  0.15571125881E+01  0.27794458513E+02  0.40659185644E+02  0.00000000000E+00 0. -1.
         11    1    3    3    0    0  0.64545289668E+01 -0.52839628281E+01 -0.99763701005E-01  0.83421316466E+01  0.51100000000E-03 0. -1.
        -11    1    3    3    0    0  0.21675401450E+02 -0.52677850109E+01 -0.22537658164E+02  0.31709913635E+02  0.51100000000E-03 0.  1.
        -12    1    3    3    0    0  0.15047258759E+01  0.89946352508E+01 -0.51570366479E+01  0.10476769075E+02  0.00000000000E+00 0.  1.
</event>
<event>
 7    1  0.1381607E-011  0.5052886E+02  0.7816164E-02  0.1300439E+00
        -11   -1    0    0    0    0  0.00000000000E+00  0.00000000000E+00  0.45593999997E+02  0.45594000000E+02  0.51100000000E-03 0. -1.
         11   -1    0    0    0    0 -0.00000000000E+00 -0.00000000000E+00 -0.45593999997E+02  0.45594000000E+02  0.51100000000E-03 0.  1.
    9900012    2    1    2    0    0 -0.19605004496E+02  0.35147305033E+02  0.57858819269E+01  0.50528859797E+02  0.29999999839E+02 0.  0.
         12    1    1    2    0    0  0.19605004496E+02 -0.35147305033E+02 -0.57858819269E+01  0.40659140203E+02  0.00000000000E+00 0. -1.
         11    1    3    3    0    0  0.33861721248E+01  0.75338814071E+01 -0.17000435409E+01  0.84330112662E+01  0.51100000000E-03 0.  1.
        -11    1    3    3    0    0 -0.17768109135E+02  0.94429294029E+01 -0.32066182186E+01  0.20375402293E+02  0.51100000000E-03 0. -1.
         12    1    3    3    0    0 -0.52230674854E+01  0.18170494223E+02  0.10692543686E+02  0.21720446238E+02  0.00000000000E+00 0. -1.
</event>
<event>
 7    1  0.1381607E-011  0.5052886E+02  0.7816164E-02  0.1300439E+00
        -11   -1    0    0    0    0  0.00000000000E+00  0.00000000000E+00  0.45593999997E+02  0.45594000000E+02  0.51100000000E-03 0.  1.
         11   -1    0    0    0    0 -0.00000000000E+00 -0.00000000000E+00 -0.45593999997E+02  0.45594000000E+02  0.51100000000E-03 0. -1.
    9900012    2    1    2    0    0  0.36060190978E+02  0.13438827529E+02  0.13123500385E+02  0.50528859317E+02  0.29999998379E+02 0.  0.
         12    1    1    2    0    0 -0.36060190978E+02 -0.13438827529E+02 -0.13123500385E+02  0.40659140683E+02  0.00000000000E+00 0. -1.
         11    1    3    3    0    0  0.18375142719E+01  0.81431899252E+01  0.15238086536E+01  0.84858702518E+01  0.51100000000E-03 0. -1.
        -11    1    3    3    0    0  0.65784282457E+01 -0.43350043142E+01  0.99930874806E+01  0.12725163191E+02  0.51100000000E-03 0.  1.
        -12    1    3    3    0    0  0.27644248461E+02  0.96306419185E+01  0.16066042503E+01  0.29317825873E+02  0.00000000000E+00 0.  1.
</event>
<event>
 7    1  0.1381607E-011  0.5052886E+02  0.7816164E-02  0.1300439E+00
        -11   -1    0    0    0    0  0.00000000000E+00  0.00000000000E+00  0.45593999997E+02  0.45594000000E+02  0.51100000000E-03 0. -1.
         11   -1    0    0    0    0 -0.00000000000E+00 -0.00000000000E+00 -0.45593999997E+02  0.45594000000E+02  0.51100000000E-03 0.  1.
    9900012    2    1    2    0    0  0.19290633868E+02 -0.35650650758E+02 -0.31730132862E+01  0.50528862431E+02  0.30000007847E+02 0.  0.
         12    1    1    2    0    0 -0.19290633868E+02  0.35650650758E+02  0.31730132862E+01  0.40659137569E+02  0.00000000000E+00 0. -1.
         11    1    3    3    0    0  0.39134976654E+01 -0.15718271424E+02 -0.11422743364E+02  0.19820660604E+02  0.51100000000E-03 0. -1.
        -11    1    3    3    0    0  0.10648434292E+02 -0.21855310646E+02  0.55635983682E+01  0.24939875368E+02  0.51100000000E-03 0.  1.
         12    1    3    3    0    0  0.47287019105E+01  0.19229313119E+01  0.26861317096E+01  0.57683264601E+01  0.00000000000E+00 0. -1.
</event>
<event>
 7    1  0.1381607E-011  0.5052886E+02  0.7816164E-02  0.1300439E+00
        -11   -1    0    0    0    0  0.00000000000E+00  0.00000000000E+00  0.45593999997E+02  0.45594000000E+02  0.51100000000E-03 0.  1.
         11   -1    0    0    0    0 -0.00000000000E+00 -0.00000000000E+00 -0.45593999997E+02  0.45594000000E+02  0.51100000000E-03 0. -1.
    9900012    2    1    2    0    0  0.14838155783E+01 -0.38885900155E+02  0.11783484733E+02  0.50528862626E+02  0.30000008437E+02 0.  0.
         12    1    1    2    0    0 -0.14838155783E+01  0.38885900155E+02 -0.11783484733E+02  0.40659137374E+02  0.00000000000E+00 0. -1.
         11    1    3    3    0    0 -0.73831140286E+01 -0.63683192669E+00  0.19296702414E+01  0.76576468424E+01  0.51100000000E-03 0. -1.
        -11    1    3    3    0    0 -0.21850294496E+01 -0.11168439465E+02  0.72792125652E+01  0.13509083226E+02  0.51100000000E-03 0.  1.
        -12    1    3    3    0    0  0.11051959057E+02 -0.27080628764E+02  0.25746019267E+01  0.29362132557E+02  0.00000000000E+00 0.  1.
</event>
<event>
 7    1  0.1381607E-011  0.5052886E+02  0.7816164E-02  0.1300439E+00
        -11   -1    0    0    0    0  0.00000000000E+00  0.00000000000E+00  0.45593999997E+02  0.45594000000E+02  0.51100000000E-03 0.  1.
         11   -1    0    0    0    0 -0.00000000000E+00 -0.00000000000E+00 -0.45593999997E+02  0.45594000000E+02  0.51100000000E-03 0. -1.
    9900012    2    1    2    0    0 -0.24992754973E+02 -0.23157779528E+02  0.22186600323E+02  0.50528858497E+02  0.29999995888E+02 0.  0.
         12    1    1    2    0    0  0.24992754973E+02  0.23157779528E+02 -0.22186600323E+02  0.40659141503E+02  0.00000000000E+00 0. -1.
         11    1    3    3    0    0 -0.13568064991E+02  0.32036680586E+00  0.59083653822E+01  0.14802155391E+02  0.51100000000E-03 0. -1.
        -11    1    3    3    0    0 -0.15129228031E+02 -0.14497005146E+02  0.15335257553E+02  0.25965878061E+02  0.51100000000E-03 0.  1.
        -12    1    3    3    0    0  0.37045380484E+01 -0.89811411882E+01  0.94297738786E+00  0.97608250445E+01  0.00000000000E+00 0.  1.
</event>
<event>
 7    1  0.1381607E-011  0.5052887E+02  0.7816164E-02  0.1300439E+00
        -11   -1    0    0    0    0  0.00000000000E+00  0.00000000000E+00  0.45593999997E+02  0.45594000000E+02  0.51100000000E-03 0.  1.
         11   -1    0    0    0    0 -0.00000000000E+00 -0.00000000000E+00 -0.45593999997E+02  0.45594000000E+02  0.51100000000E-03 0. -1.
    9900012    2    1    2    0    0  0.39415192072E+02  0.96419785489E+01  0.25768458735E+01  0.50528865097E+02  0.30000015949E+02 0.  0.
         12    1    1    2    0    0 -0.39415192072E+02 -0.96419785489E+01 -0.25768458735E+01  0.40659134903E+02  0.00000000000E+00 0. -1.
         11    1    3    3    0    0  0.57257087374E+01 -0.56179537933E+01 -0.52779844560E+00  0.80388877856E+01  0.51100000000E-03 0. -1.
        -11    1    3    3    0    0  0.16981159413E+02  0.38378543713E+01 -0.82693782479E+01  0.19273596397E+02  0.51100000000E-03 0.  1.
        -12    1    3    3    0    0  0.16708323921E+02  0.11422077971E+02  0.11374022567E+02  0.23216380915E+02  0.00000000000E+00 0.  1.
</event>
<event>
 7    1  0.1381607E-011  0.5052886E+02  0.7816164E-02  0.1300439E+00
        -11   -1    0    0    0    0  0.00000000000E+00  0.00000000000E+00  0.45593999997E+02  0.45594000000E+02  0.51100000000E-03 0. -1.
         11   -1    0    0    0    0 -0.00000000000E+00 -0.00000000000E+00 -0.45593999997E+02  0.45594000000E+02  0.51100000000E-03 0.  1.
    9900012    2    1    2    0    0 -0.10387061102E+02 -0.17703468079E+02 -0.35097894911E+02  0.50528855302E+02  0.29999986176E+02 0.  0.
         12    1    1    2    0    0  0.10387061102E+02  0.17703468079E+02  0.35097894911E+02  0.40659144698E+02  0.00000000000E+00 0. -1.
         11    1    3    3    0    0  0.48981105328E+01 -0.10997038275E+02 -0.10218445171E+02  0.15790597189E+02  0.51100000000E-03 0. -1.
        -11    1    3    3    0    0 -0.80903495873E+01 -0.93125656324E+01 -0.47771196221E+01  0.13228700134E+02  0.51100000000E-03 0.  1.
        -12    1    3    3    0    0 -0.71948220474E+01  0.26061358286E+01 -0.20102330118E+02  0.21509557979E+02  0.00000000000E+00 0.  1.
</event>
<event>
 7    1  0.1381607E-011  0.5052886E+02  0.7816164E-02  0.1300439E+00
        -11   -1    0    0    0    0  0.00000000000E+00  0.00000000000E+00  0.45593999997E+02  0.45594000000E+02  0.51100000000E-03 0.  1.
         11   -1    0    0    0    0 -0.00000000000E+00 -0.00000000000E+00 -0.45593999997E+02  0.45594000000E+02  0.51100000000E-03 0. -1.
    9900012    2    1    2    0    0  0.17812203277E+02  0.21445261128E+02  0.29597155848E+02  0.50528862716E+02  0.30000008710E+02 0.  0.
         12    1    1    2    0    0 -0.17812203277E+02 -0.21445261128E+02 -0.29597155848E+02  0.40659137284E+02  0.00000000000E+00 0. -1.
         11    1    3    3    0    0 -0.10504976182E+01  0.84051839991E+01  0.99384974951E+01  0.13058498996E+02  0.51100000000E-03 0. -1.
        -11    1    3    3    0    0  0.16495831603E+01 -0.44943368052E+00 -0.45415768815E+01  0.48527349059E+01  0.51100000000E-03 0.  1.
        -12    1    3    3    0    0  0.17213117735E+02  0.13489510809E+02  0.24200235235E+02  0.32617628814E+02  0.00000000000E+00 0.  1.
</event>
<event>
 7    1  0.1381607E-011  0.5052886E+02  0.7816164E-02  0.1300439E+00
        -11   -1    0    0    0    0  0.00000000000E+00  0.00000000000E+00  0.45593999997E+02  0.45594000000E+02  0.51100000000E-03 0. -1.
         11   -1    0    0    0    0 -0.00000000000E+00 -0.00000000000E+00 -0.45593999997E+02  0.45594000000E+02  0.51100000000E-03 0.  1.
    9900012    2    1    2    0    0  0.18577108344E+02 -0.36011613211E+02 -0.33496712921E+01  0.50528861565E+02  0.30000005214E+02 0.  0.
         12    1    1    2    0    0 -0.18577108344E+02  0.36011613211E+02  0.33496712921E+01  0.40659138435E+02  0.00000000000E+00 0. -1.
         11    1    3    3    0    0  0.14420957436E+02 -0.22278314466E+02  0.71193006433E+01  0.27476749275E+02  0.51100000000E-03 0. -1.
        -11    1    3    3    0    0  0.77211025284E+01 -0.14658568447E+02 -0.99678011697E+01  0.19335100558E+02  0.51100000000E-03 0.  1.
        -12    1    3    3    0    0 -0.35649516207E+01  0.92526970213E+00 -0.50117076568E+00  0.37170117320E+01  0.00000000000E+00 0.  1.
</event>
<event>
 7    1  0.1381607E-011  0.5052885E+02  0.7816164E-02  0.1300439E+00
        -11   -1    0    0    0    0  0.00000000000E+00  0.00000000000E+00  0.45593999997E+02  0.45594000000E+02  0.51100000000E-03 0.  1.
         11   -1    0    0    0    0 -0.00000000000E+00 -0.00000000000E+00 -0.45593999997E+02  0.45594000000E+02  0.51100000000E-03 0. -1.
    9900012    2    1    2    0    0  0.30976194581E+02  0.25725677281E+02  0.56419308690E+01  0.50528849908E+02  0.29999969779E+02 0.  0.
         12    1    1    2    0    0 -0.30976194581E+02 -0.25725677281E+02 -0.56419308690E+01  0.40659150092E+02  0.00000000000E+00 0. -1.
         11    1    3    3    0    0  0.14699022124E+02  0.21075363250E+02  0.34777354313E+01  0.25929265927E+02  0.51100000000E-03 0. -1.
        -11    1    3    3    0    0  0.11861301229E+02  0.44732767334E+01  0.96327714386E+01  0.15921399356E+02  0.51100000000E-03 0.  1.
        -12    1    3    3    0    0  0.44158712276E+01  0.17703729768E+00 -0.74685760009E+01  0.86781846250E+01  0.00000000000E+00 0.  1.
</event>
<event>
 7    1  0.1381607E-011  0.5052886E+02  0.7816164E-02  0.1300439E+00
        -11   -1    0    0    0    0  0.00000000000E+00  0.00000000000E+00  0.45593999997E+02  0.45594000000E+02  0.51100000000E-03 0. -1.
         11   -1    0    0    0    0 -0.00000000000E+00 -0.00000000000E+00 -0.45593999997E+02  0.45594000000E+02  0.51100000000E-03 0.  1.
    9900012    2    1    2    0    0 -0.19223187637E+01  0.27211657506E+02 -0.30149555210E+02  0.50528864581E+02  0.30000014381E+02 0.  0.
         12    1    1    2    0    0  0.19223187637E+01 -0.27211657506E+02  0.30149555210E+02  0.40659135419E+02  0.00000000000E+00 0. -1.
         11    1    3    3    0    0  0.36622553129E+01  0.78584339904E+01 -0.89787992085E+01  0.12481423566E+02  0.51100000000E-03 0.  1.
        -11    1    3    3    0    0  0.42406862278E+01 -0.32277219453E+01  0.35310047987E+00  0.53410007348E+01  0.51100000000E-03 0. -1.
        -12    1    3    3    0    0 -0.98252603044E+01  0.22580945461E+02 -0.21523856481E+02  0.32706440280E+02  0.00000000000E+00 0.  1.
</event>
<event>
 7    1  0.1381607E-011  0.5052886E+02  0.7816164E-02  0.1300439E+00
        -11   -1    0    0    0    0  0.00000000000E+00  0.00000000000E+00  0.45593999997E+02  0.45594000000E+02  0.51100000000E-03 0.  1.
         11   -1    0    0    0    0 -0.00000000000E+00 -0.00000000000E+00 -0.45593999997E+02  0.45594000000E+02  0.51100000000E-03 0. -1.
    9900012    2    1    2    0    0  0.13302552464E+02  0.26357356044E+02  0.27955275679E+02  0.50528861323E+02  0.30000004476E+02 0.  0.
         12    1    1    2    0    0 -0.13302552464E+02 -0.26357356044E+02 -0.27955275679E+02  0.40659138677E+02  0.00000000000E+00 0. -1.
         11    1    3    3    0    0  0.83882980516E+01  0.52859409790E+01  0.18718597505E+02  0.21182318312E+02  0.51100000000E-03 0. -1.
        -11    1    3    3    0    0  0.41790813203E+01  0.15856846371E+02  0.14508393785E+02  0.21895154441E+02  0.51100000000E-03 0.  1.
         12    1    3    3    0    0  0.73517309229E+00  0.52145686936E+01 -0.52717156109E+01  0.74513885698E+01  0.00000000000E+00 0. -1.
</event>
<event>
 7    1  0.1381607E-011  0.5052892E+02  0.7816164E-02  0.1300439E+00
        -11   -1    0    0    0    0  0.00000000000E+00  0.00000000000E+00  0.45593999997E+02  0.45594000000E+02  0.51100000000E-03 0.  1.
         11   -1    0    0    0    0 -0.00000000000E+00 -0.00000000000E+00 -0.45593999997E+02  0.45594000000E+02  0.51100000000E-03 0. -1.
    9900012    2    1    2    0    0 -0.37197515428E+02  0.15608811483E+02  0.50863013041E+01  0.50528922159E+02  0.30000189394E+02 0.  0.
         12    1    1    2    0    0  0.37197515428E+02 -0.15608811483E+02 -0.50863013041E+01  0.40659077841E+02  0.00000000000E+00 0. -1.
         11    1    3    3    0    0  0.64504052079E+00  0.15639918679E-01 -0.31950639524E+01  0.32595637440E+01  0.51100000000E-03 0. -1.
        -11    1    3    3    0    0 -0.63483260048E+01 -0.41420528585E+01  0.66226253739E+01  0.10065635204E+02  0.51100000000E-03 0.  1.
         12    1    3    3    0    0 -0.31494229944E+02  0.19735224423E+02  0.16587398826E+01  0.37203723211E+02  0.00000000000E+00 0. -1.
</event>
<event>
 7    1  0.1381607E-011  0.5052886E+02  0.7816164E-02  0.1300439E+00
        -11   -1    0    0    0    0  0.00000000000E+00  0.00000000000E+00  0.45593999997E+02  0.45594000000E+02  0.51100000000E-03 0. -1.
         11   -1    0    0    0    0 -0.00000000000E+00 -0.00000000000E+00 -0.45593999997E+02  0.45594000000E+02  0.51100000000E-03 0.  1.
    9900012    2    1    2    0    0 -0.89950461286E+01 -0.54979660610E+01 -0.39268657498E+02  0.50528856535E+02  0.29999989922E+02 0.  0.
         12    1    1    2    0    0  0.89950461286E+01  0.54979660610E+01  0.39268657498E+02  0.40659143465E+02  0.00000000000E+00 0. -1.
         11    1    3    3    0    0 -0.42776318373E+01 -0.77166848987E+01 -0.31987231500E+01  0.93849448593E+01  0.51100000000E-03 0. -1.
        -11    1    3    3    0    0  0.62126564792E+01 -0.38297406517E+01 -0.13662347220E+02  0.15489472096E+02  0.51100000000E-03 0.  1.
        -12    1    3    3    0    0 -0.10930070771E+02  0.60484594894E+01 -0.22407587128E+02  0.25654439579E+02  0.00000000000E+00 0.  1.
</event>
<event>
 7    1  0.1381607E-011  0.5052885E+02  0.7816164E-02  0.1300439E+00
        -11   -1    0    0    0    0  0.00000000000E+00  0.00000000000E+00  0.45593999997E+02  0.45594000000E+02  0.51100000000E-03 0. -1.
         11   -1    0    0    0    0 -0.00000000000E+00 -0.00000000000E+00 -0.45593999997E+02  0.45594000000E+02  0.51100000000E-03 0.  1.
    9900012    2    1    2    0    0 -0.21908975724E+02 -0.31890343027E+02 -0.12496758845E+02  0.50528853707E+02  0.29999981328E+02 0.  0.
         12    1    1    2    0    0  0.21908975724E+02  0.31890343027E+02  0.12496758845E+02  0.40659146293E+02  0.00000000000E+00 0. -1.
         11    1    3    3    0    0 -0.14935468672E+01 -0.11784697169E+02 -0.66625071789E+01  0.13619793382E+02  0.51100000000E-03 0. -1.
        -11    1    3    3    0    0 -0.80014255212E+01 -0.19230250503E+02  0.37981426237E+01  0.21171944465E+02  0.51100000000E-03 0.  1.
         12    1    3    3    0    0 -0.12414003335E+02 -0.87539535538E+00 -0.96323942893E+01  0.15737115860E+02  0.00000000000E+00 0. -1.
</event>
<event>
 7    1  0.1381607E-011  0.5052886E+02  0.7816164E-02  0.1300439E+00
        -11   -1    0    0    0    0  0.00000000000E+00  0.00000000000E+00  0.45593999997E+02  0.45594000000E+02  0.51100000000E-03 0. -1.
         11   -1    0    0    0    0 -0.00000000000E+00 -0.00000000000E+00 -0.45593999997E+02  0.45594000000E+02  0.51100000000E-03 0.  1.
    9900012    2    1    2    0    0  0.14701285401E+02 -0.12258794017E+02 -0.35871430176E+02  0.50528864175E+02  0.30000013147E+02 0.  0.
         12    1    1    2    0    0 -0.14701285401E+02  0.12258794017E+02  0.35871430176E+02  0.40659135825E+02  0.00000000000E+00 0. -1.
         11    1    3    3    0    0 -0.34302194213E+01  0.43080458848E+01 -0.29999817098E+01  0.62710091010E+01  0.51100000000E-03 0. -1.
        -11    1    3    3    0    0  0.83035670827E+01 -0.95896974029E+00 -0.20253159218E+02  0.21910255769E+02  0.51100000000E-03 0.  1.
         12    1    3    3    0    0  0.98279377394E+01 -0.15607870162E+02 -0.12618289247E+02  0.22347599306E+02  0.00000000000E+00 0. -1.
</event>
<event>
 7    1  0.1381607E-011  0.5052886E+02  0.7816164E-02  0.1300439E+00
        -11   -1    0    0    0    0  0.00000000000E+00  0.00000000000E+00  0.45593999997E+02  0.45594000000E+02  0.51100000000E-03 0.  1.
         11   -1    0    0    0    0 -0.00000000000E+00 -0.00000000000E+00 -0.45593999997E+02  0.45594000000E+02  0.51100000000E-03 0. -1.
    9900012    2    1    2    0    0 -0.15629795843E+02 -0.19009442989E+02  0.32365349843E+02  0.50528864356E+02  0.30000013697E+02 0.  0.
         12    1    1    2    0    0  0.15629795843E+02  0.19009442989E+02 -0.32365349843E+02  0.40659135644E+02  0.00000000000E+00 0. -1.
         11    1    3    3    0    0 -0.37064272632E+01  0.33630856036E+01 -0.34121850572E+01  0.60573059160E+01  0.51100000000E-03 0. -1.
        -11    1    3    3    0    0 -0.29739735973E+01 -0.11818709433E+02  0.12991975886E+02  0.17813417676E+02  0.51100000000E-03 0.  1.
        -12    1    3    3    0    0 -0.89493949831E+01 -0.10553819160E+02  0.22785559014E+02  0.26658140765E+02  0.00000000000E+00 0.  1.
</event>
<event>
 7    1  0.1381607E-011  0.5052886E+02  0.7816164E-02  0.1300439E+00
        -11   -1    0    0    0    0  0.00000000000E+00  0.00000000000E+00  0.45593999997E+02  0.45594000000E+02  0.51100000000E-03 0.  1.
         11   -1    0    0    0    0 -0.00000000000E+00 -0.00000000000E+00 -0.45593999997E+02  0.45594000000E+02  0.51100000000E-03 0. -1.
    9900012    2    1    2    0    0 -0.33823999904E+02  0.11419193775E+02  0.19460336142E+02  0.50528860330E+02  0.30000001459E+02 0.  0.
         12    1    1    2    0    0  0.33823999904E+02 -0.11419193775E+02 -0.19460336142E+02  0.40659139670E+02  0.00000000000E+00 0. -1.
         11    1    3    3    0    0 -0.12010949051E+02  0.62468562630E+01 -0.10374039398E+01  0.13578008597E+02  0.51100000000E-03 0.  1.
        -11    1    3    3    0    0 -0.18652239636E+02  0.12079010807E+02  0.18937827064E+02  0.29196743649E+02  0.51100000000E-03 0. -1.
         12    1    3    3    0    0 -0.31608112166E+01 -0.69066732952E+01  0.15599130175E+01  0.77541080839E+01  0.00000000000E+00 0. -1.
</event>
<event>
 7    1  0.1381607E-011  0.5052878E+02  0.7816164E-02  0.1300439E+00
        -11   -1    0    0    0    0  0.00000000000E+00  0.00000000000E+00  0.45593999997E+02  0.45594000000E+02  0.51100000000E-03 0.  1.
         11   -1    0    0    0    0 -0.00000000000E+00 -0.00000000000E+00 -0.45593999997E+02  0.45594000000E+02  0.51100000000E-03 0. -1.
    9900012    2    1    2    0    0 -0.50305497991E+01  0.15715078172E+02  0.37160495983E+02  0.50528775033E+02  0.29999742188E+02 0.  0.
         12    1    1    2    0    0  0.50305497991E+01 -0.15715078172E+02 -0.37160495983E+02  0.40659224967E+02  0.00000000000E+00 0. -1.
         11    1    3    3    0    0 -0.38982331197E+01  0.90150339785E+01  0.22593726448E+02  0.24636224024E+02  0.51100000000E-03 0.  1.
        -11    1    3    3    0    0  0.39002249936E+01 -0.39019835249E+01  0.12911208907E+02  0.14040532260E+02  0.51100000000E-03 0. -1.
         12    1    3    3    0    0 -0.50325416730E+01  0.10602027718E+02  0.16555606279E+01  0.11852018749E+02  0.00000000000E+00 0. -1.
</event>
<event>
 7    1  0.1381607E-011  0.5052884E+02  0.7816164E-02  0.1300439E+00
        -11   -1    0    0    0    0  0.00000000000E+00  0.00000000000E+00  0.45593999997E+02  0.45594000000E+02  0.51100000000E-03 0.  1.
         11   -1    0    0    0    0 -0.00000000000E+00 -0.00000000000E+00 -0.45593999997E+02  0.45594000000E+02  0.51100000000E-03 0. -1.
    9900012    2    1    2    0    0  0.85407049822E+01 -0.32821638032E+02  0.22426846377E+02  0.50528843552E+02  0.29999950460E+02 0.  0.
         12    1    1    2    0    0 -0.85407049822E+01  0.32821638032E+02 -0.22426846377E+02  0.40659156448E+02  0.00000000000E+00 0. -1.
         11    1    3    3    0    0 -0.18157608632E+01 -0.33359783185E+01 -0.64280475681E+01  0.74662932338E+01  0.51100000000E-03 0. -1.
        -11    1    3    3    0    0  0.20048091485E+01 -0.12091955630E+02  0.79251233990E+01  0.14595966286E+02  0.51100000000E-03 0.  1.
        -12    1    3    3    0    0  0.83516566969E+01 -0.17393704083E+02  0.20929770546E+02  0.28466584032E+02  0.00000000000E+00 0.  1.
</event>
<event>
 7    1  0.1381607E-011  0.5052885E+02  0.7816164E-02  0.1300439E+00
        -11   -1    0    0    0    0  0.00000000000E+00  0.00000000000E+00  0.45593999997E+02  0.45594000000E+02  0.51100000000E-03 0. -1.
         11   -1    0    0    0    0 -0.00000000000E+00 -0.00000000000E+00 -0.45593999997E+02  0.45594000000E+02  0.51100000000E-03 0.  1.
    9900012    2    1    2    0    0 -0.39794027183E+02  0.83066581279E-01 -0.83423400742E+01  0.50528854197E+02  0.29999982818E+02 0.  0.
         12    1    1    2    0    0  0.39794027183E+02 -0.83066581279E-01  0.83423400742E+01  0.40659145803E+02  0.00000000000E+00 0. -1.
         11    1    3    3    0    0 -0.30238236306E+02 -0.50201562743E+01 -0.74590936772E+01  0.31546647724E+02  0.51100000000E-03 0. -1.
        -11    1    3    3    0    0 -0.13070419513E+02  0.21182983306E+01  0.22176862409E+01  0.13425393349E+02  0.51100000000E-03 0.  1.
         12    1    3    3    0    0  0.35146286354E+01  0.29849245250E+01 -0.31009326379E+01  0.55568131235E+01  0.00000000000E+00 0. -1.
</event>
<event>
 7    1  0.1381607E-011  0.5052887E+02  0.7816164E-02  0.1300439E+00
        -11   -1    0    0    0    0  0.00000000000E+00  0.00000000000E+00  0.45593999997E+02  0.45594000000E+02  0.51100000000E-03 0. -1.
         11   -1    0    0    0    0 -0.00000000000E+00 -0.00000000000E+00 -0.45593999997E+02  0.45594000000E+02  0.51100000000E-03 0.  1.
    9900012    2    1    2    0    0  0.25319874195E+02 -0.31684065009E+02 -0.28616795501E+01  0.50528865545E+02  0.30000017311E+02 0.  0.
         12    1    1    2    0    0 -0.25319874195E+02  0.31684065009E+02  0.28616795501E+01  0.40659134455E+02  0.00000000000E+00 0. -1.
         11    1    3    3    0    0  0.15423094020E+02 -0.10646930398E+02 -0.43814638942E+01  0.19246458951E+02  0.51100000000E-03 0. -1.
        -11    1    3    3    0    0  0.62535363205E+01 -0.24856368522E+02 -0.48692860656E+00  0.25635578252E+02  0.51100000000E-03 0.  1.
         12    1    3    3    0    0  0.36432438547E+01  0.38192339109E+01  0.20067129507E+01  0.56468283414E+01  0.00000000000E+00 0. -1.
</event>
<event>
 7    1  0.1381607E-011  0.5052886E+02  0.7816164E-02  0.1300439E+00
        -11   -1    0    0    0    0  0.00000000000E+00  0.00000000000E+00  0.45593999997E+02  0.45594000000E+02  0.51100000000E-03 0. -1.
         11   -1    0    0    0    0 -0.00000000000E+00 -0.00000000000E+00 -0.45593999997E+02  0.45594000000E+02  0.51100000000E-03 0.  1.
    9900012    2    1    2    0    0  0.34610698558E+02  0.19272836005E+02 -0.91554833884E+01  0.50528861563E+02  0.30000005207E+02 0.  0.
         12    1    1    2    0    0 -0.34610698558E+02 -0.19272836005E+02  0.91554833884E+01  0.40659138437E+02  0.00000000000E+00 0. -1.
         11    1    3    3    0    0  0.63604346372E+01  0.23609991853E+00 -0.58127397768E+01  0.86196760914E+01  0.51100000000E-03 0. -1.
        -11    1    3    3    0    0  0.11864028040E+02  0.17094897597E+02 -0.11202151016E+02  0.23632157600E+02  0.51100000000E-03 0.  1.
         12    1    3    3    0    0  0.16386235881E+02  0.19418384897E+01  0.78594074048E+01  0.18277027872E+02  0.00000000000E+00 0. -1.
</event>
<event>
 7    1  0.1381607E-011  0.5052884E+02  0.7816164E-02  0.1300439E+00
        -11   -1    0    0    0    0  0.00000000000E+00  0.00000000000E+00  0.45593999997E+02  0.45594000000E+02  0.51100000000E-03 0.  1.
         11   -1    0    0    0    0 -0.00000000000E+00 -0.00000000000E+00 -0.45593999997E+02  0.45594000000E+02  0.51100000000E-03 0. -1.
    9900012    2    1    2    0    0 -0.13707553363E+02 -0.88958256575E+01  0.37230824349E+02  0.50528843404E+02  0.29999950011E+02 0.  0.
         12    1    1    2    0    0  0.13707553363E+02  0.88958256575E+01 -0.37230824349E+02  0.40659156596E+02  0.00000000000E+00 0. -1.
         11    1    3    3    0    0 -0.31193157897E+01 -0.18034263992E+02  0.15302376206E+02  0.23856393829E+02  0.51100000000E-03 0. -1.
        -11    1    3    3    0    0 -0.13024220138E+01 -0.84106987232E+00  0.23868387765E+01  0.28461730865E+01  0.51100000000E-03 0.  1.
         12    1    3    3    0    0 -0.92858155599E+01  0.99795082066E+01  0.19541609367E+02  0.23826276489E+02  0.00000000000E+00 0. -1.
</event>
<event>
 7    1  0.1381607E-011  0.5052886E+02  0.7816164E-02  0.1300439E+00
        -11   -1    0    0    0    0  0.00000000000E+00  0.00000000000E+00  0.45593999997E+02  0.45594000000E+02  0.51100000000E-03 0.  1.
         11   -1    0    0    0    0 -0.00000000000E+00 -0.00000000000E+00 -0.45593999997E+02  0.45594000000E+02  0.51100000000E-03 0. -1.
    9900012    2    1    2    0    0 -0.35891497207E+02  0.16899089119E+02  0.89099489108E+01  0.50528856202E+02  0.29999988911E+02 0.  0.
         12    1    1    2    0    0  0.35891497207E+02 -0.16899089119E+02 -0.89099489108E+01  0.40659143798E+02  0.00000000000E+00 0. -1.
         11    1    3    3    0    0  0.16484893315E+01 -0.17307693332E+01  0.70655810513E+00  0.24924494334E+01  0.51100000000E-03 0.  1.
        -11    1    3    3    0    0 -0.12543645156E+00 -0.34764645742E+01  0.23230060685E+01  0.41830488515E+01  0.51100000000E-03 0. -1.
         12    1    3    3    0    0 -0.37414550087E+02  0.22106323026E+02  0.58803847371E+01  0.43853357917E+02  0.00000000000E+00 0. -1.
</event>
<event>
 7    1  0.1381607E-011  0.5052885E+02  0.7816164E-02  0.1300439E+00
        -11   -1    0    0    0    0  0.00000000000E+00  0.00000000000E+00  0.45593999997E+02  0.45594000000E+02  0.51100000000E-03 0.  1.
         11   -1    0    0    0    0 -0.00000000000E+00 -0.00000000000E+00 -0.45593999997E+02  0.45594000000E+02  0.51100000000E-03 0. -1.
    9900012    2    1    2    0    0  0.36904863766E+02  0.15147098734E+02  0.78589127359E+01  0.50528854915E+02  0.29999985001E+02 0.  0.
         12    1    1    2    0    0 -0.36904863766E+02 -0.15147098734E+02 -0.78589127359E+01  0.40659145085E+02  0.00000000000E+00 0. -1.
         11    1    3    3    0    0  0.17894982125E+02  0.18807604972E+01  0.92997423872E+01  0.20254699554E+02  0.51100000000E-03 0. -1.
        -11    1    3    3    0    0  0.18608282009E+01  0.10661684971E+02  0.48004962913E+01  0.11839720137E+02  0.51100000000E-03 0.  1.
        -12    1    3    3    0    0  0.17149053440E+02  0.26046532659E+01 -0.62413259426E+01  0.18434435224E+02  0.00000000000E+00 0.  1.
</event>
<event>
 7    1  0.1381607E-011  0.5052886E+02  0.7816164E-02  0.1300439E+00
        -11   -1    0    0    0    0  0.00000000000E+00  0.00000000000E+00  0.45593999997E+02  0.45594000000E+02  0.51100000000E-03 0.  1.
         11   -1    0    0    0    0 -0.00000000000E+00 -0.00000000000E+00 -0.45593999997E+02  0.45594000000E+02  0.51100000000E-03 0. -1.
    9900012    2    1    2    0    0 -0.10791240534E+01  0.55623360945E+01  0.40262407665E+02  0.50528861266E+02  0.30000004306E+02 0.  0.
         12    1    1    2    0    0  0.10791240534E+01 -0.55623360945E+01 -0.40262407665E+02  0.40659138734E+02  0.00000000000E+00 0. -1.
         11    1    3    3    0    0 -0.17494467886E+01 -0.18824074388E+01  0.19496054192E+02  0.19664693009E+02  0.51100000000E-03 0. -1.
        -11    1    3    3    0    0 -0.92546789578E+01  0.73446812616E+01  0.15901971553E+02  0.19810757809E+02  0.51100000000E-03 0.  1.
         12    1    3    3    0    0  0.99250016931E+01  0.10006227175E+00  0.48643819204E+01  0.11053410448E+02  0.00000000000E+00 0. -1.
</event>
<event>
 7    1  0.1381607E-011  0.5052885E+02  0.7816164E-02  0.1300439E+00
        -11   -1    0    0    0    0  0.00000000000E+00  0.00000000000E+00  0.45593999997E+02  0.45594000000E+02  0.51100000000E-03 0.  1.
         11   -1    0    0    0    0 -0.00000000000E+00 -0.00000000000E+00 -0.45593999997E+02  0.45594000000E+02  0.51100000000E-03 0. -1.
    9900012    2    1    2    0    0  0.29198915344E+02  0.27069920042E+02  0.82346530388E+01  0.50528846799E+02  0.29999960331E+02 0.  0.
         12    1    1    2    0    0 -0.29198915344E+02 -0.27069920042E+02 -0.82346530388E+01  0.40659153201E+02  0.00000000000E+00 0. -1.
         11    1    3    3    0    0  0.10699366323E+02  0.16729988340E+02 -0.51819293913E+01  0.20523677596E+02  0.51100000000E-03 0. -1.
        -11    1    3    3    0    0  0.16926661911E+01 -0.13530252272E+01 -0.30425940551E+01  0.37353948847E+01  0.51100000000E-03 0.  1.
         12    1    3    3    0    0  0.16806882830E+02  0.11692956929E+02  0.16459176485E+02  0.26269774319E+02  0.00000000000E+00 0. -1.
</event>
<event>
 7    1  0.1381607E-011  0.5052886E+02  0.7816164E-02  0.1300439E+00
        -11   -1    0    0    0    0  0.00000000000E+00  0.00000000000E+00  0.45593999997E+02  0.45594000000E+02  0.51100000000E-03 0. -1.
         11   -1    0    0    0    0 -0.00000000000E+00 -0.00000000000E+00 -0.45593999997E+02  0.45594000000E+02  0.51100000000E-03 0.  1.
    9900012    2    1    2    0    0 -0.22987346140E+02 -0.31506425403E+02 -0.11493150115E+02  0.50528862973E+02  0.30000009491E+02 0.  0.
         12    1    1    2    0    0  0.22987346140E+02  0.31506425403E+02  0.11493150115E+02  0.40659137027E+02  0.00000000000E+00 0. -1.
         11    1    3    3    0    0 -0.84438019155E+01 -0.84893902502E+01  0.53430657220E+01  0.13111669962E+02  0.51100000000E-03 0. -1.
        -11    1    3    3    0    0 -0.41243307864E+01 -0.21012815198E+02 -0.59708839311E+01  0.22230608678E+02  0.51100000000E-03 0.  1.
        -12    1    3    3    0    0 -0.10419213438E+02 -0.20042199548E+01 -0.10865331906E+02  0.15186584334E+02  0.00000000000E+00 0.  1.
</event>
<event>
 7    1  0.1381607E-011  0.5052887E+02  0.7816164E-02  0.1300439E+00
        -11   -1    0    0    0    0  0.00000000000E+00  0.00000000000E+00  0.45593999997E+02  0.45594000000E+02  0.51100000000E-03 0. -1.
         11   -1    0    0    0    0 -0.00000000000E+00 -0.00000000000E+00 -0.45593999997E+02  0.45594000000E+02  0.51100000000E-03 0.  1.
    9900012    2    1    2    0    0 -0.71984762057E+01  0.96970573527E+01 -0.38824143516E+02  0.50528866946E+02  0.30000021568E+02 0.  0.
         12    1    1    2    0    0  0.71984762057E+01 -0.96970573527E+01  0.38824143516E+02  0.40659133054E+02  0.00000000000E+00 0. -1.
         11    1    3    3    0    0 -0.70527119996E+01  0.79642982577E+01 -0.66484844723E+01  0.12544845130E+02  0.51100000000E-03 0. -1.
        -11    1    3    3    0    0  0.86152529661E+01  0.35115830835E+01 -0.82198371940E+01  0.12414488438E+02  0.51100000000E-03 0.  1.
         12    1    3    3    0    0 -0.87610171723E+01 -0.17788239884E+01 -0.23955821850E+02  0.25569533378E+02  0.00000000000E+00 0. -1.
</event>
<event>
 7    1  0.1381607E-011  0.5052886E+02  0.7816164E-02  0.1300439E+00
        -11   -1    0    0    0    0  0.00000000000E+00  0.00000000000E+00  0.45593999997E+02  0.45594000000E+02  0.51100000000E-03 0. -1.
         11   -1    0    0    0    0 -0.00000000000E+00 -0.00000000000E+00 -0.45593999997E+02  0.45594000000E+02  0.51100000000E-03 0.  1.
    9900012    2    1    2    0    0 -0.32189863358E+02 -0.18326055673E+02 -0.16767060275E+02  0.50528856750E+02  0.29999990578E+02 0.  0.
         12    1    1    2    0    0  0.32189863358E+02  0.18326055673E+02  0.16767060275E+02  0.40659143250E+02  0.00000000000E+00 0. -1.
         11    1    3    3    0    0 -0.16155378030E+02 -0.17233586039E+01  0.18344173162E+01  0.16350268845E+02  0.51100000000E-03 0. -1.
        -11    1    3    3    0    0  0.35690344873E+01 -0.32088292014E+01 -0.44125760737E+01  0.65196180780E+01  0.51100000000E-03 0.  1.
        -12    1    3    3    0    0 -0.19603519816E+02 -0.13393867867E+02 -0.14188901518E+02  0.27658969827E+02  0.00000000000E+00 0.  1.
</event>
<event>
 7    1  0.1381607E-011  0.5052886E+02  0.7816164E-02  0.1300439E+00
        -11   -1    0    0    0    0  0.00000000000E+00  0.00000000000E+00  0.45593999997E+02  0.45594000000E+02  0.51100000000E-03 0.  1.
         11   -1    0    0    0    0 -0.00000000000E+00 -0.00000000000E+00 -0.45593999997E+02  0.45594000000E+02  0.51100000000E-03 0. -1.
    9900012    2    1    2    0    0  0.27342614716E+02 -0.58971340669E+01  0.29508832686E+02  0.50528856180E+02  0.29999988844E+02 0.  0.
         12    1    1    2    0    0 -0.27342614716E+02  0.58971340669E+01 -0.29508832686E+02  0.40659143820E+02  0.00000000000E+00 0. -1.
         11    1    3    3    0    0  0.19781080830E+02  0.34779504943E-01  0.47604752668E+01  0.20345871656E+02  0.51100000000E-03 0. -1.
        -11    1    3    3    0    0  0.35448452452E+01  0.46112341870E+01  0.10557790135E+02  0.12053893203E+02  0.51100000000E-03 0.  1.
        -12    1    3    3    0    0  0.40166886406E+01 -0.10543147759E+02  0.14190567284E+02  0.18129091321E+02  0.00000000000E+00 0.  1.
</event>
<event>
 7    1  0.1381607E-011  0.5052885E+02  0.7816164E-02  0.1300439E+00
        -11   -1    0    0    0    0  0.00000000000E+00  0.00000000000E+00  0.45593999997E+02  0.45594000000E+02  0.51100000000E-03 0. -1.
         11   -1    0    0    0    0 -0.00000000000E+00 -0.00000000000E+00 -0.45593999997E+02  0.45594000000E+02  0.51100000000E-03 0.  1.
    9900012    2    1    2    0    0 -0.40089059248E+02  0.74156255281E+00  0.67441485002E+01  0.50528854345E+02  0.29999983267E+02 0.  0.
         12    1    1    2    0    0  0.40089059248E+02 -0.74156255281E+00 -0.67441485002E+01  0.40659145655E+02  0.00000000000E+00 0. -1.
         11    1    3    3    0    0 -0.79017670229E+01  0.19173946641E+01 -0.51039027977E+01  0.96002160607E+01  0.51100000000E-03 0.  1.
        -11    1    3    3    0    0 -0.35266454337E+02 -0.32879886598E+01  0.10301311379E+02  0.36886998893E+02  0.51100000000E-03 0. -1.
         12    1    3    3    0    0  0.30791621119E+01  0.21121565486E+01  0.15467399190E+01  0.40416393919E+01  0.00000000000E+00 0. -1.
</event>
<event>
 7    1  0.1381607E-011  0.5052883E+02  0.7816164E-02  0.1300439E+00
        -11   -1    0    0    0    0  0.00000000000E+00  0.00000000000E+00  0.45593999997E+02  0.45594000000E+02  0.51100000000E-03 0.  1.
         11   -1    0    0    0    0 -0.00000000000E+00 -0.00000000000E+00 -0.45593999997E+02  0.45594000000E+02  0.51100000000E-03 0. -1.
    9900012    2    1    2    0    0  0.35996771524E+02 -0.30384439684E+01  0.18659279709E+02  0.50528826113E+02  0.29999897453E+02 0.  0.
         12    1    1    2    0    0 -0.35996771524E+02  0.30384439684E+01 -0.18659279709E+02  0.40659173887E+02  0.00000000000E+00 0. -1.
         11    1    3    3    0    0  0.62071815920E+00  0.44466268843E+00  0.68148732706E+01  0.68575151400E+01  0.51100000000E-03 0. -1.
        -11    1    3    3    0    0  0.29374133919E+02  0.33709703864E+01  0.16044004610E+02  0.33639459999E+02  0.51100000000E-03 0.  1.
         12    1    3    3    0    0  0.60019194458E+01 -0.68540770432E+01 -0.41995981719E+01  0.10031850973E+02  0.00000000000E+00 0. -1.
</event>
<event>
 7    1  0.1381607E-011  0.5052886E+02  0.7816164E-02  0.1300439E+00
        -11   -1    0    0    0    0  0.00000000000E+00  0.00000000000E+00  0.45593999997E+02  0.45594000000E+02  0.51100000000E-03 0.  1.
         11   -1    0    0    0    0 -0.00000000000E+00 -0.00000000000E+00 -0.45593999997E+02  0.45594000000E+02  0.51100000000E-03 0. -1.
    9900012    2    1    2    0    0 -0.31847706637E+02 -0.18577123903E+02  0.17140006850E+02  0.50528858526E+02  0.29999995976E+02 0.  0.
         12    1    1    2    0    0  0.31847706637E+02  0.18577123903E+02 -0.17140006850E+02  0.40659141474E+02  0.00000000000E+00 0. -1.
         11    1    3    3    0    0 -0.93347266143E+01 -0.41107643349E+01 -0.68696449279E+01  0.12297460147E+02  0.51100000000E-03 0. -1.
        -11    1    3    3    0    0  0.98152789094E+00 -0.37969631927E+01  0.37299130179E+01  0.54122618072E+01  0.51100000000E-03 0.  1.
        -12    1    3    3    0    0 -0.23494507914E+02 -0.10669396376E+02  0.20279738760E+02  0.32819136572E+02  0.00000000000E+00 0.  1.
</event>
<event>
 7    1  0.1381607E-011  0.5052886E+02  0.7816164E-02  0.1300439E+00
        -11   -1    0    0    0    0  0.00000000000E+00  0.00000000000E+00  0.45593999997E+02  0.45594000000E+02  0.51100000000E-03 0.  1.
         11   -1    0    0    0    0 -0.00000000000E+00 -0.00000000000E+00 -0.45593999997E+02  0.45594000000E+02  0.51100000000E-03 0. -1.
    9900012    2    1    2    0    0  0.14746764168E+02  0.37689081627E+02  0.39028296089E+01  0.50528855810E+02  0.29999987720E+02 0.  0.
         12    1    1    2    0    0 -0.14746764168E+02 -0.37689081627E+02 -0.39028296089E+01  0.40659144190E+02  0.00000000000E+00 0. -1.
         11    1    3    3    0    0  0.23629663225E+01  0.11468184345E+02 -0.20024640840E+01  0.11879087704E+02  0.51100000000E-03 0. -1.
        -11    1    3    3    0    0  0.73882637467E-01  0.25691882942E+02  0.22128540532E+01  0.25787109785E+02  0.51100000000E-03 0.  1.
        -12    1    3    3    0    0  0.12309915208E+02  0.52901434053E+00  0.36924396398E+01  0.12862658321E+02  0.00000000000E+00 0.  1.
</event>
<event>
 7    1  0.1381607E-011  0.5052886E+02  0.7816164E-02  0.1300439E+00
        -11   -1    0    0    0    0  0.00000000000E+00  0.00000000000E+00  0.45593999997E+02  0.45594000000E+02  0.51100000000E-03 0.  1.
         11   -1    0    0    0    0 -0.00000000000E+00 -0.00000000000E+00 -0.45593999997E+02  0.45594000000E+02  0.51100000000E-03 0. -1.
    9900012    2    1    2    0    0  0.95480012027E+01 -0.12692340140E+02  0.37428671787E+02  0.50528864533E+02  0.30000014235E+02 0.  0.
         12    1    1    2    0    0 -0.95480012027E+01  0.12692340140E+02 -0.37428671787E+02  0.40659135467E+02  0.00000000000E+00 0. -1.
         11    1    3    3    0    0  0.50118760271E+01  0.66399061515E+01  0.75122319117E+01  0.11208964429E+02  0.51100000000E-03 0. -1.
        -11    1    3    3    0    0  0.74738672815E+01 -0.14487939057E+02  0.29417430308E+02  0.33632488407E+02  0.51100000000E-03 0.  1.
         12    1    3    3    0    0 -0.29377421058E+01 -0.48443072346E+01  0.49900956675E+00  0.56874116970E+01  0.00000000000E+00 0. -1.
</event>
<event>
 7    1  0.1381607E-011  0.5052889E+02  0.7816164E-02  0.1300439E+00
        -11   -1    0    0    0    0  0.00000000000E+00  0.00000000000E+00  0.45593999997E+02  0.45594000000E+02  0.51100000000E-03 0. -1.
         11   -1    0    0    0    0 -0.00000000000E+00 -0.00000000000E+00 -0.45593999997E+02  0.45594000000E+02  0.51100000000E-03 0.  1.
    9900012    2    1    2    0    0  0.32653306033E+02  0.23464630205E+02 -0.60279473266E+01  0.50528887682E+02  0.30000084597E+02 0.  0.
         12    1    1    2    0    0 -0.32653306033E+02 -0.23464630205E+02  0.60279473266E+01  0.40659112318E+02  0.00000000000E+00 0. -1.
         11    1    3    3    0    0  0.62674697560E+01  0.12406592400E+02  0.89713069243E+00  0.13928731309E+02  0.51100000000E-03 0. -1.
        -11    1    3    3    0    0  0.29186466486E+02  0.80899370619E+01 -0.95394454443E+01  0.31753707300E+02  0.51100000000E-03 0.  1.
         12    1    3    3    0    0 -0.28006302092E+01  0.29681007425E+01  0.26143674252E+01  0.48464490733E+01  0.00000000000E+00 0. -1.
</event>
<event>
 7    1  0.1381607E-011  0.5052886E+02  0.7816164E-02  0.1300439E+00
        -11   -1    0    0    0    0  0.00000000000E+00  0.00000000000E+00  0.45593999997E+02  0.45594000000E+02  0.51100000000E-03 0. -1.
         11   -1    0    0    0    0 -0.00000000000E+00 -0.00000000000E+00 -0.45593999997E+02  0.45594000000E+02  0.51100000000E-03 0.  1.
    9900012    2    1    2    0    0 -0.52811555273E+00  0.39360832037E+02  0.10178988839E+02  0.50528858120E+02  0.29999994741E+02 0.  0.
         12    1    1    2    0    0  0.52811555273E+00 -0.39360832037E+02 -0.10178988839E+02  0.40659141880E+02  0.00000000000E+00 0. -1.
         11    1    3    3    0    0  0.10844353045E+02  0.11915715909E+02  0.51525332132E+01  0.16915462671E+02  0.51100000000E-03 0. -1.
        -11    1    3    3    0    0 -0.18817993686E+01  0.15932708849E+01 -0.39431318951E+01  0.46505881757E+01  0.51100000000E-03 0.  1.
         12    1    3    3    0    0 -0.94906692294E+01  0.25851845243E+02  0.89695875204E+01  0.28962807274E+02  0.00000000000E+00 0. -1.
</event>
<event>
 7    1  0.1381607E-011  0.5052883E+02  0.7816164E-02  0.1300439E+00
        -11   -1    0    0    0    0  0.00000000000E+00  0.00000000000E+00  0.45593999997E+02  0.45594000000E+02  0.51100000000E-03 0. -1.
         11   -1    0    0    0    0 -0.00000000000E+00 -0.00000000000E+00 -0.45593999997E+02  0.45594000000E+02  0.51100000000E-03 0.  1.
    9900012    2    1    2    0    0 -0.64258311110E+01 -0.38346825634E+02 -0.11891064351E+02  0.50528834329E+02  0.29999922425E+02 0.  0.
         12    1    1    2    0    0  0.64258311110E+01  0.38346825634E+02  0.11891064351E+02  0.40659165671E+02  0.00000000000E+00 0. -1.
         11    1    3    3    0    0  0.26097623965E+01 -0.16590428804E+02 -0.37775920128E+01  0.17214046280E+02  0.51100000000E-03 0. -1.
        -11    1    3    3    0    0 -0.32538424939E+01 -0.13251434344E+02  0.67634111396E+01  0.15229305094E+02  0.51100000000E-03 0.  1.
         12    1    3    3    0    0 -0.57817510136E+01 -0.85049624866E+01 -0.14876883478E+02  0.18085482954E+02  0.00000000000E+00 0. -1.
</event>
<event>
 7    1  0.1381607E-011  0.5052888E+02  0.7816164E-02  0.1300439E+00
        -11   -1    0    0    0    0  0.00000000000E+00  0.00000000000E+00  0.45593999997E+02  0.45594000000E+02  0.51100000000E-03 0.  1.
         11   -1    0    0    0    0 -0.00000000000E+00 -0.00000000000E+00 -0.45593999997E+02  0.45594000000E+02  0.51100000000E-03 0. -1.
    9900012    2    1    2    0    0  0.35491170356E+02  0.19651050921E+02  0.27160897025E+01  0.50528879021E+02  0.30000058272E+02 0.  0.
         12    1    1    2    0    0 -0.35491170356E+02 -0.19651050921E+02 -0.27160897025E+01  0.40659120979E+02  0.00000000000E+00 0. -1.
         11    1    3    3    0    0  0.26338127661E+01  0.83605854595E+01  0.36737035891E+01  0.95043388636E+01  0.51100000000E-03 0.  1.
        -11    1    3    3    0    0  0.30215539125E+02  0.13734455714E+02  0.54889846599E+01  0.33641388664E+02  0.51100000000E-03 0. -1.
         12    1    3    3    0    0  0.26418184646E+01 -0.24439902524E+01 -0.64465985464E+01  0.73831514933E+01  0.00000000000E+00 0. -1.
</event>
<event>
 7    1  0.1381607E-011  0.5052884E+02  0.7816164E-02  0.1300439E+00
        -11   -1    0    0    0    0  0.00000000000E+00  0.00000000000E+00  0.45593999997E+02  0.45594000000E+02  0.51100000000E-03 0.  1.
         11   -1    0    0    0    0 -0.00000000000E+00 -0.00000000000E+00 -0.45593999997E+02  0.45594000000E+02  0.51100000000E-03 0. -1.
    9900012    2    1    2    0    0  0.34491239881E+02  0.44096054128E+01  0.21073136127E+02  0.50528839721E+02  0.29999938815E+02 0.  0.
         12    1    1    2    0    0 -0.34491239881E+02 -0.44096054128E+01 -0.21073136127E+02  0.40659160279E+02  0.00000000000E+00 0. -1.
         11    1    3    3    0    0 -0.16694701537E+01  0.17976441260E+00  0.12432407485E+00  0.16837168927E+01  0.51100000000E-03 0. -1.
        -11    1    3    3    0    0  0.17586643154E+02  0.14595262477E+02  0.10827650227E+02  0.25289320155E+02  0.51100000000E-03 0.  1.
        -12    1    3    3    0    0  0.18574066880E+02 -0.10365421477E+02  0.10121161825E+02  0.23555802673E+02  0.00000000000E+00 0.  1.
</event>
<event>
 7    1  0.1381607E-011  0.5052886E+02  0.7816164E-02  0.1300439E+00
        -11   -1    0    0    0    0  0.00000000000E+00  0.00000000000E+00  0.45593999997E+02  0.45594000000E+02  0.51100000000E-03 0. -1.
         11   -1    0    0    0    0 -0.00000000000E+00 -0.00000000000E+00 -0.45593999997E+02  0.45594000000E+02  0.51100000000E-03 0.  1.
    9900012    2    1    2    0    0  0.32307820433E+02  0.52607604052E+01 -0.24118354495E+02  0.50528857305E+02  0.29999992265E+02 0.  0.
         12    1    1    2    0    0 -0.32307820433E+02 -0.52607604052E+01  0.24118354495E+02  0.40659142695E+02  0.00000000000E+00 0. -1.
         11    1    3    3    0    0  0.13711296549E+02  0.10615046306E+02 -0.62321434883E+01  0.18426027077E+02  0.51100000000E-03 0. -1.
        -11    1    3    3    0    0  0.14646093152E+02  0.37778304516E+01 -0.15921537361E+02  0.21960769562E+02  0.51100000000E-03 0.  1.
         12    1    3    3    0    0  0.39504307317E+01 -0.91321163520E+01 -0.19646736455E+01  0.10142060667E+02  0.00000000000E+00 0. -1.
</event>
<event>
 7    1  0.1381607E-011  0.5052886E+02  0.7816164E-02  0.1300439E+00
        -11   -1    0    0    0    0  0.00000000000E+00  0.00000000000E+00  0.45593999997E+02  0.45594000000E+02  0.51100000000E-03 0.  1.
         11   -1    0    0    0    0 -0.00000000000E+00 -0.00000000000E+00 -0.45593999997E+02  0.45594000000E+02  0.51100000000E-03 0. -1.
    9900012    2    1    2    0    0 -0.81652776986E+01 -0.32633964903E+02  0.22836765595E+02  0.50528864643E+02  0.30000014568E+02 0.  0.
         12    1    1    2    0    0  0.81652776986E+01  0.32633964903E+02 -0.22836765595E+02  0.40659135357E+02  0.00000000000E+00 0. -1.
         11    1    3    3    0    0 -0.28724882616E+00 -0.46999917648E+01  0.62959888317E+01  0.78620550817E+01  0.51100000000E-03 0.  1.
        -11    1    3    3    0    0 -0.92220235494E+01 -0.15448995970E+02  0.22465459770E+02  0.28782183339E+02  0.51100000000E-03 0. -1.
         12    1    3    3    0    0  0.13439946769E+01 -0.12484977168E+02 -0.59246830070E+01  0.13884626222E+02  0.00000000000E+00 0. -1.
</event>
<event>
 7    1  0.1381607E-011  0.5052886E+02  0.7816164E-02  0.1300439E+00
        -11   -1    0    0    0    0  0.00000000000E+00  0.00000000000E+00  0.45593999997E+02  0.45594000000E+02  0.51100000000E-03 0.  1.
         11   -1    0    0    0    0 -0.00000000000E+00 -0.00000000000E+00 -0.45593999997E+02  0.45594000000E+02  0.51100000000E-03 0. -1.
    9900012    2    1    2    0    0  0.24431389874E+02  0.16806351276E+01  0.32456866992E+02  0.50528861291E+02  0.30000004381E+02 0.  0.
         12    1    1    2    0    0 -0.24431389874E+02 -0.16806351276E+01 -0.32456866992E+02  0.40659138709E+02  0.00000000000E+00 0. -1.
         11    1    3    3    0    0  0.91529123682E+01  0.19428801273E+01  0.37482246270E+01  0.10079671429E+02  0.51100000000E-03 0. -1.
        -11    1    3    3    0    0  0.57111787131E+01  0.97446987647E+01  0.22704276375E+02  0.25358645119E+02  0.51100000000E-03 0.  1.
         12    1    3    3    0    0  0.95672987926E+01 -0.10006943764E+02  0.60043659899E+01  0.15090544743E+02  0.00000000000E+00 0. -1.
</event>
<event>
 7    1  0.1381607E-011  0.5052886E+02  0.7816164E-02  0.1300439E+00
        -11   -1    0    0    0    0  0.00000000000E+00  0.00000000000E+00  0.45593999997E+02  0.45594000000E+02  0.51100000000E-03 0.  1.
         11   -1    0    0    0    0 -0.00000000000E+00 -0.00000000000E+00 -0.45593999997E+02  0.45594000000E+02  0.51100000000E-03 0. -1.
    9900012    2    1    2    0    0  0.10125350753E+02 -0.13629684586E+02  0.36944205287E+02  0.50528864077E+02  0.30000012847E+02 0.  0.
         12    1    1    2    0    0 -0.10125350753E+02  0.13629684586E+02 -0.36944205287E+02  0.40659135923E+02  0.00000000000E+00 0. -1.
         11    1    3    3    0    0 -0.40319443144E+01  0.30588600522E+01  0.40032683647E+00  0.50767569974E+01  0.51100000000E-03 0. -1.
        -11    1    3    3    0    0  0.86026969558E+01 -0.95487615823E+01  0.71705714251E+01  0.14717416128E+02  0.51100000000E-03 0.  1.
        -12    1    3    3    0    0  0.55545981116E+01 -0.71397830558E+01  0.29373307025E+02  0.30734690951E+02  0.00000000000E+00 0.  1.
</event>
<event>
 7    1  0.1381607E-011  0.5052888E+02  0.7816164E-02  0.1300439E+00
        -11   -1    0    0    0    0  0.00000000000E+00  0.00000000000E+00  0.45593999997E+02  0.45594000000E+02  0.51100000000E-03 0.  1.
         11   -1    0    0    0    0 -0.00000000000E+00 -0.00000000000E+00 -0.45593999997E+02  0.45594000000E+02  0.51100000000E-03 0. -1.
    9900012    2    1    2    0    0  0.16817159339E+02 -0.32756949562E+01  0.36872981901E+02  0.50528882696E+02  0.30000069444E+02 0.  0.
         12    1    1    2    0    0 -0.16817159339E+02  0.32756949562E+01 -0.36872981901E+02  0.40659117304E+02  0.00000000000E+00 0. -1.
         11    1    3    3    0    0 -0.54658031736E+00  0.14543056106E+01 -0.21232263450E+01  0.26309399890E+01  0.51100000000E-03 0. -1.
        -11    1    3    3    0    0  0.11245755846E+02  0.75751175963E+01  0.14803392925E+02  0.20074607680E+02  0.51100000000E-03 0.  1.
        -12    1    3    3    0    0  0.61179838098E+01 -0.12305118163E+02  0.24192815321E+02  0.27823335027E+02  0.00000000000E+00 0.  1.
</event>
<event>
 7    1  0.1381607E-011  0.5052886E+02  0.7816164E-02  0.1300439E+00
        -11   -1    0    0    0    0  0.00000000000E+00  0.00000000000E+00  0.45593999997E+02  0.45594000000E+02  0.51100000000E-03 0. -1.
         11   -1    0    0    0    0 -0.00000000000E+00 -0.00000000000E+00 -0.45593999997E+02  0.45594000000E+02  0.51100000000E-03 0.  1.
    9900012    2    1    2    0    0 -0.10878109413E+01 -0.32429866512E+02 -0.24500733932E+02  0.50528861571E+02  0.30000005231E+02 0.  0.
         12    1    1    2    0    0  0.10878109413E+01  0.32429866512E+02  0.24500733932E+02  0.40659138429E+02  0.00000000000E+00 0. -1.
         11    1    3    3    0    0 -0.95728119151E+01 -0.11705230436E+02 -0.21052342702E+02  0.25920113445E+02  0.51100000000E-03 0. -1.
        -11    1    3    3    0    0 -0.19462857282E+01 -0.51552763310E+01  0.20911382456E+00  0.55144021469E+01  0.51100000000E-03 0.  1.
        -12    1    3    3    0    0  0.10431286702E+02 -0.15569359745E+02 -0.36575050544E+01  0.19094345979E+02  0.00000000000E+00 0.  1.
</event>
<event>
 7    1  0.1381607E-011  0.5052886E+02  0.7816164E-02  0.1300439E+00
        -11   -1    0    0    0    0  0.00000000000E+00  0.00000000000E+00  0.45593999997E+02  0.45594000000E+02  0.51100000000E-03 0.  1.
         11   -1    0    0    0    0 -0.00000000000E+00 -0.00000000000E+00 -0.45593999997E+02  0.45594000000E+02  0.51100000000E-03 0. -1.
    9900012    2    1    2    0    0 -0.11846810576E+02  0.29939856884E+02 -0.24827885034E+02  0.50528858023E+02  0.29999994446E+02 0.  0.
         12    1    1    2    0    0  0.11846810576E+02 -0.29939856884E+02  0.24827885034E+02  0.40659141977E+02  0.00000000000E+00 0. -1.
         11    1    3    3    0    0  0.27335665743E+00  0.15296123047E+02 -0.13207033524E+02  0.20210686255E+02  0.51100000000E-03 0. -1.
        -11    1    3    3    0    0 -0.13220629903E+02  0.13058999086E+02 -0.16637996978E+02  0.24942843781E+02  0.51100000000E-03 0.  1.
         12    1    3    3    0    0  0.11004626699E+01  0.15847347505E+01  0.50171454681E+01  0.53753279867E+01  0.00000000000E+00 0. -1.
</event>
<event>
 7    1  0.1381607E-011  0.5052886E+02  0.7816164E-02  0.1300439E+00
        -11   -1    0    0    0    0  0.00000000000E+00  0.00000000000E+00  0.45593999997E+02  0.45594000000E+02  0.51100000000E-03 0. -1.
         11   -1    0    0    0    0 -0.00000000000E+00 -0.00000000000E+00 -0.45593999997E+02  0.45594000000E+02  0.51100000000E-03 0.  1.
    9900012    2    1    2    0    0  0.24387713471E+02  0.32228252632E+01 -0.32373113701E+02  0.50528860047E+02  0.30000000599E+02 0.  0.
         12    1    1    2    0    0 -0.24387713471E+02 -0.32228252632E+01  0.32373113701E+02  0.40659139953E+02  0.00000000000E+00 0. -1.
         11    1    3    3    0    0 -0.23978683651E+01  0.48360187027E+01 -0.18693634542E+01  0.57123873796E+01  0.51100000000E-03 0. -1.
        -11    1    3    3    0    0  0.11508331749E+02 -0.98896529988E+01 -0.11301412448E+02  0.18920065002E+02  0.51100000000E-03 0.  1.
         12    1    3    3    0    0  0.15277250086E+02  0.82764595593E+01 -0.19202337799E+02  0.25896407665E+02  0.00000000000E+00 0. -1.
</event>
<event>
 7    1  0.1381607E-011  0.5052886E+02  0.7816164E-02  0.1300439E+00
        -11   -1    0    0    0    0  0.00000000000E+00  0.00000000000E+00  0.45593999997E+02  0.45594000000E+02  0.51100000000E-03 0.  1.
         11   -1    0    0    0    0 -0.00000000000E+00 -0.00000000000E+00 -0.45593999997E+02  0.45594000000E+02  0.51100000000E-03 0. -1.
    9900012    2    1    2    0    0  0.34575971646E+02 -0.19551387977E+02  0.86839412779E+01  0.50528862980E+02  0.30000009514E+02 0.  0.
         12    1    1    2    0    0 -0.34575971646E+02  0.19551387977E+02 -0.86839412779E+01  0.40659137020E+02  0.00000000000E+00 0. -1.
         11    1    3    3    0    0  0.87246819404E+01  0.41792024068E+01  0.50872064283E+01  0.10930026405E+02  0.51100000000E-03 0. -1.
        -11    1    3    3    0    0  0.16612661632E+02 -0.13512946458E+02  0.10876702120E+02  0.24018386660E+02  0.51100000000E-03 0.  1.
        -12    1    3    3    0    0  0.92386280740E+01 -0.10217643925E+02 -0.72799672707E+01  0.15580449915E+02  0.00000000000E+00 0.  1.
</event>
<event>
 7    1  0.1381607E-011  0.5052885E+02  0.7816164E-02  0.1300439E+00
        -11   -1    0    0    0    0  0.00000000000E+00  0.00000000000E+00  0.45593999997E+02  0.45594000000E+02  0.51100000000E-03 0.  1.
         11   -1    0    0    0    0 -0.00000000000E+00 -0.00000000000E+00 -0.45593999997E+02  0.45594000000E+02  0.51100000000E-03 0. -1.
    9900012    2    1    2    0    0 -0.22989943255E+02  0.14138061609E+02  0.30409606578E+02  0.50528850363E+02  0.29999971163E+02 0.  0.
         12    1    1    2    0    0  0.22989943255E+02 -0.14138061609E+02 -0.30409606578E+02  0.40659149637E+02  0.00000000000E+00 0. -1.
         11    1    3    3    0    0  0.21975689128E+01  0.16329070385E+01 -0.87917451621E+00  0.28755247546E+01  0.51100000000E-03 0. -1.
        -11    1    3    3    0    0 -0.43490400230E+01  0.11141402286E+02  0.21471364830E+02  0.24577723693E+02  0.51100000000E-03 0.  1.
        -12    1    3    3    0    0 -0.20838472145E+02  0.13637522849E+01  0.98174162650E+01  0.23075601915E+02  0.00000000000E+00 0.  1.
</event>
<event>
 7    1  0.1381607E-011  0.5052886E+02  0.7816164E-02  0.1300439E+00
        -11   -1    0    0    0    0  0.00000000000E+00  0.00000000000E+00  0.45593999997E+02  0.45594000000E+02  0.51100000000E-03 0.  1.
         11   -1    0    0    0    0 -0.00000000000E+00 -0.00000000000E+00 -0.45593999997E+02  0.45594000000E+02  0.51100000000E-03 0. -1.
    9900012    2    1    2    0    0 -0.28507274677E+02  0.28216266110E+02  0.66590620636E+01  0.50528862155E+02  0.30000007007E+02 0.  0.
         12    1    1    2    0    0  0.28507274677E+02 -0.28216266110E+02 -0.66590620636E+01  0.40659137845E+02  0.00000000000E+00 0. -1.
         11    1    3    3    0    0  0.13259911013E+01  0.11796728756E+02 -0.41021467207E+01  0.12559803729E+02  0.51100000000E-03 0. -1.
        -11    1    3    3    0    0 -0.82258979986E+01 -0.13654164902E+01  0.13718963161E+01  0.84505538184E+01  0.51100000000E-03 0.  1.
        -12    1    3    3    0    0 -0.21607367780E+02  0.17784953845E+02  0.93893124682E+01  0.29518504607E+02  0.00000000000E+00 0.  1.
</event>
<event>
 7    1  0.1381607E-011  0.5052883E+02  0.7816164E-02  0.1300439E+00
        -11   -1    0    0    0    0  0.00000000000E+00  0.00000000000E+00  0.45593999997E+02  0.45594000000E+02  0.51100000000E-03 0. -1.
         11   -1    0    0    0    0 -0.00000000000E+00 -0.00000000000E+00 -0.45593999997E+02  0.45594000000E+02  0.51100000000E-03 0.  1.
    9900012    2    1    2    0    0 -0.38228455808E+02 -0.10782943968E+02 -0.86880175581E+01  0.50528826826E+02  0.29999899620E+02 0.  0.
         12    1    1    2    0    0  0.38228455808E+02  0.10782943968E+02  0.86880175581E+01  0.40659173174E+02  0.00000000000E+00 0. -1.
         11    1    3    3    0    0 -0.11756221805E+02 -0.58225919463E+00 -0.13793271992E+02  0.18132901847E+02  0.51100000000E-03 0. -1.
        -11    1    3    3    0    0 -0.82360717745E+01  0.37223904823E+01  0.10915074850E+01  0.91038704971E+01  0.51100000000E-03 0.  1.
         12    1    3    3    0    0 -0.18236162229E+02 -0.13923075256E+02  0.40137469486E+01  0.23292054482E+02  0.00000000000E+00 0. -1.
</event>
<event>
 7    1  0.1381607E-011  0.5052887E+02  0.7816164E-02  0.1300439E+00
        -11   -1    0    0    0    0  0.00000000000E+00  0.00000000000E+00  0.45593999997E+02  0.45594000000E+02  0.51100000000E-03 0.  1.
         11   -1    0    0    0    0 -0.00000000000E+00 -0.00000000000E+00 -0.45593999997E+02  0.45594000000E+02  0.51100000000E-03 0. -1.
    9900012    2    1    2    0    0  0.91446613159E+01  0.33812566033E+02  0.20645841513E+02  0.50528865429E+02  0.30000016957E+02 0.  0.
         12    1    1    2    0    0 -0.91446613159E+01 -0.33812566033E+02 -0.20645841513E+02  0.40659134571E+02  0.00000000000E+00 0. -1.
         11    1    3    3    0    0  0.17524641693E+01  0.15052787627E+01 -0.18544086913E+01  0.29624021796E+01  0.51100000000E-03 0. -1.
        -11    1    3    3    0    0  0.14747563727E+02  0.17610503317E+02  0.49014396440E+01  0.23487115059E+02  0.51100000000E-03 0.  1.
        -12    1    3    3    0    0 -0.73553665805E+01  0.14696783953E+02  0.17598810561E+02  0.24079348190E+02  0.00000000000E+00 0.  1.
</event>
<event>
 7    1  0.1381607E-011  0.5052886E+02  0.7816164E-02  0.1300439E+00
        -11   -1    0    0    0    0  0.00000000000E+00  0.00000000000E+00  0.45593999997E+02  0.45594000000E+02  0.51100000000E-03 0. -1.
         11   -1    0    0    0    0 -0.00000000000E+00 -0.00000000000E+00 -0.45593999997E+02  0.45594000000E+02  0.51100000000E-03 0.  1.
    9900012    2    1    2    0    0 -0.29905560730E+02  0.27555838180E+01 -0.27408567847E+02  0.50528863312E+02  0.30000010523E+02 0.  0.
         12    1    1    2    0    0  0.29905560730E+02 -0.27555838180E+01  0.27408567847E+02  0.40659136688E+02  0.00000000000E+00 0. -1.
         11    1    3    3    0    0  0.11157492950E+01 -0.22940483059E+01 -0.41362925928E+00  0.25843071691E+01  0.51100000000E-03 0. -1.
        -11    1    3    3    0    0 -0.15009036580E+02  0.28258223483E+00 -0.27388961594E+02  0.31233095416E+02  0.51100000000E-03 0.  1.
        -12    1    3    3    0    0 -0.16012273445E+02  0.47670498890E+01  0.39402300569E+00  0.16711460727E+02  0.00000000000E+00 0.  1.
</event>
<event>
 7    1  0.1381607E-011  0.5052887E+02  0.7816164E-02  0.1300439E+00
        -11   -1    0    0    0    0  0.00000000000E+00  0.00000000000E+00  0.45593999997E+02  0.45594000000E+02  0.51100000000E-03 0.  1.
         11   -1    0    0    0    0 -0.00000000000E+00 -0.00000000000E+00 -0.45593999997E+02  0.45594000000E+02  0.51100000000E-03 0. -1.
    9900012    2    1    2    0    0  0.33475853368E+02 -0.14376395446E+02  0.18051352053E+02  0.50528870452E+02  0.30000032224E+02 0.  0.
         12    1    1    2    0    0 -0.33475853368E+02  0.14376395446E+02 -0.18051352053E+02  0.40659129548E+02  0.00000000000E+00 0. -1.
         11    1    3    3    0    0  0.23335432438E+02 -0.49095612419E+01  0.95551667383E+01  0.25689441611E+02  0.51100000000E-03 0. -1.
        -11    1    3    3    0    0  0.10672791774E+02 -0.10547275365E+02 -0.12146332725E+01  0.15054196628E+02  0.51100000000E-03 0.  1.
         12    1    3    3    0    0 -0.53237084397E+00  0.10804411606E+01  0.97108185869E+01  0.97852322121E+01  0.00000000000E+00 0. -1.
</event>
<event>
 7    1  0.1381607E-011  0.5052886E+02  0.7816164E-02  0.1300439E+00
        -11   -1    0    0    0    0  0.00000000000E+00  0.00000000000E+00  0.45593999997E+02  0.45594000000E+02  0.51100000000E-03 0.  1.
         11   -1    0    0    0    0 -0.00000000000E+00 -0.00000000000E+00 -0.45593999997E+02  0.45594000000E+02  0.51100000000E-03 0. -1.
    9900012    2    1    2    0    0  0.16376822428E+02  0.32608728147E+02  0.17934216243E+02  0.50528861095E+02  0.30000003786E+02 0.  0.
         12    1    1    2    0    0 -0.16376822428E+02 -0.32608728147E+02 -0.17934216243E+02  0.40659138905E+02  0.00000000000E+00 0. -1.
         11    1    3    3    0    0 -0.22436632841E+01  0.12461976660E+02 -0.16844719658E+00  0.12663461688E+02  0.51100000000E-03 0. -1.
        -11    1    3    3    0    0  0.19169942934E+02  0.22008840796E+02  0.19814251299E+02  0.35277192917E+02  0.51100000000E-03 0.  1.
         12    1    3    3    0    0 -0.54945722229E+00 -0.18620893091E+01 -0.17115878596E+01  0.25882064901E+01  0.00000000000E+00 0. -1.
</event>
<event>
 7    1  0.1381607E-011  0.5052888E+02  0.7816164E-02  0.1300439E+00
        -11   -1    0    0    0    0  0.00000000000E+00  0.00000000000E+00  0.45593999997E+02  0.45594000000E+02  0.51100000000E-03 0. -1.
         11   -1    0    0    0    0 -0.00000000000E+00 -0.00000000000E+00 -0.45593999997E+02  0.45594000000E+02  0.51100000000E-03 0.  1.
    9900012    2    1    2    0    0 -0.37937338387E+02 -0.13878922470E+02 -0.46150022064E+01  0.50528875831E+02  0.30000048577E+02 0.  0.
         12    1    1    2    0    0  0.37937338387E+02  0.13878922470E+02  0.46150022064E+01  0.40659124169E+02  0.00000000000E+00 0. -1.
         11    1    3    3    0    0 -0.40061788797E+00  0.36944620174E+01 -0.23793816223E+01  0.44125957730E+01  0.51100000000E-03 0. -1.
        -11    1    3    3    0    0 -0.26291945723E+02 -0.30262757851E+01 -0.64777354213E+01  0.27246757816E+02  0.51100000000E-03 0.  1.
        -12    1    3    3    0    0 -0.11244774776E+02 -0.14547108703E+02  0.42421148373E+01  0.18869522242E+02  0.00000000000E+00 0.  1.
</event>
<event>
 7    1  0.1381607E-011  0.5052886E+02  0.7816164E-02  0.1300439E+00
        -11   -1    0    0    0    0  0.00000000000E+00  0.00000000000E+00  0.45593999997E+02  0.45594000000E+02  0.51100000000E-03 0.  1.
         11   -1    0    0    0    0 -0.00000000000E+00 -0.00000000000E+00 -0.45593999997E+02  0.45594000000E+02  0.51100000000E-03 0. -1.
    9900012    2    1    2    0    0 -0.23414601062E+02  0.52755739941E+01  0.32819062025E+02  0.50528855198E+02  0.29999985860E+02 0.  0.
         12    1    1    2    0    0  0.23414601062E+02 -0.52755739941E+01 -0.32819062025E+02  0.40659144802E+02  0.00000000000E+00 0. -1.
         11    1    3    3    0    0  0.34062795948E+01  0.49164285369E+00  0.13252705935E+02  0.13692284990E+02  0.51100000000E-03 0. -1.
        -11    1    3    3    0    0 -0.70896033847E+01 -0.12907551710E+01  0.13526028391E+02  0.15325859498E+02  0.51100000000E-03 0.  1.
         12    1    3    3    0    0 -0.19731277272E+02  0.60746863113E+01  0.60403276988E+01  0.21510710710E+02  0.00000000000E+00 0. -1.
</event>
<event>
 7    1  0.1381607E-011  0.5052887E+02  0.7816164E-02  0.1300439E+00
        -11   -1    0    0    0    0  0.00000000000E+00  0.00000000000E+00  0.45593999997E+02  0.45594000000E+02  0.51100000000E-03 0.  1.
         11   -1    0    0    0    0 -0.00000000000E+00 -0.00000000000E+00 -0.45593999997E+02  0.45594000000E+02  0.51100000000E-03 0. -1.
    9900012    2    1    2    0    0 -0.31641171554E+01  0.37627702478E+02 -0.15076787180E+02  0.50528866428E+02  0.30000019994E+02 0.  0.
         12    1    1    2    0    0  0.31641171554E+01 -0.37627702478E+02  0.15076787180E+02  0.40659133572E+02  0.00000000000E+00 0. -1.
         11    1    3    3    0    0 -0.27981672396E+00  0.72927214753E+00  0.38315861269E+01  0.39103948360E+01  0.51100000000E-03 0. -1.
        -11    1    3    3    0    0 -0.35710617281E+01  0.24669540676E+02 -0.10312246963E+01  0.24947988770E+02  0.51100000000E-03 0.  1.
        -12    1    3    3    0    0  0.68676129670E+00  0.12228889654E+02 -0.17877148611E+02  0.21670482821E+02  0.00000000000E+00 0.  1.
</event>
<event>
 7    1  0.1381607E-011  0.5052886E+02  0.7816164E-02  0.1300439E+00
        -11   -1    0    0    0    0  0.00000000000E+00  0.00000000000E+00  0.45593999997E+02  0.45594000000E+02  0.51100000000E-03 0.  1.
         11   -1    0    0    0    0 -0.00000000000E+00 -0.00000000000E+00 -0.45593999997E+02  0.45594000000E+02  0.51100000000E-03 0. -1.
    9900012    2    1    2    0    0 -0.28912652116E+02  0.27605834082E+02 -0.74257517789E+01  0.50528864284E+02  0.30000013478E+02 0.  0.
         12    1    1    2    0    0  0.28912652116E+02 -0.27605834082E+02  0.74257517789E+01  0.40659135716E+02  0.00000000000E+00 0. -1.
         11    1    3    3    0    0 -0.37503425482E+01  0.11724473838E+02  0.34909283294E+00  0.12314634467E+02  0.51100000000E-03 0. -1.
        -11    1    3    3    0    0 -0.20861347345E+02  0.13278426095E+02  0.43317731657E+01  0.25105311622E+02  0.51100000000E-03 0.  1.
         12    1    3    3    0    0 -0.43009622219E+01  0.26029341493E+01 -0.12106617778E+02  0.13108918195E+02  0.00000000000E+00 0. -1.
</event>
<event>
 7    1  0.1381607E-011  0.5052885E+02  0.7816164E-02  0.1300439E+00
        -11   -1    0    0    0    0  0.00000000000E+00  0.00000000000E+00  0.45593999997E+02  0.45594000000E+02  0.51100000000E-03 0.  1.
         11   -1    0    0    0    0 -0.00000000000E+00 -0.00000000000E+00 -0.45593999997E+02  0.45594000000E+02  0.51100000000E-03 0. -1.
    9900012    2    1    2    0    0  0.75304724992E+01 -0.22289350844E+02  0.33160874749E+02  0.50528846157E+02  0.29999958380E+02 0.  0.
         12    1    1    2    0    0 -0.75304724992E+01  0.22289350844E+02 -0.33160874749E+02  0.40659153843E+02  0.00000000000E+00 0. -1.
         11    1    3    3    0    0 -0.45608792669E+01  0.39895028244E+01  0.22059365865E+01  0.64485586729E+01  0.51100000000E-03 0. -1.
        -11    1    3    3    0    0  0.54721323819E+01 -0.17644324740E+01  0.37396420922E+01  0.68587446373E+01  0.51100000000E-03 0.  1.
        -12    1    3    3    0    0  0.66192193842E+01 -0.24514421194E+02  0.27215296070E+02  0.37221542847E+02  0.00000000000E+00 0.  1.
</event>
<event>
 7    1  0.1381607E-011  0.5052887E+02  0.7816164E-02  0.1300439E+00
        -11   -1    0    0    0    0  0.00000000000E+00  0.00000000000E+00  0.45593999997E+02  0.45594000000E+02  0.51100000000E-03 0. -1.
         11   -1    0    0    0    0 -0.00000000000E+00 -0.00000000000E+00 -0.45593999997E+02  0.45594000000E+02  0.51100000000E-03 0.  1.
    9900012    2    1    2    0    0 -0.31026543400E+02  0.23723927260E+02 -0.11300161489E+02  0.50528871017E+02  0.30000033943E+02 0.  0.
         12    1    1    2    0    0  0.31026543400E+02 -0.23723927260E+02  0.11300161489E+02  0.40659128983E+02  0.00000000000E+00 0. -1.
         11    1    3    3    0    0 -0.16702373979E+02  0.19162967735E+02 -0.33100705559E+01  0.25634843403E+02  0.51100000000E-03 0. -1.
        -11    1    3    3    0    0 -0.15000324704E+02  0.88257384910E+01 -0.10063302849E+02  0.20104065898E+02  0.51100000000E-03 0.  1.
         12    1    3    3    0    0  0.67615528279E+00 -0.42647789659E+01  0.20732119160E+01  0.47899617162E+01  0.00000000000E+00 0. -1.
</event>
<event>
 7    1  0.1381607E-011  0.5052888E+02  0.7816164E-02  0.1300439E+00
        -11   -1    0    0    0    0  0.00000000000E+00  0.00000000000E+00  0.45593999997E+02  0.45594000000E+02  0.51100000000E-03 0.  1.
         11   -1    0    0    0    0 -0.00000000000E+00 -0.00000000000E+00 -0.45593999997E+02  0.45594000000E+02  0.51100000000E-03 0. -1.
    9900012    2    1    2    0    0  0.19641275480E+02  0.89139904767E+01  0.34466289827E+02  0.50528879705E+02  0.30000060351E+02 0.  0.
         12    1    1    2    0    0 -0.19641275480E+02 -0.89139904767E+01 -0.34466289827E+02  0.40659120295E+02  0.00000000000E+00 0. -1.
         11    1    3    3    0    0 -0.17775294462E+01 -0.35790463464E+01  0.24320197246E+01  0.46780235018E+01  0.51100000000E-03 0. -1.
        -11    1    3    3    0    0  0.18903630637E+02  0.11114255440E+00  0.25149710082E+02  0.31462160152E+02  0.51100000000E-03 0.  1.
         12    1    3    3    0    0  0.25151742894E+01  0.12381894269E+02  0.68845600206E+01  0.14388696052E+02  0.00000000000E+00 0. -1.
</event>
<event>
 7    1  0.1381607E-011  0.5052886E+02  0.7816164E-02  0.1300439E+00
        -11   -1    0    0    0    0  0.00000000000E+00  0.00000000000E+00  0.45593999997E+02  0.45594000000E+02  0.51100000000E-03 0.  1.
         11   -1    0    0    0    0 -0.00000000000E+00 -0.00000000000E+00 -0.45593999997E+02  0.45594000000E+02  0.51100000000E-03 0. -1.
    9900012    2    1    2    0    0 -0.28708355599E+02 -0.27812789827E+02  0.74461099767E+01  0.50528861877E+02  0.30000006161E+02 0.  0.
         12    1    1    2    0    0  0.28708355599E+02  0.27812789827E+02 -0.74461099767E+01  0.40659138123E+02  0.00000000000E+00 0. -1.
         11    1    3    3    0    0 -0.95374560231E+01 -0.15682903050E+02 -0.49715899508E+01  0.19016656446E+02  0.51100000000E-03 0. -1.
        -11    1    3    3    0    0 -0.20588850957E+02 -0.12139300273E+02  0.55997098693E+01  0.24548322666E+02  0.51100000000E-03 0.  1.
         12    1    3    3    0    0  0.14179513811E+01  0.94134963498E-02  0.68179900582E+01  0.69638827652E+01  0.00000000000E+00 0. -1.
</event>
<event>
 7    1  0.1381607E-011  0.5052887E+02  0.7816164E-02  0.1300439E+00
        -11   -1    0    0    0    0  0.00000000000E+00  0.00000000000E+00  0.45593999997E+02  0.45594000000E+02  0.51100000000E-03 0. -1.
         11   -1    0    0    0    0 -0.00000000000E+00 -0.00000000000E+00 -0.45593999997E+02  0.45594000000E+02  0.51100000000E-03 0.  1.
    9900012    2    1    2    0    0 -0.35972855117E+02 -0.17523203116E+02  0.72149901191E+01  0.50528867752E+02  0.30000024019E+02 0.  0.
         12    1    1    2    0    0  0.35972855117E+02  0.17523203116E+02 -0.72149901191E+01  0.40659132248E+02  0.00000000000E+00 0. -1.
         11    1    3    3    0    0 -0.69484950198E+01 -0.88331960149E+01  0.99749480306E+01  0.15026860063E+02  0.51100000000E-03 0. -1.
        -11    1    3    3    0    0 -0.26092467433E+02 -0.10782382190E+02  0.33282942813E+01  0.28428052440E+02  0.51100000000E-03 0.  1.
         12    1    3    3    0    0 -0.29318926645E+01  0.20923750891E+01 -0.60882521927E+01  0.70739552495E+01  0.00000000000E+00 0. -1.
</event>
<event>
 7    1  0.1381607E-011  0.5052881E+02  0.7816164E-02  0.1300439E+00
        -11   -1    0    0    0    0  0.00000000000E+00  0.00000000000E+00  0.45593999997E+02  0.45594000000E+02  0.51100000000E-03 0.  1.
         11   -1    0    0    0    0 -0.00000000000E+00 -0.00000000000E+00 -0.45593999997E+02  0.45594000000E+02  0.51100000000E-03 0. -1.
    9900012    2    1    2    0    0 -0.38058401635E+01  0.52110086187E+01  0.40143878008E+02  0.50528807046E+02  0.29999839495E+02 0.  0.
         12    1    1    2    0    0  0.38058401635E+01 -0.52110086187E+01 -0.40143878008E+02  0.40659192954E+02  0.00000000000E+00 0. -1.
         11    1    3    3    0    0 -0.10892560104E+02  0.21992368807E+01  0.60200051275E+01  0.12638234468E+02  0.51100000000E-03 0.  1.
        -11    1    3    3    0    0  0.31606034549E+01  0.64485788197E+01  0.62126735540E+01  0.94958357159E+01  0.51100000000E-03 0. -1.
        -12    1    3    3    0    0  0.39261164858E+01 -0.34368070818E+01  0.27911199327E+02  0.28394736861E+02  0.00000000000E+00 0.  1.
</event>
<event>
 7    1  0.1381607E-011  0.5052885E+02  0.7816164E-02  0.1300439E+00
        -11   -1    0    0    0    0  0.00000000000E+00  0.00000000000E+00  0.45593999997E+02  0.45594000000E+02  0.51100000000E-03 0. -1.
         11   -1    0    0    0    0 -0.00000000000E+00 -0.00000000000E+00 -0.45593999997E+02  0.45594000000E+02  0.51100000000E-03 0.  1.
    9900012    2    1    2    0    0 -0.20306587100E+02 -0.15015473235E+02 -0.31864465590E+02  0.50528854861E+02  0.29999984836E+02 0.  0.
         12    1    1    2    0    0  0.20306587100E+02  0.15015473235E+02  0.31864465590E+02  0.40659145139E+02  0.00000000000E+00 0. -1.
         11    1    3    3    0    0 -0.79173082939E+01 -0.14498626397E+02 -0.72844251327E+01  0.18054273394E+02  0.51100000000E-03 0. -1.
        -11    1    3    3    0    0 -0.61312554037E+01 -0.63411002450E+01 -0.21748148193E+02  0.23468783421E+02  0.51100000000E-03 0.  1.
         12    1    3    3    0    0 -0.62580234021E+01  0.58242534075E+01 -0.28318922636E+01  0.90057980462E+01  0.00000000000E+00 0. -1.
</event>
<event>
 7    1  0.1381607E-011  0.5052886E+02  0.7816164E-02  0.1300439E+00
        -11   -1    0    0    0    0  0.00000000000E+00  0.00000000000E+00  0.45593999997E+02  0.45594000000E+02  0.51100000000E-03 0.  1.
         11   -1    0    0    0    0 -0.00000000000E+00 -0.00000000000E+00 -0.45593999997E+02  0.45594000000E+02  0.51100000000E-03 0. -1.
    9900012    2    1    2    0    0  0.47798557979E+01 -0.15901445333E+02  0.37114180927E+02  0.50528863130E+02  0.30000009971E+02 0.  0.
         12    1    1    2    0    0 -0.47798557979E+01  0.15901445333E+02 -0.37114180927E+02  0.40659136870E+02  0.00000000000E+00 0. -1.
         11    1    3    3    0    0  0.28284020045E+01 -0.33806620758E+01  0.13090265249E+02  0.13812450127E+02  0.51100000000E-03 0. -1.
        -11    1    3    3    0    0  0.67734764074E+01 -0.18676278209E+02  0.15954539007E+02  0.25480005211E+02  0.51100000000E-03 0.  1.
         12    1    3    3    0    0 -0.48220226140E+01  0.61554949523E+01  0.80693766709E+01  0.11236407791E+02  0.00000000000E+00 0. -1.
</event>
<event>
 7    1  0.1381607E-011  0.5052886E+02  0.7816164E-02  0.1300439E+00
        -11   -1    0    0    0    0  0.00000000000E+00  0.00000000000E+00  0.45593999997E+02  0.45594000000E+02  0.51100000000E-03 0.  1.
         11   -1    0    0    0    0 -0.00000000000E+00 -0.00000000000E+00 -0.45593999997E+02  0.45594000000E+02  0.51100000000E-03 0. -1.
    9900012    2    1    2    0    0 -0.14711811413E+02  0.25856164221E+02  0.27716187977E+02  0.50528859586E+02  0.29999999197E+02 0.  0.
         12    1    1    2    0    0  0.14711811413E+02 -0.25856164221E+02 -0.27716187977E+02  0.40659140414E+02  0.00000000000E+00 0. -1.
         11    1    3    3    0    0 -0.30056360600E+01  0.11636172556E+02 -0.19606775638E+01  0.12176970750E+02  0.51100000000E-03 0. -1.
        -11    1    3    3    0    0 -0.94037247749E+01  0.16589682070E+01  0.55261389859E+01  0.11032698106E+02  0.51100000000E-03 0.  1.
         12    1    3    3    0    0 -0.23024505782E+01  0.12561023458E+02  0.24150726555E+02  0.27319190729E+02  0.00000000000E+00 0. -1.
</event>
<event>
 7    1  0.1381607E-011  0.5052889E+02  0.7816164E-02  0.1300439E+00
        -11   -1    0    0    0    0  0.00000000000E+00  0.00000000000E+00  0.45593999997E+02  0.45594000000E+02  0.51100000000E-03 0.  1.
         11   -1    0    0    0    0 -0.00000000000E+00 -0.00000000000E+00 -0.45593999997E+02  0.45594000000E+02  0.51100000000E-03 0. -1.
    9900012    2    1    2    0    0 -0.34208961117E+02 -0.21597285436E+02  0.40580364076E+01  0.50528887634E+02  0.30000084452E+02 0.  0.
         12    1    1    2    0    0  0.34208961117E+02  0.21597285436E+02 -0.40580364076E+01  0.40659112366E+02  0.00000000000E+00 0. -1.
         11    1    3    3    0    0 -0.25964504303E+01  0.74656352408E+00  0.40169685858E+01  0.48409656901E+01  0.51100000000E-03 0. -1.
        -11    1    3    3    0    0 -0.33176221364E+02 -0.23294532279E+02  0.45785100321E+01  0.40795338612E+02  0.51100000000E-03 0.  1.
         12    1    3    3    0    0  0.15637106767E+01  0.95068331915E+00 -0.45374422102E+01  0.48925833324E+01  0.00000000000E+00 0. -1.
</event>
<event>
 7    1  0.1381607E-011  0.5052886E+02  0.7816164E-02  0.1300439E+00
        -11   -1    0    0    0    0  0.00000000000E+00  0.00000000000E+00  0.45593999997E+02  0.45594000000E+02  0.51100000000E-03 0.  1.
         11   -1    0    0    0    0 -0.00000000000E+00 -0.00000000000E+00 -0.45593999997E+02  0.45594000000E+02  0.51100000000E-03 0. -1.
    9900012    2    1    2    0    0 -0.15895484215E+02  0.29255945794E+02  0.23336426304E+02  0.50528861108E+02  0.30000003825E+02 0.  0.
         12    1    1    2    0    0  0.15895484215E+02 -0.29255945794E+02 -0.23336426304E+02  0.40659138892E+02  0.00000000000E+00 0. -1.
         11    1    3    3    0    0  0.26147359882E+01  0.84690165141E+01  0.41973537352E+01  0.98070823207E+01  0.51100000000E-03 0. -1.
        -11    1    3    3    0    0 -0.12270620388E+02  0.20500185135E+02  0.38423818226E+01  0.24198958936E+02  0.51100000000E-03 0.  1.
         12    1    3    3    0    0 -0.62395998153E+01  0.28674414546E+00  0.15296690746E+02  0.16522819852E+02  0.00000000000E+00 0. -1.
</event>
<event>
 7    1  0.1381607E-011  0.5052891E+02  0.7816164E-02  0.1300439E+00
        -11   -1    0    0    0    0  0.00000000000E+00  0.00000000000E+00  0.45593999997E+02  0.45594000000E+02  0.51100000000E-03 0.  1.
         11   -1    0    0    0    0 -0.00000000000E+00 -0.00000000000E+00 -0.45593999997E+02  0.45594000000E+02  0.51100000000E-03 0. -1.
    9900012    2    1    2    0    0 -0.13950073465E+01  0.25671638785E+02  0.31498927831E+02  0.50528910758E+02  0.30000154741E+02 0.  0.
         12    1    1    2    0    0  0.13950073465E+01 -0.25671638785E+02 -0.31498927831E+02  0.40659089242E+02  0.00000000000E+00 0. -1.
         11    1    3    3    0    0  0.79902269975E+00  0.11271612606E+02  0.77490877898E+01  0.13701680548E+02  0.51100000000E-03 0. -1.
        -11    1    3    3    0    0 -0.12587981101E+02  0.11071614364E+02  0.17572431437E+02  0.24286380127E+02  0.51100000000E-03 0.  1.
         12    1    3    3    0    0  0.10393951054E+02  0.33284118155E+01  0.61774086047E+01  0.12540850083E+02  0.00000000000E+00 0. -1.
</event>
<event>
 7    1  0.1381607E-011  0.5052888E+02  0.7816164E-02  0.1300439E+00
        -11   -1    0    0    0    0  0.00000000000E+00  0.00000000000E+00  0.45593999997E+02  0.45594000000E+02  0.51100000000E-03 0. -1.
         11   -1    0    0    0    0 -0.00000000000E+00 -0.00000000000E+00 -0.45593999997E+02  0.45594000000E+02  0.51100000000E-03 0.  1.
    9900012    2    1    2    0    0  0.29493429848E+02 -0.27987147883E+02  0.14538470432E+00  0.50528880635E+02  0.30000063178E+02 0.  0.
         12    1    1    2    0    0 -0.29493429848E+02  0.27987147883E+02 -0.14538470432E+00  0.40659119365E+02  0.00000000000E+00 0. -1.
         11    1    3    3    0    0  0.13381965005E+02 -0.75309112777E+01 -0.78804022568E+01  0.17259558281E+02  0.51100000000E-03 0. -1.
        -11    1    3    3    0    0  0.54868977739E+01  0.10634391959E+01  0.73846646557E+01  0.92612214337E+01  0.51100000000E-03 0.  1.
         12    1    3    3    0    0  0.10624567069E+02 -0.21519675801E+02  0.64112230535E+00  0.24008100921E+02  0.00000000000E+00 0. -1.
</event>
<event>
 7    1  0.1381607E-011  0.5052886E+02  0.7816164E-02  0.1300439E+00
        -11   -1    0    0    0    0  0.00000000000E+00  0.00000000000E+00  0.45593999997E+02  0.45594000000E+02  0.51100000000E-03 0.  1.
         11   -1    0    0    0    0 -0.00000000000E+00 -0.00000000000E+00 -0.45593999997E+02  0.45594000000E+02  0.51100000000E-03 0. -1.
    9900012    2    1    2    0    0  0.11700490723E+02  0.95793375550E+01  0.37742559746E+02  0.50528855797E+02  0.29999987681E+02 0.  0.
         12    1    1    2    0    0 -0.11700490723E+02 -0.95793375550E+01 -0.37742559746E+02  0.40659144203E+02  0.00000000000E+00 0. -1.
         11    1    3    3    0    0  0.69366411730E+01  0.55492316951E+01  0.29507598877E+02  0.30815732264E+02  0.51100000000E-03 0. -1.
        -11    1    3    3    0    0 -0.28589439910E+01 -0.18841869077E+01  0.93912666738E+01  0.99959797442E+01  0.51100000000E-03 0.  1.
         12    1    3    3    0    0  0.76227935409E+01  0.59142927676E+01 -0.11563058056E+01  0.97171437894E+01  0.00000000000E+00 0. -1.
</event>
<event>
 7    1  0.1381607E-011  0.5052885E+02  0.7816164E-02  0.1300439E+00
        -11   -1    0    0    0    0  0.00000000000E+00  0.00000000000E+00  0.45593999997E+02  0.45594000000E+02  0.51100000000E-03 0.  1.
         11   -1    0    0    0    0 -0.00000000000E+00 -0.00000000000E+00 -0.45593999997E+02  0.45594000000E+02  0.51100000000E-03 0. -1.
    9900012    2    1    2    0    0  0.61234899821E+01 -0.29052222557E+01  0.40090259525E+02  0.50528851525E+02  0.29999974695E+02 0.  0.
         12    1    1    2    0    0 -0.61234899821E+01  0.29052222557E+01 -0.40090259525E+02  0.40659148475E+02  0.00000000000E+00 0. -1.
         11    1    3    3    0    0  0.11014285226E+02 -0.21447248866E+01  0.20401514688E+02  0.23283816820E+02  0.51100000000E-03 0. -1.
        -11    1    3    3    0    0 -0.66992742349E+01  0.75706261795E+01  0.12625632641E+02  0.16174092119E+02  0.51100000000E-03 0.  1.
         12    1    3    3    0    0  0.18084789911E+01 -0.83311235486E+01  0.70631121960E+01  0.11070942586E+02  0.00000000000E+00 0. -1.
</event>
<event>
 7    1  0.1381607E-011  0.5052888E+02  0.7816164E-02  0.1300439E+00
        -11   -1    0    0    0    0  0.00000000000E+00  0.00000000000E+00  0.45593999997E+02  0.45594000000E+02  0.51100000000E-03 0.  1.
         11   -1    0    0    0    0 -0.00000000000E+00 -0.00000000000E+00 -0.45593999997E+02  0.45594000000E+02  0.51100000000E-03 0. -1.
    9900012    2    1    2    0    0  0.22980578979E+02 -0.15384626919E+02  0.29805547305E+02  0.50528875492E+02  0.30000047546E+02 0.  0.
         12    1    1    2    0    0 -0.22980578979E+02  0.15384626919E+02 -0.29805547305E+02  0.40659124508E+02  0.00000000000E+00 0. -1.
         11    1    3    3    0    0  0.14459637464E+02 -0.11980352943E+02  0.32411120926E+01  0.19055570841E+02  0.51100000000E-03 0. -1.
        -11    1    3    3    0    0  0.72776496004E+01 -0.40903515857E+01  0.47348908755E+01  0.95976221881E+01  0.51100000000E-03 0.  1.
        -12    1    3    3    0    0  0.12432919140E+01  0.68607760954E+00  0.21829544336E+02  0.21875682463E+02  0.00000000000E+00 0.  1.
</event>
<event>
 7    1  0.1381607E-011  0.5052885E+02  0.7816164E-02  0.1300439E+00
        -11   -1    0    0    0    0  0.00000000000E+00  0.00000000000E+00  0.45593999997E+02  0.45594000000E+02  0.51100000000E-03 0.  1.
         11   -1    0    0    0    0 -0.00000000000E+00 -0.00000000000E+00 -0.45593999997E+02  0.45594000000E+02  0.51100000000E-03 0. -1.
    9900012    2    1    2    0    0  0.30544208709E+02 -0.12059308595E+02  0.23974792989E+02  0.50528852096E+02  0.29999976430E+02 0.  0.
         12    1    1    2    0    0 -0.30544208709E+02  0.12059308595E+02 -0.23974792989E+02  0.40659147904E+02  0.00000000000E+00 0. -1.
         11    1    3    3    0    0 -0.12585097206E+01 -0.11235873820E+01  0.71645110091E+01  0.73604696578E+01  0.51100000000E-03 0. -1.
        -11    1    3    3    0    0  0.64801520339E+01 -0.12796785339E+02  0.53220690991E+01  0.15299493624E+02  0.51100000000E-03 0.  1.
        -12    1    3    3    0    0  0.25322566396E+02  0.18610641259E+01  0.11488212881E+02  0.27868888814E+02  0.00000000000E+00 0.  1.
</event>
<event>
 7    1  0.1381607E-011  0.5052886E+02  0.7816164E-02  0.1300439E+00
        -11   -1    0    0    0    0  0.00000000000E+00  0.00000000000E+00  0.45593999997E+02  0.45594000000E+02  0.51100000000E-03 0.  1.
         11   -1    0    0    0    0 -0.00000000000E+00 -0.00000000000E+00 -0.45593999997E+02  0.45594000000E+02  0.51100000000E-03 0. -1.
    9900012    2    1    2    0    0 -0.15609866936E+02  0.12781000017E+02  0.35300760385E+02  0.50528860917E+02  0.30000003245E+02 0.  0.
         12    1    1    2    0    0  0.15609866936E+02 -0.12781000017E+02 -0.35300760385E+02  0.40659139083E+02  0.00000000000E+00 0. -1.
         11    1    3    3    0    0 -0.69240153447E+01  0.12059243925E+01 -0.77499369208E+00  0.70708456084E+01  0.51100000000E-03 0. -1.
        -11    1    3    3    0    0 -0.10949729879E+02 -0.13803217691E+01  0.17752793957E+02  0.20903673509E+02  0.51100000000E-03 0.  1.
         12    1    3    3    0    0  0.22638782869E+01  0.12955397393E+02  0.18322960119E+02  0.22554341800E+02  0.00000000000E+00 0. -1.
</event>
<event>
 7    1  0.1381607E-011  0.5052887E+02  0.7816164E-02  0.1300439E+00
        -11   -1    0    0    0    0  0.00000000000E+00  0.00000000000E+00  0.45593999997E+02  0.45594000000E+02  0.51100000000E-03 0.  1.
         11   -1    0    0    0    0 -0.00000000000E+00 -0.00000000000E+00 -0.45593999997E+02  0.45594000000E+02  0.51100000000E-03 0. -1.
    9900012    2    1    2    0    0  0.19247415464E+02  0.30497712562E+02  0.18777414633E+02  0.50528870965E+02  0.30000033786E+02 0.  0.
         12    1    1    2    0    0 -0.19247415464E+02 -0.30497712562E+02 -0.18777414633E+02  0.40659129035E+02  0.00000000000E+00 0. -1.
         11    1    3    3    0    0 -0.45245264081E+01  0.70172027886E+00  0.24383786879E+01  0.51874311035E+01  0.51100000000E-03 0. -1.
        -11    1    3    3    0    0  0.14162628382E+02  0.42190747482E+01  0.78341965528E+01  0.16725886234E+02  0.51100000000E-03 0.  1.
        -12    1    3    3    0    0  0.96093134902E+01  0.25576917535E+02  0.85048393922E+01  0.28615553628E+02  0.00000000000E+00 0.  1.
</event>
<event>
 7    1  0.1381607E-011  0.5052887E+02  0.7816164E-02  0.1300439E+00
        -11   -1    0    0    0    0  0.00000000000E+00  0.00000000000E+00  0.45593999997E+02  0.45594000000E+02  0.51100000000E-03 0. -1.
         11   -1    0    0    0    0 -0.00000000000E+00 -0.00000000000E+00 -0.45593999997E+02  0.45594000000E+02  0.51100000000E-03 0.  1.
    9900012    2    1    2    0    0  0.25551615228E+02  0.27273978569E+02 -0.16012815607E+02  0.50528865584E+02  0.30000017429E+02 0.  0.
         12    1    1    2    0    0 -0.25551615228E+02 -0.27273978569E+02  0.16012815607E+02  0.40659134416E+02  0.00000000000E+00 0. -1.
         11    1    3    3    0    0 -0.63148527202E+00 -0.21872335752E+01  0.49695985328E+00  0.23301789026E+01  0.51100000000E-03 0. -1.
        -11    1    3    3    0    0  0.21910817590E+02  0.20833709205E+02 -0.21743000481E+02  0.37240910796E+02  0.51100000000E-03 0.  1.
         12    1    3    3    0    0  0.42722829103E+01  0.86275029396E+01  0.52332250207E+01  0.10957775885E+02  0.00000000000E+00 0. -1.
</event>
<event>
 7    1  0.1381607E-011  0.5052885E+02  0.7816164E-02  0.1300439E+00
        -11   -1    0    0    0    0  0.00000000000E+00  0.00000000000E+00  0.45593999997E+02  0.45594000000E+02  0.51100000000E-03 0.  1.
         11   -1    0    0    0    0 -0.00000000000E+00 -0.00000000000E+00 -0.45593999997E+02  0.45594000000E+02  0.51100000000E-03 0. -1.
    9900012    2    1    2    0    0 -0.20615921155E+02 -0.77364108698E+01  0.34180375602E+02  0.50528851773E+02  0.29999975450E+02 0.  0.
         12    1    1    2    0    0  0.20615921155E+02  0.77364108698E+01 -0.34180375602E+02  0.40659148227E+02  0.00000000000E+00 0. -1.
         11    1    3    3    0    0 -0.15541047195E+02 -0.68064366410E+01  0.15903833376E+02  0.23254755298E+02  0.51100000000E-03 0.  1.
        -11    1    3    3    0    0 -0.49228291405E+01  0.22271896224E+01 -0.27142669632E+01  0.60466408665E+01  0.51100000000E-03 0. -1.
         12    1    3    3    0    0 -0.15204481993E+00 -0.31571638511E+01  0.20990809189E+02  0.21227455609E+02  0.00000000000E+00 0. -1.
</event>
<event>
 7    1  0.1381607E-011  0.5052885E+02  0.7816164E-02  0.1300439E+00
        -11   -1    0    0    0    0  0.00000000000E+00  0.00000000000E+00  0.45593999997E+02  0.45594000000E+02  0.51100000000E-03 0.  1.
         11   -1    0    0    0    0 -0.00000000000E+00 -0.00000000000E+00 -0.45593999997E+02  0.45594000000E+02  0.51100000000E-03 0. -1.
    9900012    2    1    2    0    0  0.54678167285E+01 -0.21429842379E+02  0.34117899976E+02  0.50528852654E+02  0.29999978126E+02 0.  0.
         12    1    1    2    0    0 -0.54678167285E+01  0.21429842379E+02 -0.34117899976E+02  0.40659147346E+02  0.00000000000E+00 0. -1.
         11    1    3    3    0    0  0.12384097268E+01  0.10916411177E+01  0.19340292901E+02  0.19410622574E+02  0.51100000000E-03 0. -1.
        -11    1    3    3    0    0  0.46470171516E+01 -0.32193328060E+00  0.41997406820E+00  0.46770490614E+01  0.51100000000E-03 0.  1.
        -12    1    3    3    0    0 -0.41761014978E+00 -0.22199550217E+02  0.14357633007E+02  0.26441181018E+02  0.00000000000E+00 0.  1.
</event>
<event>
 7    1  0.1381607E-011  0.5052886E+02  0.7816164E-02  0.1300439E+00
        -11   -1    0    0    0    0  0.00000000000E+00  0.00000000000E+00  0.45593999997E+02  0.45594000000E+02  0.51100000000E-03 0.  1.
         11   -1    0    0    0    0 -0.00000000000E+00 -0.00000000000E+00 -0.45593999997E+02  0.45594000000E+02  0.51100000000E-03 0. -1.
    9900012    2    1    2    0    0  0.21287220830E+01  0.30812364239E+02  0.26443003801E+02  0.50528859604E+02  0.29999999253E+02 0.  0.
         12    1    1    2    0    0 -0.21287220830E+01 -0.30812364239E+02 -0.26443003801E+02  0.40659140396E+02  0.00000000000E+00 0. -1.
         11    1    3    3    0    0  0.15381499617E+00  0.81154705373E+01 -0.70898964079E+00  0.81478333112E+01  0.51100000000E-03 0. -1.
        -11    1    3    3    0    0 -0.14532160630E+01  0.18677622078E+02  0.46982336875E+01  0.19314212473E+02  0.51100000000E-03 0.  1.
         12    1    3    3    0    0  0.34281231498E+01  0.40192716239E+01  0.22453759754E+02  0.23066813820E+02  0.00000000000E+00 0. -1.
</event>
<event>
 7    1  0.1381607E-011  0.5052887E+02  0.7816164E-02  0.1300439E+00
        -11   -1    0    0    0    0  0.00000000000E+00  0.00000000000E+00  0.45593999997E+02  0.45594000000E+02  0.51100000000E-03 0.  1.
         11   -1    0    0    0    0 -0.00000000000E+00 -0.00000000000E+00 -0.45593999997E+02  0.45594000000E+02  0.51100000000E-03 0. -1.
    9900012    2    1    2    0    0 -0.27364566720E+02 -0.29783139413E+01  0.29924493891E+02  0.50528865720E+02  0.30000017843E+02 0.  0.
         12    1    1    2    0    0  0.27364566720E+02  0.29783139413E+01 -0.29924493891E+02  0.40659134280E+02  0.00000000000E+00 0. -1.
         11    1    3    3    0    0 -0.41678426778E+01  0.24750595198E+01 -0.31549752014E+01  0.57836580982E+01  0.51100000000E-03 0. -1.
        -11    1    3    3    0    0 -0.23253819592E+01 -0.80581463062E+01  0.53766781593E+01  0.99624189551E+01  0.51100000000E-03 0.  1.
        -12    1    3    3    0    0 -0.20871342083E+02  0.26047728451E+01  0.27702790934E+02  0.34782788667E+02  0.00000000000E+00 0.  1.
</event>
<event>
 7    1  0.1381607E-011  0.5052886E+02  0.7816164E-02  0.1300439E+00
        -11   -1    0    0    0    0  0.00000000000E+00  0.00000000000E+00  0.45593999997E+02  0.45594000000E+02  0.51100000000E-03 0.  1.
         11   -1    0    0    0    0 -0.00000000000E+00 -0.00000000000E+00 -0.45593999997E+02  0.45594000000E+02  0.51100000000E-03 0. -1.
    9900012    2    1    2    0    0  0.91601153107E+01 -0.20723754707E+02  0.33760684483E+02  0.50528861563E+02  0.30000005206E+02 0.  0.
         12    1    1    2    0    0 -0.91601153107E+01  0.20723754707E+02 -0.33760684483E+02  0.40659138437E+02  0.00000000000E+00 0. -1.
         11    1    3    3    0    0 -0.25255683731E+01 -0.81533991519E+01  0.32181737217E+00  0.85416614320E+01  0.51100000000E-03 0. -1.
        -11    1    3    3    0    0  0.99930120715E+01 -0.11013334186E+02  0.88797236825E+01  0.17320603716E+02  0.51100000000E-03 0.  1.
         12    1    3    3    0    0  0.16926716124E+01 -0.15570213693E+01  0.24559143429E+02  0.24666596415E+02  0.00000000000E+00 0. -1.
</event>
<event>
 7    1  0.1381607E-011  0.5052886E+02  0.7816164E-02  0.1300439E+00
        -11   -1    0    0    0    0  0.00000000000E+00  0.00000000000E+00  0.45593999997E+02  0.45594000000E+02  0.51100000000E-03 0. -1.
         11   -1    0    0    0    0 -0.00000000000E+00 -0.00000000000E+00 -0.45593999997E+02  0.45594000000E+02  0.51100000000E-03 0.  1.
    9900012    2    1    2    0    0  0.36951473976E+02  0.13085403169E+02 -0.10794737533E+02  0.50528861255E+02  0.30000004270E+02 0.  0.
         12    1    1    2    0    0 -0.36951473976E+02 -0.13085403169E+02  0.10794737533E+02  0.40659138745E+02  0.00000000000E+00 0. -1.
         11    1    3    3    0    0  0.61459548442E+01  0.75318891723E+01 -0.48252938645E+01  0.10852906366E+02  0.51100000000E-03 0. -1.
        -11    1    3    3    0    0  0.20371294068E+01  0.98608249473E+01 -0.25475241696E+01  0.10386320066E+02  0.51100000000E-03 0.  1.
        -12    1    3    3    0    0  0.28768389725E+02 -0.43073109503E+01 -0.34219194988E+01  0.29289634823E+02  0.00000000000E+00 0.  1.
</event>
<event>
 7    1  0.1381607E-011  0.5052886E+02  0.7816164E-02  0.1300439E+00
        -11   -1    0    0    0    0  0.00000000000E+00  0.00000000000E+00  0.45593999997E+02  0.45594000000E+02  0.51100000000E-03 0. -1.
         11   -1    0    0    0    0 -0.00000000000E+00 -0.00000000000E+00 -0.45593999997E+02  0.45594000000E+02  0.51100000000E-03 0.  1.
    9900012    2    1    2    0    0 -0.15994566764E+02 -0.22535667458E+02 -0.29824207245E+02  0.50528858204E+02  0.29999994997E+02 0.  0.
         12    1    1    2    0    0  0.15994566764E+02  0.22535667458E+02  0.29824207245E+02  0.40659141796E+02  0.00000000000E+00 0. -1.
         11    1    3    3    0    0 -0.22872352700E+01 -0.23627503874E+01 -0.22064662426E+01  0.39601171844E+01  0.51100000000E-03 0. -1.
        -11    1    3    3    0    0 -0.10674511633E+02 -0.27130143558E+02 -0.17797714503E+02  0.34157700887E+02  0.51100000000E-03 0.  1.
         12    1    3    3    0    0 -0.30328198610E+01  0.69572264873E+01 -0.98200265001E+01  0.12411040132E+02  0.00000000000E+00 0. -1.
</event>
<event>
 7    1  0.1381607E-011  0.5052886E+02  0.7816164E-02  0.1300439E+00
        -11   -1    0    0    0    0  0.00000000000E+00  0.00000000000E+00  0.45593999997E+02  0.45594000000E+02  0.51100000000E-03 0. -1.
         11   -1    0    0    0    0 -0.00000000000E+00 -0.00000000000E+00 -0.45593999997E+02  0.45594000000E+02  0.51100000000E-03 0.  1.
    9900012    2    1    2    0    0 -0.11273489555E+02  0.32431854409E+02 -0.21777254842E+02  0.50528861106E+02  0.30000003817E+02 0.  0.
         12    1    1    2    0    0  0.11273489555E+02 -0.32431854409E+02  0.21777254842E+02  0.40659138894E+02  0.00000000000E+00 0. -1.
         11    1    3    3    0    0  0.35186962407E+01  0.42659889435E+00 -0.67801673818E+01  0.76507437441E+01  0.51100000000E-03 0. -1.
        -11    1    3    3    0    0 -0.10837223939E+02  0.35142325543E+01 -0.47468069590E+01  0.12342099891E+02  0.51100000000E-03 0.  1.
        -12    1    3    3    0    0 -0.39549618567E+01  0.28491022961E+02 -0.10250280501E+02  0.30536017471E+02  0.00000000000E+00 0.  1.
</event>
<event>
 7    1  0.1381607E-011  0.5052887E+02  0.7816164E-02  0.1300439E+00
        -11   -1    0    0    0    0  0.00000000000E+00  0.00000000000E+00  0.45593999997E+02  0.45594000000E+02  0.51100000000E-03 0.  1.
         11   -1    0    0    0    0 -0.00000000000E+00 -0.00000000000E+00 -0.45593999997E+02  0.45594000000E+02  0.51100000000E-03 0. -1.
    9900012    2    1    2    0    0  0.36424821181E+02  0.44510075924E+01  0.17509597575E+02  0.50528867275E+02  0.30000022570E+02 0.  0.
         12    1    1    2    0    0 -0.36424821181E+02 -0.44510075924E+01 -0.17509597575E+02  0.40659132725E+02  0.00000000000E+00 0. -1.
         11    1    3    3    0    0  0.22084284830E+02 -0.83604025672E+01  0.19525061125E+01  0.23694392753E+02  0.51100000000E-03 0. -1.
        -11    1    3    3    0    0  0.33066178163E+01 -0.16268470968E+01  0.23571316243E+01  0.43745197010E+01  0.51100000000E-03 0.  1.
         12    1    3    3    0    0  0.11033918535E+02  0.14438257256E+02  0.13199959838E+02  0.22459954821E+02  0.00000000000E+00 0. -1.
</event>
<event>
 7    1  0.1381607E-011  0.5052886E+02  0.7816164E-02  0.1300439E+00
        -11   -1    0    0    0    0  0.00000000000E+00  0.00000000000E+00  0.45593999997E+02  0.45594000000E+02  0.51100000000E-03 0.  1.
         11   -1    0    0    0    0 -0.00000000000E+00 -0.00000000000E+00 -0.45593999997E+02  0.45594000000E+02  0.51100000000E-03 0. -1.
    9900012    2    1    2    0    0  0.32950367181E+02  0.19711255260E+02  0.13375560915E+02  0.50528856980E+02  0.29999991278E+02 0.  0.
         12    1    1    2    0    0 -0.32950367181E+02 -0.19711255260E+02 -0.13375560915E+02  0.40659143020E+02  0.00000000000E+00 0. -1.
         11    1    3    3    0    0  0.29501888419E+01 -0.13732507032E+01  0.75955581128E+01  0.82632883892E+01  0.51100000000E-03 0.  1.
        -11    1    3    3    0    0  0.21050729916E+02  0.74193187757E+01  0.11307491909E+02  0.25020769266E+02  0.51100000000E-03 0. -1.
         12    1    3    3    0    0  0.89494484228E+01  0.13665187188E+02 -0.55274891071E+01  0.17244799325E+02  0.00000000000E+00 0. -1.
</event>
<event>
 7    1  0.1381607E-011  0.5052886E+02  0.7816164E-02  0.1300439E+00
        -11   -1    0    0    0    0  0.00000000000E+00  0.00000000000E+00  0.45593999997E+02  0.45594000000E+02  0.51100000000E-03 0.  1.
         11   -1    0    0    0    0 -0.00000000000E+00 -0.00000000000E+00 -0.45593999997E+02  0.45594000000E+02  0.51100000000E-03 0. -1.
    9900012    2    1    2    0    0  0.33148573321E+02 -0.20215428829E+02  0.12069552096E+02  0.50528861252E+02  0.30000004261E+02 0.  0.
         12    1    1    2    0    0 -0.33148573321E+02  0.20215428829E+02 -0.12069552096E+02  0.40659138748E+02  0.00000000000E+00 0. -1.
         11    1    3    3    0    0  0.31786631001E+01 -0.19289038666E+01  0.11150359719E+02  0.11753939397E+02  0.51100000000E-03 0. -1.
        -11    1    3    3    0    0 -0.83950688371E+00 -0.16263804944E+01 -0.30172560074E+01  0.35289827707E+01  0.51100000000E-03 0.  1.
        -12    1    3    3    0    0  0.30809417105E+02 -0.16660144468E+02  0.39364483844E+01  0.35245939084E+02  0.00000000000E+00 0.  1.
</event>
<event>
 7    1  0.1381607E-011  0.5052889E+02  0.7816164E-02  0.1300439E+00
        -11   -1    0    0    0    0  0.00000000000E+00  0.00000000000E+00  0.45593999997E+02  0.45594000000E+02  0.51100000000E-03 0.  1.
         11   -1    0    0    0    0 -0.00000000000E+00 -0.00000000000E+00 -0.45593999997E+02  0.45594000000E+02  0.51100000000E-03 0. -1.
    9900012    2    1    2    0    0 -0.24823444500E+02  0.18889356721E+02  0.26079717007E+02  0.50528894828E+02  0.30000106319E+02 0.  0.
         12    1    1    2    0    0  0.24823444500E+02 -0.18889356721E+02 -0.26079717007E+02  0.40659105172E+02  0.00000000000E+00 0. -1.
         11    1    3    3    0    0  0.16176608099E+01  0.72766132750E+01  0.11775683157E+02  0.13936737112E+02  0.51100000000E-03 0. -1.
        -11    1    3    3    0    0 -0.10441265237E+02  0.14000312360E+02  0.82990703994E+01  0.19336580248E+02  0.51100000000E-03 0.  1.
         12    1    3    3    0    0 -0.15999840074E+02 -0.23875689139E+01  0.60049634504E+01  0.17255577468E+02  0.00000000000E+00 0. -1.
</event>
<event>
 7    1  0.1381607E-011  0.5052888E+02  0.7816164E-02  0.1300439E+00
        -11   -1    0    0    0    0  0.00000000000E+00  0.00000000000E+00  0.45593999997E+02  0.45594000000E+02  0.51100000000E-03 0. -1.
         11   -1    0    0    0    0 -0.00000000000E+00 -0.00000000000E+00 -0.45593999997E+02  0.45594000000E+02  0.51100000000E-03 0.  1.
    9900012    2    1    2    0    0 -0.36155852407E+02 -0.16585955292E+02 -0.84157207991E+01  0.50528881308E+02  0.30000065224E+02 0.  0.
         12    1    1    2    0    0  0.36155852407E+02  0.16585955292E+02  0.84157207991E+01  0.40659118692E+02  0.00000000000E+00 0. -1.
         11    1    3    3    0    0 -0.58173699697E+01 -0.13564072082E+02  0.18387710715E+01  0.14873026730E+02  0.51100000000E-03 0. -1.
        -11    1    3    3    0    0 -0.14191803453E+02 -0.87709935955E+01 -0.26007913841E+01  0.16884955729E+02  0.51100000000E-03 0.  1.
        -12    1    3    3    0    0 -0.16146678984E+02  0.57491103851E+01 -0.76537004866E+01  0.18770898848E+02  0.00000000000E+00 0.  1.
</event>
<event>
 7    1  0.1381607E-011  0.5052889E+02  0.7816164E-02  0.1300439E+00
        -11   -1    0    0    0    0  0.00000000000E+00  0.00000000000E+00  0.45593999997E+02  0.45594000000E+02  0.51100000000E-03 0.  1.
         11   -1    0    0    0    0 -0.00000000000E+00 -0.00000000000E+00 -0.45593999997E+02  0.45594000000E+02  0.51100000000E-03 0. -1.
    9900012    2    1    2    0    0  0.38207137659E+02  0.11957332864E+02  0.70993160671E+01  0.50528887049E+02  0.30000082673E+02 0.  0.
         12    1    1    2    0    0 -0.38207137659E+02 -0.11957332864E+02 -0.70993160671E+01  0.40659112951E+02  0.00000000000E+00 0. -1.
         11    1    3    3    0    0  0.17365197501E+02  0.13834932671E+02 -0.56781592280E+01  0.22917175628E+02  0.51100000000E-03 0. -1.
        -11    1    3    3    0    0  0.91261109118E+01 -0.36367747448E+01 -0.47532465196E+00  0.98355459790E+01  0.51100000000E-03 0.  1.
        -12    1    3    3    0    0  0.11715829246E+02  0.17591749382E+01  0.13252799947E+02  0.17776165442E+02  0.00000000000E+00 0.  1.
</event>
<event>
 7    1  0.1381607E-011  0.5052886E+02  0.7816164E-02  0.1300439E+00
        -11   -1    0    0    0    0  0.00000000000E+00  0.00000000000E+00  0.45593999997E+02  0.45594000000E+02  0.51100000000E-03 0. -1.
         11   -1    0    0    0    0 -0.00000000000E+00 -0.00000000000E+00 -0.45593999997E+02  0.45594000000E+02  0.51100000000E-03 0.  1.
    9900012    2    1    2    0    0  0.35134054932E+02  0.92562967545E+01 -0.18250616244E+02  0.50528857869E+02  0.29999993979E+02 0.  0.
         12    1    1    2    0    0 -0.35134054932E+02 -0.92562967545E+01  0.18250616244E+02  0.40659142131E+02  0.00000000000E+00 0. -1.
         11    1    3    3    0    0  0.74914396237E+01  0.19262015958E+01 -0.76418846115E+01  0.10873376702E+02  0.51100000000E-03 0. -1.
        -11    1    3    3    0    0  0.18965831570E+02  0.16812221313E+02 -0.65586826573E+01  0.26179569727E+02  0.51100000000E-03 0.  1.
         12    1    3    3    0    0  0.86767837382E+01 -0.94821261546E+01 -0.40500489747E+01  0.13475911440E+02  0.00000000000E+00 0. -1.
</event>
<event>
 7    1  0.1381607E-011  0.5052885E+02  0.7816164E-02  0.1300439E+00
        -11   -1    0    0    0    0  0.00000000000E+00  0.00000000000E+00  0.45593999997E+02  0.45594000000E+02  0.51100000000E-03 0.  1.
         11   -1    0    0    0    0 -0.00000000000E+00 -0.00000000000E+00 -0.45593999997E+02  0.45594000000E+02  0.51100000000E-03 0. -1.
    9900012    2    1    2    0    0  0.28119628393E+02 -0.11785319758E+02  0.26899052086E+02  0.50528852618E+02  0.29999978016E+02 0.  0.
         12    1    1    2    0    0 -0.28119628393E+02  0.11785319758E+02 -0.26899052086E+02  0.40659147382E+02  0.00000000000E+00 0. -1.
         11    1    3    3    0    0  0.15068712109E+02 -0.72594856462E+01  0.80020021868E+01  0.18541797532E+02  0.51100000000E-03 0.  1.
        -11    1    3    3    0    0  0.70285848520E+01  0.30532801263E+00 -0.38118914502E+01  0.80015465322E+01  0.51100000000E-03 0. -1.
        -12    1    3    3    0    0  0.60223314321E+01 -0.48311621241E+01  0.22708941350E+02  0.23985508553E+02  0.00000000000E+00 0.  1.
</event>
<event>
 7    1  0.1381607E-011  0.5052885E+02  0.7816164E-02  0.1300439E+00
        -11   -1    0    0    0    0  0.00000000000E+00  0.00000000000E+00  0.45593999997E+02  0.45594000000E+02  0.51100000000E-03 0.  1.
         11   -1    0    0    0    0 -0.00000000000E+00 -0.00000000000E+00 -0.45593999997E+02  0.45594000000E+02  0.51100000000E-03 0. -1.
    9900012    2    1    2    0    0  0.17246677520E+02 -0.27093687715E+02  0.24932917116E+02  0.50528853976E+02  0.29999982146E+02 0.  0.
         12    1    1    2    0    0 -0.17246677520E+02  0.27093687715E+02 -0.24932917116E+02  0.40659146024E+02  0.00000000000E+00 0. -1.
         11    1    3    3    0    0  0.11087962033E+02 -0.27421829619E+02  0.15738110220E+02  0.33505040744E+02  0.51100000000E-03 0. -1.
        -11    1    3    3    0    0  0.67329040178E+01 -0.39579216130E+01  0.11552579805E+01  0.78950466287E+01  0.51100000000E-03 0.  1.
        -12    1    3    3    0    0 -0.57418853019E+00  0.42860635171E+01  0.80395489146E+01  0.91287666030E+01  0.00000000000E+00 0.  1.
</event>
<event>
 7    1  0.1381607E-011  0.5052886E+02  0.7816164E-02  0.1300439E+00
        -11   -1    0    0    0    0  0.00000000000E+00  0.00000000000E+00  0.45593999997E+02  0.45594000000E+02  0.51100000000E-03 0.  1.
         11   -1    0    0    0    0 -0.00000000000E+00 -0.00000000000E+00 -0.45593999997E+02  0.45594000000E+02  0.51100000000E-03 0. -1.
    9900012    2    1    2    0    0  0.28952144030E+02  0.20796426246E+02  0.19556273713E+02  0.50528857977E+02  0.29999994306E+02 0.  0.
         12    1    1    2    0    0 -0.28952144030E+02 -0.20796426246E+02 -0.19556273713E+02  0.40659142023E+02  0.00000000000E+00 0. -1.
         11    1    3    3    0    0  0.24881800074E+02  0.17934597558E+02  0.79392098007E+01  0.31682563296E+02  0.51100000000E-03 0. -1.
        -11    1    3    3    0    0  0.82015089409E+01  0.47505233734E+01  0.10546145290E+02  0.14179330096E+02  0.51100000000E-03 0.  1.
         12    1    3    3    0    0 -0.41311649847E+01 -0.18886946852E+01  0.10709186225E+01  0.46669645853E+01  0.00000000000E+00 0. -1.
</event>
<event>
 7    1  0.1381607E-011  0.5052886E+02  0.7816164E-02  0.1300439E+00
        -11   -1    0    0    0    0  0.00000000000E+00  0.00000000000E+00  0.45593999997E+02  0.45594000000E+02  0.51100000000E-03 0.  1.
         11   -1    0    0    0    0 -0.00000000000E+00 -0.00000000000E+00 -0.45593999997E+02  0.45594000000E+02  0.51100000000E-03 0. -1.
    9900012    2    1    2    0    0 -0.40565736368E+02 -0.15104974541E+01  0.23032144889E+01  0.50528863676E+02  0.30000011629E+02 0.  0.
         12    1    1    2    0    0  0.40565736368E+02  0.15104974541E+01 -0.23032144889E+01  0.40659136324E+02  0.00000000000E+00 0. -1.
         11    1    3    3    0    0 -0.16034479337E+02  0.36940487098E+00 -0.96080535908E+01  0.18696408254E+02  0.51100000000E-03 0. -1.
        -11    1    3    3    0    0 -0.73594230576E+01  0.69430169388E+01  0.28862388406E+01  0.10521262608E+02  0.51100000000E-03 0.  1.
        -12    1    3    3    0    0 -0.17171833974E+02 -0.88229192638E+01  0.90250292391E+01  0.21311192814E+02  0.00000000000E+00 0.  1.
</event>
<event>
 7    1  0.1381607E-011  0.5052886E+02  0.7816164E-02  0.1300439E+00
        -11   -1    0    0    0    0  0.00000000000E+00  0.00000000000E+00  0.45593999997E+02  0.45594000000E+02  0.51100000000E-03 0.  1.
         11   -1    0    0    0    0 -0.00000000000E+00 -0.00000000000E+00 -0.45593999997E+02  0.45594000000E+02  0.51100000000E-03 0. -1.
    9900012    2    1    2    0    0  0.32737890123E+02  0.92392244247E+01  0.22271790697E+02  0.50528863529E+02  0.30000011184E+02 0.  0.
         12    1    1    2    0    0 -0.32737890123E+02 -0.92392244247E+01 -0.22271790697E+02  0.40659136471E+02  0.00000000000E+00 0. -1.
         11    1    3    3    0    0  0.11170827106E+02 -0.80272689721E-01  0.17819949213E+01  0.11312352899E+02  0.51100000000E-03 0. -1.
        -11    1    3    3    0    0  0.13513255272E+02 -0.63456842005E+01  0.13935382218E+02  0.20422307751E+02  0.51100000000E-03 0.  1.
         12    1    3    3    0    0  0.80538077443E+01  0.15665181315E+02  0.65544135573E+01  0.18794202880E+02  0.00000000000E+00 0. -1.
</event>
<event>
 7    1  0.1381607E-011  0.5052878E+02  0.7816164E-02  0.1300439E+00
        -11   -1    0    0    0    0  0.00000000000E+00  0.00000000000E+00  0.45593999997E+02  0.45594000000E+02  0.51100000000E-03 0. -1.
         11   -1    0    0    0    0 -0.00000000000E+00 -0.00000000000E+00 -0.45593999997E+02  0.45594000000E+02  0.51100000000E-03 0.  1.
    9900012    2    1    2    0    0 -0.36014882854E+02 -0.35779145351E+00  0.18867228014E+02  0.50528780939E+02  0.29999760140E+02 0.  0.
         12    1    1    2    0    0  0.36014882854E+02  0.35779145351E+00 -0.18867228014E+02  0.40659219061E+02  0.00000000000E+00 0. -1.
         11    1    3    3    0    0 -0.40434276477E+01 -0.44193975902E+01 -0.57253854820E+01  0.82861584212E+01  0.51100000000E-03 0. -1.
        -11    1    3    3    0    0 -0.74324030121E+01  0.27934026942E+01  0.12617998994E+02  0.14908306813E+02  0.51100000000E-03 0.  1.
        -12    1    3    3    0    0 -0.24539052195E+02  0.12682034425E+01  0.11974614502E+02  0.27334315705E+02  0.00000000000E+00 0.  1.
</event>
<event>
 7    1  0.1381607E-011  0.5052886E+02  0.7816164E-02  0.1300439E+00
        -11   -1    0    0    0    0  0.00000000000E+00  0.00000000000E+00  0.45593999997E+02  0.45594000000E+02  0.51100000000E-03 0. -1.
         11   -1    0    0    0    0 -0.00000000000E+00 -0.00000000000E+00 -0.45593999997E+02  0.45594000000E+02  0.51100000000E-03 0.  1.
    9900012    2    1    2    0    0 -0.19026390189E+02 -0.20279857139E+02 -0.29662929308E+02  0.50528861983E+02  0.30000006483E+02 0.  0.
         12    1    1    2    0    0  0.19026390189E+02  0.20279857139E+02  0.29662929308E+02  0.40659138017E+02  0.00000000000E+00 0. -1.
         11    1    3    3    0    0 -0.26339005700E+01  0.14370509913E+01 -0.83449532974E+01  0.88679644543E+01  0.51100000000E-03 0. -1.
        -11    1    3    3    0    0 -0.11408748027E+02  0.19783002840E+00 -0.11571756421E+01  0.11468989667E+02  0.51100000000E-03 0.  1.
        -12    1    3    3    0    0 -0.49837415918E+01 -0.21914738158E+02 -0.20160800368E+02  0.30191907861E+02  0.00000000000E+00 0.  1.
</event>
<event>
 7    1  0.1381607E-011  0.5052886E+02  0.7816164E-02  0.1300439E+00
        -11   -1    0    0    0    0  0.00000000000E+00  0.00000000000E+00  0.45593999997E+02  0.45594000000E+02  0.51100000000E-03 0.  1.
         11   -1    0    0    0    0 -0.00000000000E+00 -0.00000000000E+00 -0.45593999997E+02  0.45594000000E+02  0.51100000000E-03 0. -1.
    9900012    2    1    2    0    0  0.26793972958E+02 -0.15937928264E+02  0.26100402276E+02  0.50528861504E+02  0.30000005029E+02 0.  0.
         12    1    1    2    0    0 -0.26793972958E+02  0.15937928264E+02 -0.26100402276E+02  0.40659138496E+02  0.00000000000E+00 0. -1.
         11    1    3    3    0    0  0.11905755751E+02 -0.49305734110E+01  0.38106568503E+01  0.13437956692E+02  0.51100000000E-03 0. -1.
        -11    1    3    3    0    0  0.18334377175E+02 -0.11125463064E+02  0.24829026869E+02  0.32808625242E+02  0.51100000000E-03 0.  1.
        -12    1    3    3    0    0 -0.34461599677E+01  0.11810821096E+00 -0.25392814429E+01  0.42822795703E+01  0.00000000000E+00 0.  1.
</event>
<event>
 7    1  0.1381607E-011  0.5052885E+02  0.7816164E-02  0.1300439E+00
        -11   -1    0    0    0    0  0.00000000000E+00  0.00000000000E+00  0.45593999997E+02  0.45594000000E+02  0.51100000000E-03 0. -1.
         11   -1    0    0    0    0 -0.00000000000E+00 -0.00000000000E+00 -0.45593999997E+02  0.45594000000E+02  0.51100000000E-03 0.  1.
    9900012    2    1    2    0    0 -0.29600949570E+02 -0.25352870070E+02 -0.11583700168E+02  0.50528851634E+02  0.29999975028E+02 0.  0.
         12    1    1    2    0    0  0.29600949570E+02  0.25352870070E+02  0.11583700168E+02  0.40659148366E+02  0.00000000000E+00 0. -1.
         11    1    3    3    0    0 -0.27239677938E+02 -0.24564576227E+02 -0.17968157057E+01  0.36723929614E+02  0.51100000000E-03 0.  1.
        -11    1    3    3    0    0 -0.15915059357E+01 -0.30533405725E+01  0.28294502984E+00  0.34548282079E+01  0.51100000000E-03 0. -1.
        -12    1    3    3    0    0 -0.76976569641E+00  0.22650467297E+01 -0.10069829492E+02  0.10350093812E+02  0.00000000000E+00 0.  1.
</event>
<event>
 7    1  0.1381607E-011  0.5052886E+02  0.7816164E-02  0.1300439E+00
        -11   -1    0    0    0    0  0.00000000000E+00  0.00000000000E+00  0.45593999997E+02  0.45594000000E+02  0.51100000000E-03 0.  1.
         11   -1    0    0    0    0 -0.00000000000E+00 -0.00000000000E+00 -0.45593999997E+02  0.45594000000E+02  0.51100000000E-03 0. -1.
    9900012    2    1    2    0    0 -0.26274220510E+01  0.36423093307E+02  0.17877934275E+02  0.50528860724E+02  0.30000002657E+02 0.  0.
         12    1    1    2    0    0  0.26274220510E+01 -0.36423093307E+02 -0.17877934275E+02  0.40659139276E+02  0.00000000000E+00 0. -1.
         11    1    3    3    0    0 -0.52581520733E+01  0.77564672829E+00  0.44380882391E+01  0.69243352426E+01  0.51100000000E-03 0. -1.
        -11    1    3    3    0    0 -0.71977823196E+01  0.57456380780E+01  0.67688580895E+01  0.11429692356E+02  0.51100000000E-03 0.  1.
         12    1    3    3    0    0  0.98285123419E+01  0.29901808501E+02  0.66709879468E+01  0.32174833126E+02  0.00000000000E+00 0. -1.
</event>
<event>
 7    1  0.1381607E-011  0.5052886E+02  0.7816164E-02  0.1300439E+00
        -11   -1    0    0    0    0  0.00000000000E+00  0.00000000000E+00  0.45593999997E+02  0.45594000000E+02  0.51100000000E-03 0. -1.
         11   -1    0    0    0    0 -0.00000000000E+00 -0.00000000000E+00 -0.45593999997E+02  0.45594000000E+02  0.51100000000E-03 0.  1.
    9900012    2    1    2    0    0  0.27957430021E+02  0.95580952575E+01 -0.27931890709E+02  0.50528860843E+02  0.30000003020E+02 0.  0.
         12    1    1    2    0    0 -0.27957430021E+02 -0.95580952575E+01  0.27931890709E+02  0.40659139157E+02  0.00000000000E+00 0. -1.
         11    1    3    3    0    0  0.11054170058E+02  0.15990154236E+02 -0.38753675144E+01  0.19821659410E+02  0.51100000000E-03 0. -1.
        -11    1    3    3    0    0  0.38448547822E+01  0.64275517762E-01 -0.87853823119E+01  0.95900981364E+01  0.51100000000E-03 0.  1.
        -12    1    3    3    0    0  0.13058405181E+02 -0.64963344962E+01 -0.15271140883E+02  0.21117103297E+02  0.00000000000E+00 0.  1.
</event>
<event>
 7    1  0.1381607E-011  0.5052886E+02  0.7816164E-02  0.1300439E+00
        -11   -1    0    0    0    0  0.00000000000E+00  0.00000000000E+00  0.45593999997E+02  0.45594000000E+02  0.51100000000E-03 0.  1.
         11   -1    0    0    0    0 -0.00000000000E+00 -0.00000000000E+00 -0.45593999997E+02  0.45594000000E+02  0.51100000000E-03 0. -1.
    9900012    2    1    2    0    0  0.12004758870E+02  0.17510479578E+02  0.34676137841E+02  0.50528859993E+02  0.30000000434E+02 0.  0.
         12    1    1    2    0    0 -0.12004758870E+02 -0.17510479578E+02 -0.34676137841E+02  0.40659140007E+02  0.00000000000E+00 0. -1.
         11    1    3    3    0    0  0.10244665391E+01 -0.48500644201E+01  0.77090760590E+01  0.91652883486E+01  0.51100000000E-03 0. -1.
        -11    1    3    3    0    0  0.90533866276E+01  0.75838609070E+01  0.15652948153E+01  0.11913391784E+02  0.51100000000E-03 0.  1.
        -12    1    3    3    0    0  0.19269057031E+01  0.14776683091E+02  0.25401766966E+02  0.29450179860E+02  0.00000000000E+00 0.  1.
</event>
<event>
 7    1  0.1381607E-011  0.5052886E+02  0.7816164E-02  0.1300439E+00
        -11   -1    0    0    0    0  0.00000000000E+00  0.00000000000E+00  0.45593999997E+02  0.45594000000E+02  0.51100000000E-03 0.  1.
         11   -1    0    0    0    0 -0.00000000000E+00 -0.00000000000E+00 -0.45593999997E+02  0.45594000000E+02  0.51100000000E-03 0. -1.
    9900012    2    1    2    0    0  0.13024051753E+02  0.20538153447E+02  0.32584106468E+02  0.50528860002E+02  0.30000000461E+02 0.  0.
         12    1    1    2    0    0 -0.13024051753E+02 -0.20538153447E+02 -0.32584106468E+02  0.40659139998E+02  0.00000000000E+00 0. -1.
         11    1    3    3    0    0 -0.21214901483E+00  0.12162634089E+02  0.92712661382E+01  0.15294804715E+02  0.51100000000E-03 0. -1.
        -11    1    3    3    0    0  0.11460179031E+02  0.12559132161E+02  0.71498132060E+01  0.18444168000E+02  0.51100000000E-03 0.  1.
         12    1    3    3    0    0  0.17760217363E+01 -0.41836128036E+01  0.16163027124E+02  0.16789887287E+02  0.00000000000E+00 0. -1.
</event>
<event>
 7    1  0.1381607E-011  0.5052887E+02  0.7816164E-02  0.1300439E+00
        -11   -1    0    0    0    0  0.00000000000E+00  0.00000000000E+00  0.45593999997E+02  0.45594000000E+02  0.51100000000E-03 0.  1.
         11   -1    0    0    0    0 -0.00000000000E+00 -0.00000000000E+00 -0.45593999997E+02  0.45594000000E+02  0.51100000000E-03 0. -1.
    9900012    2    1    2    0    0 -0.38219572978E+02 -0.73076885164E+01  0.11790963860E+02  0.50528869429E+02  0.30000029115E+02 0.  0.
         12    1    1    2    0    0  0.38219572978E+02  0.73076885164E+01 -0.11790963860E+02  0.40659130571E+02  0.00000000000E+00 0. -1.
         11    1    3    3    0    0 -0.23717260394E+01 -0.10238816230E+02  0.55809379754E+01  0.11899802988E+02  0.51100000000E-03 0. -1.
        -11    1    3    3    0    0 -0.17748627982E+02 -0.48000321732E+01  0.40742188738E+01  0.18832242665E+02  0.51100000000E-03 0.  1.
        -12    1    3    3    0    0 -0.18099218957E+02  0.77311598866E+01  0.21358070111E+01  0.19796823776E+02  0.00000000000E+00 0.  1.
</event>
<event>
 7    1  0.1381607E-011  0.5052886E+02  0.7816164E-02  0.1300439E+00
        -11   -1    0    0    0    0  0.00000000000E+00  0.00000000000E+00  0.45593999997E+02  0.45594000000E+02  0.51100000000E-03 0.  1.
         11   -1    0    0    0    0 -0.00000000000E+00 -0.00000000000E+00 -0.45593999997E+02  0.45594000000E+02  0.51100000000E-03 0. -1.
    9900012    2    1    2    0    0  0.12615475153E+01  0.13850993177E+02  0.38206340420E+02  0.50528856350E+02  0.29999989360E+02 0.  0.
         12    1    1    2    0    0 -0.12615475153E+01 -0.13850993177E+02 -0.38206340420E+02  0.40659143650E+02  0.00000000000E+00 0. -1.
         11    1    3    3    0    0 -0.94608909330E+01 -0.35778501862E+01  0.10214343950E+02  0.14375057975E+02  0.51100000000E-03 0. -1.
        -11    1    3    3    0    0  0.22108732464E+01  0.84643969227E+01  0.18843123225E+02  0.20774919227E+02  0.51100000000E-03 0.  1.
        -12    1    3    3    0    0  0.85115652020E+01  0.89644464402E+01  0.91488732449E+01  0.15378879147E+02  0.00000000000E+00 0.  1.
</event>
<event>
 7    1  0.1381607E-011  0.5052889E+02  0.7816164E-02  0.1300439E+00
        -11   -1    0    0    0    0  0.00000000000E+00  0.00000000000E+00  0.45593999997E+02  0.45594000000E+02  0.51100000000E-03 0.  1.
         11   -1    0    0    0    0 -0.00000000000E+00 -0.00000000000E+00 -0.45593999997E+02  0.45594000000E+02  0.51100000000E-03 0. -1.
    9900012    2    1    2    0    0  0.14084170044E+02  0.59839119067E+00  0.38137135011E+02  0.50528892967E+02  0.30000100662E+02 0.  0.
         12    1    1    2    0    0 -0.14084170044E+02 -0.59839119067E+00 -0.38137135011E+02  0.40659107033E+02  0.00000000000E+00 0. -1.
         11    1    3    3    0    0  0.92502671598E+01  0.10997713521E+02  0.77298336639E+01  0.16317704310E+02  0.51100000000E-03 0. -1.
        -11    1    3    3    0    0  0.16564153369E+01 -0.57540690477E+00 -0.33157909039E+00  0.17845867389E+01  0.51100000000E-03 0.  1.
         12    1    3    3    0    0  0.31774875473E+01 -0.98239154252E+01  0.30738880438E+02  0.32426601918E+02  0.00000000000E+00 0. -1.
</event>
<event>
 7    1  0.1381607E-011  0.5052886E+02  0.7816164E-02  0.1300439E+00
        -11   -1    0    0    0    0  0.00000000000E+00  0.00000000000E+00  0.45593999997E+02  0.45594000000E+02  0.51100000000E-03 0.  1.
         11   -1    0    0    0    0 -0.00000000000E+00 -0.00000000000E+00 -0.45593999997E+02  0.45594000000E+02  0.51100000000E-03 0. -1.
    9900012    2    1    2    0    0  0.38093143298E+02  0.13105041118E+01  0.14154890055E+02  0.50528857119E+02  0.29999991699E+02 0.  0.
         12    1    1    2    0    0 -0.38093143298E+02 -0.13105041118E+01 -0.14154890055E+02  0.40659142881E+02  0.00000000000E+00 0. -1.
         11    1    3    3    0    0  0.25940897369E+02  0.55097680609E+01  0.13086933858E+02  0.29572885189E+02  0.51100000000E-03 0.  1.
        -11    1    3    3    0    0  0.10544248529E+02  0.44323998177E+01 -0.20857651589E+01  0.11626597170E+02  0.51100000000E-03 0. -1.
        -12    1    3    3    0    0  0.16079974004E+01 -0.86316637668E+01  0.31537213558E+01  0.93293747600E+01  0.00000000000E+00 0.  1.
</event>
<event>
 7    1  0.1381607E-011  0.5052886E+02  0.7816164E-02  0.1300439E+00
        -11   -1    0    0    0    0  0.00000000000E+00  0.00000000000E+00  0.45593999997E+02  0.45594000000E+02  0.51100000000E-03 0.  1.
         11   -1    0    0    0    0 -0.00000000000E+00 -0.00000000000E+00 -0.45593999997E+02  0.45594000000E+02  0.51100000000E-03 0. -1.
    9900012    2    1    2    0    0 -0.61687990627E+01 -0.33572374064E+02  0.22090886857E+02  0.50528860015E+02  0.30000000502E+02 0.  0.
         12    1    1    2    0    0  0.61687990627E+01  0.33572374064E+02 -0.22090886857E+02  0.40659139985E+02  0.00000000000E+00 0. -1.
         11    1    3    3    0    0 -0.73954878408E+01 -0.19913872852E+02  0.24529218813E+02  0.32449008432E+02  0.51100000000E-03 0. -1.
        -11    1    3    3    0    0  0.56252640685E+00 -0.44852326639E+01  0.46371482852E+01  0.64758700178E+01  0.51100000000E-03 0.  1.
         12    1    3    3    0    0  0.66416237129E+00 -0.91732685483E+01 -0.70754802420E+01  0.11603981565E+02  0.00000000000E+00 0. -1.
</event>
<event>
 7    1  0.1381607E-011  0.5052886E+02  0.7816164E-02  0.1300439E+00
        -11   -1    0    0    0    0  0.00000000000E+00  0.00000000000E+00  0.45593999997E+02  0.45594000000E+02  0.51100000000E-03 0.  1.
         11   -1    0    0    0    0 -0.00000000000E+00 -0.00000000000E+00 -0.45593999997E+02  0.45594000000E+02  0.51100000000E-03 0. -1.
    9900012    2    1    2    0    0 -0.29124268149E+02 -0.27204168112E+02  0.80545670178E+01  0.50528858251E+02  0.29999995141E+02 0.  0.
         12    1    1    2    0    0  0.29124268149E+02  0.27204168112E+02 -0.80545670178E+01  0.40659141749E+02  0.00000000000E+00 0. -1.
         11    1    3    3    0    0  0.34936408731E+01  0.15270732082E+00  0.52762737895E+00  0.35365572225E+01  0.51100000000E-03 0. -1.
        -11    1    3    3    0    0 -0.23586424791E+02 -0.11030236198E+02  0.10543564088E+02  0.28091854494E+02  0.51100000000E-03 0.  1.
         12    1    3    3    0    0 -0.90314842319E+01 -0.16326639235E+02 -0.30166244495E+01  0.18900446534E+02  0.00000000000E+00 0. -1.
</event>
<event>
 7    1  0.1381607E-011  0.5052876E+02  0.7816164E-02  0.1300439E+00
        -11   -1    0    0    0    0  0.00000000000E+00  0.00000000000E+00  0.45593999997E+02  0.45594000000E+02  0.51100000000E-03 0.  1.
         11   -1    0    0    0    0 -0.00000000000E+00 -0.00000000000E+00 -0.45593999997E+02  0.45594000000E+02  0.51100000000E-03 0. -1.
    9900012    2    1    2    0    0 -0.11469487716E+02  0.38765806354E+02 -0.43401407571E+01  0.50528761043E+02  0.29999699665E+02 0.  0.
         12    1    1    2    0    0  0.11469487716E+02 -0.38765806354E+02  0.43401407571E+01  0.40659238957E+02  0.00000000000E+00 0. -1.
         11    1    3    3    0    0 -0.23453637195E+01  0.15583586387E+01 -0.83357778856E+01  0.87985456663E+01  0.51100000000E-03 0. -1.
        -11    1    3    3    0    0 -0.31419646165E+01  0.17659251426E+02 -0.60800195926E+01  0.18939053331E+02  0.51100000000E-03 0.  1.
        -12    1    3    3    0    0 -0.59821593798E+01  0.19548196290E+02  0.10075656721E+02  0.22791162046E+02  0.00000000000E+00 0.  1.
</event>
<event>
 7    1  0.1381607E-011  0.5052885E+02  0.7816164E-02  0.1300439E+00
        -11   -1    0    0    0    0  0.00000000000E+00  0.00000000000E+00  0.45593999997E+02  0.45594000000E+02  0.51100000000E-03 0. -1.
         11   -1    0    0    0    0 -0.00000000000E+00 -0.00000000000E+00 -0.45593999997E+02  0.45594000000E+02  0.51100000000E-03 0.  1.
    9900012    2    1    2    0    0  0.10239759756E+02  0.23932485883E+02 -0.31233790913E+02  0.50528852749E+02  0.29999978415E+02 0.  0.
         12    1    1    2    0    0 -0.10239759756E+02 -0.23932485883E+02  0.31233790913E+02  0.40659147251E+02  0.00000000000E+00 0. -1.
         11    1    3    3    0    0 -0.93693000957E+00  0.22162295194E+02 -0.16195198845E+02  0.27465062024E+02  0.51100000000E-03 0. -1.
        -11    1    3    3    0    0  0.46137364142E+01  0.63009943847E+01 -0.12417461165E+02  0.14669097995E+02  0.51100000000E-03 0.  1.
         12    1    3    3    0    0  0.65629533512E+01 -0.45308036955E+01 -0.26211309028E+01  0.83946927297E+01  0.00000000000E+00 0. -1.
</event>
<event>
 7    1  0.1381607E-011  0.5052886E+02  0.7816164E-02  0.1300439E+00
        -11   -1    0    0    0    0  0.00000000000E+00  0.00000000000E+00  0.45593999997E+02  0.45594000000E+02  0.51100000000E-03 0.  1.
         11   -1    0    0    0    0 -0.00000000000E+00 -0.00000000000E+00 -0.45593999997E+02  0.45594000000E+02  0.51100000000E-03 0. -1.
    9900012    2    1    2    0    0 -0.80964346826E+01  0.31521595031E+02  0.24372159771E+02  0.50528863514E+02  0.30000011137E+02 0.  0.
         12    1    1    2    0    0  0.80964346826E+01 -0.31521595031E+02 -0.24372159771E+02  0.40659136486E+02  0.00000000000E+00 0. -1.
         11    1    3    3    0    0 -0.63190348355E+01  0.22706902155E+02  0.23812480983E+02  0.33504743806E+02  0.51100000000E-03 0.  1.
        -11    1    3    3    0    0  0.85921562840E+00  0.12254327448E+02  0.20229099529E+01  0.12449857735E+02  0.51100000000E-03 0. -1.
         12    1    3    3    0    0 -0.26366154756E+01 -0.34396345713E+01 -0.14632311647E+01  0.45742619723E+01  0.00000000000E+00 0. -1.
</event>
<event>
 7    1  0.1381607E-011  0.5052886E+02  0.7816164E-02  0.1300439E+00
        -11   -1    0    0    0    0  0.00000000000E+00  0.00000000000E+00  0.45593999997E+02  0.45594000000E+02  0.51100000000E-03 0.  1.
         11   -1    0    0    0    0 -0.00000000000E+00 -0.00000000000E+00 -0.45593999997E+02  0.45594000000E+02  0.51100000000E-03 0. -1.
    9900012    2    1    2    0    0 -0.34683305257E+02 -0.12696765234E+02  0.17000770146E+02  0.50528859619E+02  0.29999999297E+02 0.  0.
         12    1    1    2    0    0  0.34683305257E+02  0.12696765234E+02 -0.17000770146E+02  0.40659140381E+02  0.00000000000E+00 0. -1.
         11    1    3    3    0    0 -0.16382093762E+02 -0.92691719604E+00  0.12388851469E+02  0.20560053806E+02  0.51100000000E-03 0.  1.
        -11    1    3    3    0    0 -0.14986991961E+01  0.51713932456E+01  0.27228177169E+01  0.60335017992E+01  0.51100000000E-03 0. -1.
         12    1    3    3    0    0 -0.16802512299E+02 -0.16941241283E+02  0.18891009603E+01  0.23935304013E+02  0.00000000000E+00 0. -1.
</event>
<event>
 7    1  0.1381607E-011  0.5052891E+02  0.7816164E-02  0.1300439E+00
        -11   -1    0    0    0    0  0.00000000000E+00  0.00000000000E+00  0.45593999997E+02  0.45594000000E+02  0.51100000000E-03 0.  1.
         11   -1    0    0    0    0 -0.00000000000E+00 -0.00000000000E+00 -0.45593999997E+02  0.45594000000E+02  0.51100000000E-03 0. -1.
    9900012    2    1    2    0    0  0.32676974394E+01  0.12060455800E+02  0.38691461859E+02  0.50528909240E+02  0.30000150124E+02 0.  0.
         12    1    1    2    0    0 -0.32676974394E+01 -0.12060455800E+02 -0.38691461859E+02  0.40659090760E+02  0.00000000000E+00 0. -1.
         11    1    3    3    0    0  0.68597372966E+00  0.18884533173E+02  0.32234039957E+02  0.37364816142E+02  0.51100000000E-03 0.  1.
        -11    1    3    3    0    0  0.50859419253E+01 -0.11399233839E+01  0.35480338620E+01  0.63051387880E+01  0.51100000000E-03 0. -1.
        -12    1    3    3    0    0 -0.25042182156E+01 -0.56841539895E+01  0.29093880401E+01  0.68589543091E+01  0.00000000000E+00 0.  1.
</event>
<event>
 7    1  0.1381607E-011  0.5052886E+02  0.7816164E-02  0.1300439E+00
        -11   -1    0    0    0    0  0.00000000000E+00  0.00000000000E+00  0.45593999997E+02  0.45594000000E+02  0.51100000000E-03 0. -1.
         11   -1    0    0    0    0 -0.00000000000E+00 -0.00000000000E+00 -0.45593999997E+02  0.45594000000E+02  0.51100000000E-03 0.  1.
    9900012    2    1    2    0    0 -0.36173670889E+02 -0.63054604250E+01 -0.17460585205E+02  0.50528864096E+02  0.30000012906E+02 0.  0.
         12    1    1    2    0    0  0.36173670889E+02  0.63054604250E+01  0.17460585205E+02  0.40659135904E+02  0.00000000000E+00 0. -1.
         11    1    3    3    0    0 -0.47790628913E+01  0.12070072486E+01 -0.79144645190E+01  0.93238971198E+01  0.51100000000E-03 0. -1.
        -11    1    3    3    0    0 -0.24967250757E+02 -0.97096840855E+01 -0.16517384823E+02  0.31471663080E+02  0.51100000000E-03 0.  1.
         12    1    3    3    0    0 -0.64273572408E+01  0.21972164119E+01  0.69712641369E+01  0.97333038959E+01  0.00000000000E+00 0. -1.
</event>
<event>
 7    1  0.1381607E-011  0.5052884E+02  0.7816164E-02  0.1300439E+00
        -11   -1    0    0    0    0  0.00000000000E+00  0.00000000000E+00  0.45593999997E+02  0.45594000000E+02  0.51100000000E-03 0.  1.
         11   -1    0    0    0    0 -0.00000000000E+00 -0.00000000000E+00 -0.45593999997E+02  0.45594000000E+02  0.51100000000E-03 0. -1.
    9900012    2    1    2    0    0  0.35058914624E+02 -0.16727580084E+02 -0.12009476271E+02  0.50528844200E+02  0.29999952430E+02 0.  0.
         12    1    1    2    0    0 -0.35058914624E+02  0.16727580084E+02  0.12009476271E+02  0.40659155800E+02  0.00000000000E+00 0. -1.
         11    1    3    3    0    0  0.18654420037E+02  0.24423056991E+01 -0.31674287852E+01  0.19078386971E+02  0.51100000000E-03 0. -1.
        -11    1    3    3    0    0  0.12669937321E+02 -0.88047008783E+01  0.25092799822E+01  0.15631588389E+02  0.51100000000E-03 0.  1.
         12    1    3    3    0    0  0.37345572654E+01 -0.10365184905E+02 -0.11351327468E+02  0.15818868840E+02  0.00000000000E+00 0. -1.
</event>
<event>
 7    1  0.1381607E-011  0.5052886E+02  0.7816164E-02  0.1300439E+00
        -11   -1    0    0    0    0  0.00000000000E+00  0.00000000000E+00  0.45593999997E+02  0.45594000000E+02  0.51100000000E-03 0.  1.
         11   -1    0    0    0    0 -0.00000000000E+00 -0.00000000000E+00 -0.45593999997E+02  0.45594000000E+02  0.51100000000E-03 0. -1.
    9900012    2    1    2    0    0  0.84143079125E+01  0.27768457360E+02  0.28482941187E+02  0.50528859079E+02  0.29999997657E+02 0.  0.
         12    1    1    2    0    0 -0.84143079125E+01 -0.27768457360E+02 -0.28482941187E+02  0.40659140921E+02  0.00000000000E+00 0. -1.
         11    1    3    3    0    0  0.64403005386E+00 -0.27991366416E+01  0.36208391143E+01  0.46217330950E+01  0.51100000000E-03 0. -1.
        -11    1    3    3    0    0 -0.68890299154E+01  0.89433394578E+01  0.12993972539E+02  0.17212942121E+02  0.51100000000E-03 0.  1.
        -12    1    3    3    0    0  0.14659307774E+02  0.21624254544E+02  0.11868129533E+02  0.28694183863E+02  0.00000000000E+00 0.  1.
</event>
<event>
 7    1  0.1381607E-011  0.5052886E+02  0.7816164E-02  0.1300439E+00
        -11   -1    0    0    0    0  0.00000000000E+00  0.00000000000E+00  0.45593999997E+02  0.45594000000E+02  0.51100000000E-03 0.  1.
         11   -1    0    0    0    0 -0.00000000000E+00 -0.00000000000E+00 -0.45593999997E+02  0.45594000000E+02  0.51100000000E-03 0. -1.
    9900012    2    1    2    0    0  0.22231949109E+02 -0.15665039544E+02  0.30224376952E+02  0.50528856044E+02  0.29999988431E+02 0.  0.
         12    1    1    2    0    0 -0.22231949109E+02  0.15665039544E+02 -0.30224376952E+02  0.40659143956E+02  0.00000000000E+00 0. -1.
         11    1    3    3    0    0  0.27810836706E+01 -0.15660084164E+01 -0.14024354622E+01  0.34862062805E+01  0.51100000000E-03 0. -1.
        -11    1    3    3    0    0  0.43490394661E+01 -0.16582612693E+02  0.80631258936E+01  0.18944951503E+02  0.51100000000E-03 0.  1.
        -12    1    3    3    0    0  0.15101825973E+02  0.24835815654E+01  0.23563686520E+02  0.28097698260E+02  0.00000000000E+00 0.  1.
</event>
<event>
 7    1  0.1381607E-011  0.5052886E+02  0.7816164E-02  0.1300439E+00
        -11   -1    0    0    0    0  0.00000000000E+00  0.00000000000E+00  0.45593999997E+02  0.45594000000E+02  0.51100000000E-03 0.  1.
         11   -1    0    0    0    0 -0.00000000000E+00 -0.00000000000E+00 -0.45593999997E+02  0.45594000000E+02  0.51100000000E-03 0. -1.
    9900012    2    1    2    0    0  0.14364982797E+02 -0.21361611148E+02  0.31472128041E+02  0.50528855825E+02  0.29999987767E+02 0.  0.
         12    1    1    2    0    0 -0.14364982797E+02  0.21361611148E+02 -0.31472128041E+02  0.40659144175E+02  0.00000000000E+00 0. -1.
         11    1    3    3    0    0  0.24003225327E+01 -0.71832847424E+01 -0.34685554667E+01  0.83301863867E+01  0.51100000000E-03 0. -1.
        -11    1    3    3    0    0  0.33644976324E+01 -0.13911251907E+02  0.16454160771E+02  0.21807846773E+02  0.51100000000E-03 0.  1.
         12    1    3    3    0    0  0.86001626323E+01 -0.26707449858E+00  0.18486522737E+02  0.20390822666E+02  0.00000000000E+00 0. -1.
</event>
<event>
 7    1  0.1381607E-011  0.5052886E+02  0.7816164E-02  0.1300439E+00
        -11   -1    0    0    0    0  0.00000000000E+00  0.00000000000E+00  0.45593999997E+02  0.45594000000E+02  0.51100000000E-03 0.  1.
         11   -1    0    0    0    0 -0.00000000000E+00 -0.00000000000E+00 -0.45593999997E+02  0.45594000000E+02  0.51100000000E-03 0. -1.
    9900012    2    1    2    0    0 -0.22752911148E+02 -0.18008152937E+02  0.28481168176E+02  0.50528862299E+02  0.30000007444E+02 0.  0.
         12    1    1    2    0    0  0.22752911148E+02  0.18008152937E+02 -0.28481168176E+02  0.40659137701E+02  0.00000000000E+00 0. -1.
         11    1    3    3    0    0 -0.38361122086E+00  0.29424311068E+01 -0.21002755988E+01  0.36354114264E+01  0.51100000000E-03 0. -1.
        -11    1    3    3    0    0 -0.38354282038E+01  0.83762719950E+00  0.12383074429E+02  0.12990483494E+02  0.51100000000E-03 0.  1.
        -12    1    3    3    0    0 -0.18533871724E+02 -0.21788211243E+02  0.18198369345E+02  0.33902967378E+02  0.00000000000E+00 0.  1.
</event>
<event>
 7    1  0.1381607E-011  0.5052886E+02  0.7816164E-02  0.1300439E+00
        -11   -1    0    0    0    0  0.00000000000E+00  0.00000000000E+00  0.45593999997E+02  0.45594000000E+02  0.51100000000E-03 0.  1.
         11   -1    0    0    0    0 -0.00000000000E+00 -0.00000000000E+00 -0.45593999997E+02  0.45594000000E+02  0.51100000000E-03 0. -1.
    9900012    2    1    2    0    0 -0.23669519357E+02  0.12910478479E+02  0.30434171925E+02  0.50528862996E+02  0.30000009562E+02 0.  0.
         12    1    1    2    0    0  0.23669519357E+02 -0.12910478479E+02 -0.30434171925E+02  0.40659137004E+02  0.00000000000E+00 0. -1.
         11    1    3    3    0    0 -0.22323179937E+02  0.12063109144E+02  0.21854546051E+02  0.33488268812E+02  0.51100000000E-03 0. -1.
        -11    1    3    3    0    0 -0.45040583227E+01 -0.18678509498E+01  0.11134118265E+02  0.12154998904E+02  0.51100000000E-03 0.  1.
        -12    1    3    3    0    0  0.31577189024E+01  0.27152202844E+01 -0.25544923909E+01  0.48855952795E+01  0.00000000000E+00 0.  1.
</event>
<event>
 7    1  0.1381607E-011  0.5052886E+02  0.7816164E-02  0.1300439E+00
        -11   -1    0    0    0    0  0.00000000000E+00  0.00000000000E+00  0.45593999997E+02  0.45594000000E+02  0.51100000000E-03 0. -1.
         11   -1    0    0    0    0 -0.00000000000E+00 -0.00000000000E+00 -0.45593999997E+02  0.45594000000E+02  0.51100000000E-03 0.  1.
    9900012    2    1    2    0    0  0.11251356144E+02  0.36405457515E+02 -0.14185041212E+02  0.50528859009E+02  0.29999997443E+02 0.  0.
         12    1    1    2    0    0 -0.11251356144E+02 -0.36405457515E+02  0.14185041212E+02  0.40659140991E+02  0.00000000000E+00 0. -1.
         11    1    3    3    0    0  0.29948859887E+01  0.12451203200E+02 -0.12678911113E+02  0.18021004148E+02  0.51100000000E-03 0. -1.
        -11    1    3    3    0    0  0.91714705220E+01  0.26638433244E+02 -0.43322674883E+01  0.28504219671E+02  0.51100000000E-03 0.  1.
         12    1    3    3    0    0 -0.91500036666E+00 -0.26841789284E+01  0.28261373894E+01  0.40036351899E+01  0.00000000000E+00 0. -1.
</event>
<event>
 7    1  0.1381607E-011  0.5052883E+02  0.7816164E-02  0.1300439E+00
        -11   -1    0    0    0    0  0.00000000000E+00  0.00000000000E+00  0.45593999997E+02  0.45594000000E+02  0.51100000000E-03 0. -1.
         11   -1    0    0    0    0 -0.00000000000E+00 -0.00000000000E+00 -0.45593999997E+02  0.45594000000E+02  0.51100000000E-03 0.  1.
    9900012    2    1    2    0    0 -0.80662156096E+01 -0.73937133185E+01 -0.39159123409E+02  0.50528834034E+02  0.29999921529E+02 0.  0.
         12    1    1    2    0    0  0.80662156096E+01  0.73937133185E+01  0.39159123409E+02  0.40659165966E+02  0.00000000000E+00 0. -1.
         11    1    3    3    0    0 -0.75478333055E+01 -0.16746712238E+01 -0.10886677117E+01  0.78076570726E+01  0.51100000000E-03 0. -1.
        -11    1    3    3    0    0 -0.16629991398E+01  0.26717466032E+01 -0.32347519910E+02  0.32500243701E+02  0.51100000000E-03 0.  1.
         12    1    3    3    0    0  0.11446168357E+01 -0.83907886978E+01 -0.57229357873E+01  0.10220933260E+02  0.00000000000E+00 0. -1.
</event>
<event>
 7    1  0.1381607E-011  0.5052885E+02  0.7816164E-02  0.1300439E+00
        -11   -1    0    0    0    0  0.00000000000E+00  0.00000000000E+00  0.45593999997E+02  0.45594000000E+02  0.51100000000E-03 0. -1.
         11   -1    0    0    0    0 -0.00000000000E+00 -0.00000000000E+00 -0.45593999997E+02  0.45594000000E+02  0.51100000000E-03 0.  1.
    9900012    2    1    2    0    0  0.29302716453E+01  0.21724792628E+02 -0.34243442177E+02  0.50528850491E+02  0.29999971553E+02 0.  0.
         12    1    1    2    0    0 -0.29302716453E+01 -0.21724792628E+02  0.34243442177E+02  0.40659149509E+02  0.00000000000E+00 0. -1.
         11    1    3    3    0    0 -0.65835053443E+01  0.89802597888E+01 -0.47336719709E+01  0.12099390856E+02  0.51100000000E-03 0. -1.
        -11    1    3    3    0    0 -0.44684658298E+01  0.86368923886E+01 -0.88609905503E+01  0.13155996762E+02  0.51100000000E-03 0.  1.
        -12    1    3    3    0    0  0.13982242819E+02  0.41076404501E+01 -0.20648779656E+02  0.25273462873E+02  0.00000000000E+00 0.  1.
</event>
<event>
 7    1  0.1381607E-011  0.5052890E+02  0.7816164E-02  0.1300439E+00
        -11   -1    0    0    0    0  0.00000000000E+00  0.00000000000E+00  0.45593999997E+02  0.45594000000E+02  0.51100000000E-03 0.  1.
         11   -1    0    0    0    0 -0.00000000000E+00 -0.00000000000E+00 -0.45593999997E+02  0.45594000000E+02  0.51100000000E-03 0. -1.
    9900012    2    1    2    0    0  0.14005473020E+02 -0.37811156872E+02  0.52273762040E+01  0.50528901135E+02  0.30000125489E+02 0.  0.
         12    1    1    2    0    0 -0.14005473020E+02  0.37811156872E+02 -0.52273762040E+01  0.40659098865E+02  0.00000000000E+00 0. -1.
         11    1    3    3    0    0 -0.56206283548E+01 -0.67990522851E+01 -0.52483815258E+00  0.88370826875E+01  0.51100000000E-03 0. -1.
        -11    1    3    3    0    0  0.67839307732E+01 -0.25419115986E+02 -0.59053169636E+00  0.26315430876E+02  0.51100000000E-03 0.  1.
        -12    1    3    3    0    0  0.12842170602E+02 -0.55929886016E+01  0.63427460530E+01  0.15376387572E+02  0.00000000000E+00 0.  1.
</event>
<event>
 7    1  0.1381607E-011  0.5052885E+02  0.7816164E-02  0.1300439E+00
        -11   -1    0    0    0    0  0.00000000000E+00  0.00000000000E+00  0.45593999997E+02  0.45594000000E+02  0.51100000000E-03 0. -1.
         11   -1    0    0    0    0 -0.00000000000E+00 -0.00000000000E+00 -0.45593999997E+02  0.45594000000E+02  0.51100000000E-03 0.  1.
    9900012    2    1    2    0    0 -0.11269862636E+02  0.15770462316E+02 -0.35741417784E+02  0.50528853051E+02  0.29999979332E+02 0.  0.
         12    1    1    2    0    0  0.11269862636E+02 -0.15770462316E+02  0.35741417784E+02  0.40659146949E+02  0.00000000000E+00 0. -1.
         11    1    3    3    0    0 -0.49302458864E+01  0.58229161020E+01 -0.22111799397E+02  0.23391138264E+02  0.51100000000E-03 0.  1.
        -11    1    3    3    0    0  0.70536939626E+01  0.54924349290E+01 -0.78076109455E+01  0.11869297743E+02  0.51100000000E-03 0. -1.
        -12    1    3    3    0    0 -0.13393310712E+02  0.44551112846E+01 -0.58220074407E+01  0.15268417044E+02  0.00000000000E+00 0.  1.
</event>
<event>
 7    1  0.1381607E-011  0.5052886E+02  0.7816164E-02  0.1300439E+00
        -11   -1    0    0    0    0  0.00000000000E+00  0.00000000000E+00  0.45593999997E+02  0.45594000000E+02  0.51100000000E-03 0.  1.
         11   -1    0    0    0    0 -0.00000000000E+00 -0.00000000000E+00 -0.45593999997E+02  0.45594000000E+02  0.51100000000E-03 0. -1.
    9900012    2    1    2    0    0 -0.12372397976E-01 -0.20095097548E+02  0.35346181920E+02  0.50528859885E+02  0.30000000107E+02 0.  0.
         12    1    1    2    0    0  0.12372397976E-01  0.20095097548E+02 -0.35346181920E+02  0.40659140115E+02  0.00000000000E+00 0. -1.
         11    1    3    3    0    0 -0.15790996632E+01  0.20149786653E+01  0.12101724988E+02  0.12369536883E+02  0.51100000000E-03 0. -1.
        -11    1    3    3    0    0 -0.23556842690E+01 -0.23182469166E+02  0.24589252095E+02  0.33876355232E+02  0.51100000000E-03 0.  1.
         12    1    3    3    0    0  0.39224115342E+01  0.10723929526E+01 -0.13447951621E+01  0.42829677697E+01  0.00000000000E+00 0. -1.
</event>
<event>
 7    1  0.1381607E-011  0.5052881E+02  0.7816164E-02  0.1300439E+00
        -11   -1    0    0    0    0  0.00000000000E+00  0.00000000000E+00  0.45593999997E+02  0.45594000000E+02  0.51100000000E-03 0. -1.
         11   -1    0    0    0    0 -0.00000000000E+00 -0.00000000000E+00 -0.45593999997E+02  0.45594000000E+02  0.51100000000E-03 0.  1.
    9900012    2    1    2    0    0  0.21531393445E+02 -0.21017833427E+01 -0.34426030631E+02  0.50528806920E+02  0.29999839115E+02 0.  0.
         12    1    1    2    0    0 -0.21531393445E+02  0.21017833427E+01  0.34426030631E+02  0.40659193080E+02  0.00000000000E+00 0. -1.
         11    1    3    3    0    0  0.10444353603E+02 -0.92381649401E+01 -0.79190211357E+01  0.16035557666E+02  0.51100000000E-03 0. -1.
        -11    1    3    3    0    0  0.10369286777E+02  0.59107126843E+01 -0.50019494291E+01  0.12941334207E+02  0.51100000000E-03 0.  1.
        -12    1    3    3    0    0  0.71775306386E+00  0.12256689131E+01 -0.21505060066E+02  0.21551915047E+02  0.00000000000E+00 0.  1.
</event>
<event>
 7    1  0.1381607E-011  0.5052888E+02  0.7816164E-02  0.1300439E+00
        -11   -1    0    0    0    0  0.00000000000E+00  0.00000000000E+00  0.45593999997E+02  0.45594000000E+02  0.51100000000E-03 0.  1.
         11   -1    0    0    0    0 -0.00000000000E+00 -0.00000000000E+00 -0.45593999997E+02  0.45594000000E+02  0.51100000000E-03 0. -1.
    9900012    2    1    2    0    0  0.27234049868E+02  0.19980446926E+02  0.22632993202E+02  0.50528879095E+02  0.30000058496E+02 0.  0.
         12    1    1    2    0    0 -0.27234049868E+02 -0.19980446926E+02 -0.22632993202E+02  0.40659120905E+02  0.00000000000E+00 0. -1.
         11    1    3    3    0    0  0.20806817130E+02  0.13775858368E+02  0.10182831066E+02  0.26951585512E+02  0.51100000000E-03 0. -1.
        -11    1    3    3    0    0 -0.41092182226E+01  0.63448983481E+01  0.10376129026E+02  0.12837735909E+02  0.51100000000E-03 0.  1.
         12    1    3    3    0    0  0.10536450961E+02 -0.14030979046E+00  0.20740331106E+01  0.10739557674E+02  0.00000000000E+00 0. -1.
</event>
<event>
 7    1  0.1381607E-011  0.5052886E+02  0.7816164E-02  0.1300439E+00
        -11   -1    0    0    0    0  0.00000000000E+00  0.00000000000E+00  0.45593999997E+02  0.45594000000E+02  0.51100000000E-03 0.  1.
         11   -1    0    0    0    0 -0.00000000000E+00 -0.00000000000E+00 -0.45593999997E+02  0.45594000000E+02  0.51100000000E-03 0. -1.
    9900012    2    1    2    0    0  0.13332568766E+01  0.39676767488E+02  0.87830773122E+01  0.50528857126E+02  0.29999991721E+02 0.  0.
         12    1    1    2    0    0 -0.13332568766E+01 -0.39676767488E+02 -0.87830773122E+01  0.40659142874E+02  0.00000000000E+00 0. -1.
         11    1    3    3    0    0  0.19842007097E+01  0.16721351740E+02  0.71857845624E-01  0.16838818850E+02  0.51100000000E-03 0.  1.
        -11    1    3    3    0    0 -0.10200800757E+02  0.15279031325E+02 -0.47301729706E+00  0.18377401338E+02  0.51100000000E-03 0. -1.
        -12    1    3    3    0    0  0.95498569236E+01  0.76763844227E+01  0.91842367636E+01  0.15312636938E+02  0.00000000000E+00 0.  1.
</event>
<event>
 7    1  0.1381607E-011  0.5052886E+02  0.7816164E-02  0.1300439E+00
        -11   -1    0    0    0    0  0.00000000000E+00  0.00000000000E+00  0.45593999997E+02  0.45594000000E+02  0.51100000000E-03 0.  1.
         11   -1    0    0    0    0 -0.00000000000E+00 -0.00000000000E+00 -0.45593999997E+02  0.45594000000E+02  0.51100000000E-03 0. -1.
    9900012    2    1    2    0    0 -0.16969773635E+01  0.24942399732E+02  0.32064976128E+02  0.50528859199E+02  0.29999998022E+02 0.  0.
         12    1    1    2    0    0  0.16969773635E+01 -0.24942399732E+02 -0.32064976128E+02  0.40659140801E+02  0.00000000000E+00 0. -1.
         11    1    3    3    0    0 -0.53866600186E+01  0.21105749331E+01  0.15739020689E+02  0.16768643512E+02  0.51100000000E-03 0. -1.
        -11    1    3    3    0    0 -0.17848245646E+01  0.12023959398E+01  0.10475724079E+02  0.10694491571E+02  0.51100000000E-03 0.  1.
         12    1    3    3    0    0  0.54745072197E+01  0.21629428859E+02  0.58502313600E+01  0.23065724117E+02  0.00000000000E+00 0. -1.
</event>
<event>
 7    1  0.1381607E-011  0.5052885E+02  0.7816164E-02  0.1300439E+00
        -11   -1    0    0    0    0  0.00000000000E+00  0.00000000000E+00  0.45593999997E+02  0.45594000000E+02  0.51100000000E-03 0.  1.
         11   -1    0    0    0    0 -0.00000000000E+00 -0.00000000000E+00 -0.45593999997E+02  0.45594000000E+02  0.51100000000E-03 0. -1.
    9900012    2    1    2    0    0 -0.27852698578E+01 -0.72490881050E+01  0.39910645789E+02  0.50528847847E+02  0.29999963516E+02 0.  0.
         12    1    1    2    0    0  0.27852698578E+01  0.72490881050E+01 -0.39910645789E+02  0.40659152153E+02  0.00000000000E+00 0. -1.
         11    1    3    3    0    0 -0.51951455469E+01 -0.14760096178E+01  0.42210955548E+01  0.68546181213E+01  0.51100000000E-03 0. -1.
        -11    1    3    3    0    0  0.13078853476E+01 -0.67592028412E+01  0.39234109302E+02  0.39833562734E+02  0.51100000000E-03 0.  1.
         12    1    3    3    0    0  0.11019903415E+01  0.98612435399E+00 -0.35445590679E+01  0.38406669916E+01  0.00000000000E+00 0. -1.
</event>
<event>
 7    1  0.1381607E-011  0.5052887E+02  0.7816164E-02  0.1300439E+00
        -11   -1    0    0    0    0  0.00000000000E+00  0.00000000000E+00  0.45593999997E+02  0.45594000000E+02  0.51100000000E-03 0. -1.
         11   -1    0    0    0    0 -0.00000000000E+00 -0.00000000000E+00 -0.45593999997E+02  0.45594000000E+02  0.51100000000E-03 0.  1.
    9900012    2    1    2    0    0  0.17114887150E+02  0.35963796852E+02 -0.81762454431E+01  0.50528867745E+02  0.30000023998E+02 0.  0.
         12    1    1    2    0    0 -0.17114887150E+02 -0.35963796852E+02  0.81762454431E+01  0.40659132255E+02  0.00000000000E+00 0. -1.
         11    1    3    3    0    0  0.25501232104E+01  0.32661483524E+01  0.82872473212E+01  0.92654909137E+01  0.51100000000E-03 0. -1.
        -11    1    3    3    0    0  0.64268739468E+01  0.10148958913E+02  0.29133054043E+00  0.12016278521E+02  0.51100000000E-03 0.  1.
        -12    1    3    3    0    0  0.81378899924E+01  0.22548689587E+02 -0.16754823305E+02  0.29247098310E+02  0.00000000000E+00 0.  1.
</event>
<event>
 7    1  0.1381607E-011  0.5052886E+02  0.7816164E-02  0.1300439E+00
        -11   -1    0    0    0    0  0.00000000000E+00  0.00000000000E+00  0.45593999997E+02  0.45594000000E+02  0.51100000000E-03 0.  1.
         11   -1    0    0    0    0 -0.00000000000E+00 -0.00000000000E+00 -0.45593999997E+02  0.45594000000E+02  0.51100000000E-03 0. -1.
    9900012    2    1    2    0    0 -0.11939323406E+02  0.17205146445E+02  0.34851127351E+02  0.50528860987E+02  0.30000003458E+02 0.  0.
         12    1    1    2    0    0  0.11939323406E+02 -0.17205146445E+02 -0.34851127351E+02  0.40659139013E+02  0.00000000000E+00 0. -1.
         11    1    3    3    0    0  0.46175191174E+01  0.21207269704E+01 -0.17120867401E+01  0.53619219455E+01  0.51100000000E-03 0. -1.
        -11    1    3    3    0    0  0.17051334312E+01  0.56374616778E+01  0.95308632858E+01  0.11203830123E+02  0.51100000000E-03 0.  1.
        -12    1    3    3    0    0 -0.18261975954E+02  0.94469577968E+01  0.27032350806E+02  0.33963108919E+02  0.00000000000E+00 0.  1.
</event>
<event>
 7    1  0.1381607E-011  0.5052887E+02  0.7816164E-02  0.1300439E+00
        -11   -1    0    0    0    0  0.00000000000E+00  0.00000000000E+00  0.45593999997E+02  0.45594000000E+02  0.51100000000E-03 0.  1.
         11   -1    0    0    0    0 -0.00000000000E+00 -0.00000000000E+00 -0.45593999997E+02  0.45594000000E+02  0.51100000000E-03 0. -1.
    9900012    2    1    2    0    0 -0.22402475540E+02 -0.33793402548E+02  0.30495054623E+01  0.50528874952E+02  0.30000045904E+02 0.  0.
         12    1    1    2    0    0  0.22402475540E+02  0.33793402548E+02 -0.30495054623E+01  0.40659125048E+02  0.00000000000E+00 0. -1.
         11    1    3    3    0    0  0.82609451506E-01 -0.34284285524E+01 -0.44321325990E+01  0.56039937809E+01  0.51100000000E-03 0. -1.
        -11    1    3    3    0    0 -0.64183254768E+01 -0.25445462788E+02 -0.66547877221E+00  0.26250892188E+02  0.51100000000E-03 0.  1.
        -12    1    3    3    0    0 -0.16066759515E+02 -0.49195112077E+01  0.81471168335E+01  0.18673988983E+02  0.00000000000E+00 0.  1.
</event>
<event>
 7    1  0.1381607E-011  0.5052887E+02  0.7816164E-02  0.1300439E+00
        -11   -1    0    0    0    0  0.00000000000E+00  0.00000000000E+00  0.45593999997E+02  0.45594000000E+02  0.51100000000E-03 0. -1.
         11   -1    0    0    0    0 -0.00000000000E+00 -0.00000000000E+00 -0.45593999997E+02  0.45594000000E+02  0.51100000000E-03 0.  1.
    9900012    2    1    2    0    0 -0.12418211266E+02 -0.19481586865E+02 -0.33457747977E+02  0.50528866985E+02  0.30000021688E+02 0.  0.
         12    1    1    2    0    0  0.12418211266E+02  0.19481586865E+02  0.33457747977E+02  0.40659133015E+02  0.00000000000E+00 0. -1.
         11    1    3    3    0    0 -0.13138816901E+02  0.16686647009E-01 -0.16280593614E+02  0.20920958790E+02  0.51100000000E-03 0. -1.
        -11    1    3    3    0    0 -0.54577117257E+01 -0.11054692483E+02 -0.14041100448E+02  0.18685431363E+02  0.51100000000E-03 0.  1.
         12    1    3    3    0    0  0.61783173606E+01 -0.84435810290E+01 -0.31360539155E+01  0.10922476833E+02  0.00000000000E+00 0. -1.
</event>
<event>
 7    1  0.1381607E-011  0.5052887E+02  0.7816164E-02  0.1300439E+00
        -11   -1    0    0    0    0  0.00000000000E+00  0.00000000000E+00  0.45593999997E+02  0.45594000000E+02  0.51100000000E-03 0. -1.
         11   -1    0    0    0    0 -0.00000000000E+00 -0.00000000000E+00 -0.45593999997E+02  0.45594000000E+02  0.51100000000E-03 0.  1.
    9900012    2    1    2    0    0 -0.13458803268E+02 -0.24248183193E+02 -0.29732995632E+02  0.50528870609E+02  0.30000032703E+02 0.  0.
         12    1    1    2    0    0  0.13458803268E+02  0.24248183193E+02  0.29732995632E+02  0.40659129391E+02  0.00000000000E+00 0. -1.
         11    1    3    3    0    0 -0.17277134690E+02 -0.18978987715E+02 -0.12168652533E+02  0.28403828307E+02  0.51100000000E-03 0. -1.
        -11    1    3    3    0    0 -0.84223255846E+00 -0.76632470355E+01 -0.13285729685E+02  0.15360511852E+02  0.51100000000E-03 0.  1.
        -12    1    3    3    0    0  0.46605639801E+01  0.23940515570E+01 -0.42786134133E+01  0.67645304502E+01  0.00000000000E+00 0.  1.
</event>
<event>
 7    1  0.1381607E-011  0.5052888E+02  0.7816164E-02  0.1300439E+00
        -11   -1    0    0    0    0  0.00000000000E+00  0.00000000000E+00  0.45593999997E+02  0.45594000000E+02  0.51100000000E-03 0.  1.
         11   -1    0    0    0    0 -0.00000000000E+00 -0.00000000000E+00 -0.45593999997E+02  0.45594000000E+02  0.51100000000E-03 0. -1.
    9900012    2    1    2    0    0  0.17479810620E+02  0.32266513487E+02 -0.17506930592E+02  0.50528876907E+02  0.30000051847E+02 0.  0.
         12    1    1    2    0    0 -0.17479810620E+02 -0.32266513487E+02  0.17506930592E+02  0.40659123093E+02  0.00000000000E+00 0. -1.
         11    1    3    3    0    0  0.72898488867E+01  0.63248766307E+01 -0.16119220783E+02  0.18787635298E+02  0.51100000000E-03 0. -1.
        -11    1    3    3    0    0  0.79717787135E+01  0.30342048124E+01 -0.18239703556E+01  0.87225296113E+01  0.51100000000E-03 0.  1.
        -12    1    3    3    0    0  0.22181830199E+01  0.22907432044E+02  0.43626054646E+00  0.23018711997E+02  0.00000000000E+00 0.  1.
</event>
<event>
 7    1  0.1381607E-011  0.5052886E+02  0.7816164E-02  0.1300439E+00
        -11   -1    0    0    0    0  0.00000000000E+00  0.00000000000E+00  0.45593999997E+02  0.45594000000E+02  0.51100000000E-03 0.  1.
         11   -1    0    0    0    0 -0.00000000000E+00 -0.00000000000E+00 -0.45593999997E+02  0.45594000000E+02  0.51100000000E-03 0. -1.
    9900012    2    1    2    0    0  0.85150539257E+01  0.94249723581E+01  0.38624203533E+02  0.50528863931E+02  0.30000012405E+02 0.  0.
         12    1    1    2    0    0 -0.85150539257E+01 -0.94249723581E+01 -0.38624203533E+02  0.40659136069E+02  0.00000000000E+00 0. -1.
         11    1    3    3    0    0  0.44438411119E+01  0.83524797398E+01  0.70768088836E+01  0.11814942483E+02  0.51100000000E-03 0. -1.
        -11    1    3    3    0    0  0.67945834003E+01  0.92875432482E+01  0.91481421999E+01  0.14700793487E+02  0.51100000000E-03 0.  1.
         12    1    3    3    0    0 -0.27233705865E+01 -0.82150506299E+01  0.22399252450E+02  0.24013127962E+02  0.00000000000E+00 0. -1.
</event>
<event>
 7    1  0.4647643E-011  0.5052886E+02  0.7816164E-02  0.1300439E+00
        -11   -1    0    0    0    0  0.00000000000E+00  0.00000000000E+00  0.45593999997E+02  0.45594000000E+02  0.51100000000E-03 0. -1.
         11   -1    0    0    0    0 -0.00000000000E+00 -0.00000000000E+00 -0.45593999997E+02  0.45594000000E+02  0.51100000000E-03 0.  1.
    9900012    2    1    2    0    0 -0.41317878190E-01  0.40516860152E+02  0.33982617579E+01  0.50528857772E+02  0.29999993685E+02 0.  0.
         12    1    1    2    0    0  0.41317878190E-01 -0.40516860152E+02 -0.33982617579E+01  0.40659142228E+02  0.00000000000E+00 0. -1.
         11    1    3    3    0    0 -0.10127647776E+02  0.30393560309E+01  0.76118200749E+00  0.10601242044E+02  0.51100000000E-03 0. -1.
        -11    1    3    3    0    0  0.30146120836E+00  0.65046703876E+01 -0.26280189180E+01  0.70219726150E+01  0.51100000000E-03 0.  1.
         12    1    3    3    0    0  0.97848686897E+01  0.30972833733E+02  0.52650986684E+01  0.32905643114E+02  0.00000000000E+00 0. -1.
</event>
<event>
 7    1  0.1381607E-011  0.5052886E+02  0.7816164E-02  0.1300439E+00
        -11   -1    0    0    0    0  0.00000000000E+00  0.00000000000E+00  0.45593999997E+02  0.45594000000E+02  0.51100000000E-03 0. -1.
         11   -1    0    0    0    0 -0.00000000000E+00 -0.00000000000E+00 -0.45593999997E+02  0.45594000000E+02  0.51100000000E-03 0.  1.
    9900012    2    1    2    0    0 -0.19873973179E+02  0.64393438821E+01 -0.34881592396E+02  0.50528862679E+02  0.30000008600E+02 0.  0.
         12    1    1    2    0    0  0.19873973179E+02 -0.64393438821E+01  0.34881592396E+02  0.40659137321E+02  0.00000000000E+00 0. -1.
         11    1    3    3    0    0 -0.99014679207E+01  0.41741777125E+01 -0.19573594485E+02  0.22329093755E+02  0.51100000000E-03 0. -1.
        -11    1    3    3    0    0 -0.13622721884E+02 -0.52618142160E+01 -0.12924434230E+02  0.19501442019E+02  0.51100000000E-03 0.  1.
         12    1    3    3    0    0  0.36502166259E+01  0.75269803857E+01 -0.23835636809E+01  0.86983269060E+01  0.00000000000E+00 0. -1.
</event>
<event>
 7    1  0.1381607E-011  0.5052886E+02  0.7816164E-02  0.1300439E+00
        -11   -1    0    0    0    0  0.00000000000E+00  0.00000000000E+00  0.45593999997E+02  0.45594000000E+02  0.51100000000E-03 0.  1.
         11   -1    0    0    0    0 -0.00000000000E+00 -0.00000000000E+00 -0.45593999997E+02  0.45594000000E+02  0.51100000000E-03 0. -1.
    9900012    2    1    2    0    0  0.12458988457E+02  0.13202632768E+02  0.36381723366E+02  0.50528859571E+02  0.29999999151E+02 0.  0.
         12    1    1    2    0    0 -0.12458988457E+02 -0.13202632768E+02 -0.36381723366E+02  0.40659140429E+02  0.00000000000E+00 0. -1.
         11    1    3    3    0    0  0.74653791444E+01  0.17123423431E+02  0.12889418527E+02  0.22695387769E+02  0.51100000000E-03 0. -1.
        -11    1    3    3    0    0  0.43148366800E+01 -0.44286194772E+00  0.23878214770E+02  0.24268973674E+02  0.51100000000E-03 0.  1.
        -12    1    3    3    0    0  0.67877263217E+00 -0.34779287147E+01 -0.38590993158E+00  0.35644981282E+01  0.00000000000E+00 0.  1.
</event>
