<event>
 7    1  0.1634068E-009  0.4778728E+02  0.7816164E-02  0.1312668E+00
        -11   -1    0    0    0    0  0.00000000000E+00  0.00000000000E+00  0.45593999997E+02  0.45594000000E+02  0.51100000000E-03 0.  1.
         11   -1    0    0    0    0 -0.00000000000E+00 -0.00000000000E+00 -0.45593999997E+02  0.45594000000E+02  0.51100000000E-03 0. -1.
    9900012    2    1    2    0    0 -0.23598974882E+02 -0.35539487895E+02  0.79784597621E+01  0.47787278399E+02  0.20000033533E+02 0.  0.
         12    1    1    2    0    0  0.23598974882E+02  0.35539487895E+02 -0.79784597621E+01  0.43400721601E+02  0.00000000000E+00 0. -1.
         11    1    3    3    0    0  0.50270382985E+00 -0.25108843273E+01  0.49567371858E+01  0.55791123878E+01  0.51100000000E-03 0. -1.
        -11    1    3    3    0    0 -0.64749888381E+01 -0.17210234100E+02  0.55588948180E+00  0.18396376046E+02  0.51100000000E-03 0.  1.
        -12    1    3    3    0    0 -0.17626689874E+02 -0.15818369467E+02  0.24658330945E+01  0.23811789965E+02  0.00000000000E+00 0.  1.
</event>
<event>
 7    1  0.1634068E-009  0.4778727E+02  0.7816164E-02  0.1312668E+00
        -11   -1    0    0    0    0  0.00000000000E+00  0.00000000000E+00  0.45593999997E+02  0.45594000000E+02  0.51100000000E-03 0.  1.
         11   -1    0    0    0    0 -0.00000000000E+00 -0.00000000000E+00 -0.45593999997E+02  0.45594000000E+02  0.51100000000E-03 0. -1.
    9900012    2    1    2    0    0 -0.34466910465E+02  0.14049142281E+02  0.22322126728E+02  0.47787266625E+02  0.19999979850E+02 0.  0.
         12    1    1    2    0    0  0.34466910465E+02 -0.14049142281E+02 -0.22322126728E+02  0.43400733375E+02  0.00000000000E+00 0. -1.
         11    1    3    3    0    0  0.20747230546E+01  0.16535976080E+01  0.27669210751E+01  0.38333684012E+01  0.51100000000E-03 0. -1.
        -11    1    3    3    0    0 -0.33029495305E+01  0.24068372428E+01  0.46242595350E+01  0.61713951115E+01  0.51100000000E-03 0.  1.
        -12    1    3    3    0    0 -0.33238683989E+02  0.99887074304E+01  0.14930946118E+02  0.37782503112E+02  0.00000000000E+00 0.  1.
</event>
<event>
 7    1  0.1634068E-009  0.4778727E+02  0.7816164E-02  0.1312668E+00
        -11   -1    0    0    0    0  0.00000000000E+00  0.00000000000E+00  0.45593999997E+02  0.45594000000E+02  0.51100000000E-03 0.  1.
         11   -1    0    0    0    0 -0.00000000000E+00 -0.00000000000E+00 -0.45593999997E+02  0.45594000000E+02  0.51100000000E-03 0. -1.
    9900012    2    1    2    0    0 -0.38643524080E+02  0.18752292951E+02  0.62171362347E+01  0.47787271583E+02  0.20000002454E+02 0.  0.
         12    1    1    2    0    0  0.38643524080E+02 -0.18752292951E+02 -0.62171362347E+01  0.43400728417E+02  0.00000000000E+00 0. -1.
         11    1    3    3    0    0 -0.44276552096E+00  0.22186117266E+01 -0.20241817970E+01  0.30357192736E+01  0.51100000000E-03 0. -1.
        -11    1    3    3    0    0 -0.25348253185E+02  0.33919067787E+01  0.39774344124E+01  0.25881633564E+02  0.51100000000E-03 0.  1.
         12    1    3    3    0    0 -0.12852505373E+02  0.13141774445E+02  0.42638836193E+01  0.18869918745E+02  0.00000000000E+00 0. -1.
</event>
<event>
 7    1  0.1634068E-009  0.4778727E+02  0.7816164E-02  0.1312668E+00
        -11   -1    0    0    0    0  0.00000000000E+00  0.00000000000E+00  0.45593999997E+02  0.45594000000E+02  0.51100000000E-03 0.  1.
         11   -1    0    0    0    0 -0.00000000000E+00 -0.00000000000E+00 -0.45593999997E+02  0.45594000000E+02  0.51100000000E-03 0. -1.
    9900012    2    1    2    0    0 -0.53495114662E+01 -0.12967547461E+02  0.41071260834E+02  0.47787273894E+02  0.20000012991E+02 0.  0.
         12    1    1    2    0    0  0.53495114662E+01  0.12967547461E+02 -0.41071260834E+02  0.43400726106E+02  0.00000000000E+00 0. -1.
         11    1    3    3    0    0 -0.47414815071E+01 -0.11090700480E+02  0.15614542739E+02  0.19730667227E+02  0.51100000000E-03 0. -1.
        -11    1    3    3    0    0  0.11656049146E+01 -0.45966654767E+01  0.24058362584E+02  0.24521271966E+02  0.51100000000E-03 0.  1.
         12    1    3    3    0    0 -0.17736348737E+01  0.27198184954E+01  0.13983555106E+01  0.35353347009E+01  0.00000000000E+00 0. -1.
</event>
<event>
 7    1  0.1634068E-009  0.4778721E+02  0.7816164E-02  0.1312668E+00
        -11   -1    0    0    0    0  0.00000000000E+00  0.00000000000E+00  0.45593999997E+02  0.45594000000E+02  0.51100000000E-03 0.  1.
         11   -1    0    0    0    0 -0.00000000000E+00 -0.00000000000E+00 -0.45593999997E+02  0.45594000000E+02  0.51100000000E-03 0. -1.
    9900012    2    1    2    0    0  0.17732318018E+02 -0.37864088405E+02  0.11640640225E+02  0.47787207405E+02  0.19999709839E+02 0.  0.
         12    1    1    2    0    0 -0.17732318018E+02  0.37864088405E+02 -0.11640640225E+02  0.43400792595E+02  0.00000000000E+00 0. -1.
         11    1    3    3    0    0  0.10847963907E+02 -0.16959817319E+02  0.71941420512E+01  0.21379181568E+02  0.51100000000E-03 0.  1.
        -11    1    3    3    0    0  0.40736415447E+01 -0.42002520638E+00 -0.22523265505E+01  0.46737513584E+01  0.51100000000E-03 0. -1.
         12    1    3    3    0    0  0.28107125670E+01 -0.20484245880E+02  0.66988247240E+01  0.21734274478E+02  0.00000000000E+00 0. -1.
</event>
<event>
 7    1  0.1634068E-009  0.4778727E+02  0.7816164E-02  0.1312668E+00
        -11   -1    0    0    0    0  0.00000000000E+00  0.00000000000E+00  0.45593999997E+02  0.45594000000E+02  0.51100000000E-03 0.  1.
         11   -1    0    0    0    0 -0.00000000000E+00 -0.00000000000E+00 -0.45593999997E+02  0.45594000000E+02  0.51100000000E-03 0. -1.
    9900012    2    1    2    0    0 -0.36292510764E+02 -0.13890968795E+02  0.19326618411E+02  0.47787268084E+02  0.19999986503E+02 0.  0.
         12    1    1    2    0    0  0.36292510764E+02  0.13890968795E+02 -0.19326618411E+02  0.43400731916E+02  0.00000000000E+00 0. -1.
         11    1    3    3    0    0 -0.22254082099E+01 -0.44672200486E+01  0.11818251512E+01  0.51288602645E+01  0.51100000000E-03 0. -1.
        -11    1    3    3    0    0 -0.34176711877E+02 -0.54254976543E+01  0.16111663579E+02  0.38171577949E+02  0.51100000000E-03 0.  1.
        -12    1    3    3    0    0  0.10960932288E+00 -0.39982510918E+01  0.20331296802E+01  0.44868298712E+01  0.00000000000E+00 0.  1.
</event>
<event>
 7    1  0.1634068E-009  0.4778727E+02  0.7816164E-02  0.1312668E+00
        -11   -1    0    0    0    0  0.00000000000E+00  0.00000000000E+00  0.45593999997E+02  0.45594000000E+02  0.51100000000E-03 0.  1.
         11   -1    0    0    0    0 -0.00000000000E+00 -0.00000000000E+00 -0.45593999997E+02  0.45594000000E+02  0.51100000000E-03 0. -1.
    9900012    2    1    2    0    0 -0.16687442877E+02 -0.42632046448E-01  0.40064333961E+02  0.47787269326E+02  0.19999992165E+02 0.  0.
         12    1    1    2    0    0  0.16687442877E+02  0.42632046448E-01 -0.40064333961E+02  0.43400730674E+02  0.00000000000E+00 0. -1.
         11    1    3    3    0    0 -0.79732059865E+01 -0.22419286545E+00  0.10967770633E+02  0.13561499514E+02  0.51100000000E-03 0. -1.
        -11    1    3    3    0    0  0.15595175266E+01 -0.12906414892E+01 -0.10940244216E+01  0.23010302183E+01  0.51100000000E-03 0.  1.
        -12    1    3    3    0    0 -0.10273754418E+02  0.14722023082E+01  0.30190587750E+02  0.31924739594E+02  0.00000000000E+00 0.  1.
</event>
<event>
 7    1  0.1634068E-009  0.4778727E+02  0.7816164E-02  0.1312668E+00
        -11   -1    0    0    0    0  0.00000000000E+00  0.00000000000E+00  0.45593999997E+02  0.45594000000E+02  0.51100000000E-03 0. -1.
         11   -1    0    0    0    0 -0.00000000000E+00 -0.00000000000E+00 -0.45593999997E+02  0.45594000000E+02  0.51100000000E-03 0.  1.
    9900012    2    1    2    0    0 -0.31501754806E+00  0.37932701915E+02  0.21086350616E+02  0.47787270825E+02  0.19999999001E+02 0.  0.
         12    1    1    2    0    0  0.31501754806E+00 -0.37932701915E+02 -0.21086350616E+02  0.43400729175E+02  0.00000000000E+00 0. -1.
         11    1    3    3    0    0  0.11960606970E+01  0.94947250809E+00  0.49169408512E+01  0.51486276647E+01  0.51100000000E-03 0. -1.
        -11    1    3    3    0    0 -0.38526024664E+00 -0.27477649982E+00 -0.13655234689E+01  0.14451927856E+01  0.51100000000E-03 0.  1.
         12    1    3    3    0    0 -0.11258179984E+01  0.37258005907E+02  0.17534933233E+02  0.41193450375E+02  0.00000000000E+00 0. -1.
</event>
<event>
 7    1  0.1634068E-009  0.4778727E+02  0.7816164E-02  0.1312668E+00
        -11   -1    0    0    0    0  0.00000000000E+00  0.00000000000E+00  0.45593999997E+02  0.45594000000E+02  0.51100000000E-03 0.  1.
         11   -1    0    0    0    0 -0.00000000000E+00 -0.00000000000E+00 -0.45593999997E+02  0.45594000000E+02  0.51100000000E-03 0. -1.
    9900012    2    1    2    0    0  0.42104011154E+01 -0.43140540687E+02 -0.21884777045E+01  0.47787272321E+02  0.20000005823E+02 0.  0.
         12    1    1    2    0    0 -0.42104011154E+01  0.43140540687E+02  0.21884777045E+01  0.43400727679E+02  0.00000000000E+00 0. -1.
         11    1    3    3    0    0 -0.25149759362E+01 -0.13993795302E+02 -0.29383202823E+01  0.14518441282E+02  0.51100000000E-03 0. -1.
        -11    1    3    3    0    0 -0.22455671454E+01 -0.11158702020E+02 -0.48950035169E+01  0.12390329385E+02  0.51100000000E-03 0.  1.
         12    1    3    3    0    0  0.89709441971E+01 -0.17988043365E+02  0.56448460948E+01  0.20878501654E+02  0.00000000000E+00 0. -1.
</event>
<event>
 7    1  0.1634068E-009  0.4778727E+02  0.7816164E-02  0.1312668E+00
        -11   -1    0    0    0    0  0.00000000000E+00  0.00000000000E+00  0.45593999997E+02  0.45594000000E+02  0.51100000000E-03 0. -1.
         11   -1    0    0    0    0 -0.00000000000E+00 -0.00000000000E+00 -0.45593999997E+02  0.45594000000E+02  0.51100000000E-03 0.  1.
    9900012    2    1    2    0    0 -0.18263352595E+02 -0.25227865966E+01 -0.39290057916E+02  0.47787272458E+02  0.20000006443E+02 0.  0.
         12    1    1    2    0    0  0.18263352595E+02  0.25227865966E+01  0.39290057916E+02  0.43400727542E+02  0.00000000000E+00 0. -1.
         11    1    3    3    0    0 -0.30315412825E+00  0.59777368111E+01 -0.62029895439E+01  0.86198793119E+01  0.51100000000E-03 0. -1.
        -11    1    3    3    0    0 -0.12504833041E+00  0.62380933898E+00 -0.21476096528E+00  0.67148917316E+00  0.51100000000E-03 0.  1.
        -12    1    3    3    0    0 -0.17835150136E+02 -0.91243327467E+01 -0.32872307406E+02  0.38495903973E+02  0.00000000000E+00 0.  1.
</event>
<event>
 7    1  0.1634068E-009  0.4778728E+02  0.7816164E-02  0.1312668E+00
        -11   -1    0    0    0    0  0.00000000000E+00  0.00000000000E+00  0.45593999997E+02  0.45594000000E+02  0.51100000000E-03 0.  1.
         11   -1    0    0    0    0 -0.00000000000E+00 -0.00000000000E+00 -0.45593999997E+02  0.45594000000E+02  0.51100000000E-03 0. -1.
    9900012    2    1    2    0    0 -0.41010356935E+02  0.80331996457E+01  0.11714994673E+02  0.47787276818E+02  0.20000026326E+02 0.  0.
         12    1    1    2    0    0  0.41010356935E+02 -0.80331996457E+01 -0.11714994673E+02  0.43400723182E+02  0.00000000000E+00 0. -1.
         11    1    3    3    0    0 -0.32303965616E+00 -0.15419252872E+01  0.14457052212E+01  0.21382123511E+01  0.51100000000E-03 0. -1.
        -11    1    3    3    0    0 -0.87844405751E+01  0.89920700795E+01  0.29204539996E+01  0.12905532626E+02  0.51100000000E-03 0.  1.
        -12    1    3    3    0    0 -0.31902876704E+02  0.58305485329E+00  0.73488354526E+01  0.32743531841E+02  0.00000000000E+00 0.  1.
</event>
<event>
 7    1  0.1634068E-009  0.4778727E+02  0.7816164E-02  0.1312668E+00
        -11   -1    0    0    0    0  0.00000000000E+00  0.00000000000E+00  0.45593999997E+02  0.45594000000E+02  0.51100000000E-03 0.  1.
         11   -1    0    0    0    0 -0.00000000000E+00 -0.00000000000E+00 -0.45593999997E+02  0.45594000000E+02  0.51100000000E-03 0. -1.
    9900012    2    1    2    0    0  0.37500629633E+02  0.21840264761E+02 -0.57381048926E+00  0.47787266755E+02  0.19999980444E+02 0.  0.
         12    1    1    2    0    0 -0.37500629633E+02 -0.21840264761E+02  0.57381048926E+00  0.43400733245E+02  0.00000000000E+00 0. -1.
         11    1    3    3    0    0  0.11723734377E+01  0.36100354563E+01 -0.44816615097E+01  0.58729980097E+01  0.51100000000E-03 0. -1.
        -11    1    3    3    0    0  0.19804582442E+02  0.15068520938E+02  0.16503387159E+01  0.24940036630E+02  0.51100000000E-03 0.  1.
        -12    1    3    3    0    0  0.16523673754E+02  0.31617083665E+01  0.22575123045E+01  0.16974232116E+02  0.00000000000E+00 0.  1.
</event>
<event>
 7    1  0.1634068E-009  0.4778727E+02  0.7816164E-02  0.1312668E+00
        -11   -1    0    0    0    0  0.00000000000E+00  0.00000000000E+00  0.45593999997E+02  0.45594000000E+02  0.51100000000E-03 0.  1.
         11   -1    0    0    0    0 -0.00000000000E+00 -0.00000000000E+00 -0.45593999997E+02  0.45594000000E+02  0.51100000000E-03 0. -1.
    9900012    2    1    2    0    0  0.27128441940E+01  0.13735377889E+02  0.41080449351E+02  0.47787269036E+02  0.19999990842E+02 0.  0.
         12    1    1    2    0    0 -0.27128441940E+01 -0.13735377889E+02 -0.41080449351E+02  0.43400730964E+02  0.00000000000E+00 0. -1.
         11    1    3    3    0    0 -0.91284225884E+00 -0.26178613449E+01  0.85952565624E+01  0.90313296166E+01  0.51100000000E-03 0. -1.
        -11    1    3    3    0    0  0.75234228844E+01  0.14453209721E+02  0.28686864904E+02  0.32991413753E+02  0.51100000000E-03 0.  1.
         12    1    3    3    0    0 -0.38977364316E+01  0.19000295128E+01  0.37983278838E+01  0.57645256659E+01  0.00000000000E+00 0. -1.
</event>
<event>
 7    1  0.1634068E-009  0.4778727E+02  0.7816164E-02  0.1312668E+00
        -11   -1    0    0    0    0  0.00000000000E+00  0.00000000000E+00  0.45593999997E+02  0.45594000000E+02  0.51100000000E-03 0. -1.
         11   -1    0    0    0    0 -0.00000000000E+00 -0.00000000000E+00 -0.45593999997E+02  0.45594000000E+02  0.51100000000E-03 0.  1.
    9900012    2    1    2    0    0 -0.24801519459E+02  0.34970392504E+02  0.67512513642E+01  0.47787272882E+02  0.20000008379E+02 0.  0.
         12    1    1    2    0    0  0.24801519459E+02 -0.34970392504E+02 -0.67512513642E+01  0.43400727118E+02  0.00000000000E+00 0. -1.
         11    1    3    3    0    0  0.18990215901E+01  0.92171207345E+01 -0.18438123245E+01  0.95896424221E+01  0.51100000000E-03 0. -1.
        -11    1    3    3    0    0 -0.13480309308E+02  0.11476972440E+02  0.30444870091E+01  0.17964090204E+02  0.51100000000E-03 0.  1.
         12    1    3    3    0    0 -0.13220231741E+02  0.14276299329E+02  0.55505766796E+01  0.20233540256E+02  0.00000000000E+00 0. -1.
</event>
<event>
 7    1  0.1634068E-009  0.4778724E+02  0.7816164E-02  0.1312668E+00
        -11   -1    0    0    0    0  0.00000000000E+00  0.00000000000E+00  0.45593999997E+02  0.45594000000E+02  0.51100000000E-03 0.  1.
         11   -1    0    0    0    0 -0.00000000000E+00 -0.00000000000E+00 -0.45593999997E+02  0.45594000000E+02  0.51100000000E-03 0. -1.
    9900012    2    1    2    0    0 -0.22749815913E+02 -0.23894777561E+02  0.28197713492E+02  0.47787244650E+02  0.19999879655E+02 0.  0.
         12    1    1    2    0    0  0.22749815913E+02  0.23894777561E+02 -0.28197713492E+02  0.43400755350E+02  0.00000000000E+00 0. -1.
         11    1    3    3    0    0 -0.48556515194E+01 -0.28355595218E+00  0.13624729733E+02  0.14466893799E+02  0.51100000000E-03 0. -1.
        -11    1    3    3    0    0 -0.34999989069E+01 -0.77810913675E+01  0.34185991155E+01  0.91914196614E+01  0.51100000000E-03 0.  1.
        -12    1    3    3    0    0 -0.14394165487E+02 -0.15830130242E+02  0.11154384644E+02  0.24128931189E+02  0.00000000000E+00 0.  1.
</event>
<event>
 7    1  0.1634068E-009  0.4778727E+02  0.7816164E-02  0.1312668E+00
        -11   -1    0    0    0    0  0.00000000000E+00  0.00000000000E+00  0.45593999997E+02  0.45594000000E+02  0.51100000000E-03 0.  1.
         11   -1    0    0    0    0 -0.00000000000E+00 -0.00000000000E+00 -0.45593999997E+02  0.45594000000E+02  0.51100000000E-03 0. -1.
    9900012    2    1    2    0    0 -0.11466799665E+02 -0.10912920754E+02  0.40410940914E+02  0.47787268675E+02  0.19999989198E+02 0.  0.
         12    1    1    2    0    0  0.11466799665E+02  0.10912920754E+02 -0.40410940914E+02  0.43400731325E+02  0.00000000000E+00 0. -1.
         11    1    3    3    0    0 -0.51675125936E+01 -0.27070127506E+01  0.20792902020E+02  0.21595737522E+02  0.51100000000E-03 0. -1.
        -11    1    3    3    0    0 -0.10292328466E+02 -0.44456131605E+01  0.16292277803E+02  0.19777103375E+02  0.51100000000E-03 0.  1.
         12    1    3    3    0    0  0.39930413946E+01 -0.37602948433E+01  0.33257610906E+01  0.64144277780E+01  0.00000000000E+00 0. -1.
</event>
<event>
 7    1  0.1634068E-009  0.4778729E+02  0.7816164E-02  0.1312668E+00
        -11   -1    0    0    0    0  0.00000000000E+00  0.00000000000E+00  0.45593999997E+02  0.45594000000E+02  0.51100000000E-03 0. -1.
         11   -1    0    0    0    0 -0.00000000000E+00 -0.00000000000E+00 -0.45593999997E+02  0.45594000000E+02  0.51100000000E-03 0.  1.
    9900012    2    1    2    0    0 -0.25364591989E+02 -0.32639139602E+02 -0.13226711820E+02  0.47787287260E+02  0.20000073935E+02 0.  0.
         12    1    1    2    0    0  0.25364591989E+02  0.32639139602E+02  0.13226711820E+02  0.43400712740E+02  0.00000000000E+00 0. -1.
         11    1    3    3    0    0 -0.75354692607E+01 -0.93738131006E+01 -0.94649513336E+01  0.15304802287E+02  0.51100000000E-03 0.  1.
        -11    1    3    3    0    0  0.19030252751E+01 -0.45054258593E+01 -0.16999600140E+01  0.51778597588E+01  0.51100000000E-03 0. -1.
        -12    1    3    3    0    0 -0.19732148004E+02 -0.18759900642E+02 -0.20618004724E+01  0.27304625215E+02  0.00000000000E+00 0.  1.
</event>
<event>
 7    1  0.1634068E-009  0.4778728E+02  0.7816164E-02  0.1312668E+00
        -11   -1    0    0    0    0  0.00000000000E+00  0.00000000000E+00  0.45593999997E+02  0.45594000000E+02  0.51100000000E-03 0.  1.
         11   -1    0    0    0    0 -0.00000000000E+00 -0.00000000000E+00 -0.45593999997E+02  0.45594000000E+02  0.51100000000E-03 0. -1.
    9900012    2    1    2    0    0 -0.15261058255E+02 -0.26546270795E+02 -0.30757411316E+02  0.47787277160E+02  0.20000027884E+02 0.  0.
         12    1    1    2    0    0  0.15261058255E+02  0.26546270795E+02  0.30757411316E+02  0.43400722840E+02  0.00000000000E+00 0. -1.
         11    1    3    3    0    0 -0.11252202932E+02 -0.76243797886E+01 -0.85931094833E+01  0.16080571160E+02  0.51100000000E-03 0.  1.
        -11    1    3    3    0    0 -0.17360298540E+00 -0.11544629197E+02 -0.20034934817E+02  0.23123737039E+02  0.51100000000E-03 0. -1.
         12    1    3    3    0    0 -0.38352523372E+01 -0.73772618094E+01 -0.21293670162E+01  0.85829689609E+01  0.00000000000E+00 0. -1.
</event>
<event>
 7    1  0.1634068E-009  0.4778727E+02  0.7816164E-02  0.1312668E+00
        -11   -1    0    0    0    0  0.00000000000E+00  0.00000000000E+00  0.45593999997E+02  0.45594000000E+02  0.51100000000E-03 0. -1.
         11   -1    0    0    0    0 -0.00000000000E+00 -0.00000000000E+00 -0.45593999997E+02  0.45594000000E+02  0.51100000000E-03 0.  1.
    9900012    2    1    2    0    0 -0.57818989656E+01  0.10347599935E+02 -0.41750690124E+02  0.47787270675E+02  0.19999998317E+02 0.  0.
         12    1    1    2    0    0  0.57818989656E+01 -0.10347599935E+02  0.41750690124E+02  0.43400729325E+02  0.00000000000E+00 0. -1.
         11    1    3    3    0    0 -0.25481291919E+01  0.35490327322E+01 -0.26006380938E+01  0.50844777970E+01  0.51100000000E-03 0. -1.
        -11    1    3    3    0    0 -0.34109542118E+01  0.10259210645E+02 -0.37173011324E+02  0.38713289486E+02  0.51100000000E-03 0.  1.
        -12    1    3    3    0    0  0.17718443799E+00 -0.34606434423E+01 -0.19770407065E+01  0.39895033921E+01  0.00000000000E+00 0.  1.
</event>
<event>
 7    1  0.1634068E-009  0.4778727E+02  0.7816164E-02  0.1312668E+00
        -11   -1    0    0    0    0  0.00000000000E+00  0.00000000000E+00  0.45593999997E+02  0.45594000000E+02  0.51100000000E-03 0.  1.
         11   -1    0    0    0    0 -0.00000000000E+00 -0.00000000000E+00 -0.45593999997E+02  0.45594000000E+02  0.51100000000E-03 0. -1.
    9900012    2    1    2    0    0 -0.23371907609E+02 -0.86747197589E+01  0.35526419627E+02  0.47787270516E+02  0.19999997592E+02 0.  0.
         12    1    1    2    0    0  0.23371907609E+02  0.86747197589E+01 -0.35526419627E+02  0.43400729484E+02  0.00000000000E+00 0. -1.
         11    1    3    3    0    0 -0.31664822573E+01 -0.84142130836E+00  0.13162685916E+02  0.13564324549E+02  0.51100000000E-03 0.  1.
        -11    1    3    3    0    0 -0.21276658999E+02 -0.99394781950E+01  0.19613643884E+02  0.30597131755E+02  0.51100000000E-03 0. -1.
         12    1    3    3    0    0  0.10712336470E+01  0.21061797444E+01  0.27500898276E+01  0.36258142124E+01  0.00000000000E+00 0. -1.
</event>
<event>
 7    1  0.1634068E-009  0.4778728E+02  0.7816164E-02  0.1312668E+00
        -11   -1    0    0    0    0  0.00000000000E+00  0.00000000000E+00  0.45593999997E+02  0.45594000000E+02  0.51100000000E-03 0.  1.
         11   -1    0    0    0    0 -0.00000000000E+00 -0.00000000000E+00 -0.45593999997E+02  0.45594000000E+02  0.51100000000E-03 0. -1.
    9900012    2    1    2    0    0  0.22950096939E+02  0.30195583926E+02  0.21098397021E+02  0.47787278866E+02  0.20000035660E+02 0.  0.
         12    1    1    2    0    0 -0.22950096939E+02 -0.30195583926E+02 -0.21098397021E+02  0.43400721134E+02  0.00000000000E+00 0. -1.
         11    1    3    3    0    0  0.14516969838E+02  0.61736157109E+01  0.11305802007E+02  0.19408171050E+02  0.51100000000E-03 0. -1.
        -11    1    3    3    0    0  0.40117643976E+01  0.10859255301E+02  0.86411486024E+01  0.14446007362E+02  0.51100000000E-03 0.  1.
         12    1    3    3    0    0  0.44213627027E+01  0.13162712914E+02  0.11514464118E+01  0.13933100453E+02  0.00000000000E+00 0. -1.
</event>
<event>
 7    1  0.1634068E-009  0.4778729E+02  0.7816164E-02  0.1312668E+00
        -11   -1    0    0    0    0  0.00000000000E+00  0.00000000000E+00  0.45593999997E+02  0.45594000000E+02  0.51100000000E-03 0. -1.
         11   -1    0    0    0    0 -0.00000000000E+00 -0.00000000000E+00 -0.45593999997E+02  0.45594000000E+02  0.51100000000E-03 0.  1.
    9900012    2    1    2    0    0 -0.17864315506E+02 -0.18482312166E+02 -0.34969878065E+02  0.47787285681E+02  0.20000066736E+02 0.  0.
         12    1    1    2    0    0  0.17864315506E+02  0.18482312166E+02  0.34969878065E+02  0.43400714319E+02  0.00000000000E+00 0. -1.
         11    1    3    3    0    0 -0.91028742934E+01  0.13139703067E+00 -0.41791233835E+01  0.10017218082E+02  0.51100000000E-03 0. -1.
        -11    1    3    3    0    0 -0.15380374672E+01 -0.97951328545E+01 -0.10140355210E+02  0.14182277353E+02  0.51100000000E-03 0.  1.
        -12    1    3    3    0    0 -0.72234037453E+01 -0.88185763422E+01 -0.20650399471E+02  0.23587790246E+02  0.00000000000E+00 0.  1.
</event>
<event>
 7    1  0.1634068E-009  0.4778728E+02  0.7816164E-02  0.1312668E+00
        -11   -1    0    0    0    0  0.00000000000E+00  0.00000000000E+00  0.45593999997E+02  0.45594000000E+02  0.51100000000E-03 0. -1.
         11   -1    0    0    0    0 -0.00000000000E+00 -0.00000000000E+00 -0.45593999997E+02  0.45594000000E+02  0.51100000000E-03 0.  1.
    9900012    2    1    2    0    0  0.10075222335E+02  0.24524777985E+02 -0.34360555455E+02  0.47787278675E+02  0.20000034791E+02 0.  0.
         12    1    1    2    0    0 -0.10075222335E+02 -0.24524777985E+02  0.34360555455E+02  0.43400721325E+02  0.00000000000E+00 0. -1.
         11    1    3    3    0    0  0.54477513111E+01  0.39362908322E+01 -0.12150975288E+02  0.13885913027E+02  0.51100000000E-03 0. -1.
        -11    1    3    3    0    0 -0.96448104656E-01  0.25379794480E+01  0.20728336786E+01  0.32783046893E+01  0.51100000000E-03 0.  1.
        -12    1    3    3    0    0  0.47239191288E+01  0.18050507705E+02 -0.24282413845E+02  0.30623060959E+02  0.00000000000E+00 0.  1.
</event>
<event>
 7    1  0.1641546E-009  0.4778727E+02  0.7816164E-02  0.1312668E+00
        -11   -1    0    0    0    0  0.00000000000E+00  0.00000000000E+00  0.45593999997E+02  0.45594000000E+02  0.51100000000E-03 0.  1.
         11   -1    0    0    0    0 -0.00000000000E+00 -0.00000000000E+00 -0.45593999997E+02  0.45594000000E+02  0.51100000000E-03 0. -1.
    9900012    2    1    2    0    0 -0.37789069365E+02 -0.56433489016E+01  0.20585482533E+02  0.47787271419E+02  0.20000001707E+02 0.  0.
         12    1    1    2    0    0  0.37789069365E+02  0.56433489016E+01 -0.20585482533E+02  0.43400728581E+02  0.00000000000E+00 0. -1.
         11    1    3    3    0    0 -0.18163063848E+02  0.21003867527E+01  0.85286618154E+01  0.20175395547E+02  0.51100000000E-03 0. -1.
        -11    1    3    3    0    0 -0.20113892561E+02 -0.95174446652E+01  0.12750128524E+02  0.25645978331E+02  0.51100000000E-03 0.  1.
         12    1    3    3    0    0  0.48788704499E+00  0.17737090109E+01 -0.69330780658E+00  0.19658975402E+01  0.00000000000E+00 0. -1.
</event>
<event>
 7    1  0.2294800E-009  0.4778727E+02  0.7816164E-02  0.1312668E+00
        -11   -1    0    0    0    0  0.00000000000E+00  0.00000000000E+00  0.45593999997E+02  0.45594000000E+02  0.51100000000E-03 0.  1.
         11   -1    0    0    0    0 -0.00000000000E+00 -0.00000000000E+00 -0.45593999997E+02  0.45594000000E+02  0.51100000000E-03 0. -1.
    9900012    2    1    2    0    0  0.22345981989E+01 -0.34628132148E+02  0.26067655667E+02  0.47787266859E+02  0.19999980918E+02 0.  0.
         12    1    1    2    0    0 -0.22345981989E+01  0.34628132148E+02 -0.26067655667E+02  0.43400733141E+02  0.00000000000E+00 0. -1.
         11    1    3    3    0    0  0.61999041645E+01 -0.63638423302E+01  0.28761457190E+01  0.93386034990E+01  0.51100000000E-03 0. -1.
        -11    1    3    3    0    0 -0.48064262866E+01 -0.10081120348E+02  0.36663069144E+01  0.11754681101E+02  0.51100000000E-03 0.  1.
        -12    1    3    3    0    0  0.84112032094E+00 -0.18183169469E+02  0.19525203034E+02  0.26693982259E+02  0.00000000000E+00 0.  1.
</event>
<event>
 7    1  0.1634068E-009  0.4778727E+02  0.7816164E-02  0.1312668E+00
        -11   -1    0    0    0    0  0.00000000000E+00  0.00000000000E+00  0.45593999997E+02  0.45594000000E+02  0.51100000000E-03 0.  1.
         11   -1    0    0    0    0 -0.00000000000E+00 -0.00000000000E+00 -0.45593999997E+02  0.45594000000E+02  0.51100000000E-03 0. -1.
    9900012    2    1    2    0    0  0.29507608586E+02 -0.31337116179E+02  0.55596262189E+01  0.47787271221E+02  0.20000000803E+02 0.  0.
         12    1    1    2    0    0 -0.29507608586E+02  0.31337116179E+02 -0.55596262189E+01  0.43400728779E+02  0.00000000000E+00 0. -1.
         11    1    3    3    0    0  0.59138799279E+01 -0.15439456112E+02 -0.39485617445E+01  0.16998291707E+02  0.51100000000E-03 0.  1.
        -11    1    3    3    0    0  0.12329433000E+02 -0.72708097246E+01  0.12396977221E+01  0.14367200244E+02  0.51100000000E-03 0. -1.
        -12    1    3    3    0    0  0.11264295658E+02 -0.86268503427E+01  0.82684902414E+01  0.16421779269E+02  0.00000000000E+00 0.  1.
</event>
<event>
 7    1  0.1634068E-009  0.4778727E+02  0.7816164E-02  0.1312668E+00
        -11   -1    0    0    0    0  0.00000000000E+00  0.00000000000E+00  0.45593999997E+02  0.45594000000E+02  0.51100000000E-03 0.  1.
         11   -1    0    0    0    0 -0.00000000000E+00 -0.00000000000E+00 -0.45593999997E+02  0.45594000000E+02  0.51100000000E-03 0. -1.
    9900012    2    1    2    0    0  0.30635902298E+02 -0.26928222310E+02  0.14830222009E+02  0.47787272457E+02  0.20000006442E+02 0.  0.
         12    1    1    2    0    0 -0.30635902298E+02  0.26928222310E+02 -0.14830222009E+02  0.43400727543E+02  0.00000000000E+00 0. -1.
         11    1    3    3    0    0  0.13680913808E+02 -0.40525284424E+01  0.41961068375E+01  0.14872716707E+02  0.51100000000E-03 0. -1.
        -11    1    3    3    0    0  0.18222474376E+02 -0.20460729791E+02  0.11943786378E+02  0.29889029246E+02  0.51100000000E-03 0.  1.
         12    1    3    3    0    0 -0.12674858856E+01 -0.24149640769E+01 -0.13096712062E+01  0.30255265048E+01  0.00000000000E+00 0. -1.
</event>
<event>
 7    1  0.1634068E-009  0.4778728E+02  0.7816164E-02  0.1312668E+00
        -11   -1    0    0    0    0  0.00000000000E+00  0.00000000000E+00  0.45593999997E+02  0.45594000000E+02  0.51100000000E-03 0. -1.
         11   -1    0    0    0    0 -0.00000000000E+00 -0.00000000000E+00 -0.45593999997E+02  0.45594000000E+02  0.51100000000E-03 0.  1.
    9900012    2    1    2    0    0 -0.39361443909E+02  0.17350893415E+02 -0.57659461823E+01  0.47787275302E+02  0.20000019411E+02 0.  0.
         12    1    1    2    0    0  0.39361443909E+02 -0.17350893415E+02  0.57659461823E+01  0.43400724698E+02  0.00000000000E+00 0. -1.
         11    1    3    3    0    0 -0.68169986311E+01  0.93783312973E+01 -0.27895186930E+01  0.11925015013E+02  0.51100000000E-03 0. -1.
        -11    1    3    3    0    0 -0.98877726830E+01  0.63222743877E+01 -0.55830149460E+01  0.12996509463E+02  0.51100000000E-03 0.  1.
         12    1    3    3    0    0 -0.22656672595E+02  0.16502877305E+01  0.26065874568E+01  0.22865750826E+02  0.00000000000E+00 0. -1.
</event>
<event>
 7    1  0.1634068E-009  0.4778728E+02  0.7816164E-02  0.1312668E+00
        -11   -1    0    0    0    0  0.00000000000E+00  0.00000000000E+00  0.45593999997E+02  0.45594000000E+02  0.51100000000E-03 0.  1.
         11   -1    0    0    0    0 -0.00000000000E+00 -0.00000000000E+00 -0.45593999997E+02  0.45594000000E+02  0.51100000000E-03 0. -1.
    9900012    2    1    2    0    0 -0.13969614247E+02 -0.29776836459E+02  0.28316298789E+02  0.47787275481E+02  0.20000020226E+02 0.  0.
         12    1    1    2    0    0  0.13969614247E+02  0.29776836459E+02 -0.28316298789E+02  0.43400724519E+02  0.00000000000E+00 0. -1.
         11    1    3    3    0    0 -0.51378986778E+01 -0.33115741373E+01 -0.83688643945E+00  0.61696762690E+01  0.51100000000E-03 0. -1.
        -11    1    3    3    0    0 -0.70794496772E+01 -0.86450139849E+01  0.15462288207E+02  0.19077138973E+02  0.51100000000E-03 0.  1.
         12    1    3    3    0    0 -0.17522658921E+01 -0.17820248336E+02  0.13690897022E+02  0.22540460239E+02  0.00000000000E+00 0. -1.
</event>
<event>
 7    1  0.1634068E-009  0.4778727E+02  0.7816164E-02  0.1312668E+00
        -11   -1    0    0    0    0  0.00000000000E+00  0.00000000000E+00  0.45593999997E+02  0.45594000000E+02  0.51100000000E-03 0.  1.
         11   -1    0    0    0    0 -0.00000000000E+00 -0.00000000000E+00 -0.45593999997E+02  0.45594000000E+02  0.51100000000E-03 0. -1.
    9900012    2    1    2    0    0 -0.51649488305E+01 -0.44471080000E+01  0.42862216534E+02  0.47787273368E+02  0.20000010595E+02 0.  0.
         12    1    1    2    0    0  0.51649488305E+01  0.44471080000E+01 -0.42862216534E+02  0.43400726632E+02  0.00000000000E+00 0. -1.
         11    1    3    3    0    0 -0.84743474653E+01 -0.44762948663E+01  0.16703094522E+02  0.19257340096E+02  0.51100000000E-03 0. -1.
        -11    1    3    3    0    0  0.41863858268E+01 -0.48437074297E+01  0.13658363590E+02  0.15084370194E+02  0.51100000000E-03 0.  1.
         12    1    3    3    0    0 -0.87698719194E+00  0.48728942960E+01  0.12500758422E+02  0.13445563078E+02  0.00000000000E+00 0. -1.
</event>
<event>
 7    1  0.1634068E-009  0.4778727E+02  0.7816164E-02  0.1312668E+00
        -11   -1    0    0    0    0  0.00000000000E+00  0.00000000000E+00  0.45593999997E+02  0.45594000000E+02  0.51100000000E-03 0.  1.
         11   -1    0    0    0    0 -0.00000000000E+00 -0.00000000000E+00 -0.45593999997E+02  0.45594000000E+02  0.51100000000E-03 0. -1.
    9900012    2    1    2    0    0  0.30506908528E+02 -0.74342043944E+01  0.29961377359E+02  0.47787274244E+02  0.20000014587E+02 0.  0.
         12    1    1    2    0    0 -0.30506908528E+02  0.74342043944E+01 -0.29961377359E+02  0.43400725756E+02  0.00000000000E+00 0. -1.
         11    1    3    3    0    0  0.22801253428E+02 -0.12946924486E+02  0.17881721124E+02  0.31737611160E+02  0.51100000000E-03 0. -1.
        -11    1    3    3    0    0  0.73548394677E+01  0.34489024008E+01  0.76878268371E+01  0.11184421000E+02  0.51100000000E-03 0.  1.
        -12    1    3    3    0    0  0.35081563205E+00  0.20638176910E+01  0.43918293981E+01  0.48652420835E+01  0.00000000000E+00 0.  1.
</event>
<event>
 7    1  0.1634068E-009  0.4778727E+02  0.7816164E-02  0.1312668E+00
        -11   -1    0    0    0    0  0.00000000000E+00  0.00000000000E+00  0.45593999997E+02  0.45594000000E+02  0.51100000000E-03 0.  1.
         11   -1    0    0    0    0 -0.00000000000E+00 -0.00000000000E+00 -0.45593999997E+02  0.45594000000E+02  0.51100000000E-03 0. -1.
    9900012    2    1    2    0    0  0.13266543711E+02  0.41258068325E+02  0.23225018890E+01  0.47787269604E+02  0.19999993430E+02 0.  0.
         12    1    1    2    0    0 -0.13266543711E+02 -0.41258068325E+02 -0.23225018890E+01  0.43400730396E+02  0.00000000000E+00 0. -1.
         11    1    3    3    0    0  0.15648203339E+02  0.20529785240E+02 -0.30621513115E+01  0.25994520974E+02  0.51100000000E-03 0.  1.
        -11    1    3    3    0    0 -0.11541635869E+01  0.39257183691E+01  0.22043766625E+01  0.46478634910E+01  0.51100000000E-03 0. -1.
        -12    1    3    3    0    0 -0.12274960415E+01  0.16802564716E+02  0.31802765380E+01  0.17144885139E+02  0.00000000000E+00 0.  1.
</event>
<event>
 7    1  0.1634068E-009  0.4778727E+02  0.7816164E-02  0.1312668E+00
        -11   -1    0    0    0    0  0.00000000000E+00  0.00000000000E+00  0.45593999997E+02  0.45594000000E+02  0.51100000000E-03 0. -1.
         11   -1    0    0    0    0 -0.00000000000E+00 -0.00000000000E+00 -0.45593999997E+02  0.45594000000E+02  0.51100000000E-03 0.  1.
    9900012    2    1    2    0    0 -0.31808946077E+02 -0.23705928848E+02  0.17602363483E+02  0.47787270591E+02  0.19999997931E+02 0.  0.
         12    1    1    2    0    0  0.31808946077E+02  0.23705928848E+02 -0.17602363483E+02  0.43400729409E+02  0.00000000000E+00 0. -1.
         11    1    3    3    0    0 -0.12737242197E+02 -0.16156325472E+02  0.68484018132E+01  0.21683283865E+02  0.51100000000E-03 0.  1.
        -11    1    3    3    0    0 -0.19260993889E+02 -0.87220352168E+01  0.12057836872E+02  0.24340320750E+02  0.51100000000E-03 0. -1.
         12    1    3    3    0    0  0.18929000988E+00  0.11724318403E+01 -0.13038752022E+01  0.17636659748E+01  0.00000000000E+00 0. -1.
</event>
<event>
 7    1  0.1634068E-009  0.4778727E+02  0.7816164E-02  0.1312668E+00
        -11   -1    0    0    0    0  0.00000000000E+00  0.00000000000E+00  0.45593999997E+02  0.45594000000E+02  0.51100000000E-03 0.  1.
         11   -1    0    0    0    0 -0.00000000000E+00 -0.00000000000E+00 -0.45593999997E+02  0.45594000000E+02  0.51100000000E-03 0. -1.
    9900012    2    1    2    0    0  0.30148376543E+01 -0.42541456714E+02  0.80472678447E+01  0.47787270683E+02  0.19999998354E+02 0.  0.
         12    1    1    2    0    0 -0.30148376543E+01  0.42541456714E+02 -0.80472678447E+01  0.43400729317E+02  0.00000000000E+00 0. -1.
         11    1    3    3    0    0  0.44133842824E+01 -0.24262785261E+02 -0.26379134500E+01  0.24801598680E+02  0.51100000000E-03 0. -1.
        -11    1    3    3    0    0 -0.35271676548E+01 -0.11676340667E+02  0.28598084371E+01  0.12528222045E+02  0.51100000000E-03 0.  1.
        -12    1    3    3    0    0  0.21286210267E+01 -0.66023307859E+01  0.78253728576E+01  0.10457449959E+02  0.00000000000E+00 0.  1.
</event>
<event>
 7    1  0.1634068E-009  0.4778726E+02  0.7816164E-02  0.1312668E+00
        -11   -1    0    0    0    0  0.00000000000E+00  0.00000000000E+00  0.45593999997E+02  0.45594000000E+02  0.51100000000E-03 0. -1.
         11   -1    0    0    0    0 -0.00000000000E+00 -0.00000000000E+00 -0.45593999997E+02  0.45594000000E+02  0.51100000000E-03 0.  1.
    9900012    2    1    2    0    0  0.62990370757E+01  0.39244102242E+02 -0.17431198872E+02  0.47787261263E+02  0.19999955400E+02 0.  0.
         12    1    1    2    0    0 -0.62990370757E+01 -0.39244102242E+02  0.17431198872E+02  0.43400738737E+02  0.00000000000E+00 0. -1.
         11    1    3    3    0    0 -0.56305911853E+01  0.73670851808E+01 -0.69399512447E+01  0.11581900738E+02  0.51100000000E-03 0. -1.
        -11    1    3    3    0    0  0.24520495140E+01  0.15800771556E+02 -0.47952326822E+01  0.16693447377E+02  0.51100000000E-03 0.  1.
        -12    1    3    3    0    0  0.94775787470E+01  0.16076245505E+02 -0.56960149452E+01  0.19511913148E+02  0.00000000000E+00 0.  1.
</event>
<event>
 7    1  0.1634068E-009  0.4778727E+02  0.7816164E-02  0.1312668E+00
        -11   -1    0    0    0    0  0.00000000000E+00  0.00000000000E+00  0.45593999997E+02  0.45594000000E+02  0.51100000000E-03 0.  1.
         11   -1    0    0    0    0 -0.00000000000E+00 -0.00000000000E+00 -0.45593999997E+02  0.45594000000E+02  0.51100000000E-03 0. -1.
    9900012    2    1    2    0    0  0.36607651853E+02  0.21950662420E+02  0.78531238030E+01  0.47787270647E+02  0.19999998190E+02 0.  0.
         12    1    1    2    0    0 -0.36607651853E+02 -0.21950662420E+02 -0.78531238030E+01  0.43400729353E+02  0.00000000000E+00 0. -1.
         11    1    3    3    0    0  0.27698894258E+01 -0.13984653162E+01  0.23907494343E+01  0.39171004315E+01  0.51100000000E-03 0. -1.
        -11    1    3    3    0    0  0.71669153670E+01  0.94410766835E+01  0.69743653904E+01  0.13752831624E+02  0.51100000000E-03 0.  1.
        -12    1    3    3    0    0  0.26670847060E+02  0.13908051052E+02 -0.15119910218E+01  0.30117338592E+02  0.00000000000E+00 0.  1.
</event>
<event>
 7    1  0.1634068E-009  0.4778726E+02  0.7816164E-02  0.1312668E+00
        -11   -1    0    0    0    0  0.00000000000E+00  0.00000000000E+00  0.45593999997E+02  0.45594000000E+02  0.51100000000E-03 0. -1.
         11   -1    0    0    0    0 -0.00000000000E+00 -0.00000000000E+00 -0.45593999997E+02  0.45594000000E+02  0.51100000000E-03 0.  1.
    9900012    2    1    2    0    0 -0.78089268412E+01  0.23510626411E+02 -0.35635589401E+02  0.47787261243E+02  0.19999955311E+02 0.  0.
         12    1    1    2    0    0  0.78089268412E+01 -0.23510626411E+02  0.35635589401E+02  0.43400738757E+02  0.00000000000E+00 0. -1.
         11    1    3    3    0    0 -0.54012434897E+00  0.14356546703E+02 -0.12468589189E+02  0.19022825347E+02  0.51100000000E-03 0. -1.
        -11    1    3    3    0    0 -0.72659009122E+01  0.12026060467E+02 -0.20443989289E+02  0.24806776186E+02  0.51100000000E-03 0.  1.
         12    1    3    3    0    0 -0.29015800335E-02 -0.28719807585E+01 -0.27230109231E+01  0.39576597104E+01  0.00000000000E+00 0. -1.
</event>
<event>
 7    1  0.1634068E-009  0.4778727E+02  0.7816164E-02  0.1312668E+00
        -11   -1    0    0    0    0  0.00000000000E+00  0.00000000000E+00  0.45593999997E+02  0.45594000000E+02  0.51100000000E-03 0. -1.
         11   -1    0    0    0    0 -0.00000000000E+00 -0.00000000000E+00 -0.45593999997E+02  0.45594000000E+02  0.51100000000E-03 0.  1.
    9900012    2    1    2    0    0  0.24367630829E+01  0.60040446267E+01 -0.42914295589E+02  0.47787272677E+02  0.20000007445E+02 0.  0.
         12    1    1    2    0    0 -0.24367630829E+01 -0.60040446267E+01  0.42914295589E+02  0.43400727323E+02  0.00000000000E+00 0. -1.
         11    1    3    3    0    0  0.31754433815E+00  0.72732321802E+01 -0.50744988540E+01  0.88741917735E+01  0.51100000000E-03 0. -1.
        -11    1    3    3    0    0 -0.26376766727E+01 -0.29971537848E+01 -0.15333471702E+02  0.15844734890E+02  0.51100000000E-03 0.  1.
        -12    1    3    3    0    0  0.47568954174E+01  0.17279662313E+01 -0.22506325033E+02  0.23068346014E+02  0.00000000000E+00 0.  1.
</event>
<event>
 7    1  0.1634068E-009  0.4778727E+02  0.7816164E-02  0.1312668E+00
        -11   -1    0    0    0    0  0.00000000000E+00  0.00000000000E+00  0.45593999997E+02  0.45594000000E+02  0.51100000000E-03 0.  1.
         11   -1    0    0    0    0 -0.00000000000E+00 -0.00000000000E+00 -0.45593999997E+02  0.45594000000E+02  0.51100000000E-03 0. -1.
    9900012    2    1    2    0    0 -0.75592256041E+01 -0.82767465212E+00  0.42729337604E+02  0.47787271560E+02  0.20000002350E+02 0.  0.
         12    1    1    2    0    0  0.75592256041E+01  0.82767465212E+00 -0.42729337604E+02  0.43400728440E+02  0.00000000000E+00 0. -1.
         11    1    3    3    0    0 -0.41246185661E+01 -0.19762386264E+01  0.71758701753E+01  0.85094718084E+01  0.51100000000E-03 0.  1.
        -11    1    3    3    0    0 -0.62120104884E+01 -0.28585607563E+01  0.53472702997E+01  0.86806534215E+01  0.51100000000E-03 0. -1.
        -12    1    3    3    0    0  0.27774034504E+01  0.40071247305E+01  0.30206197129E+02  0.30597146330E+02  0.00000000000E+00 0.  1.
</event>
<event>
 7    1  0.1730182E-009  0.4778727E+02  0.7816164E-02  0.1312668E+00
        -11   -1    0    0    0    0  0.00000000000E+00  0.00000000000E+00  0.45593999997E+02  0.45594000000E+02  0.51100000000E-03 0.  1.
         11   -1    0    0    0    0 -0.00000000000E+00 -0.00000000000E+00 -0.45593999997E+02  0.45594000000E+02  0.51100000000E-03 0. -1.
    9900012    2    1    2    0    0 -0.47176161624E+01  0.35589182575E+02  0.24388068908E+02  0.47787265862E+02  0.19999976371E+02 0.  0.
         12    1    1    2    0    0  0.47176161624E+01 -0.35589182575E+02 -0.24388068908E+02  0.43400734138E+02  0.00000000000E+00 0. -1.
         11    1    3    3    0    0 -0.47586671416E+01  0.29210063990E+01  0.49253329294E+01  0.74455420269E+01  0.51100000000E-03 0. -1.
        -11    1    3    3    0    0 -0.28064914301E+00  0.14708158588E+02  0.12544172985E+01  0.14764222160E+02  0.51100000000E-03 0.  1.
        -12    1    3    3    0    0  0.32170012220E+00  0.17960017589E+02  0.18208318680E+02  0.25577501675E+02  0.00000000000E+00 0.  1.
</event>
<event>
 7    1  0.1634068E-009  0.4778728E+02  0.7816164E-02  0.1312668E+00
        -11   -1    0    0    0    0  0.00000000000E+00  0.00000000000E+00  0.45593999997E+02  0.45594000000E+02  0.51100000000E-03 0.  1.
         11   -1    0    0    0    0 -0.00000000000E+00 -0.00000000000E+00 -0.45593999997E+02  0.45594000000E+02  0.51100000000E-03 0. -1.
    9900012    2    1    2    0    0 -0.32924051509E+01 -0.13687355982E+02  0.41054100630E+02  0.47787276227E+02  0.20000023631E+02 0.  0.
         12    1    1    2    0    0  0.32924051509E+01  0.13687355982E+02 -0.41054100630E+02  0.43400723773E+02  0.00000000000E+00 0. -1.
         11    1    3    3    0    0  0.65313769393E+01 -0.59468531521E+01  0.68429932594E+01  0.11173652229E+02  0.51100000000E-03 0. -1.
        -11    1    3    3    0    0 -0.40355227327E+01 -0.52611918239E+01  0.19983812879E+02  0.21055126705E+02  0.51100000000E-03 0.  1.
         12    1    3    3    0    0 -0.57882593575E+01 -0.24793110064E+01  0.14227294492E+02  0.15558497293E+02  0.00000000000E+00 0. -1.
</event>
<event>
 7    1  0.1634068E-009  0.4778727E+02  0.7816164E-02  0.1312668E+00
        -11   -1    0    0    0    0  0.00000000000E+00  0.00000000000E+00  0.45593999997E+02  0.45594000000E+02  0.51100000000E-03 0.  1.
         11   -1    0    0    0    0 -0.00000000000E+00 -0.00000000000E+00 -0.45593999997E+02  0.45594000000E+02  0.51100000000E-03 0. -1.
    9900012    2    1    2    0    0  0.17605174046E+02 -0.54681669302E+01  0.39290965769E+02  0.47787274270E+02  0.20000014709E+02 0.  0.
         12    1    1    2    0    0 -0.17605174046E+02  0.54681669302E+01 -0.39290965769E+02  0.43400725730E+02  0.00000000000E+00 0. -1.
         11    1    3    3    0    0  0.13191976053E+02 -0.14532658843E+00  0.11545945235E+02  0.17531634368E+02  0.51100000000E-03 0. -1.
        -11    1    3    3    0    0  0.70018579412E+01 -0.24539753492E+01  0.22818882232E+02  0.23994778520E+02  0.51100000000E-03 0.  1.
        -12    1    3    3    0    0 -0.25886599480E+01 -0.28688649926E+01  0.49261383021E+01  0.62608613819E+01  0.00000000000E+00 0.  1.
</event>
<event>
 7    1  0.1634068E-009  0.4778726E+02  0.7816164E-02  0.1312668E+00
        -11   -1    0    0    0    0  0.00000000000E+00  0.00000000000E+00  0.45593999997E+02  0.45594000000E+02  0.51100000000E-03 0.  1.
         11   -1    0    0    0    0 -0.00000000000E+00 -0.00000000000E+00 -0.45593999997E+02  0.45594000000E+02  0.51100000000E-03 0. -1.
    9900012    2    1    2    0    0 -0.37831440428E+02 -0.21075078387E+02 -0.28718272367E+01  0.47787260311E+02  0.19999951064E+02 0.  0.
         12    1    1    2    0    0  0.37831440428E+02  0.21075078387E+02  0.28718272367E+01  0.43400739689E+02  0.00000000000E+00 0. -1.
         11    1    3    3    0    0 -0.49937510865E+01  0.22938941808E+01 -0.46721000269E+01  0.72130450816E+01  0.51100000000E-03 0. -1.
        -11    1    3    3    0    0 -0.18921324511E+02 -0.12321992586E+02 -0.92343123777E+00  0.22598689078E+02  0.51100000000E-03 0.  1.
        -12    1    3    3    0    0 -0.13916364830E+02 -0.11046979982E+02  0.27237040280E+01  0.17975526152E+02  0.00000000000E+00 0.  1.
</event>
<event>
 7    1  0.1634068E-009  0.4778727E+02  0.7816164E-02  0.1312668E+00
        -11   -1    0    0    0    0  0.00000000000E+00  0.00000000000E+00  0.45593999997E+02  0.45594000000E+02  0.51100000000E-03 0.  1.
         11   -1    0    0    0    0 -0.00000000000E+00 -0.00000000000E+00 -0.45593999997E+02  0.45594000000E+02  0.51100000000E-03 0. -1.
    9900012    2    1    2    0    0 -0.67445189671E+01 -0.39550275627E+02 -0.16550236379E+02  0.47787272328E+02  0.20000005851E+02 0.  0.
         12    1    1    2    0    0  0.67445189671E+01  0.39550275627E+02  0.16550236379E+02  0.43400727672E+02  0.00000000000E+00 0. -1.
         11    1    3    3    0    0 -0.99711837626E+00 -0.22599833519E+01  0.17435453296E+01  0.30235278046E+01  0.51100000000E-03 0. -1.
        -11    1    3    3    0    0 -0.14702203436E+00 -0.17698330817E+02 -0.49138718675E+00  0.17705761515E+02  0.51100000000E-03 0.  1.
        -12    1    3    3    0    0 -0.56003785565E+01 -0.19591961458E+02 -0.17802394522E+02  0.27057983008E+02  0.00000000000E+00 0.  1.
</event>
<event>
 7    1  0.1634068E-009  0.4778727E+02  0.7816164E-02  0.1312668E+00
        -11   -1    0    0    0    0  0.00000000000E+00  0.00000000000E+00  0.45593999997E+02  0.45594000000E+02  0.51100000000E-03 0.  1.
         11   -1    0    0    0    0 -0.00000000000E+00 -0.00000000000E+00 -0.45593999997E+02  0.45594000000E+02  0.51100000000E-03 0. -1.
    9900012    2    1    2    0    0 -0.39499719538E+02  0.30843304237E+01  0.17716729589E+02  0.47787269072E+02  0.19999991006E+02 0.  0.
         12    1    1    2    0    0  0.39499719538E+02 -0.30843304237E+01 -0.17716729589E+02  0.43400730928E+02  0.00000000000E+00 0. -1.
         11    1    3    3    0    0 -0.92894707525E+01  0.43659951120E+01  0.99109048112E+01  0.14268223948E+02  0.51100000000E-03 0. -1.
        -11    1    3    3    0    0 -0.16825050836E+02 -0.52893268378E+01  0.83979852845E+01  0.19534212836E+02  0.51100000000E-03 0.  1.
        -12    1    3    3    0    0 -0.13385197950E+02  0.40076621495E+01 -0.59216050643E+00  0.13984832288E+02  0.00000000000E+00 0.  1.
</event>
<event>
 7    1  0.1634068E-009  0.4778727E+02  0.7816164E-02  0.1312668E+00
        -11   -1    0    0    0    0  0.00000000000E+00  0.00000000000E+00  0.45593999997E+02  0.45594000000E+02  0.51100000000E-03 0.  1.
         11   -1    0    0    0    0 -0.00000000000E+00 -0.00000000000E+00 -0.45593999997E+02  0.45594000000E+02  0.51100000000E-03 0. -1.
    9900012    2    1    2    0    0 -0.38754105225E+02  0.15379809322E+02  0.12050066852E+02  0.47787270540E+02  0.19999997699E+02 0.  0.
         12    1    1    2    0    0  0.38754105225E+02 -0.15379809322E+02 -0.12050066852E+02  0.43400729460E+02  0.00000000000E+00 0. -1.
         11    1    3    3    0    0 -0.24053431064E+01  0.16846324418E+00 -0.32757402556E+01  0.40674967495E+01  0.51100000000E-03 0. -1.
        -11    1    3    3    0    0 -0.28398296268E+02  0.94772572425E+01  0.67364988424E+01  0.30686512553E+02  0.51100000000E-03 0.  1.
         12    1    3    3    0    0 -0.79504658507E+01  0.57340888351E+01  0.85893082651E+01  0.13033261237E+02  0.00000000000E+00 0. -1.
</event>
<event>
 7    1  0.1634068E-009  0.4778727E+02  0.7816164E-02  0.1312668E+00
        -11   -1    0    0    0    0  0.00000000000E+00  0.00000000000E+00  0.45593999997E+02  0.45594000000E+02  0.51100000000E-03 0.  1.
         11   -1    0    0    0    0 -0.00000000000E+00 -0.00000000000E+00 -0.45593999997E+02  0.45594000000E+02  0.51100000000E-03 0. -1.
    9900012    2    1    2    0    0  0.27724100035E+02 -0.33008126459E+01  0.33228037313E+02  0.47787267857E+02  0.19999985469E+02 0.  0.
         12    1    1    2    0    0 -0.27724100035E+02  0.33008126459E+01 -0.33228037313E+02  0.43400732143E+02  0.00000000000E+00 0. -1.
         11    1    3    3    0    0  0.89787788145E+01 -0.40316317058E+01  0.11643484327E+02  0.15246089687E+02  0.51100000000E-03 0. -1.
        -11    1    3    3    0    0 -0.25549269765E+01  0.13431438938E+01  0.38860485313E+01  0.48407706848E+01  0.51100000000E-03 0.  1.
         12    1    3    3    0    0  0.21300248197E+02 -0.61232483397E+00  0.17698504455E+02  0.27700407486E+02  0.00000000000E+00 0. -1.
</event>
<event>
 7    1  0.1634068E-009  0.4778727E+02  0.7816164E-02  0.1312668E+00
        -11   -1    0    0    0    0  0.00000000000E+00  0.00000000000E+00  0.45593999997E+02  0.45594000000E+02  0.51100000000E-03 0. -1.
         11   -1    0    0    0    0 -0.00000000000E+00 -0.00000000000E+00 -0.45593999997E+02  0.45594000000E+02  0.51100000000E-03 0.  1.
    9900012    2    1    2    0    0 -0.24932846717E+02  0.34758036223E+02 -0.73386106496E+01  0.47787272659E+02  0.20000007359E+02 0.  0.
         12    1    1    2    0    0  0.24932846717E+02 -0.34758036223E+02  0.73386106496E+01  0.43400727341E+02  0.00000000000E+00 0. -1.
         11    1    3    3    0    0 -0.52509864904E+01  0.93945529908E+01  0.40853170894E+01  0.11511746219E+02  0.51100000000E-03 0. -1.
        -11    1    3    3    0    0  0.18478312755E+00  0.41550195617E+01 -0.50185420876E+01  0.65179826104E+01  0.51100000000E-03 0.  1.
        -12    1    3    3    0    0 -0.19866643354E+02  0.21208463671E+02 -0.64053856514E+01  0.29757543830E+02  0.00000000000E+00 0.  1.
</event>
<event>
 7    1  0.1634068E-009  0.4778728E+02  0.7816164E-02  0.1312668E+00
        -11   -1    0    0    0    0  0.00000000000E+00  0.00000000000E+00  0.45593999997E+02  0.45594000000E+02  0.51100000000E-03 0.  1.
         11   -1    0    0    0    0 -0.00000000000E+00 -0.00000000000E+00 -0.45593999997E+02  0.45594000000E+02  0.51100000000E-03 0. -1.
    9900012    2    1    2    0    0  0.44605502629E+01 -0.15388472208E+02  0.40335110439E+02  0.47787277430E+02  0.20000029112E+02 0.  0.
         12    1    1    2    0    0 -0.44605502629E+01  0.15388472208E+02 -0.40335110439E+02  0.43400722570E+02  0.00000000000E+00 0. -1.
         11    1    3    3    0    0  0.25790376590E+01 -0.91350565675E+01  0.28125882653E+02  0.29684439846E+02  0.51100000000E-03 0.  1.
        -11    1    3    3    0    0  0.64662661485E+01 -0.58712569065E+01  0.74005745689E+01  0.11447827732E+02  0.51100000000E-03 0. -1.
        -12    1    3    3    0    0 -0.45847535445E+01 -0.38215873366E+00  0.48086532173E+01  0.66550098517E+01  0.00000000000E+00 0.  1.
</event>
<event>
 7    1  0.1634068E-009  0.4778727E+02  0.7816164E-02  0.1312668E+00
        -11   -1    0    0    0    0  0.00000000000E+00  0.00000000000E+00  0.45593999997E+02  0.45594000000E+02  0.51100000000E-03 0. -1.
         11   -1    0    0    0    0 -0.00000000000E+00 -0.00000000000E+00 -0.45593999997E+02  0.45594000000E+02  0.51100000000E-03 0.  1.
    9900012    2    1    2    0    0  0.17567601474E+01 -0.39291212653E+02 -0.18350414645E+02  0.47787270564E+02  0.19999997808E+02 0.  0.
         12    1    1    2    0    0 -0.17567601474E+01  0.39291212653E+02  0.18350414645E+02  0.43400729436E+02  0.00000000000E+00 0. -1.
         11    1    3    3    0    0 -0.17492581754E+01 -0.24221703462E+02 -0.68860278733E+01  0.25242190929E+02  0.51100000000E-03 0. -1.
        -11    1    3    3    0    0  0.42979312632E+01 -0.11160598702E+02 -0.18053980797E+01  0.12095066722E+02  0.51100000000E-03 0.  1.
         12    1    3    3    0    0 -0.79191294033E+00 -0.39089104892E+01 -0.96589886920E+01  0.10450012912E+02  0.00000000000E+00 0. -1.
</event>
<event>
 7    1  0.1634068E-009  0.4778728E+02  0.7816164E-02  0.1312668E+00
        -11   -1    0    0    0    0  0.00000000000E+00  0.00000000000E+00  0.45593999997E+02  0.45594000000E+02  0.51100000000E-03 0.  1.
         11   -1    0    0    0    0 -0.00000000000E+00 -0.00000000000E+00 -0.45593999997E+02  0.45594000000E+02  0.51100000000E-03 0. -1.
    9900012    2    1    2    0    0 -0.79970490741E+01 -0.35928074822E+02  0.22996593894E+02  0.47787277828E+02  0.20000030930E+02 0.  0.
         12    1    1    2    0    0  0.79970490741E+01  0.35928074822E+02 -0.22996593894E+02  0.43400722172E+02  0.00000000000E+00 0. -1.
         11    1    3    3    0    0 -0.46852622275E+01 -0.17614063370E+02  0.31244642238E+01  0.18492408915E+02  0.51100000000E-03 0. -1.
        -11    1    3    3    0    0  0.22821447526E+01 -0.70051426911E+01  0.24099497309E+01  0.77516492929E+01  0.51100000000E-03 0.  1.
         12    1    3    3    0    0 -0.55939315992E+01 -0.11308868761E+02  0.17462179939E+02  0.21543219621E+02  0.00000000000E+00 0. -1.
</event>
<event>
 7    1  0.1634068E-009  0.4778727E+02  0.7816164E-02  0.1312668E+00
        -11   -1    0    0    0    0  0.00000000000E+00  0.00000000000E+00  0.45593999997E+02  0.45594000000E+02  0.51100000000E-03 0. -1.
         11   -1    0    0    0    0 -0.00000000000E+00 -0.00000000000E+00 -0.45593999997E+02  0.45594000000E+02  0.51100000000E-03 0.  1.
    9900012    2    1    2    0    0  0.43033750283E+02 -0.13678666257E+01  0.54633805752E+01  0.47787271321E+02  0.20000001263E+02 0.  0.
         12    1    1    2    0    0 -0.43033750283E+02  0.13678666257E+01 -0.54633805752E+01  0.43400728679E+02  0.00000000000E+00 0. -1.
         11    1    3    3    0    0  0.12725865724E+02 -0.74153425591E+01 -0.11844544568E+01  0.14776261242E+02  0.51100000000E-03 0. -1.
        -11    1    3    3    0    0  0.24014719825E+01 -0.19125179363E+01  0.18871823919E+01  0.36036440142E+01  0.51100000000E-03 0.  1.
        -12    1    3    3    0    0  0.27906412577E+02  0.79599938697E+01  0.47606526401E+01  0.29407366065E+02  0.00000000000E+00 0.  1.
</event>
<event>
 7    1  0.1710379E-009  0.4778727E+02  0.7816164E-02  0.1312668E+00
        -11   -1    0    0    0    0  0.00000000000E+00  0.00000000000E+00  0.45593999997E+02  0.45594000000E+02  0.51100000000E-03 0.  1.
         11   -1    0    0    0    0 -0.00000000000E+00 -0.00000000000E+00 -0.45593999997E+02  0.45594000000E+02  0.51100000000E-03 0. -1.
    9900012    2    1    2    0    0 -0.32548441796E+02  0.14600327840E+02  0.24719478431E+02  0.47787271316E+02  0.20000001237E+02 0.  0.
         12    1    1    2    0    0  0.32548441796E+02 -0.14600327840E+02 -0.24719478431E+02  0.43400728684E+02  0.00000000000E+00 0. -1.
         11    1    3    3    0    0  0.62118623922E+00  0.26927534335E+01  0.28353048454E+01  0.39592609443E+01  0.51100000000E-03 0. -1.
        -11    1    3    3    0    0 -0.16639788207E+02 -0.14080135157E+01  0.10735120943E+02  0.19852150401E+02  0.51100000000E-03 0.  1.
        -12    1    3    3    0    0 -0.16529839829E+02  0.13315587923E+02  0.11149052643E+02  0.23975859970E+02  0.00000000000E+00 0.  1.
</event>
<event>
 7    1  0.1634068E-009  0.4778727E+02  0.7816164E-02  0.1312668E+00
        -11   -1    0    0    0    0  0.00000000000E+00  0.00000000000E+00  0.45593999997E+02  0.45594000000E+02  0.51100000000E-03 0. -1.
         11   -1    0    0    0    0 -0.00000000000E+00 -0.00000000000E+00 -0.45593999997E+02  0.45594000000E+02  0.51100000000E-03 0.  1.
    9900012    2    1    2    0    0  0.34929322289E+02 -0.25107125926E+02  0.57617694656E+01  0.47787270568E+02  0.19999997828E+02 0.  0.
         12    1    1    2    0    0 -0.34929322289E+02  0.25107125926E+02 -0.57617694656E+01  0.43400729432E+02  0.00000000000E+00 0. -1.
         11    1    3    3    0    0  0.38804378398E+01 -0.21671997402E+01  0.57392673658E+01  0.72590455777E+01  0.51100000000E-03 0. -1.
        -11    1    3    3    0    0  0.44471335772E+01 -0.75683372043E+01 -0.38045441239E+01  0.95671981972E+01  0.51100000000E-03 0.  1.
         12    1    3    3    0    0  0.26601750872E+02 -0.15371588982E+02  0.38270462237E+01  0.30961026793E+02  0.00000000000E+00 0. -1.
</event>
<event>
 7    1  0.1634068E-009  0.4778727E+02  0.7816164E-02  0.1312668E+00
        -11   -1    0    0    0    0  0.00000000000E+00  0.00000000000E+00  0.45593999997E+02  0.45594000000E+02  0.51100000000E-03 0.  1.
         11   -1    0    0    0    0 -0.00000000000E+00 -0.00000000000E+00 -0.45593999997E+02  0.45594000000E+02  0.51100000000E-03 0. -1.
    9900012    2    1    2    0    0 -0.12328173601E+02 -0.34936400949E+02  0.22607240868E+02  0.47787270567E+02  0.19999997824E+02 0.  0.
         12    1    1    2    0    0  0.12328173601E+02  0.34936400949E+02 -0.22607240868E+02  0.43400729433E+02  0.00000000000E+00 0. -1.
         11    1    3    3    0    0  0.87930618213E+00 -0.99376988457E+01  0.99672915016E+01  0.14102408938E+02  0.51100000000E-03 0. -1.
        -11    1    3    3    0    0 -0.21127610674E+01 -0.65783002014E+01 -0.25419100452E+01  0.73620037902E+01  0.51100000000E-03 0.  1.
        -12    1    3    3    0    0 -0.11094718716E+02 -0.18420401902E+02  0.15181859412E+02  0.26322857839E+02  0.00000000000E+00 0.  1.
</event>
<event>
 7    1  0.1634068E-009  0.4778727E+02  0.7816164E-02  0.1312668E+00
        -11   -1    0    0    0    0  0.00000000000E+00  0.00000000000E+00  0.45593999997E+02  0.45594000000E+02  0.51100000000E-03 0. -1.
         11   -1    0    0    0    0 -0.00000000000E+00 -0.00000000000E+00 -0.45593999997E+02  0.45594000000E+02  0.51100000000E-03 0.  1.
    9900012    2    1    2    0    0  0.27201303076E+02  0.59506660542E+01 -0.33291176158E+02  0.47787265842E+02  0.19999976278E+02 0.  0.
         12    1    1    2    0    0 -0.27201303076E+02 -0.59506660542E+01  0.33291176158E+02  0.43400734158E+02  0.00000000000E+00 0. -1.
         11    1    3    3    0    0  0.10020991831E+02  0.58309349855E+01 -0.68539490334E+01  0.13468359132E+02  0.51100000000E-03 0. -1.
        -11    1    3    3    0    0  0.97797214598E+01  0.20695438357E+01 -0.24446179392E+02  0.26411013813E+02  0.51100000000E-03 0.  1.
         12    1    3    3    0    0  0.74005897847E+01 -0.19498127670E+01 -0.19910477326E+01  0.79078928964E+01  0.00000000000E+00 0. -1.
</event>
<event>
 7    1  0.1634068E-009  0.4778722E+02  0.7816164E-02  0.1312668E+00
        -11   -1    0    0    0    0  0.00000000000E+00  0.00000000000E+00  0.45593999997E+02  0.45594000000E+02  0.51100000000E-03 0.  1.
         11   -1    0    0    0    0 -0.00000000000E+00 -0.00000000000E+00 -0.45593999997E+02  0.45594000000E+02  0.51100000000E-03 0. -1.
    9900012    2    1    2    0    0  0.24783056894E+02  0.30598366798E+02  0.18252888468E+02  0.47787217782E+02  0.19999757153E+02 0.  0.
         12    1    1    2    0    0 -0.24783056894E+02 -0.30598366798E+02 -0.18252888468E+02  0.43400782218E+02  0.00000000000E+00 0. -1.
         11    1    3    3    0    0  0.33122435158E+01  0.12509276471E+01  0.45706079337E+01  0.57815425476E+01  0.51100000000E-03 0. -1.
        -11    1    3    3    0    0  0.16172757023E+02  0.13756571697E+02  0.14179776899E+02  0.25531694181E+02  0.51100000000E-03 0.  1.
         12    1    3    3    0    0  0.52980563552E+01  0.15590867454E+02 -0.49749636475E+00  0.16473981053E+02  0.00000000000E+00 0. -1.
</event>
<event>
 7    1  0.1634068E-009  0.4778727E+02  0.7816164E-02  0.1312668E+00
        -11   -1    0    0    0    0  0.00000000000E+00  0.00000000000E+00  0.45593999997E+02  0.45594000000E+02  0.51100000000E-03 0. -1.
         11   -1    0    0    0    0 -0.00000000000E+00 -0.00000000000E+00 -0.45593999997E+02  0.45594000000E+02  0.51100000000E-03 0.  1.
    9900012    2    1    2    0    0  0.39289299515E+02 -0.15487571716E+01 -0.18373230383E+02  0.47787270745E+02  0.19999998635E+02 0.  0.
         12    1    1    2    0    0 -0.39289299515E+02  0.15487571716E+01  0.18373230383E+02  0.43400729255E+02  0.00000000000E+00 0. -1.
         11    1    3    3    0    0  0.17684111106E+02  0.18604087314E+01 -0.99051451477E+01  0.20354380534E+02  0.51100000000E-03 0.  1.
        -11    1    3    3    0    0  0.12886227900E+02  0.48496197243E+01 -0.66365252380E+01  0.15284539524E+02  0.51100000000E-03 0. -1.
        -12    1    3    3    0    0  0.87189605092E+01 -0.82587856272E+01 -0.18315599969E+01  0.12148350687E+02  0.00000000000E+00 0.  1.
</event>
<event>
 7    1  0.1634068E-009  0.4778727E+02  0.7816164E-02  0.1312668E+00
        -11   -1    0    0    0    0  0.00000000000E+00  0.00000000000E+00  0.45593999997E+02  0.45594000000E+02  0.51100000000E-03 0.  1.
         11   -1    0    0    0    0 -0.00000000000E+00 -0.00000000000E+00 -0.45593999997E+02  0.45594000000E+02  0.51100000000E-03 0. -1.
    9900012    2    1    2    0    0 -0.46307601616E+01  0.42810427534E+02 -0.54265077572E+01  0.47787266921E+02  0.19999981200E+02 0.  0.
         12    1    1    2    0    0  0.46307601616E+01 -0.42810427534E+02  0.54265077572E+01  0.43400733079E+02  0.00000000000E+00 0. -1.
         11    1    3    3    0    0 -0.90997455485E+01  0.14342416635E+02  0.36841406253E-01  0.16985630442E+02  0.51100000000E-03 0. -1.
        -11    1    3    3    0    0 -0.28698020711E+00  0.22742495212E+02 -0.53146244285E+01  0.23356983520E+02  0.51100000000E-03 0.  1.
         12    1    3    3    0    0  0.47559655940E+01  0.57255156879E+01 -0.14872473491E+00  0.74446529584E+01  0.00000000000E+00 0. -1.
</event>
<event>
 7    1  0.1634068E-009  0.4778727E+02  0.7816164E-02  0.1312668E+00
        -11   -1    0    0    0    0  0.00000000000E+00  0.00000000000E+00  0.45593999997E+02  0.45594000000E+02  0.51100000000E-03 0.  1.
         11   -1    0    0    0    0 -0.00000000000E+00 -0.00000000000E+00 -0.45593999997E+02  0.45594000000E+02  0.51100000000E-03 0. -1.
    9900012    2    1    2    0    0 -0.25801610119E+02 -0.29594484075E+02  0.18495043748E+02  0.47787271715E+02  0.20000003058E+02 0.  0.
         12    1    1    2    0    0  0.25801610119E+02  0.29594484075E+02 -0.18495043748E+02  0.43400728285E+02  0.00000000000E+00 0. -1.
         11    1    3    3    0    0 -0.17470226219E+01 -0.81166001455E+00 -0.34588923640E+01  0.39591434260E+01  0.51100000000E-03 0. -1.
        -11    1    3    3    0    0 -0.11707259417E+02 -0.10199701331E+02  0.74950467286E+01  0.17241506779E+02  0.51100000000E-03 0.  1.
         12    1    3    3    0    0 -0.12347328080E+02 -0.18583122729E+02  0.14458889384E+02  0.26586621510E+02  0.00000000000E+00 0. -1.
</event>
<event>
 7    1  0.1634068E-009  0.4778727E+02  0.7816164E-02  0.1312668E+00
        -11   -1    0    0    0    0  0.00000000000E+00  0.00000000000E+00  0.45593999997E+02  0.45594000000E+02  0.51100000000E-03 0. -1.
         11   -1    0    0    0    0 -0.00000000000E+00 -0.00000000000E+00 -0.45593999997E+02  0.45594000000E+02  0.51100000000E-03 0.  1.
    9900012    2    1    2    0    0  0.53230022782E+01  0.23906548665E+02  0.35829675575E+02  0.47787273345E+02  0.20000010491E+02 0.  0.
         12    1    1    2    0    0 -0.53230022782E+01 -0.23906548665E+02 -0.35829675575E+02  0.43400726655E+02  0.00000000000E+00 0. -1.
         11    1    3    3    0    0  0.57774320818E+01  0.11314640938E+02  0.30159306667E+02  0.32725885777E+02  0.51100000000E-03 0. -1.
        -11    1    3    3    0    0  0.26259119398E+01  0.69952387002E+01  0.39192176103E+01  0.84373600686E+01  0.51100000000E-03 0.  1.
         12    1    3    3    0    0 -0.30803417433E+01  0.55966690267E+01  0.17511512980E+01  0.66240274999E+01  0.00000000000E+00 0. -1.
</event>
<event>
 7    1  0.1634068E-009  0.4778727E+02  0.7816164E-02  0.1312668E+00
        -11   -1    0    0    0    0  0.00000000000E+00  0.00000000000E+00  0.45593999997E+02  0.45594000000E+02  0.51100000000E-03 0.  1.
         11   -1    0    0    0    0 -0.00000000000E+00 -0.00000000000E+00 -0.45593999997E+02  0.45594000000E+02  0.51100000000E-03 0. -1.
    9900012    2    1    2    0    0 -0.24034967146E+02 -0.33716889323E+02  0.13004423142E+02  0.47787270830E+02  0.19999999020E+02 0.  0.
         12    1    1    2    0    0  0.24034967146E+02  0.33716889323E+02 -0.13004423142E+02  0.43400729170E+02  0.00000000000E+00 0. -1.
         11    1    3    3    0    0 -0.32049454437E+01 -0.75817811607E+00  0.49696705382E+01  0.59618902097E+01  0.51100000000E-03 0. -1.
        -11    1    3    3    0    0 -0.17694574865E+01  0.78964089049E+00 -0.75961606069E+00  0.20812326523E+01  0.51100000000E-03 0.  1.
        -12    1    3    3    0    0 -0.19060564215E+02 -0.33748352097E+02  0.87943686641E+01  0.39744147968E+02  0.00000000000E+00 0.  1.
</event>
<event>
 7    1  0.1634068E-009  0.4778727E+02  0.7816164E-02  0.1312668E+00
        -11   -1    0    0    0    0  0.00000000000E+00  0.00000000000E+00  0.45593999997E+02  0.45594000000E+02  0.51100000000E-03 0.  1.
         11   -1    0    0    0    0 -0.00000000000E+00 -0.00000000000E+00 -0.45593999997E+02  0.45594000000E+02  0.51100000000E-03 0. -1.
    9900012    2    1    2    0    0  0.66604963383E+01  0.40374469881E+02  0.14462483250E+02  0.47787268999E+02  0.19999990674E+02 0.  0.
         12    1    1    2    0    0 -0.66604963383E+01 -0.40374469881E+02 -0.14462483250E+02  0.43400731001E+02  0.00000000000E+00 0. -1.
         11    1    3    3    0    0  0.25523852963E+01  0.26476224573E+01 -0.26845560695E+01  0.45531765756E+01  0.51100000000E-03 0. -1.
        -11    1    3    3    0    0  0.88183629069E+00  0.21526587056E+01  0.49834982136E+01  0.54997117608E+01  0.51100000000E-03 0.  1.
        -12    1    3    3    0    0  0.32262747513E+01  0.35574188719E+02  0.12163541106E+02  0.37734380663E+02  0.00000000000E+00 0.  1.
</event>
<event>
 7    1  0.1634068E-009  0.4778727E+02  0.7816164E-02  0.1312668E+00
        -11   -1    0    0    0    0  0.00000000000E+00  0.00000000000E+00  0.45593999997E+02  0.45594000000E+02  0.51100000000E-03 0.  1.
         11   -1    0    0    0    0 -0.00000000000E+00 -0.00000000000E+00 -0.45593999997E+02  0.45594000000E+02  0.51100000000E-03 0. -1.
    9900012    2    1    2    0    0 -0.20264680362E+02 -0.65864281661E+01  0.37809854795E+02  0.47787269295E+02  0.19999992022E+02 0.  0.
         12    1    1    2    0    0  0.20264680362E+02  0.65864281661E+01 -0.37809854795E+02  0.43400730705E+02  0.00000000000E+00 0. -1.
         11    1    3    3    0    0 -0.21179097529E+01 -0.85369198334E+01  0.54771965251E+01  0.10361670908E+02  0.51100000000E-03 0. -1.
        -11    1    3    3    0    0 -0.57846777355E+01  0.14898806121E+01  0.67807971433E+01  0.90366725569E+01  0.51100000000E-03 0.  1.
         12    1    3    3    0    0 -0.12362092874E+02  0.46061105510E+00  0.25551861126E+02  0.28388925830E+02  0.00000000000E+00 0. -1.
</event>
<event>
 7    1  0.1634068E-009  0.4778728E+02  0.7816164E-02  0.1312668E+00
        -11   -1    0    0    0    0  0.00000000000E+00  0.00000000000E+00  0.45593999997E+02  0.45594000000E+02  0.51100000000E-03 0.  1.
         11   -1    0    0    0    0 -0.00000000000E+00 -0.00000000000E+00 -0.45593999997E+02  0.45594000000E+02  0.51100000000E-03 0. -1.
    9900012    2    1    2    0    0  0.39095447488E+02  0.16722526628E+02  0.86905366954E+01  0.47787281812E+02  0.20000049095E+02 0.  0.
         12    1    1    2    0    0 -0.39095447488E+02 -0.16722526628E+02 -0.86905366954E+01  0.43400718188E+02  0.00000000000E+00 0. -1.
         11    1    3    3    0    0  0.65413548692E+01 -0.21791662555E+01 -0.15265200724E+01  0.70617528197E+01  0.51100000000E-03 0. -1.
        -11    1    3    3    0    0  0.13071996600E+02  0.77407508672E+01 -0.17335995940E+01  0.15290575101E+02  0.51100000000E-03 0.  1.
        -12    1    3    3    0    0  0.19482096019E+02  0.11160942017E+02  0.11950656362E+02  0.25434953892E+02  0.00000000000E+00 0.  1.
</event>
<event>
 7    1  0.1634068E-009  0.4778727E+02  0.7816164E-02  0.1312668E+00
        -11   -1    0    0    0    0  0.00000000000E+00  0.00000000000E+00  0.45593999997E+02  0.45594000000E+02  0.51100000000E-03 0. -1.
         11   -1    0    0    0    0 -0.00000000000E+00 -0.00000000000E+00 -0.45593999997E+02  0.45594000000E+02  0.51100000000E-03 0.  1.
    9900012    2    1    2    0    0  0.39076135596E+02 -0.83088614220E+01 -0.16959993527E+02  0.47787274987E+02  0.20000017975E+02 0.  0.
         12    1    1    2    0    0 -0.39076135596E+02  0.83088614220E+01  0.16959993527E+02  0.43400725013E+02  0.00000000000E+00 0. -1.
         11    1    3    3    0    0  0.12357661224E+01 -0.22723008714E+01  0.11809372121E+00  0.25892886180E+01  0.51100000000E-03 0. -1.
        -11    1    3    3    0    0  0.37975042461E+02 -0.26731519464E+01 -0.13782289899E+02  0.40487048625E+02  0.51100000000E-03 0.  1.
        -12    1    3    3    0    0 -0.13467298801E+00 -0.33634086043E+01 -0.32957973497E+01  0.47109377435E+01  0.00000000000E+00 0.  1.
</event>
<event>
 7    1  0.1634068E-009  0.4778726E+02  0.7816164E-02  0.1312668E+00
        -11   -1    0    0    0    0  0.00000000000E+00  0.00000000000E+00  0.45593999997E+02  0.45594000000E+02  0.51100000000E-03 0. -1.
         11   -1    0    0    0    0 -0.00000000000E+00 -0.00000000000E+00 -0.45593999997E+02  0.45594000000E+02  0.51100000000E-03 0.  1.
    9900012    2    1    2    0    0 -0.14033251133E+01 -0.35242942945E+02 -0.25290106691E+02  0.47787264463E+02  0.19999969991E+02 0.  0.
         12    1    1    2    0    0  0.14033251133E+01  0.35242942945E+02  0.25290106691E+02  0.43400735537E+02  0.00000000000E+00 0. -1.
         11    1    3    3    0    0  0.48567413381E+01 -0.14590439368E+02 -0.27028173793E+01  0.15613266136E+02  0.51100000000E-03 0. -1.
        -11    1    3    3    0    0 -0.10696915453E+01 -0.74738408559E+00  0.36257858402E+00  0.13543583219E+01  0.51100000000E-03 0.  1.
        -12    1    3    3    0    0 -0.51903749061E+01 -0.19905119491E+02 -0.22949867895E+02  0.30819640005E+02  0.00000000000E+00 0.  1.
</event>
<event>
 7    1  0.1634068E-009  0.4778728E+02  0.7816164E-02  0.1312668E+00
        -11   -1    0    0    0    0  0.00000000000E+00  0.00000000000E+00  0.45593999997E+02  0.45594000000E+02  0.51100000000E-03 0.  1.
         11   -1    0    0    0    0 -0.00000000000E+00 -0.00000000000E+00 -0.45593999997E+02  0.45594000000E+02  0.51100000000E-03 0. -1.
    9900012    2    1    2    0    0  0.39168154466E+01  0.42478946197E+02  0.79887706918E+01  0.47787276844E+02  0.20000026444E+02 0.  0.
         12    1    1    2    0    0 -0.39168154466E+01 -0.42478946197E+02 -0.79887706918E+01  0.43400723156E+02  0.00000000000E+00 0. -1.
         11    1    3    3    0    0  0.38321930805E+01  0.92625517107E+01  0.39572741427E+01  0.10776854221E+02  0.51100000000E-03 0. -1.
        -11    1    3    3    0    0 -0.77173107108E+01  0.19086053082E+02  0.33233055363E+01  0.20853744671E+02  0.51100000000E-03 0.  1.
        -12    1    3    3    0    0  0.78019330769E+01  0.14130341404E+02  0.70819101279E+00  0.16156677952E+02  0.00000000000E+00 0.  1.
</event>
<event>
 7    1  0.1634068E-009  0.4778727E+02  0.7816164E-02  0.1312668E+00
        -11   -1    0    0    0    0  0.00000000000E+00  0.00000000000E+00  0.45593999997E+02  0.45594000000E+02  0.51100000000E-03 0.  1.
         11   -1    0    0    0    0 -0.00000000000E+00 -0.00000000000E+00 -0.45593999997E+02  0.45594000000E+02  0.51100000000E-03 0. -1.
    9900012    2    1    2    0    0  0.13692009698E+02 -0.25564964764E+01  0.41104950171E+02  0.47787265762E+02  0.19999975916E+02 0.  0.
         12    1    1    2    0    0 -0.13692009698E+02  0.25564964764E+01 -0.41104950171E+02  0.43400734238E+02  0.00000000000E+00 0. -1.
         11    1    3    3    0    0 -0.34439909161E+01 -0.34787738288E+01  0.72704476933E+01  0.87648360341E+01  0.51100000000E-03 0. -1.
        -11    1    3    3    0    0  0.22762304822E+01 -0.28517000751E+01  0.10369914911E+02  0.10993113938E+02  0.51100000000E-03 0.  1.
        -12    1    3    3    0    0  0.14859770132E+02  0.37739774276E+01  0.23464587567E+02  0.28029315790E+02  0.00000000000E+00 0.  1.
</event>
<event>
 7    1  0.1634068E-009  0.4778727E+02  0.7816164E-02  0.1312668E+00
        -11   -1    0    0    0    0  0.00000000000E+00  0.00000000000E+00  0.45593999997E+02  0.45594000000E+02  0.51100000000E-03 0. -1.
         11   -1    0    0    0    0 -0.00000000000E+00 -0.00000000000E+00 -0.45593999997E+02  0.45594000000E+02  0.51100000000E-03 0.  1.
    9900012    2    1    2    0    0 -0.15993172422E+02 -0.38643623691E+02 -0.11597930026E+02  0.47787271931E+02  0.20000004041E+02 0.  0.
         12    1    1    2    0    0  0.15993172422E+02  0.38643623691E+02  0.11597930026E+02  0.43400728069E+02  0.00000000000E+00 0. -1.
         11    1    3    3    0    0 -0.88771972814E+01 -0.25947236739E+02  0.21281361804E+01  0.27506230019E+02  0.51100000000E-03 0. -1.
        -11    1    3    3    0    0 -0.23640832866E+01 -0.17631073234E+01 -0.34808964028E+01  0.45622447597E+01  0.51100000000E-03 0.  1.
         12    1    3    3    0    0 -0.47518918541E+01 -0.10933279628E+02 -0.10245169803E+02  0.15718797152E+02  0.00000000000E+00 0. -1.
</event>
<event>
 7    1  0.1634068E-009  0.4778727E+02  0.7816164E-02  0.1312668E+00
        -11   -1    0    0    0    0  0.00000000000E+00  0.00000000000E+00  0.45593999997E+02  0.45594000000E+02  0.51100000000E-03 0. -1.
         11   -1    0    0    0    0 -0.00000000000E+00 -0.00000000000E+00 -0.45593999997E+02  0.45594000000E+02  0.51100000000E-03 0.  1.
    9900012    2    1    2    0    0  0.30863303239E+02  0.22280672207E+02 -0.20848291692E+02  0.47787272964E+02  0.20000008750E+02 0.  0.
         12    1    1    2    0    0 -0.30863303239E+02 -0.22280672207E+02  0.20848291692E+02  0.43400727036E+02  0.00000000000E+00 0. -1.
         11    1    3    3    0    0  0.28973386852E+01  0.70167002018E+01 -0.55244798979E+01  0.93887449418E+01  0.51100000000E-03 0. -1.
        -11    1    3    3    0    0  0.20799359565E+02  0.31041189763E+01 -0.80292601165E+01  0.22510396070E+02  0.51100000000E-03 0.  1.
        -12    1    3    3    0    0  0.71666049888E+01  0.12159853029E+02 -0.72945516774E+01  0.15888131952E+02  0.00000000000E+00 0.  1.
</event>
<event>
 7    1  0.1634068E-009  0.4778728E+02  0.7816164E-02  0.1312668E+00
        -11   -1    0    0    0    0  0.00000000000E+00  0.00000000000E+00  0.45593999997E+02  0.45594000000E+02  0.51100000000E-03 0.  1.
         11   -1    0    0    0    0 -0.00000000000E+00 -0.00000000000E+00 -0.45593999997E+02  0.45594000000E+02  0.51100000000E-03 0. -1.
    9900012    2    1    2    0    0 -0.46758072553E+01  0.30907740326E+02  0.30107655771E+02  0.47787279711E+02  0.20000039516E+02 0.  0.
         12    1    1    2    0    0  0.46758072553E+01 -0.30907740326E+02 -0.30107655771E+02  0.43400720289E+02  0.00000000000E+00 0. -1.
         11    1    3    3    0    0 -0.23632301305E+01  0.10830106077E+02  0.57027126753E+01  0.12465832761E+02  0.51100000000E-03 0. -1.
        -11    1    3    3    0    0  0.35690245507E-01  0.14377051968E+02  0.54271866915E+01  0.15367343711E+02  0.51100000000E-03 0.  1.
        -12    1    3    3    0    0 -0.23482673703E+01  0.57005822807E+01  0.18977756404E+02  0.19954103240E+02  0.00000000000E+00 0.  1.
</event>
<event>
 7    1  0.1634068E-009  0.4778727E+02  0.7816164E-02  0.1312668E+00
        -11   -1    0    0    0    0  0.00000000000E+00  0.00000000000E+00  0.45593999997E+02  0.45594000000E+02  0.51100000000E-03 0.  1.
         11   -1    0    0    0    0 -0.00000000000E+00 -0.00000000000E+00 -0.45593999997E+02  0.45594000000E+02  0.51100000000E-03 0. -1.
    9900012    2    1    2    0    0 -0.22056861727E+02 -0.36718576440E+02  0.69902871063E+01  0.47787272830E+02  0.20000008142E+02 0.  0.
         12    1    1    2    0    0  0.22056861727E+02  0.36718576440E+02 -0.69902871063E+01  0.43400727170E+02  0.00000000000E+00 0. -1.
         11    1    3    3    0    0 -0.30189660377E+01 -0.11160229878E+02 -0.37427349438E+01  0.12152076036E+02  0.51100000000E-03 0. -1.
        -11    1    3    3    0    0 -0.40405623341E+01 -0.13759564683E+02  0.78131816164E+01  0.16330877854E+02  0.51100000000E-03 0.  1.
         12    1    3    3    0    0 -0.14997333355E+02 -0.11798781879E+02  0.29198404337E+01  0.19304318940E+02  0.00000000000E+00 0. -1.
</event>
<event>
 7    1  0.1634068E-009  0.4778727E+02  0.7816164E-02  0.1312668E+00
        -11   -1    0    0    0    0  0.00000000000E+00  0.00000000000E+00  0.45593999997E+02  0.45594000000E+02  0.51100000000E-03 0.  1.
         11   -1    0    0    0    0 -0.00000000000E+00 -0.00000000000E+00 -0.45593999997E+02  0.45594000000E+02  0.51100000000E-03 0. -1.
    9900012    2    1    2    0    0 -0.84504388691E+01  0.11225870234E+02  0.41063282057E+02  0.47787271747E+02  0.20000003203E+02 0.  0.
         12    1    1    2    0    0  0.84504388691E+01 -0.11225870234E+02 -0.41063282057E+02  0.43400728253E+02  0.00000000000E+00 0. -1.
         11    1    3    3    0    0  0.17035071201E+01  0.36153631435E+01  0.16141852439E+02  0.16629256977E+02  0.51100000000E-03 0.  1.
        -11    1    3    3    0    0 -0.13597286886E+01  0.58136056859E+01  0.16182433430E+01  0.61859182791E+01  0.51100000000E-03 0. -1.
         12    1    3    3    0    0 -0.87942173007E+01  0.17969014046E+01  0.23303186275E+02  0.24972096491E+02  0.00000000000E+00 0. -1.
</event>
<event>
 7    1  0.1634068E-009  0.4778727E+02  0.7816164E-02  0.1312668E+00
        -11   -1    0    0    0    0  0.00000000000E+00  0.00000000000E+00  0.45593999997E+02  0.45594000000E+02  0.51100000000E-03 0.  1.
         11   -1    0    0    0    0 -0.00000000000E+00 -0.00000000000E+00 -0.45593999997E+02  0.45594000000E+02  0.51100000000E-03 0. -1.
    9900012    2    1    2    0    0  0.43166276299E+02 -0.16987705295E+01  0.41725264012E+01  0.47787271810E+02  0.20000003490E+02 0.  0.
         12    1    1    2    0    0 -0.43166276299E+02  0.16987705295E+01 -0.41725264012E+01  0.43400728190E+02  0.00000000000E+00 0. -1.
         11    1    3    3    0    0  0.27001714272E+01  0.87409568696E+00  0.28755364949E+01  0.40402573434E+01  0.51100000000E-03 0. -1.
        -11    1    3    3    0    0  0.34244739585E+02  0.26332275492E+01  0.52127091713E+01  0.34739148143E+02  0.51100000000E-03 0.  1.
         12    1    3    3    0    0  0.62213652876E+01 -0.52060937656E+01 -0.39157192650E+01  0.90078663235E+01  0.00000000000E+00 0. -1.
</event>
<event>
 7    1  0.1634068E-009  0.4778727E+02  0.7816164E-02  0.1312668E+00
        -11   -1    0    0    0    0  0.00000000000E+00  0.00000000000E+00  0.45593999997E+02  0.45594000000E+02  0.51100000000E-03 0. -1.
         11   -1    0    0    0    0 -0.00000000000E+00 -0.00000000000E+00 -0.45593999997E+02  0.45594000000E+02  0.51100000000E-03 0.  1.
    9900012    2    1    2    0    0 -0.14857140680E+02 -0.40405514000E+02 -0.55029896197E+01  0.47787273215E+02  0.20000009895E+02 0.  0.
         12    1    1    2    0    0  0.14857140680E+02  0.40405514000E+02  0.55029896197E+01  0.43400726785E+02  0.00000000000E+00 0. -1.
         11    1    3    3    0    0 -0.56466018727E+01 -0.13503868999E+02  0.41167195847E+01  0.15204800921E+02  0.51100000000E-03 0. -1.
        -11    1    3    3    0    0 -0.83149693251E+01 -0.74433082523E+01 -0.63227636331E+01  0.12826491837E+02  0.51100000000E-03 0.  1.
         12    1    3    3    0    0 -0.89556948185E+00 -0.19458336749E+02 -0.32969455714E+01  0.19755980457E+02  0.00000000000E+00 0. -1.
</event>
<event>
 7    1  0.1634068E-009  0.4778727E+02  0.7816164E-02  0.1312668E+00
        -11   -1    0    0    0    0  0.00000000000E+00  0.00000000000E+00  0.45593999997E+02  0.45594000000E+02  0.51100000000E-03 0.  1.
         11   -1    0    0    0    0 -0.00000000000E+00 -0.00000000000E+00 -0.45593999997E+02  0.45594000000E+02  0.51100000000E-03 0. -1.
    9900012    2    1    2    0    0  0.22220272701E+02 -0.17954441102E+02  0.32672938202E+02  0.47787269995E+02  0.19999995217E+02 0.  0.
         12    1    1    2    0    0 -0.22220272701E+02  0.17954441102E+02 -0.32672938202E+02  0.43400730005E+02  0.00000000000E+00 0. -1.
         11    1    3    3    0    0 -0.30963931040E+00 -0.42173701389E+01  0.71257180867E+01  0.82860090455E+01  0.51100000000E-03 0. -1.
        -11    1    3    3    0    0  0.20609520456E+02 -0.13937525497E+02  0.27269547267E+02  0.36913888428E+02  0.51100000000E-03 0.  1.
         12    1    3    3    0    0  0.19203915558E+01  0.20045453436E+00 -0.17223271525E+01  0.25873725221E+01  0.00000000000E+00 0. -1.
</event>
<event>
 7    1  0.1634068E-009  0.4778727E+02  0.7816164E-02  0.1312668E+00
        -11   -1    0    0    0    0  0.00000000000E+00  0.00000000000E+00  0.45593999997E+02  0.45594000000E+02  0.51100000000E-03 0.  1.
         11   -1    0    0    0    0 -0.00000000000E+00 -0.00000000000E+00 -0.45593999997E+02  0.45594000000E+02  0.51100000000E-03 0. -1.
    9900012    2    1    2    0    0 -0.34782897880E+02 -0.46787523980E+01  0.25532000578E+02  0.47787265416E+02  0.19999974337E+02 0.  0.
         12    1    1    2    0    0  0.34782897880E+02  0.46787523980E+01 -0.25532000578E+02  0.43400734584E+02  0.00000000000E+00 0. -1.
         11    1    3    3    0    0 -0.29344459413E+01 -0.65308821800E+01  0.82939905320E+01  0.10956900759E+02  0.51100000000E-03 0. -1.
        -11    1    3    3    0    0 -0.13443343701E+02 -0.22477840633E+01  0.83508748519E+01  0.15984778200E+02  0.51100000000E-03 0.  1.
         12    1    3    3    0    0 -0.18405108238E+02  0.40999138453E+01  0.88871351942E+01  0.20845586457E+02  0.00000000000E+00 0. -1.
</event>
<event>
 7    1  0.1634068E-009  0.4778726E+02  0.7816164E-02  0.1312668E+00
        -11   -1    0    0    0    0  0.00000000000E+00  0.00000000000E+00  0.45593999997E+02  0.45594000000E+02  0.51100000000E-03 0. -1.
         11   -1    0    0    0    0 -0.00000000000E+00 -0.00000000000E+00 -0.45593999997E+02  0.45594000000E+02  0.51100000000E-03 0.  1.
    9900012    2    1    2    0    0  0.42109491491E+02  0.10185339700E+02 -0.25833809062E+01  0.47787259507E+02  0.19999947395E+02 0.  0.
         12    1    1    2    0    0 -0.42109491491E+02 -0.10185339700E+02  0.25833809062E+01  0.43400740493E+02  0.00000000000E+00 0. -1.
         11    1    3    3    0    0  0.36191218898E+02  0.68295733458E+01 -0.24421284770E+01  0.36910857334E+02  0.51100000000E-03 0. -1.
        -11    1    3    3    0    0  0.25282091508E+01 -0.20294033058E+01 -0.24958105718E+01  0.40913799578E+01  0.51100000000E-03 0.  1.
         12    1    3    3    0    0  0.33900634428E+01  0.53851696597E+01  0.23545581427E+01  0.67850222149E+01  0.00000000000E+00 0. -1.
</event>
<event>
 7    1  0.1634068E-009  0.4778727E+02  0.7816164E-02  0.1312668E+00
        -11   -1    0    0    0    0  0.00000000000E+00  0.00000000000E+00  0.45593999997E+02  0.45594000000E+02  0.51100000000E-03 0.  1.
         11   -1    0    0    0    0 -0.00000000000E+00 -0.00000000000E+00 -0.45593999997E+02  0.45594000000E+02  0.51100000000E-03 0. -1.
    9900012    2    1    2    0    0  0.12641096688E+02  0.36436727199E+02  0.19904537588E+02  0.47787273842E+02  0.20000012757E+02 0.  0.
         12    1    1    2    0    0 -0.12641096688E+02 -0.36436727199E+02 -0.19904537588E+02  0.43400726158E+02  0.00000000000E+00 0. -1.
         11    1    3    3    0    0 -0.17612023904E+01  0.74241743684E+01  0.68142389780E+01  0.10230056306E+02  0.51100000000E-03 0. -1.
        -11    1    3    3    0    0 -0.85992417925E+00  0.83120194945E+01  0.75209137610E+01  0.11242476673E+02  0.51100000000E-03 0.  1.
        -12    1    3    3    0    0  0.15262223258E+02  0.20700533336E+02  0.55693848487E+01  0.26314740864E+02  0.00000000000E+00 0.  1.
</event>
<event>
 7    1  0.1634068E-009  0.4778727E+02  0.7816164E-02  0.1312668E+00
        -11   -1    0    0    0    0  0.00000000000E+00  0.00000000000E+00  0.45593999997E+02  0.45594000000E+02  0.51100000000E-03 0.  1.
         11   -1    0    0    0    0 -0.00000000000E+00 -0.00000000000E+00 -0.45593999997E+02  0.45594000000E+02  0.51100000000E-03 0. -1.
    9900012    2    1    2    0    0 -0.42773011770E+02 -0.62896748779E+01 -0.38121760049E+01  0.47787271529E+02  0.20000002208E+02 0.  0.
         12    1    1    2    0    0  0.42773011770E+02  0.62896748779E+01  0.38121760049E+01  0.43400728471E+02  0.00000000000E+00 0. -1.
         11    1    3    3    0    0 -0.75571203778E+01 -0.36087739796E+01  0.33955497808E+01  0.90367625074E+01  0.51100000000E-03 0. -1.
        -11    1    3    3    0    0 -0.30188571478E+02 -0.39872968964E+01 -0.74601221547E+00  0.30459890330E+02  0.51100000000E-03 0.  1.
        -12    1    3    3    0    0 -0.50273199144E+01  0.13063959981E+01 -0.64617135702E+01  0.82906186915E+01  0.00000000000E+00 0.  1.
</event>
<event>
 7    1  0.1634068E-009  0.4778727E+02  0.7816164E-02  0.1312668E+00
        -11   -1    0    0    0    0  0.00000000000E+00  0.00000000000E+00  0.45593999997E+02  0.45594000000E+02  0.51100000000E-03 0.  1.
         11   -1    0    0    0    0 -0.00000000000E+00 -0.00000000000E+00 -0.45593999997E+02  0.45594000000E+02  0.51100000000E-03 0. -1.
    9900012    2    1    2    0    0 -0.28764523783E+02  0.23150615637E+02  0.22809529521E+02  0.47787268787E+02  0.19999989708E+02 0.  0.
         12    1    1    2    0    0  0.28764523783E+02 -0.23150615637E+02 -0.22809529521E+02  0.43400731213E+02  0.00000000000E+00 0. -1.
         11    1    3    3    0    0 -0.20190972978E+02  0.18283568116E+02  0.15454498036E+02  0.31317818613E+02  0.51100000000E-03 0. -1.
        -11    1    3    3    0    0 -0.85086404256E+01  0.74228811290E+00  0.86397156901E+01  0.12148771173E+02  0.51100000000E-03 0.  1.
         12    1    3    3    0    0 -0.64910378998E-01  0.41247594081E+01 -0.12846842048E+01  0.43206790020E+01  0.00000000000E+00 0. -1.
</event>
<event>
 7    1  0.1634068E-009  0.4778727E+02  0.7816164E-02  0.1312668E+00
        -11   -1    0    0    0    0  0.00000000000E+00  0.00000000000E+00  0.45593999997E+02  0.45594000000E+02  0.51100000000E-03 0. -1.
         11   -1    0    0    0    0 -0.00000000000E+00 -0.00000000000E+00 -0.45593999997E+02  0.45594000000E+02  0.51100000000E-03 0.  1.
    9900012    2    1    2    0    0 -0.10121192990E+02  0.41601642568E+02  0.71055017796E+01  0.47787269966E+02  0.19999995084E+02 0.  0.
         12    1    1    2    0    0  0.10121192990E+02 -0.41601642568E+02 -0.71055017796E+01  0.43400730034E+02  0.00000000000E+00 0. -1.
         11    1    3    3    0    0 -0.25646131283E+01  0.11401967311E+02  0.75717335947E+01  0.13925273748E+02  0.51100000000E-03 0. -1.
        -11    1    3    3    0    0 -0.17683764877E+01  0.27333630626E+02 -0.68575713726E+00  0.27399357323E+02  0.51100000000E-03 0.  1.
         12    1    3    3    0    0 -0.57882033739E+01  0.28660446318E+01  0.21952532216E+00  0.64626388957E+01  0.00000000000E+00 0. -1.
</event>
<event>
 7    1  0.1634068E-009  0.4778727E+02  0.7816164E-02  0.1312668E+00
        -11   -1    0    0    0    0  0.00000000000E+00  0.00000000000E+00  0.45593999997E+02  0.45594000000E+02  0.51100000000E-03 0.  1.
         11   -1    0    0    0    0 -0.00000000000E+00 -0.00000000000E+00 -0.45593999997E+02  0.45594000000E+02  0.51100000000E-03 0. -1.
    9900012    2    1    2    0    0 -0.35214395646E+02 -0.14013067012E+02  0.21147186404E+02  0.47787271888E+02  0.20000003848E+02 0.  0.
         12    1    1    2    0    0  0.35214395646E+02  0.14013067012E+02 -0.21147186404E+02  0.43400728112E+02  0.00000000000E+00 0. -1.
         11    1    3    3    0    0 -0.33365297952E+00  0.86232193421E+00  0.53165387195E+01  0.53963420616E+01  0.51100000000E-03 0. -1.
        -11    1    3    3    0    0 -0.13988586195E+02 -0.11087922726E+02  0.95746959416E+01  0.20255798596E+02  0.51100000000E-03 0.  1.
         12    1    3    3    0    0 -0.20892156471E+02 -0.37874662203E+01  0.62559517430E+01  0.22135131231E+02  0.00000000000E+00 0. -1.
</event>
<event>
 7    1  0.1634068E-009  0.4778728E+02  0.7816164E-02  0.1312668E+00
        -11   -1    0    0    0    0  0.00000000000E+00  0.00000000000E+00  0.45593999997E+02  0.45594000000E+02  0.51100000000E-03 0.  1.
         11   -1    0    0    0    0 -0.00000000000E+00 -0.00000000000E+00 -0.45593999997E+02  0.45594000000E+02  0.51100000000E-03 0. -1.
    9900012    2    1    2    0    0  0.13928673251E+02  0.41057210266E+02  0.19800037603E+01  0.47787275718E+02  0.20000021307E+02 0.  0.
         12    1    1    2    0    0 -0.13928673251E+02 -0.41057210266E+02 -0.19800037603E+01  0.43400724282E+02  0.00000000000E+00 0. -1.
         11    1    3    3    0    0  0.21844960002E+01  0.13760528573E+02 -0.28175937529E+01  0.14214886711E+02  0.51100000000E-03 0. -1.
        -11    1    3    3    0    0 -0.16667772738E+01  0.44195187531E+01  0.52344669825E+01  0.70505274513E+01  0.51100000000E-03 0.  1.
        -12    1    3    3    0    0  0.13410954525E+02  0.22877162940E+02 -0.43686946926E+00  0.26521861555E+02  0.00000000000E+00 0.  1.
</event>
<event>
 7    1  0.1634068E-009  0.4778727E+02  0.7816164E-02  0.1312668E+00
        -11   -1    0    0    0    0  0.00000000000E+00  0.00000000000E+00  0.45593999997E+02  0.45594000000E+02  0.51100000000E-03 0. -1.
         11   -1    0    0    0    0 -0.00000000000E+00 -0.00000000000E+00 -0.45593999997E+02  0.45594000000E+02  0.51100000000E-03 0.  1.
    9900012    2    1    2    0    0  0.26707762825E+02  0.31146701935E+02 -0.14149254132E+02  0.47787273865E+02  0.20000012861E+02 0.  0.
         12    1    1    2    0    0 -0.26707762825E+02 -0.31146701935E+02  0.14149254132E+02  0.43400726135E+02  0.00000000000E+00 0. -1.
         11    1    3    3    0    0  0.36636361119E+01 -0.12371247443E+01  0.42874048023E+00  0.38905688343E+01  0.51100000000E-03 0. -1.
        -11    1    3    3    0    0  0.46615987216E+01  0.14405550610E+02 -0.89056388605E+01  0.17565898633E+02  0.51100000000E-03 0.  1.
         12    1    3    3    0    0  0.18382527992E+02  0.17978276069E+02 -0.56723557518E+01  0.26330806398E+02  0.00000000000E+00 0. -1.
</event>
<event>
 7    1  0.1634068E-009  0.4778726E+02  0.7816164E-02  0.1312668E+00
        -11   -1    0    0    0    0  0.00000000000E+00  0.00000000000E+00  0.45593999997E+02  0.45594000000E+02  0.51100000000E-03 0. -1.
         11   -1    0    0    0    0 -0.00000000000E+00 -0.00000000000E+00 -0.45593999997E+02  0.45594000000E+02  0.51100000000E-03 0.  1.
    9900012    2    1    2    0    0  0.39639339257E+02 -0.55349125822E+01 -0.16784266007E+02  0.47787261995E+02  0.19999958738E+02 0.  0.
         12    1    1    2    0    0 -0.39639339257E+02  0.55349125822E+01  0.16784266007E+02  0.43400738005E+02  0.00000000000E+00 0. -1.
         11    1    3    3    0    0  0.10872017842E+02 -0.13752818494E+01 -0.10402925221E+01  0.11007923552E+02  0.51100000000E-03 0. -1.
        -11    1    3    3    0    0  0.17202328172E+02  0.37159058280E+01 -0.29986443418E+01  0.17852728610E+02  0.51100000000E-03 0.  1.
         12    1    3    3    0    0  0.11564993243E+02 -0.78755365607E+01 -0.12745329143E+02  0.18926609833E+02  0.00000000000E+00 0. -1.
</event>
<event>
 7    1  0.1634068E-009  0.4778727E+02  0.7816164E-02  0.1312668E+00
        -11   -1    0    0    0    0  0.00000000000E+00  0.00000000000E+00  0.45593999997E+02  0.45594000000E+02  0.51100000000E-03 0.  1.
         11   -1    0    0    0    0 -0.00000000000E+00 -0.00000000000E+00 -0.45593999997E+02  0.45594000000E+02  0.51100000000E-03 0. -1.
    9900012    2    1    2    0    0 -0.19201026072E+02  0.26366286366E+02  0.28631495505E+02  0.47787274271E+02  0.20000014711E+02 0.  0.
         12    1    1    2    0    0  0.19201026072E+02 -0.26366286366E+02 -0.28631495505E+02  0.43400725729E+02  0.00000000000E+00 0. -1.
         11    1    3    3    0    0 -0.55662184914E+01  0.55035737636E+00  0.55091291889E+01  0.78508716851E+01  0.51100000000E-03 0. -1.
        -11    1    3    3    0    0 -0.11656384451E+02  0.17917297342E+02  0.81178147827E+01  0.22864814883E+02  0.51100000000E-03 0.  1.
         12    1    3    3    0    0 -0.19784231294E+01  0.78986316480E+01  0.15004551533E+02  0.17071587703E+02  0.00000000000E+00 0. -1.
</event>
<event>
 7    1  0.1634068E-009  0.4778727E+02  0.7816164E-02  0.1312668E+00
        -11   -1    0    0    0    0  0.00000000000E+00  0.00000000000E+00  0.45593999997E+02  0.45594000000E+02  0.51100000000E-03 0.  1.
         11   -1    0    0    0    0 -0.00000000000E+00 -0.00000000000E+00 -0.45593999997E+02  0.45594000000E+02  0.51100000000E-03 0. -1.
    9900012    2    1    2    0    0 -0.31335365854E+02  0.27535798970E+02 -0.11979061129E+02  0.47787270932E+02  0.19999999486E+02 0.  0.
         12    1    1    2    0    0  0.31335365854E+02 -0.27535798970E+02  0.11979061129E+02  0.43400729068E+02  0.00000000000E+00 0. -1.
         11    1    3    3    0    0 -0.12725975832E+02  0.14847261484E+02  0.16233190390E+00  0.19555510384E+02  0.51100000000E-03 0. -1.
        -11    1    3    3    0    0 -0.15435567110E+02  0.40699294760E+01 -0.54482276052E+01  0.16867253548E+02  0.51100000000E-03 0.  1.
         12    1    3    3    0    0 -0.31738229113E+01  0.86186080104E+01 -0.66931654275E+01  0.11364507000E+02  0.00000000000E+00 0. -1.
</event>
<event>
 7    1  0.1634068E-009  0.4778727E+02  0.7816164E-02  0.1312668E+00
        -11   -1    0    0    0    0  0.00000000000E+00  0.00000000000E+00  0.45593999997E+02  0.45594000000E+02  0.51100000000E-03 0. -1.
         11   -1    0    0    0    0 -0.00000000000E+00 -0.00000000000E+00 -0.45593999997E+02  0.45594000000E+02  0.51100000000E-03 0.  1.
    9900012    2    1    2    0    0 -0.13205998157E+02  0.40955406400E+02 -0.56461951263E+01  0.47787271664E+02  0.20000002825E+02 0.  0.
         12    1    1    2    0    0  0.13205998157E+02 -0.40955406400E+02  0.56461951263E+01  0.43400728336E+02  0.00000000000E+00 0. -1.
         11    1    3    3    0    0 -0.42330944775E+01  0.24386030253E+01 -0.48164888588E-01  0.48855085394E+01  0.51100000000E-03 0. -1.
        -11    1    3    3    0    0 -0.99135345915E+01  0.37573941641E+02 -0.84377427445E+01  0.39765245648E+02  0.51100000000E-03 0.  1.
         12    1    3    3    0    0  0.94063091224E+00  0.94286173311E+00  0.28397125068E+01  0.31365174768E+01  0.00000000000E+00 0. -1.
</event>
<event>
 7    1  0.1634068E-009  0.4778726E+02  0.7816164E-02  0.1312668E+00
        -11   -1    0    0    0    0  0.00000000000E+00  0.00000000000E+00  0.45593999997E+02  0.45594000000E+02  0.51100000000E-03 0. -1.
         11   -1    0    0    0    0 -0.00000000000E+00 -0.00000000000E+00 -0.45593999997E+02  0.45594000000E+02  0.51100000000E-03 0.  1.
    9900012    2    1    2    0    0  0.33527557481E+02  0.59018685500E+01 -0.26920155161E+02  0.47787263637E+02  0.19999966225E+02 0.  0.
         12    1    1    2    0    0 -0.33527557481E+02 -0.59018685500E+01  0.26920155161E+02  0.43400736363E+02  0.00000000000E+00 0. -1.
         11    1    3    3    0    0  0.21548870841E+02  0.58406358217E+01 -0.61669429259E+01  0.23162427478E+02  0.51100000000E-03 0. -1.
        -11    1    3    3    0    0  0.65503916608E+01 -0.21357775925E+01 -0.77863094971E+01  0.10396912651E+02  0.51100000000E-03 0.  1.
         12    1    3    3    0    0  0.54282949782E+01  0.21970103208E+01 -0.12966902738E+02  0.14227923508E+02  0.00000000000E+00 0. -1.
</event>
<event>
 7    1  0.1634068E-009  0.4778726E+02  0.7816164E-02  0.1312668E+00
        -11   -1    0    0    0    0  0.00000000000E+00  0.00000000000E+00  0.45593999997E+02  0.45594000000E+02  0.51100000000E-03 0.  1.
         11   -1    0    0    0    0 -0.00000000000E+00 -0.00000000000E+00 -0.45593999997E+02  0.45594000000E+02  0.51100000000E-03 0. -1.
    9900012    2    1    2    0    0 -0.30718366238E+02 -0.30381700979E+02 -0.41180876810E+01  0.47787257785E+02  0.19999939544E+02 0.  0.
         12    1    1    2    0    0  0.30718366238E+02  0.30381700979E+02  0.41180876810E+01  0.43400742215E+02  0.00000000000E+00 0. -1.
         11    1    3    3    0    0 -0.39559575455E+01 -0.22269414745E+01 -0.41674559864E+01  0.61625123199E+01  0.51100000000E-03 0. -1.
        -11    1    3    3    0    0 -0.85915851455E+01 -0.14218138211E+02  0.64918915693E+01  0.17835791149E+02  0.51100000000E-03 0.  1.
         12    1    3    3    0    0 -0.18170823547E+02 -0.13936621293E+02 -0.64425232639E+01  0.23788954316E+02  0.00000000000E+00 0. -1.
</event>
<event>
 7    1  0.1634068E-009  0.4778727E+02  0.7816164E-02  0.1312668E+00
        -11   -1    0    0    0    0  0.00000000000E+00  0.00000000000E+00  0.45593999997E+02  0.45594000000E+02  0.51100000000E-03 0.  1.
         11   -1    0    0    0    0 -0.00000000000E+00 -0.00000000000E+00 -0.45593999997E+02  0.45594000000E+02  0.51100000000E-03 0. -1.
    9900012    2    1    2    0    0 -0.25609151085E+02 -0.27802673487E+02  0.21326177661E+02  0.47787272749E+02  0.20000007772E+02 0.  0.
         12    1    1    2    0    0  0.25609151085E+02  0.27802673487E+02 -0.21326177661E+02  0.43400727251E+02  0.00000000000E+00 0. -1.
         11    1    3    3    0    0 -0.30668156813E+00 -0.36602602483E+01  0.10148381904E+02  0.10792646302E+02  0.51100000000E-03 0. -1.
        -11    1    3    3    0    0 -0.85407603884E+01 -0.58059476655E+01  0.45318480437E+01  0.11277910412E+02  0.51100000000E-03 0.  1.
         12    1    3    3    0    0 -0.16761709129E+02 -0.18336465573E+02  0.66459477127E+01  0.25716716035E+02  0.00000000000E+00 0. -1.
</event>
<event>
 7    1  0.1634068E-009  0.4778726E+02  0.7816164E-02  0.1312668E+00
        -11   -1    0    0    0    0  0.00000000000E+00  0.00000000000E+00  0.45593999997E+02  0.45594000000E+02  0.51100000000E-03 0. -1.
         11   -1    0    0    0    0 -0.00000000000E+00 -0.00000000000E+00 -0.45593999997E+02  0.45594000000E+02  0.51100000000E-03 0.  1.
    9900012    2    1    2    0    0  0.49970377642E+01 -0.38558434709E+02 -0.19284734031E+02  0.47787259911E+02  0.19999949238E+02 0.  0.
         12    1    1    2    0    0 -0.49970377642E+01  0.38558434709E+02  0.19284734031E+02  0.43400740089E+02  0.00000000000E+00 0. -1.
         11    1    3    3    0    0 -0.47277429662E+01 -0.11064043183E+02 -0.28551906562E+01  0.12365949986E+02  0.51100000000E-03 0. -1.
        -11    1    3    3    0    0  0.33629564475E+01 -0.10044578380E+02 -0.12593487281E+02  0.16455970134E+02  0.51100000000E-03 0.  1.
         12    1    3    3    0    0  0.63618242829E+01 -0.17449813146E+02 -0.38360560941E+01  0.18965339791E+02  0.00000000000E+00 0. -1.
</event>
<event>
 7    1  0.1634068E-009  0.4778727E+02  0.7816164E-02  0.1312668E+00
        -11   -1    0    0    0    0  0.00000000000E+00  0.00000000000E+00  0.45593999997E+02  0.45594000000E+02  0.51100000000E-03 0. -1.
         11   -1    0    0    0    0 -0.00000000000E+00 -0.00000000000E+00 -0.45593999997E+02  0.45594000000E+02  0.51100000000E-03 0.  1.
    9900012    2    1    2    0    0 -0.24482614003E+02 -0.31927972272E+02 -0.16273583362E+02  0.47787270545E+02  0.19999997721E+02 0.  0.
         12    1    1    2    0    0  0.24482614003E+02  0.31927972272E+02  0.16273583362E+02  0.43400729455E+02  0.00000000000E+00 0. -1.
         11    1    3    3    0    0 -0.46697446848E+01 -0.14460418089E+02 -0.11442331404E+02  0.19022017636E+02  0.51100000000E-03 0. -1.
        -11    1    3    3    0    0 -0.14099259340E+02 -0.17220174754E+02 -0.57162239397E+01  0.22978223363E+02  0.51100000000E-03 0.  1.
         12    1    3    3    0    0 -0.57136099776E+01 -0.24737942894E+00  0.88497198176E+00  0.57870295460E+01  0.00000000000E+00 0. -1.
</event>
<event>
 7    1  0.1634068E-009  0.4778727E+02  0.7816164E-02  0.1312668E+00
        -11   -1    0    0    0    0  0.00000000000E+00  0.00000000000E+00  0.45593999997E+02  0.45594000000E+02  0.51100000000E-03 0. -1.
         11   -1    0    0    0    0 -0.00000000000E+00 -0.00000000000E+00 -0.45593999997E+02  0.45594000000E+02  0.51100000000E-03 0.  1.
    9900012    2    1    2    0    0 -0.18001144285E+02 -0.24649749719E+02 -0.30854042574E+02  0.47787270744E+02  0.19999998629E+02 0.  0.
         12    1    1    2    0    0  0.18001144285E+02  0.24649749719E+02  0.30854042574E+02  0.43400729256E+02  0.00000000000E+00 0. -1.
         11    1    3    3    0    0 -0.87061234728E+01 -0.39649887163E+01 -0.15679815751E+02  0.18367752821E+02  0.51100000000E-03 0. -1.
        -11    1    3    3    0    0 -0.10177288879E+02 -0.12624115846E+02 -0.13590159538E+02  0.21157456046E+02  0.51100000000E-03 0.  1.
         12    1    3    3    0    0  0.88226806633E+00 -0.80606451569E+01 -0.15840672855E+01  0.82620618765E+01  0.00000000000E+00 0. -1.
</event>
<event>
 7    1  0.1634068E-009  0.4778727E+02  0.7816164E-02  0.1312668E+00
        -11   -1    0    0    0    0  0.00000000000E+00  0.00000000000E+00  0.45593999997E+02  0.45594000000E+02  0.51100000000E-03 0. -1.
         11   -1    0    0    0    0 -0.00000000000E+00 -0.00000000000E+00 -0.45593999997E+02  0.45594000000E+02  0.51100000000E-03 0.  1.
    9900012    2    1    2    0    0  0.84445728087E+01  0.18385133700E+01 -0.42531542341E+02  0.47787273794E+02  0.20000012536E+02 0.  0.
         12    1    1    2    0    0 -0.84445728087E+01 -0.18385133700E+01  0.42531542341E+02  0.43400726206E+02  0.00000000000E+00 0. -1.
         11    1    3    3    0    0 -0.20815540804E+01 -0.25471631053E+01 -0.79401723166E+01  0.85946055147E+01  0.51100000000E-03 0. -1.
        -11    1    3    3    0    0  0.54887259442E+01 -0.51395560416E+01 -0.11965494906E+02  0.14132028071E+02  0.51100000000E-03 0.  1.
        -12    1    3    3    0    0  0.50374009450E+01  0.95252325169E+01 -0.22625875118E+02  0.25060640208E+02  0.00000000000E+00 0.  1.
</event>
<event>
 7    1  0.1634068E-009  0.4778727E+02  0.7816164E-02  0.1312668E+00
        -11   -1    0    0    0    0  0.00000000000E+00  0.00000000000E+00  0.45593999997E+02  0.45594000000E+02  0.51100000000E-03 0. -1.
         11   -1    0    0    0    0 -0.00000000000E+00 -0.00000000000E+00 -0.45593999997E+02  0.45594000000E+02  0.51100000000E-03 0.  1.
    9900012    2    1    2    0    0 -0.27243985208E+02  0.33767825347E+02 -0.10594981352E+01  0.47787270801E+02  0.19999998890E+02 0.  0.
         12    1    1    2    0    0  0.27243985208E+02 -0.33767825347E+02  0.10594981352E+01  0.43400729199E+02  0.00000000000E+00 0. -1.
         11    1    3    3    0    0 -0.53790877934E+01  0.11880851093E+02  0.34118699945E+01  0.13480729406E+02  0.51100000000E-03 0. -1.
        -11    1    3    3    0    0 -0.17579502560E+02  0.21632536111E+02 -0.77186818224E+01  0.28923754566E+02  0.51100000000E-03 0.  1.
        -12    1    3    3    0    0 -0.42853948544E+01  0.25443814286E+00  0.32473136927E+01  0.53827868289E+01  0.00000000000E+00 0.  1.
</event>
<event>
 7    1  0.1634068E-009  0.4778727E+02  0.7816164E-02  0.1312668E+00
        -11   -1    0    0    0    0  0.00000000000E+00  0.00000000000E+00  0.45593999997E+02  0.45594000000E+02  0.51100000000E-03 0.  1.
         11   -1    0    0    0    0 -0.00000000000E+00 -0.00000000000E+00 -0.45593999997E+02  0.45594000000E+02  0.51100000000E-03 0. -1.
    9900012    2    1    2    0    0  0.10452570859E+02 -0.41261309617E+02  0.84777194589E+01  0.47787266871E+02  0.19999980973E+02 0.  0.
         12    1    1    2    0    0 -0.10452570859E+02  0.41261309617E+02 -0.84777194589E+01  0.43400733129E+02  0.00000000000E+00 0. -1.
         11    1    3    3    0    0  0.10328988577E+02 -0.36032958946E+02  0.15355405746E+01  0.37515597031E+02  0.51100000000E-03 0. -1.
        -11    1    3    3    0    0 -0.21638473573E+01 -0.26336269561E+01  0.12888775040E+01  0.36440954723E+01  0.51100000000E-03 0.  1.
        -12    1    3    3    0    0  0.22874296394E+01 -0.25947237146E+01  0.56533013803E+01  0.66275743683E+01  0.00000000000E+00 0.  1.
</event>
<event>
 7    1  0.1634068E-009  0.4778727E+02  0.7816164E-02  0.1312668E+00
        -11   -1    0    0    0    0  0.00000000000E+00  0.00000000000E+00  0.45593999997E+02  0.45594000000E+02  0.51100000000E-03 0. -1.
         11   -1    0    0    0    0 -0.00000000000E+00 -0.00000000000E+00 -0.45593999997E+02  0.45594000000E+02  0.51100000000E-03 0.  1.
    9900012    2    1    2    0    0  0.20461043772E+02  0.90542151669E+01 -0.37188572947E+02  0.47787273250E+02  0.20000010058E+02 0.  0.
         12    1    1    2    0    0 -0.20461043772E+02 -0.90542151669E+01  0.37188572947E+02  0.43400726750E+02  0.00000000000E+00 0. -1.
         11    1    3    3    0    0  0.82350117017E+00  0.10188524372E+01  0.15580135921E+01  0.20355886324E+01  0.51100000000E-03 0. -1.
        -11    1    3    3    0    0  0.36367952323E+01  0.70893688266E+01 -0.16600674684E+02  0.18413794561E+02  0.51100000000E-03 0.  1.
         12    1    3    3    0    0  0.16000747369E+02  0.94599390310E+00 -0.22145911855E+02  0.27337890057E+02  0.00000000000E+00 0. -1.
</event>
<event>
 7    1  0.1634068E-009  0.4778726E+02  0.7816164E-02  0.1312668E+00
        -11   -1    0    0    0    0  0.00000000000E+00  0.00000000000E+00  0.45593999997E+02  0.45594000000E+02  0.51100000000E-03 0.  1.
         11   -1    0    0    0    0 -0.00000000000E+00 -0.00000000000E+00 -0.45593999997E+02  0.45594000000E+02  0.51100000000E-03 0. -1.
    9900012    2    1    2    0    0  0.38268250958E+02 -0.14307657789E+02  0.14644331279E+02  0.47787256441E+02  0.19999933419E+02 0.  0.
         12    1    1    2    0    0 -0.38268250958E+02  0.14307657789E+02 -0.14644331279E+02  0.43400743559E+02  0.00000000000E+00 0. -1.
         11    1    3    3    0    0 -0.10688307069E+01  0.14580487724E+01 -0.12341860428E+01  0.21889542600E+01  0.51100000000E-03 0. -1.
        -11    1    3    3    0    0  0.78781721283E+01 -0.42130696205E+01  0.12095934887E+01  0.90154682840E+01  0.51100000000E-03 0.  1.
        -12    1    3    3    0    0  0.31458909537E+02 -0.11552636941E+02  0.14668923833E+02  0.36582833897E+02  0.00000000000E+00 0.  1.
</event>
<event>
 7    1  0.1634068E-009  0.4778727E+02  0.7816164E-02  0.1312668E+00
        -11   -1    0    0    0    0  0.00000000000E+00  0.00000000000E+00  0.45593999997E+02  0.45594000000E+02  0.51100000000E-03 0.  1.
         11   -1    0    0    0    0 -0.00000000000E+00 -0.00000000000E+00 -0.45593999997E+02  0.45594000000E+02  0.51100000000E-03 0. -1.
    9900012    2    1    2    0    0  0.16137733617E+02 -0.39546680288E+01  0.40094356163E+02  0.47787271416E+02  0.20000001694E+02 0.  0.
         12    1    1    2    0    0 -0.16137733617E+02  0.39546680288E+01 -0.40094356163E+02  0.43400728584E+02  0.00000000000E+00 0. -1.
         11    1    3    3    0    0  0.97721512546E+01 -0.93356452888E+01  0.12967134844E+02  0.18729543492E+02  0.51100000000E-03 0. -1.
        -11    1    3    3    0    0  0.67786895152E+01  0.20871126595E+01  0.18760019338E+02  0.20056046385E+02  0.51100000000E-03 0.  1.
        -12    1    3    3    0    0 -0.41310715282E+00  0.32938646005E+01  0.83672019814E+01  0.90016815386E+01  0.00000000000E+00 0.  1.
</event>
<event>
 7    1  0.1634068E-009  0.4778727E+02  0.7816164E-02  0.1312668E+00
        -11   -1    0    0    0    0  0.00000000000E+00  0.00000000000E+00  0.45593999997E+02  0.45594000000E+02  0.51100000000E-03 0.  1.
         11   -1    0    0    0    0 -0.00000000000E+00 -0.00000000000E+00 -0.45593999997E+02  0.45594000000E+02  0.51100000000E-03 0. -1.
    9900012    2    1    2    0    0 -0.19505860347E+02 -0.24904885646E+02  0.29713489022E+02  0.47787270205E+02  0.19999996171E+02 0.  0.
         12    1    1    2    0    0  0.19505860347E+02  0.24904885646E+02 -0.29713489022E+02  0.43400729795E+02  0.00000000000E+00 0. -1.
         11    1    3    3    0    0 -0.22508477182E+01 -0.66657230101E+01 -0.49670427119E+00  0.70530060323E+01  0.51100000000E-03 0. -1.
        -11    1    3    3    0    0 -0.81798643933E+01 -0.15829655334E+02  0.17956222897E+02  0.25296523683E+02  0.51100000000E-03 0.  1.
         12    1    3    3    0    0 -0.90751482351E+01 -0.24095073021E+01  0.12253970396E+02  0.15437740489E+02  0.00000000000E+00 0. -1.
</event>
<event>
 7    1  0.1634068E-009  0.4778727E+02  0.7816164E-02  0.1312668E+00
        -11   -1    0    0    0    0  0.00000000000E+00  0.00000000000E+00  0.45593999997E+02  0.45594000000E+02  0.51100000000E-03 0.  1.
         11   -1    0    0    0    0 -0.00000000000E+00 -0.00000000000E+00 -0.45593999997E+02  0.45594000000E+02  0.51100000000E-03 0. -1.
    9900012    2    1    2    0    0  0.18953623472E+02 -0.38319677484E+02 -0.74823456148E+01  0.47787273957E+02  0.20000013279E+02 0.  0.
         12    1    1    2    0    0 -0.18953623472E+02  0.38319677484E+02  0.74823456148E+01  0.43400726043E+02  0.00000000000E+00 0. -1.
         11    1    3    3    0    0  0.66073052038E+01 -0.39965372572E+01 -0.75469035090E+01  0.10797432331E+02  0.51100000000E-03 0. -1.
        -11    1    3    3    0    0  0.65893909261E+01 -0.11170199785E+02  0.16798953321E+01  0.13077288886E+02  0.51100000000E-03 0.  1.
         12    1    3    3    0    0  0.57569273424E+01 -0.23152940441E+02 -0.16153374379E+01  0.23912552740E+02  0.00000000000E+00 0. -1.
</event>
<event>
 7    1  0.1634068E-009  0.4778727E+02  0.7816164E-02  0.1312668E+00
        -11   -1    0    0    0    0  0.00000000000E+00  0.00000000000E+00  0.45593999997E+02  0.45594000000E+02  0.51100000000E-03 0.  1.
         11   -1    0    0    0    0 -0.00000000000E+00 -0.00000000000E+00 -0.45593999997E+02  0.45594000000E+02  0.51100000000E-03 0. -1.
    9900012    2    1    2    0    0  0.42958137025E+01 -0.33497847077E+02  0.27259190219E+02  0.47787271601E+02  0.20000002538E+02 0.  0.
         12    1    1    2    0    0 -0.42958137025E+01  0.33497847077E+02 -0.27259190219E+02  0.43400728399E+02  0.00000000000E+00 0. -1.
         11    1    3    3    0    0  0.19227888839E+01 -0.10052477065E+02  0.20437475583E+02  0.22856942506E+02  0.51100000000E-03 0. -1.
        -11    1    3    3    0    0 -0.12270916355E+01 -0.89483398613E+01  0.29096535434E+01  0.94891845888E+01  0.51100000000E-03 0.  1.
         12    1    3    3    0    0  0.36001164541E+01 -0.14497030151E+02  0.39120610924E+01  0.15441144506E+02  0.00000000000E+00 0. -1.
</event>
<event>
 7    1  0.1634068E-009  0.4778728E+02  0.7816164E-02  0.1312668E+00
        -11   -1    0    0    0    0  0.00000000000E+00  0.00000000000E+00  0.45593999997E+02  0.45594000000E+02  0.51100000000E-03 0.  1.
         11   -1    0    0    0    0 -0.00000000000E+00 -0.00000000000E+00 -0.45593999997E+02  0.45594000000E+02  0.51100000000E-03 0. -1.
    9900012    2    1    2    0    0 -0.66721311019E+01  0.27067878728E+02  0.33263121953E+02  0.47787277951E+02  0.20000031492E+02 0.  0.
         12    1    1    2    0    0  0.66721311019E+01 -0.27067878728E+02 -0.33263121953E+02  0.43400722049E+02  0.00000000000E+00 0. -1.
         11    1    3    3    0    0 -0.62279911061E+01  0.11294157893E+02  0.62836443313E+01  0.14346778805E+02  0.51100000000E-03 0. -1.
        -11    1    3    3    0    0 -0.53798409093E+01  0.32804735382E+01  0.93930348961E+01  0.11310760349E+02  0.51100000000E-03 0.  1.
         12    1    3    3    0    0  0.49357009135E+01  0.12493247297E+02  0.17586442726E+02  0.22129738798E+02  0.00000000000E+00 0. -1.
</event>
<event>
 7    1  0.1634068E-009  0.4778727E+02  0.7816164E-02  0.1312668E+00
        -11   -1    0    0    0    0  0.00000000000E+00  0.00000000000E+00  0.45593999997E+02  0.45594000000E+02  0.51100000000E-03 0.  1.
         11   -1    0    0    0    0 -0.00000000000E+00 -0.00000000000E+00 -0.45593999997E+02  0.45594000000E+02  0.51100000000E-03 0. -1.
    9900012    2    1    2    0    0  0.40917228295E+02  0.37502263669E+01  0.13976393317E+02  0.47787270290E+02  0.19999996562E+02 0.  0.
         12    1    1    2    0    0 -0.40917228295E+02 -0.37502263669E+01 -0.13976393317E+02  0.43400729710E+02  0.00000000000E+00 0. -1.
         11    1    3    3    0    0  0.99094397940E+01 -0.18648601958E+01  0.34548106241E+01  0.10658818757E+02  0.51100000000E-03 0. -1.
        -11    1    3    3    0    0  0.18132563248E+02  0.10444260181E+01  0.14113702150E+02  0.23001679597E+02  0.51100000000E-03 0.  1.
         12    1    3    3    0    0  0.12875225254E+02  0.45706605446E+01 -0.35921194576E+01  0.14126771937E+02  0.00000000000E+00 0. -1.
</event>
<event>
 7    1  0.1634068E-009  0.4778727E+02  0.7816164E-02  0.1312668E+00
        -11   -1    0    0    0    0  0.00000000000E+00  0.00000000000E+00  0.45593999997E+02  0.45594000000E+02  0.51100000000E-03 0. -1.
         11   -1    0    0    0    0 -0.00000000000E+00 -0.00000000000E+00 -0.45593999997E+02  0.45594000000E+02  0.51100000000E-03 0.  1.
    9900012    2    1    2    0    0  0.19860472172E+02 -0.37448817202E+02 -0.93151074782E+01  0.47787268530E+02  0.19999988537E+02 0.  0.
         12    1    1    2    0    0 -0.19860472172E+02  0.37448817202E+02  0.93151074782E+01  0.43400731470E+02  0.00000000000E+00 0. -1.
         11    1    3    3    0    0 -0.11454213538E+01 -0.82187125238E+00 -0.33727535240E+01  0.36555340277E+01  0.51100000000E-03 0. -1.
        -11    1    3    3    0    0  0.10083360110E+02 -0.27204545524E+02 -0.63540559130E+01  0.29700765564E+02  0.51100000000E-03 0.  1.
         12    1    3    3    0    0  0.10922533416E+02 -0.94224004265E+01  0.41170195876E+00  0.14430968939E+02  0.00000000000E+00 0. -1.
</event>
<event>
 7    1  0.1634068E-009  0.4778727E+02  0.7816164E-02  0.1312668E+00
        -11   -1    0    0    0    0  0.00000000000E+00  0.00000000000E+00  0.45593999997E+02  0.45594000000E+02  0.51100000000E-03 0.  1.
         11   -1    0    0    0    0 -0.00000000000E+00 -0.00000000000E+00 -0.45593999997E+02  0.45594000000E+02  0.51100000000E-03 0. -1.
    9900012    2    1    2    0    0  0.60856025207E+01 -0.22877773273E+02  0.36375769845E+02  0.47787266138E+02  0.19999977629E+02 0.  0.
         12    1    1    2    0    0 -0.60856025207E+01  0.22877773273E+02 -0.36375769845E+02  0.43400733862E+02  0.00000000000E+00 0. -1.
         11    1    3    3    0    0  0.62537602293E+01 -0.12289721566E+02  0.22393933053E+02  0.26298954562E+02  0.51100000000E-03 0. -1.
        -11    1    3    3    0    0 -0.43413390017E+01 -0.23888455117E+01  0.10573712840E+02  0.11677209029E+02  0.51100000000E-03 0.  1.
         12    1    3    3    0    0  0.41731812931E+01 -0.81992061950E+01  0.34081239513E+01  0.98111025476E+01  0.00000000000E+00 0. -1.
</event>
<event>
 7    1  0.1634068E-009  0.4778728E+02  0.7816164E-02  0.1312668E+00
        -11   -1    0    0    0    0  0.00000000000E+00  0.00000000000E+00  0.45593999997E+02  0.45594000000E+02  0.51100000000E-03 0.  1.
         11   -1    0    0    0    0 -0.00000000000E+00 -0.00000000000E+00 -0.45593999997E+02  0.45594000000E+02  0.51100000000E-03 0. -1.
    9900012    2    1    2    0    0 -0.21033476300E+01  0.41582264132E+02  0.12252085793E+02  0.47787281482E+02  0.20000047587E+02 0.  0.
         12    1    1    2    0    0  0.21033476300E+01 -0.41582264132E+02 -0.12252085793E+02  0.43400718518E+02  0.00000000000E+00 0. -1.
         11    1    3    3    0    0 -0.68672074622E+01  0.33696037057E+02  0.72079089159E+01  0.35135955984E+02  0.51100000000E-03 0. -1.
        -11    1    3    3    0    0 -0.56830511015E+00  0.68155655086E+00  0.34312455080E+01  0.35441410846E+01  0.51100000000E-03 0.  1.
        -12    1    3    3    0    0  0.53321649423E+01  0.72046705243E+01  0.16129313690E+01  0.91071844132E+01  0.00000000000E+00 0.  1.
</event>
<event>
 7    1  0.1634068E-009  0.4778728E+02  0.7816164E-02  0.1312668E+00
        -11   -1    0    0    0    0  0.00000000000E+00  0.00000000000E+00  0.45593999997E+02  0.45594000000E+02  0.51100000000E-03 0. -1.
         11   -1    0    0    0    0 -0.00000000000E+00 -0.00000000000E+00 -0.45593999997E+02  0.45594000000E+02  0.51100000000E-03 0.  1.
    9900012    2    1    2    0    0  0.98141915834E+01 -0.42251720459E+02  0.14479359896E+01  0.47787277002E+02  0.20000027161E+02 0.  0.
         12    1    1    2    0    0 -0.98141915834E+01  0.42251720459E+02 -0.14479359896E+01  0.43400722998E+02  0.00000000000E+00 0. -1.
         11    1    3    3    0    0  0.22790767486E+01 -0.11435839727E+02 -0.57224701836E+01  0.12989198834E+02  0.51100000000E-03 0. -1.
        -11    1    3    3    0    0  0.50492870170E+01 -0.31075964448E+02  0.72093265741E+01  0.32298378530E+02  0.51100000000E-03 0.  1.
         12    1    3    3    0    0  0.24858278179E+01  0.26008371629E+00 -0.38920400919E-01  0.24996996374E+01  0.00000000000E+00 0. -1.
</event>
<event>
 7    1  0.1634068E-009  0.4778727E+02  0.7816164E-02  0.1312668E+00
        -11   -1    0    0    0    0  0.00000000000E+00  0.00000000000E+00  0.45593999997E+02  0.45594000000E+02  0.51100000000E-03 0.  1.
         11   -1    0    0    0    0 -0.00000000000E+00 -0.00000000000E+00 -0.45593999997E+02  0.45594000000E+02  0.51100000000E-03 0. -1.
    9900012    2    1    2    0    0  0.14262417396E+02 -0.29779251539E+02  0.28167409159E+02  0.47787270618E+02  0.19999998056E+02 0.  0.
         12    1    1    2    0    0 -0.14262417396E+02  0.29779251539E+02 -0.28167409159E+02  0.43400729382E+02  0.00000000000E+00 0. -1.
         11    1    3    3    0    0  0.64953763020E+01 -0.28845158292E+02  0.25235310848E+02  0.38872277835E+02  0.51100000000E-03 0. -1.
        -11    1    3    3    0    0  0.29505929705E+01 -0.48215941090E+00 -0.43463505776E+00  0.30211561479E+01  0.51100000000E-03 0.  1.
        -12    1    3    3    0    0  0.48164481231E+01 -0.45193383580E+00  0.33667333683E+01  0.58938366356E+01  0.00000000000E+00 0.  1.
</event>
<event>
 7    1  0.1634068E-009  0.4778726E+02  0.7816164E-02  0.1312668E+00
        -11   -1    0    0    0    0  0.00000000000E+00  0.00000000000E+00  0.45593999997E+02  0.45594000000E+02  0.51100000000E-03 0.  1.
         11   -1    0    0    0    0 -0.00000000000E+00 -0.00000000000E+00 -0.45593999997E+02  0.45594000000E+02  0.51100000000E-03 0. -1.
    9900012    2    1    2    0    0  0.64268277005E+01 -0.34645815397E+02  0.25337465964E+02  0.47787264749E+02  0.19999971297E+02 0.  0.
         12    1    1    2    0    0 -0.64268277005E+01  0.34645815397E+02 -0.25337465964E+02  0.43400735251E+02  0.00000000000E+00 0. -1.
         11    1    3    3    0    0  0.10327565880E+02 -0.17739143995E+02  0.76548462111E+01  0.21907362175E+02  0.51100000000E-03 0. -1.
        -11    1    3    3    0    0  0.35657225677E+00 -0.73352317090E+01  0.11707131468E+02  0.13819902151E+02  0.51100000000E-03 0.  1.
        -12    1    3    3    0    0 -0.42573104366E+01 -0.95714396931E+01  0.59754882854E+01  0.12060000423E+02  0.00000000000E+00 0.  1.
</event>
<event>
 7    1  0.1634068E-009  0.4778727E+02  0.7816164E-02  0.1312668E+00
        -11   -1    0    0    0    0  0.00000000000E+00  0.00000000000E+00  0.45593999997E+02  0.45594000000E+02  0.51100000000E-03 0. -1.
         11   -1    0    0    0    0 -0.00000000000E+00 -0.00000000000E+00 -0.45593999997E+02  0.45594000000E+02  0.51100000000E-03 0.  1.
    9900012    2    1    2    0    0  0.22214771888E+02 -0.59318778909E+01 -0.36809511417E+02  0.47787269636E+02  0.19999993578E+02 0.  0.
         12    1    1    2    0    0 -0.22214771888E+02  0.59318778909E+01  0.36809511417E+02  0.43400730364E+02  0.00000000000E+00 0. -1.
         11    1    3    3    0    0  0.49944483303E+01 -0.61426333077E+01 -0.26476242788E+02  0.27634541619E+02  0.51100000000E-03 0.  1.
        -11    1    3    3    0    0  0.52123348116E+01  0.64275361272E+00 -0.25668222092E+01  0.58455233221E+01  0.51100000000E-03 0. -1.
        -12    1    3    3    0    0  0.12007988746E+02 -0.43199819595E+00 -0.77664464200E+01  0.14307204694E+02  0.00000000000E+00 0.  1.
</event>
<event>
 7    1  0.1634068E-009  0.4778727E+02  0.7816164E-02  0.1312668E+00
        -11   -1    0    0    0    0  0.00000000000E+00  0.00000000000E+00  0.45593999997E+02  0.45594000000E+02  0.51100000000E-03 0. -1.
         11   -1    0    0    0    0 -0.00000000000E+00 -0.00000000000E+00 -0.45593999997E+02  0.45594000000E+02  0.51100000000E-03 0.  1.
    9900012    2    1    2    0    0  0.17753518979E+02 -0.11970159310E+02 -0.37751178939E+02  0.47787266581E+02  0.19999979649E+02 0.  0.
         12    1    1    2    0    0 -0.17753518979E+02  0.11970159310E+02  0.37751178939E+02  0.43400733419E+02  0.00000000000E+00 0. -1.
         11    1    3    3    0    0 -0.23165291428E+01  0.14761339861E+01 -0.36214586758E+01  0.45453538934E+01  0.51100000000E-03 0. -1.
        -11    1    3    3    0    0  0.15112711934E+02 -0.44459918523E+01 -0.24697957584E+02  0.29294197628E+02  0.51100000000E-03 0.  1.
        -12    1    3    3    0    0  0.49573361876E+01 -0.90003014441E+01 -0.94317626786E+01  0.13947715060E+02  0.00000000000E+00 0.  1.
</event>
<event>
 7    1  0.1634068E-009  0.4778727E+02  0.7816164E-02  0.1312668E+00
        -11   -1    0    0    0    0  0.00000000000E+00  0.00000000000E+00  0.45593999997E+02  0.45594000000E+02  0.51100000000E-03 0.  1.
         11   -1    0    0    0    0 -0.00000000000E+00 -0.00000000000E+00 -0.45593999997E+02  0.45594000000E+02  0.51100000000E-03 0. -1.
    9900012    2    1    2    0    0 -0.21003371185E+02 -0.19174947327E+02  0.32784192469E+02  0.47787268646E+02  0.19999989066E+02 0.  0.
         12    1    1    2    0    0  0.21003371185E+02  0.19174947327E+02 -0.32784192469E+02  0.43400731354E+02  0.00000000000E+00 0. -1.
         11    1    3    3    0    0 -0.87028747277E+00  0.16221906913E+01  0.64359577308E+01  0.66940611812E+01  0.51100000000E-03 0. -1.
        -11    1    3    3    0    0 -0.16255160949E+02 -0.81776631409E+01  0.13367324336E+02  0.22578525021E+02  0.51100000000E-03 0.  1.
        -12    1    3    3    0    0 -0.38779227632E+01 -0.12619474878E+02  0.12980910402E+02  0.18514682445E+02  0.00000000000E+00 0.  1.
</event>
<event>
 7    1  0.1634068E-009  0.4778727E+02  0.7816164E-02  0.1312668E+00
        -11   -1    0    0    0    0  0.00000000000E+00  0.00000000000E+00  0.45593999997E+02  0.45594000000E+02  0.51100000000E-03 0. -1.
         11   -1    0    0    0    0 -0.00000000000E+00 -0.00000000000E+00 -0.45593999997E+02  0.45594000000E+02  0.51100000000E-03 0.  1.
    9900012    2    1    2    0    0  0.15884947248E+02  0.89411376452E+01 -0.39387149062E+02  0.47787274168E+02  0.20000014243E+02 0.  0.
         12    1    1    2    0    0 -0.15884947248E+02 -0.89411376452E+01  0.39387149062E+02  0.43400725832E+02  0.00000000000E+00 0. -1.
         11    1    3    3    0    0 -0.36388520462E+01  0.19420552516E+01 -0.80935052221E+01  0.90839226029E+01  0.51100000000E-03 0. -1.
        -11    1    3    3    0    0  0.66593410767E+01  0.68747968557E+01 -0.10132143391E+02  0.13938076816E+02  0.51100000000E-03 0.  1.
        -12    1    3    3    0    0  0.12864458217E+02  0.12428553783E+00 -0.21161500450E+02  0.24765274749E+02  0.00000000000E+00 0.  1.
</event>
<event>
 7    1  0.1634068E-009  0.4778727E+02  0.7816164E-02  0.1312668E+00
        -11   -1    0    0    0    0  0.00000000000E+00  0.00000000000E+00  0.45593999997E+02  0.45594000000E+02  0.51100000000E-03 0.  1.
         11   -1    0    0    0    0 -0.00000000000E+00 -0.00000000000E+00 -0.45593999997E+02  0.45594000000E+02  0.51100000000E-03 0. -1.
    9900012    2    1    2    0    0  0.15022611169E+02 -0.24939959058E+02  0.32186064028E+02  0.47787272796E+02  0.20000007987E+02 0.  0.
         12    1    1    2    0    0 -0.15022611169E+02  0.24939959058E+02 -0.32186064028E+02  0.43400727204E+02  0.00000000000E+00 0. -1.
         11    1    3    3    0    0  0.70800838376E+01 -0.85971958434E+01  0.72407867263E+01  0.13284139272E+02  0.51100000000E-03 0. -1.
        -11    1    3    3    0    0 -0.45749034888E+01 -0.28010336276E+01  0.63844235765E+01  0.83388486004E+01  0.51100000000E-03 0.  1.
        -12    1    3    3    0    0  0.12517430820E+02 -0.13541729587E+02  0.18560853726E+02  0.26164284924E+02  0.00000000000E+00 0.  1.
</event>
<event>
 7    1  0.1634068E-009  0.4778727E+02  0.7816164E-02  0.1312668E+00
        -11   -1    0    0    0    0  0.00000000000E+00  0.00000000000E+00  0.45593999997E+02  0.45594000000E+02  0.51100000000E-03 0.  1.
         11   -1    0    0    0    0 -0.00000000000E+00 -0.00000000000E+00 -0.45593999997E+02  0.45594000000E+02  0.51100000000E-03 0. -1.
    9900012    2    1    2    0    0  0.85408658421E+01  0.84669012141E+01  0.41701178109E+02  0.47787273494E+02  0.20000011171E+02 0.  0.
         12    1    1    2    0    0 -0.85408658421E+01 -0.84669012141E+01 -0.41701178109E+02  0.43400726506E+02  0.00000000000E+00 0. -1.
         11    1    3    3    0    0 -0.28993244571E+01 -0.27400601591E+00  0.11143109332E+01  0.31181486048E+01  0.51100000000E-03 0. -1.
        -11    1    3    3    0    0  0.29254013453E+01 -0.29019856430E+01  0.11179034599E+02  0.11914290097E+02  0.51100000000E-03 0.  1.
        -12    1    3    3    0    0  0.85147889539E+01  0.11642892873E+02  0.29407832578E+02  0.32754834793E+02  0.00000000000E+00 0.  1.
</event>
<event>
 7    1  0.1634068E-009  0.4778726E+02  0.7816164E-02  0.1312668E+00
        -11   -1    0    0    0    0  0.00000000000E+00  0.00000000000E+00  0.45593999997E+02  0.45594000000E+02  0.51100000000E-03 0.  1.
         11   -1    0    0    0    0 -0.00000000000E+00 -0.00000000000E+00 -0.45593999997E+02  0.45594000000E+02  0.51100000000E-03 0. -1.
    9900012    2    1    2    0    0 -0.36527997915E+02 -0.19754405095E+01  0.23354385576E+02  0.47787258964E+02  0.19999944920E+02 0.  0.
         12    1    1    2    0    0  0.36527997915E+02  0.19754405095E+01 -0.23354385576E+02  0.43400741036E+02  0.00000000000E+00 0. -1.
         11    1    3    3    0    0 -0.26650051671E+02  0.22235256771E+01  0.67722259765E+01  0.27586815065E+02  0.51100000000E-03 0.  1.
        -11    1    3    3    0    0 -0.79186290406E+01 -0.41443935718E+01  0.10388691615E+02  0.13704218244E+02  0.51100000000E-03 0. -1.
        -12    1    3    3    0    0 -0.19593172028E+01 -0.54572614756E-01  0.61934679849E+01  0.64962256543E+01  0.00000000000E+00 0.  1.
</event>
<event>
 7    1  0.1634068E-009  0.4778727E+02  0.7816164E-02  0.1312668E+00
        -11   -1    0    0    0    0  0.00000000000E+00  0.00000000000E+00  0.45593999997E+02  0.45594000000E+02  0.51100000000E-03 0.  1.
         11   -1    0    0    0    0 -0.00000000000E+00 -0.00000000000E+00 -0.45593999997E+02  0.45594000000E+02  0.51100000000E-03 0. -1.
    9900012    2    1    2    0    0 -0.16075362946E+01 -0.29832160803E+02  0.31481438086E+02  0.47787274947E+02  0.20000017795E+02 0.  0.
         12    1    1    2    0    0  0.16075362946E+01  0.29832160803E+02 -0.31481438086E+02  0.43400725053E+02  0.00000000000E+00 0. -1.
         11    1    3    3    0    0  0.12285446265E+01  0.13690351842E+01  0.18647352114E+01  0.26193161140E+01  0.51100000000E-03 0. -1.
        -11    1    3    3    0    0 -0.69639583954E+01 -0.14409669604E+02  0.19143197088E+02  0.24951899520E+02  0.51100000000E-03 0.  1.
         12    1    3    3    0    0  0.41278774743E+01 -0.16791526383E+02  0.10473505787E+02  0.20216059314E+02  0.00000000000E+00 0. -1.
</event>
<event>
 7    1  0.1634068E-009  0.4778729E+02  0.7816164E-02  0.1312668E+00
        -11   -1    0    0    0    0  0.00000000000E+00  0.00000000000E+00  0.45593999997E+02  0.45594000000E+02  0.51100000000E-03 0.  1.
         11   -1    0    0    0    0 -0.00000000000E+00 -0.00000000000E+00 -0.45593999997E+02  0.45594000000E+02  0.51100000000E-03 0. -1.
    9900012    2    1    2    0    0  0.38445205339E+02 -0.17854744610E+01  0.20059904703E+02  0.47787291373E+02  0.20000092686E+02 0.  0.
         12    1    1    2    0    0 -0.38445205339E+02  0.17854744610E+01 -0.20059904703E+02  0.43400708627E+02  0.00000000000E+00 0. -1.
         11    1    3    3    0    0  0.16826777500E+02  0.74928170736E+00  0.94630013756E+01  0.19319685800E+02  0.51100000000E-03 0. -1.
        -11    1    3    3    0    0  0.16755357223E+02  0.38945145861E+01  0.10962184183E+02  0.20398007791E+02  0.51100000000E-03 0.  1.
        -12    1    3    3    0    0  0.48630706156E+01 -0.64292707545E+01 -0.36528085577E+00  0.80695977813E+01  0.00000000000E+00 0.  1.
</event>
<event>
 7    1  0.1634068E-009  0.4778726E+02  0.7816164E-02  0.1312668E+00
        -11   -1    0    0    0    0  0.00000000000E+00  0.00000000000E+00  0.45593999997E+02  0.45594000000E+02  0.51100000000E-03 0. -1.
         11   -1    0    0    0    0 -0.00000000000E+00 -0.00000000000E+00 -0.45593999997E+02  0.45594000000E+02  0.51100000000E-03 0.  1.
    9900012    2    1    2    0    0 -0.40617786880E+02 -0.13612915028E+02 -0.69647529421E+01  0.47787264405E+02  0.19999969729E+02 0.  0.
         12    1    1    2    0    0  0.40617786880E+02  0.13612915028E+02  0.69647529421E+01  0.43400735595E+02  0.00000000000E+00 0. -1.
         11    1    3    3    0    0 -0.14044155377E+02 -0.11903859635E+02 -0.78440464486E+00  0.18427030835E+02  0.51100000000E-03 0. -1.
        -11    1    3    3    0    0 -0.20802192774E+02 -0.14952962214E+01  0.62047441851E-01  0.20855958026E+02  0.51100000000E-03 0.  1.
        -12    1    3    3    0    0 -0.57714387288E+01 -0.21375917122E+00 -0.62423957391E+01  0.85042755452E+01  0.00000000000E+00 0.  1.
</event>
<event>
 7    1  0.1634068E-009  0.4778727E+02  0.7816164E-02  0.1312668E+00
        -11   -1    0    0    0    0  0.00000000000E+00  0.00000000000E+00  0.45593999997E+02  0.45594000000E+02  0.51100000000E-03 0.  1.
         11   -1    0    0    0    0 -0.00000000000E+00 -0.00000000000E+00 -0.45593999997E+02  0.45594000000E+02  0.51100000000E-03 0. -1.
    9900012    2    1    2    0    0 -0.22850898041E+02 -0.33425728771E+02  0.15626267281E+02  0.47787272883E+02  0.20000008381E+02 0.  0.
         12    1    1    2    0    0  0.22850898041E+02  0.33425728771E+02 -0.15626267281E+02  0.43400727117E+02  0.00000000000E+00 0. -1.
         11    1    3    3    0    0 -0.11396497485E+01 -0.66344213597E+00 -0.28887231276E+01  0.31754808433E+01  0.51100000000E-03 0. -1.
        -11    1    3    3    0    0  0.41995637903E+00 -0.51672680149E+01  0.29558022377E+01  0.59677289841E+01  0.51100000000E-03 0.  1.
        -12    1    3    3    0    0 -0.22131204672E+02 -0.27595018621E+02  0.15559188171E+02  0.38644063055E+02  0.00000000000E+00 0.  1.
</event>
<event>
 7    1  0.1970865E-009  0.4778727E+02  0.7816164E-02  0.1312668E+00
        -11   -1    0    0    0    0  0.00000000000E+00  0.00000000000E+00  0.45593999997E+02  0.45594000000E+02  0.51100000000E-03 0. -1.
         11   -1    0    0    0    0 -0.00000000000E+00 -0.00000000000E+00 -0.45593999997E+02  0.45594000000E+02  0.51100000000E-03 0.  1.
    9900012    2    1    2    0    0  0.15821390096E+02  0.33736264498E+02  0.22252455840E+02  0.47787265931E+02  0.19999976686E+02 0.  0.
         12    1    1    2    0    0 -0.15821390096E+02 -0.33736264498E+02 -0.22252455840E+02  0.43400734069E+02  0.00000000000E+00 0. -1.
         11    1    3    3    0    0  0.39796974760E+01  0.27142454576E+01  0.64466698477E+01  0.80476501409E+01  0.51100000000E-03 0. -1.
        -11    1    3    3    0    0  0.74982335075E+01  0.15383865632E+02  0.41853696514E-01  0.17113987832E+02  0.51100000000E-03 0.  1.
        -12    1    3    3    0    0  0.43434591123E+01  0.15638153408E+02  0.15763932296E+02  0.22625627958E+02  0.00000000000E+00 0.  1.
</event>
<event>
 7    1  0.1634068E-009  0.4778727E+02  0.7816164E-02  0.1312668E+00
        -11   -1    0    0    0    0  0.00000000000E+00  0.00000000000E+00  0.45593999997E+02  0.45594000000E+02  0.51100000000E-03 0. -1.
         11   -1    0    0    0    0 -0.00000000000E+00 -0.00000000000E+00 -0.45593999997E+02  0.45594000000E+02  0.51100000000E-03 0.  1.
    9900012    2    1    2    0    0 -0.38003437926E+02 -0.14462228081E+02 -0.15172531911E+02  0.47787273510E+02  0.20000011243E+02 0.  0.
         12    1    1    2    0    0  0.38003437926E+02  0.14462228081E+02  0.15172531911E+02  0.43400726490E+02  0.00000000000E+00 0. -1.
         11    1    3    3    0    0 -0.53896541098E+01 -0.10299452623E+02 -0.15921751323E+01  0.11732950084E+02  0.51100000000E-03 0. -1.
        -11    1    3    3    0    0 -0.11821369422E+02 -0.32329490412E+01 -0.75119779873E+01  0.14374510359E+02  0.51100000000E-03 0.  1.
         12    1    3    3    0    0 -0.20792414394E+02 -0.92982641650E+00 -0.60683787910E+01  0.21679813067E+02  0.00000000000E+00 0. -1.
</event>
<event>
 7    1  0.1634068E-009  0.4778727E+02  0.7816164E-02  0.1312668E+00
        -11   -1    0    0    0    0  0.00000000000E+00  0.00000000000E+00  0.45593999997E+02  0.45594000000E+02  0.51100000000E-03 0.  1.
         11   -1    0    0    0    0 -0.00000000000E+00 -0.00000000000E+00 -0.45593999997E+02  0.45594000000E+02  0.51100000000E-03 0. -1.
    9900012    2    1    2    0    0  0.28168143733E+02 -0.31744921970E+02  0.90795844221E+01  0.47787271371E+02  0.20000001488E+02 0.  0.
         12    1    1    2    0    0 -0.28168143733E+02  0.31744921970E+02 -0.90795844221E+01  0.43400728629E+02  0.00000000000E+00 0. -1.
         11    1    3    3    0    0  0.28552438097E+02 -0.31201181371E+02  0.98667544313E+01  0.43429348182E+02  0.51100000000E-03 0. -1.
        -11    1    3    3    0    0  0.18603626099E+01 -0.35150388459E+00  0.18892923588E+00  0.19026819331E+01  0.51100000000E-03 0.  1.
         12    1    3    3    0    0 -0.22446569740E+01 -0.19223671425E+00 -0.97609924505E+00  0.24552412553E+01  0.00000000000E+00 0. -1.
</event>
<event>
 7    1  0.1634068E-009  0.4778727E+02  0.7816164E-02  0.1312668E+00
        -11   -1    0    0    0    0  0.00000000000E+00  0.00000000000E+00  0.45593999997E+02  0.45594000000E+02  0.51100000000E-03 0.  1.
         11   -1    0    0    0    0 -0.00000000000E+00 -0.00000000000E+00 -0.45593999997E+02  0.45594000000E+02  0.51100000000E-03 0. -1.
    9900012    2    1    2    0    0  0.25325833790E+02  0.34039181026E+02  0.91410910384E+01  0.47787271348E+02  0.20000001386E+02 0.  0.
         12    1    1    2    0    0 -0.25325833790E+02 -0.34039181026E+02 -0.91410910384E+01  0.43400728652E+02  0.00000000000E+00 0. -1.
         11    1    3    3    0    0  0.42372387784E+01  0.92535693244E+01 -0.25624282801E+01  0.10495178734E+02  0.51100000000E-03 0. -1.
        -11    1    3    3    0    0  0.19058190728E+02  0.13650243027E+02  0.44857581964E+01  0.23867672601E+02  0.51100000000E-03 0.  1.
         12    1    3    3    0    0  0.20304042839E+01  0.11135368675E+02  0.72177611221E+01  0.13424420014E+02  0.00000000000E+00 0. -1.
</event>
<event>
 7    1  0.1634068E-009  0.4778727E+02  0.7816164E-02  0.1312668E+00
        -11   -1    0    0    0    0  0.00000000000E+00  0.00000000000E+00  0.45593999997E+02  0.45594000000E+02  0.51100000000E-03 0.  1.
         11   -1    0    0    0    0 -0.00000000000E+00 -0.00000000000E+00 -0.45593999997E+02  0.45594000000E+02  0.51100000000E-03 0. -1.
    9900012    2    1    2    0    0  0.16773261911E+02 -0.14063679474E+02  0.37476579264E+02  0.47787269721E+02  0.19999993965E+02 0.  0.
         12    1    1    2    0    0 -0.16773261911E+02  0.14063679474E+02 -0.37476579264E+02  0.43400730279E+02  0.00000000000E+00 0. -1.
         11    1    3    3    0    0  0.41119668433E+01 -0.72983561049E+01  0.19321079426E+01  0.85969363448E+01  0.51100000000E-03 0. -1.
        -11    1    3    3    0    0  0.80295761346E+01 -0.76073730252E+01  0.18959216691E+02  0.21949900114E+02  0.51100000000E-03 0.  1.
        -12    1    3    3    0    0  0.46317189326E+01  0.84204965619E+00  0.16585254630E+02  0.17240433262E+02  0.00000000000E+00 0.  1.
</event>
<event>
 7    1  0.1634068E-009  0.4778727E+02  0.7816164E-02  0.1312668E+00
        -11   -1    0    0    0    0  0.00000000000E+00  0.00000000000E+00  0.45593999997E+02  0.45594000000E+02  0.51100000000E-03 0. -1.
         11   -1    0    0    0    0 -0.00000000000E+00 -0.00000000000E+00 -0.45593999997E+02  0.45594000000E+02  0.51100000000E-03 0.  1.
    9900012    2    1    2    0    0  0.96661166261E+01  0.16606656416E+02 -0.38915402044E+02  0.47787270004E+02  0.19999995258E+02 0.  0.
         12    1    1    2    0    0 -0.96661166261E+01 -0.16606656416E+02  0.38915402044E+02  0.43400729996E+02  0.00000000000E+00 0. -1.
         11    1    3    3    0    0 -0.12072193781E+01 -0.84148297382E+00 -0.14245824960E+01  0.20481473998E+01  0.51100000000E-03 0. -1.
        -11    1    3    3    0    0 -0.67611784583E+00  0.24915389420E+01 -0.19425605160E+02  0.19596403694E+02  0.51100000000E-03 0.  1.
         12    1    3    3    0    0  0.11549453850E+02  0.14956600448E+02 -0.18065214388E+02  0.26142718911E+02  0.00000000000E+00 0. -1.
</event>
<event>
 7    1  0.1634068E-009  0.4778727E+02  0.7816164E-02  0.1312668E+00
        -11   -1    0    0    0    0  0.00000000000E+00  0.00000000000E+00  0.45593999997E+02  0.45594000000E+02  0.51100000000E-03 0.  1.
         11   -1    0    0    0    0 -0.00000000000E+00 -0.00000000000E+00 -0.45593999997E+02  0.45594000000E+02  0.51100000000E-03 0. -1.
    9900012    2    1    2    0    0 -0.94432592978E+01 -0.37377843380E+00  0.42359281524E+02  0.47787267428E+02  0.19999983513E+02 0.  0.
         12    1    1    2    0    0  0.94432592978E+01  0.37377843380E+00 -0.42359281524E+02  0.43400732572E+02  0.00000000000E+00 0. -1.
         11    1    3    3    0    0 -0.94090186079E+01 -0.91577129390E+00  0.69522297363E+01  0.11734639611E+02  0.51100000000E-03 0. -1.
        -11    1    3    3    0    0 -0.32781588714E+01  0.40812399412E+00  0.22614648752E+02  0.22854654432E+02  0.51100000000E-03 0.  1.
         12    1    3    3    0    0  0.32439181815E+01  0.13386886599E+00  0.12792403036E+02  0.13197973385E+02  0.00000000000E+00 0. -1.
</event>
<event>
 7    1  0.1634068E-009  0.4778728E+02  0.7816164E-02  0.1312668E+00
        -11   -1    0    0    0    0  0.00000000000E+00  0.00000000000E+00  0.45593999997E+02  0.45594000000E+02  0.51100000000E-03 0.  1.
         11   -1    0    0    0    0 -0.00000000000E+00 -0.00000000000E+00 -0.45593999997E+02  0.45594000000E+02  0.51100000000E-03 0. -1.
    9900012    2    1    2    0    0  0.35916747819E+02  0.12720613510E+02  0.20779698330E+02  0.47787278294E+02  0.20000033052E+02 0.  0.
         12    1    1    2    0    0 -0.35916747819E+02 -0.12720613510E+02 -0.20779698330E+02  0.43400721706E+02  0.00000000000E+00 0. -1.
         11    1    3    3    0    0 -0.97589785625E+00  0.38507471229E+01 -0.16931412513E+00  0.39760907390E+01  0.51100000000E-03 0. -1.
        -11    1    3    3    0    0  0.18530133895E+02  0.75434638416E+01  0.96771115333E+01  0.22224225449E+02  0.51100000000E-03 0.  1.
        -12    1    3    3    0    0  0.18362511780E+02  0.13264025453E+01  0.11271900922E+02  0.21586962106E+02  0.00000000000E+00 0.  1.
</event>
<event>
 7    1  0.1634068E-009  0.4778727E+02  0.7816164E-02  0.1312668E+00
        -11   -1    0    0    0    0  0.00000000000E+00  0.00000000000E+00  0.45593999997E+02  0.45594000000E+02  0.51100000000E-03 0.  1.
         11   -1    0    0    0    0 -0.00000000000E+00 -0.00000000000E+00 -0.45593999997E+02  0.45594000000E+02  0.51100000000E-03 0. -1.
    9900012    2    1    2    0    0 -0.35382612141E+02  0.24619639313E+02  0.50564079576E+01  0.47787272549E+02  0.20000006859E+02 0.  0.
         12    1    1    2    0    0  0.35382612141E+02 -0.24619639313E+02 -0.50564079576E+01  0.43400727451E+02  0.00000000000E+00 0. -1.
         11    1    3    3    0    0 -0.44173803394E+01  0.53893549421E+01  0.42851029771E+01  0.81804953114E+01  0.51100000000E-03 0. -1.
        -11    1    3    3    0    0 -0.10098034087E+02  0.18693018247E+00 -0.41711794649E+01  0.10927212531E+02  0.51100000000E-03 0.  1.
        -12    1    3    3    0    0 -0.20867197715E+02  0.19043354189E+02  0.49424844454E+01  0.28679564706E+02  0.00000000000E+00 0.  1.
</event>
<event>
 7    1  0.1634068E-009  0.4778728E+02  0.7816164E-02  0.1312668E+00
        -11   -1    0    0    0    0  0.00000000000E+00  0.00000000000E+00  0.45593999997E+02  0.45594000000E+02  0.51100000000E-03 0.  1.
         11   -1    0    0    0    0 -0.00000000000E+00 -0.00000000000E+00 -0.45593999997E+02  0.45594000000E+02  0.51100000000E-03 0. -1.
    9900012    2    1    2    0    0 -0.21149573317E+02 -0.16095781176E+02  0.34310990794E+02  0.47787277513E+02  0.20000029491E+02 0.  0.
         12    1    1    2    0    0  0.21149573317E+02  0.16095781176E+02 -0.34310990794E+02  0.43400722487E+02  0.00000000000E+00 0. -1.
         11    1    3    3    0    0 -0.20996627901E+01  0.27256484114E+01  0.70416988796E+01  0.78372996923E+01  0.51100000000E-03 0. -1.
        -11    1    3    3    0    0 -0.15234923888E+02 -0.14298726572E+02  0.26845209067E+02  0.34017961984E+02  0.51100000000E-03 0.  1.
         12    1    3    3    0    0 -0.38149866389E+01 -0.45227030149E+01  0.42408284774E+00  0.59320158359E+01  0.00000000000E+00 0. -1.
</event>
<event>
 7    1  0.1634068E-009  0.4778727E+02  0.7816164E-02  0.1312668E+00
        -11   -1    0    0    0    0  0.00000000000E+00  0.00000000000E+00  0.45593999997E+02  0.45594000000E+02  0.51100000000E-03 0.  1.
         11   -1    0    0    0    0 -0.00000000000E+00 -0.00000000000E+00 -0.45593999997E+02  0.45594000000E+02  0.51100000000E-03 0. -1.
    9900012    2    1    2    0    0 -0.19274457151E+02 -0.38885550933E+02  0.17965763398E+00  0.47787273662E+02  0.20000011933E+02 0.  0.
         12    1    1    2    0    0  0.19274457151E+02  0.38885550933E+02 -0.17965763398E+00  0.43400726338E+02  0.00000000000E+00 0. -1.
         11    1    3    3    0    0  0.51709561693E+00 -0.67207124774E+01 -0.34079194484E+01  0.75530973321E+01  0.51100000000E-03 0. -1.
        -11    1    3    3    0    0 -0.15532412534E+02 -0.14582990113E+02 -0.17381063350E+01  0.21376165551E+02  0.51100000000E-03 0.  1.
        -12    1    3    3    0    0 -0.42591402337E+01 -0.17581848343E+02  0.53256834174E+01  0.18858010779E+02  0.00000000000E+00 0.  1.
</event>
<event>
 7    1  0.1634068E-009  0.4778727E+02  0.7816164E-02  0.1312668E+00
        -11   -1    0    0    0    0  0.00000000000E+00  0.00000000000E+00  0.45593999997E+02  0.45594000000E+02  0.51100000000E-03 0.  1.
         11   -1    0    0    0    0 -0.00000000000E+00 -0.00000000000E+00 -0.45593999997E+02  0.45594000000E+02  0.51100000000E-03 0. -1.
    9900012    2    1    2    0    0  0.10254288815E+00  0.21975724158E+02  0.37425666464E+02  0.47787268697E+02  0.19999989299E+02 0.  0.
         12    1    1    2    0    0 -0.10254288815E+00 -0.21975724158E+02 -0.37425666464E+02  0.43400731303E+02  0.00000000000E+00 0. -1.
         11    1    3    3    0    0 -0.40806637183E+01  0.42129901596E+01  0.14722212595E+01  0.60471925854E+01  0.51100000000E-03 0. -1.
        -11    1    3    3    0    0  0.56431292474E+01  0.40746665760E+01  0.81668882698E+01  0.10730604814E+02  0.51100000000E-03 0.  1.
        -12    1    3    3    0    0 -0.14599226409E+01  0.13688067422E+02  0.27786556935E+02  0.31009471298E+02  0.00000000000E+00 0.  1.
</event>
<event>
 7    1  0.1634068E-009  0.4778727E+02  0.7816164E-02  0.1312668E+00
        -11   -1    0    0    0    0  0.00000000000E+00  0.00000000000E+00  0.45593999997E+02  0.45594000000E+02  0.51100000000E-03 0.  1.
         11   -1    0    0    0    0 -0.00000000000E+00 -0.00000000000E+00 -0.45593999997E+02  0.45594000000E+02  0.51100000000E-03 0. -1.
    9900012    2    1    2    0    0  0.16927222673E+02 -0.20420848715E+02  0.34352307806E+02  0.47787274415E+02  0.20000015370E+02 0.  0.
         12    1    1    2    0    0 -0.16927222673E+02  0.20420848715E+02 -0.34352307806E+02  0.43400725585E+02  0.00000000000E+00 0. -1.
         11    1    3    3    0    0 -0.16193644801E+01  0.88354517021E-01  0.75906457991E+00  0.17906219974E+01  0.51100000000E-03 0. -1.
        -11    1    3    3    0    0  0.13169960531E+02 -0.21797216768E+02  0.24402155478E+02  0.35270833723E+02  0.51100000000E-03 0.  1.
         12    1    3    3    0    0  0.53766266219E+01  0.12880135360E+01  0.91910877477E+01  0.10725818695E+02  0.00000000000E+00 0. -1.
</event>
<event>
 7    1  0.1634068E-009  0.4778727E+02  0.7816164E-02  0.1312668E+00
        -11   -1    0    0    0    0  0.00000000000E+00  0.00000000000E+00  0.45593999997E+02  0.45594000000E+02  0.51100000000E-03 0.  1.
         11   -1    0    0    0    0 -0.00000000000E+00 -0.00000000000E+00 -0.45593999997E+02  0.45594000000E+02  0.51100000000E-03 0. -1.
    9900012    2    1    2    0    0  0.35286545746E+01 -0.60214198422E+00  0.43252852878E+02  0.47787271203E+02  0.20000000721E+02 0.  0.
         12    1    1    2    0    0 -0.35286545746E+01  0.60214198422E+00 -0.43252852878E+02  0.43400728797E+02  0.00000000000E+00 0. -1.
         11    1    3    3    0    0  0.22976342813E+01 -0.28870282213E+01 -0.28001008198E+00  0.37003325726E+01  0.51100000000E-03 0. -1.
        -11    1    3    3    0    0 -0.19310004598E+01  0.27379293830E+01  0.14663080716E+02  0.15040975914E+02  0.51100000000E-03 0.  1.
         12    1    3    3    0    0  0.31620207532E+01 -0.45304314599E+00  0.28869782243E+02  0.29045962716E+02  0.00000000000E+00 0. -1.
</event>
<event>
 7    1  0.1634068E-009  0.4778727E+02  0.7816164E-02  0.1312668E+00
        -11   -1    0    0    0    0  0.00000000000E+00  0.00000000000E+00  0.45593999997E+02  0.45594000000E+02  0.51100000000E-03 0.  1.
         11   -1    0    0    0    0 -0.00000000000E+00 -0.00000000000E+00 -0.45593999997E+02  0.45594000000E+02  0.51100000000E-03 0. -1.
    9900012    2    1    2    0    0 -0.69542016585E+00 -0.29089954840E+01  0.43297544829E+02  0.47787271294E+02  0.20000001139E+02 0.  0.
         12    1    1    2    0    0  0.69542016585E+00  0.29089954840E+01 -0.43297544829E+02  0.43400728706E+02  0.00000000000E+00 0. -1.
         11    1    3    3    0    0 -0.17523587916E+01  0.74317299018E+00  0.27473273142E+02  0.27539132245E+02  0.51100000000E-03 0. -1.
        -11    1    3    3    0    0 -0.73582472515E+00 -0.29481569959E+01  0.17459266024E+02  0.17721710924E+02  0.51100000000E-03 0.  1.
         12    1    3    3    0    0  0.17927633509E+01 -0.70401147828E+00 -0.16349943364E+01  0.25264281256E+01  0.00000000000E+00 0. -1.
</event>
<event>
 7    1  0.1634068E-009  0.4778727E+02  0.7816164E-02  0.1312668E+00
        -11   -1    0    0    0    0  0.00000000000E+00  0.00000000000E+00  0.45593999997E+02  0.45594000000E+02  0.51100000000E-03 0.  1.
         11   -1    0    0    0    0 -0.00000000000E+00 -0.00000000000E+00 -0.45593999997E+02  0.45594000000E+02  0.51100000000E-03 0. -1.
    9900012    2    1    2    0    0 -0.41199576342E+02 -0.30746442599E+01  0.13295286973E+02  0.47787272083E+02  0.20000004734E+02 0.  0.
         12    1    1    2    0    0  0.41199576342E+02  0.30746442599E+01 -0.13295286973E+02  0.43400727917E+02  0.00000000000E+00 0. -1.
         11    1    3    3    0    0 -0.80293280831E+01 -0.53000017156E+01 -0.12285143873E+01  0.96989368238E+01  0.51100000000E-03 0. -1.
        -11    1    3    3    0    0 -0.13103273740E+02 -0.17026736970E+01  0.11303261119E+02  0.17388461479E+02  0.51100000000E-03 0.  1.
        -12    1    3    3    0    0 -0.20066974518E+02  0.39280311527E+01  0.32205402417E+01  0.20699873780E+02  0.00000000000E+00 0.  1.
</event>
<event>
 7    1  0.1634068E-009  0.4778730E+02  0.7816164E-02  0.1312668E+00
        -11   -1    0    0    0    0  0.00000000000E+00  0.00000000000E+00  0.45593999997E+02  0.45594000000E+02  0.51100000000E-03 0.  1.
         11   -1    0    0    0    0 -0.00000000000E+00 -0.00000000000E+00 -0.45593999997E+02  0.45594000000E+02  0.51100000000E-03 0. -1.
    9900012    2    1    2    0    0 -0.16532395063E+02 -0.13428251267E+02  0.37815113124E+02  0.47787299554E+02  0.20000129984E+02 0.  0.
         12    1    1    2    0    0  0.16532395063E+02  0.13428251267E+02 -0.37815113124E+02  0.43400700446E+02  0.00000000000E+00 0. -1.
         11    1    3    3    0    0 -0.51379982982E+01 -0.10657861507E+01  0.17106542281E+02  0.17893258946E+02  0.51100000000E-03 0. -1.
        -11    1    3    3    0    0 -0.60261073099E+01 -0.80089359221E+01  0.20681586777E+02  0.22982276993E+02  0.51100000000E-03 0.  1.
         12    1    3    3    0    0 -0.53682894551E+01 -0.43535291945E+01  0.26984066220E-01  0.69117636144E+01  0.00000000000E+00 0. -1.
</event>
<event>
 7    1  0.1634068E-009  0.4778727E+02  0.7816164E-02  0.1312668E+00
        -11   -1    0    0    0    0  0.00000000000E+00  0.00000000000E+00  0.45593999997E+02  0.45594000000E+02  0.51100000000E-03 0.  1.
         11   -1    0    0    0    0 -0.00000000000E+00 -0.00000000000E+00 -0.45593999997E+02  0.45594000000E+02  0.51100000000E-03 0. -1.
    9900012    2    1    2    0    0  0.90954453986E+01 -0.39259679023E+02  0.16111303249E+02  0.47787267099E+02  0.19999982010E+02 0.  0.
         12    1    1    2    0    0 -0.90954453986E+01  0.39259679023E+02 -0.16111303249E+02  0.43400732901E+02  0.00000000000E+00 0. -1.
         11    1    3    3    0    0  0.41285503574E+01 -0.14799941420E+02  0.59318359168E+01  0.16470272362E+02  0.51100000000E-03 0. -1.
        -11    1    3    3    0    0 -0.56783395921E+01 -0.69004161786E+01  0.45347270513E+01  0.10021129360E+02  0.51100000000E-03 0.  1.
        -12    1    3    3    0    0  0.10645234633E+02 -0.17559321424E+02  0.56447402810E+01  0.21295865376E+02  0.00000000000E+00 0.  1.
</event>
<event>
 7    1  0.1634068E-009  0.4778727E+02  0.7816164E-02  0.1312668E+00
        -11   -1    0    0    0    0  0.00000000000E+00  0.00000000000E+00  0.45593999997E+02  0.45594000000E+02  0.51100000000E-03 0. -1.
         11   -1    0    0    0    0 -0.00000000000E+00 -0.00000000000E+00 -0.45593999997E+02  0.45594000000E+02  0.51100000000E-03 0.  1.
    9900012    2    1    2    0    0  0.17144188091E+02  0.39870811481E+02  0.13577280008E+00  0.47787271577E+02  0.20000002426E+02 0.  0.
         12    1    1    2    0    0 -0.17144188091E+02 -0.39870811481E+02 -0.13577280008E+00  0.43400728423E+02  0.00000000000E+00 0. -1.
         11    1    3    3    0    0  0.63502970277E+01  0.53998171368E+01  0.68642715387E+01  0.10798264743E+02  0.51100000000E-03 0. -1.
        -11    1    3    3    0    0  0.66865729820E+01  0.16509475638E+02 -0.17185236973E+01  0.17894869881E+02  0.51100000000E-03 0.  1.
         12    1    3    3    0    0  0.41073180815E+01  0.17961518706E+02 -0.50099750414E+01  0.19094136952E+02  0.00000000000E+00 0. -1.
</event>
<event>
 7    1  0.1634068E-009  0.4778727E+02  0.7816164E-02  0.1312668E+00
        -11   -1    0    0    0    0  0.00000000000E+00  0.00000000000E+00  0.45593999997E+02  0.45594000000E+02  0.51100000000E-03 0. -1.
         11   -1    0    0    0    0 -0.00000000000E+00 -0.00000000000E+00 -0.45593999997E+02  0.45594000000E+02  0.51100000000E-03 0.  1.
    9900012    2    1    2    0    0 -0.38403341261E+02 -0.16279171464E+02 -0.11991466883E+02  0.47787270495E+02  0.19999997496E+02 0.  0.
         12    1    1    2    0    0  0.38403341261E+02  0.16279171464E+02  0.11991466883E+02  0.43400729505E+02  0.00000000000E+00 0. -1.
         11    1    3    3    0    0 -0.44164871983E+01 -0.98428809230E+01 -0.21017276656E+00  0.10790358515E+02  0.51100000000E-03 0. -1.
        -11    1    3    3    0    0 -0.57303051054E+00 -0.10241435539E+01 -0.76166066162E+00  0.13990572574E+01  0.51100000000E-03 0.  1.
        -12    1    3    3    0    0 -0.33413823552E+02 -0.54121469875E+01 -0.11019633455E+02  0.35597854722E+02  0.00000000000E+00 0.  1.
</event>
<event>
 7    1  0.1634068E-009  0.4778727E+02  0.7816164E-02  0.1312668E+00
        -11   -1    0    0    0    0  0.00000000000E+00  0.00000000000E+00  0.45593999997E+02  0.45594000000E+02  0.51100000000E-03 0. -1.
         11   -1    0    0    0    0 -0.00000000000E+00 -0.00000000000E+00 -0.45593999997E+02  0.45594000000E+02  0.51100000000E-03 0.  1.
    9900012    2    1    2    0    0  0.16175753196E+02  0.37782808980E+02 -0.13943729765E+02  0.47787271370E+02  0.20000001482E+02 0.  0.
         12    1    1    2    0    0 -0.16175753196E+02 -0.37782808980E+02  0.13943729765E+02  0.43400728630E+02  0.00000000000E+00 0. -1.
         11    1    3    3    0    0 -0.12042986060E+00  0.71721988167E+01 -0.64415364778E+01  0.96409715109E+01  0.51100000000E-03 0. -1.
        -11    1    3    3    0    0  0.15862741677E+02  0.30064844594E+02 -0.10095952763E+02  0.35460537452E+02  0.51100000000E-03 0.  1.
         12    1    3    3    0    0  0.43344137886E+00  0.54576557008E+00  0.25937594755E+01  0.26857624063E+01  0.00000000000E+00 0. -1.
</event>
<event>
 7    1  0.1634068E-009  0.4778727E+02  0.7816164E-02  0.1312668E+00
        -11   -1    0    0    0    0  0.00000000000E+00  0.00000000000E+00  0.45593999997E+02  0.45594000000E+02  0.51100000000E-03 0.  1.
         11   -1    0    0    0    0 -0.00000000000E+00 -0.00000000000E+00 -0.45593999997E+02  0.45594000000E+02  0.51100000000E-03 0. -1.
    9900012    2    1    2    0    0  0.10745413347E+02 -0.39468191928E+02  0.14505901688E+02  0.47787271137E+02  0.20000000421E+02 0.  0.
         12    1    1    2    0    0 -0.10745413347E+02  0.39468191928E+02 -0.14505901688E+02  0.43400728863E+02  0.00000000000E+00 0. -1.
         11    1    3    3    0    0  0.52950256479E+01 -0.17990379163E+01  0.19423042903E+00  0.55956733069E+01  0.51100000000E-03 0. -1.
        -11    1    3    3    0    0 -0.25546935315E+01 -0.14192639020E+02  0.21961534021E+01  0.14586999397E+02  0.51100000000E-03 0.  1.
         12    1    3    3    0    0  0.80050812305E+01 -0.23476514992E+02  0.12115517857E+02  0.27604598433E+02  0.00000000000E+00 0. -1.
</event>
<event>
 7    1  0.1634068E-009  0.4778728E+02  0.7816164E-02  0.1312668E+00
        -11   -1    0    0    0    0  0.00000000000E+00  0.00000000000E+00  0.45593999997E+02  0.45594000000E+02  0.51100000000E-03 0. -1.
         11   -1    0    0    0    0 -0.00000000000E+00 -0.00000000000E+00 -0.45593999997E+02  0.45594000000E+02  0.51100000000E-03 0.  1.
    9900012    2    1    2    0    0  0.18118880087E+02  0.27942245247E+02 -0.27830918807E+02  0.47787275044E+02  0.20000018237E+02 0.  0.
         12    1    1    2    0    0 -0.18118880087E+02 -0.27942245247E+02  0.27830918807E+02  0.43400724956E+02  0.00000000000E+00 0. -1.
         11    1    3    3    0    0  0.84318124348E+01  0.16108971174E+02 -0.20296791614E+02  0.27249847033E+02  0.51100000000E-03 0. -1.
        -11    1    3    3    0    0  0.11047635990E+02  0.53414178259E+01 -0.62883315188E+01  0.13788550283E+02  0.51100000000E-03 0.  1.
         12    1    3    3    0    0 -0.13605683376E+01  0.64918562470E+01 -0.12457956739E+01  0.67488777285E+01  0.00000000000E+00 0. -1.
</event>
<event>
 7    1  0.1634068E-009  0.4778727E+02  0.7816164E-02  0.1312668E+00
        -11   -1    0    0    0    0  0.00000000000E+00  0.00000000000E+00  0.45593999997E+02  0.45594000000E+02  0.51100000000E-03 0.  1.
         11   -1    0    0    0    0 -0.00000000000E+00 -0.00000000000E+00 -0.45593999997E+02  0.45594000000E+02  0.51100000000E-03 0. -1.
    9900012    2    1    2    0    0 -0.25886767804E+02 -0.32859349479E+02  0.11565541425E+02  0.47787270237E+02  0.19999996320E+02 0.  0.
         12    1    1    2    0    0  0.25886767804E+02  0.32859349479E+02 -0.11565541425E+02  0.43400729763E+02  0.00000000000E+00 0. -1.
         11    1    3    3    0    0 -0.80860353422E+01 -0.14705058716E+01  0.54869974316E+00  0.82369549436E+01  0.51100000000E-03 0. -1.
        -11    1    3    3    0    0 -0.88854471484E+00 -0.10936496778E+02  0.61180894754E+01  0.12562941239E+02  0.51100000000E-03 0.  1.
        -12    1    3    3    0    0 -0.16912187747E+02 -0.20452346829E+02  0.48987522062E+01  0.26987374055E+02  0.00000000000E+00 0.  1.
</event>
<event>
 7    1  0.1634068E-009  0.4778727E+02  0.7816164E-02  0.1312668E+00
        -11   -1    0    0    0    0  0.00000000000E+00  0.00000000000E+00  0.45593999997E+02  0.45594000000E+02  0.51100000000E-03 0. -1.
         11   -1    0    0    0    0 -0.00000000000E+00 -0.00000000000E+00 -0.45593999997E+02  0.45594000000E+02  0.51100000000E-03 0.  1.
    9900012    2    1    2    0    0  0.17076544390E+02  0.13491433194E+02 -0.37549914392E+02  0.47787271795E+02  0.20000003421E+02 0.  0.
         12    1    1    2    0    0 -0.17076544390E+02 -0.13491433194E+02  0.37549914392E+02  0.43400728205E+02  0.00000000000E+00 0. -1.
         11    1    3    3    0    0  0.12737876148E+02  0.66919597517E+01 -0.19582797797E+02  0.24300653981E+02  0.51100000000E-03 0. -1.
        -11    1    3    3    0    0  0.21752435996E+01  0.82792401713E+01 -0.18864746324E+02  0.20716084492E+02  0.51100000000E-03 0.  1.
         12    1    3    3    0    0  0.21634246423E+01 -0.14797667290E+01  0.89762972998E+00  0.27705333218E+01  0.00000000000E+00 0. -1.
</event>
<event>
 7    1  0.2659112E-009  0.4778727E+02  0.7816164E-02  0.1312668E+00
        -11   -1    0    0    0    0  0.00000000000E+00  0.00000000000E+00  0.45593999997E+02  0.45594000000E+02  0.51100000000E-03 0. -1.
         11   -1    0    0    0    0 -0.00000000000E+00 -0.00000000000E+00 -0.45593999997E+02  0.45594000000E+02  0.51100000000E-03 0.  1.
    9900012    2    1    2    0    0 -0.22668877114E+02  0.66523968233E+01 -0.36407291512E+02  0.47787271339E+02  0.20000001341E+02 0.  0.
         12    1    1    2    0    0  0.22668877114E+02 -0.66523968233E+01  0.36407291512E+02  0.43400728661E+02  0.00000000000E+00 0. -1.
         11    1    3    3    0    0 -0.45757758606E+01 -0.14383668578E+01 -0.18470017737E+01  0.51398482231E+01  0.51100000000E-03 0. -1.
        -11    1    3    3    0    0 -0.15059099100E+02  0.12394528136E+02 -0.24729676315E+02  0.31495359727E+02  0.51100000000E-03 0.  1.
        -12    1    3    3    0    0 -0.30340021532E+01 -0.43037644546E+01 -0.98306134236E+01  0.11152063389E+02  0.00000000000E+00 0.  1.
</event>
<event>
 7    1  0.1634068E-009  0.4778728E+02  0.7816164E-02  0.1312668E+00
        -11   -1    0    0    0    0  0.00000000000E+00  0.00000000000E+00  0.45593999997E+02  0.45594000000E+02  0.51100000000E-03 0. -1.
         11   -1    0    0    0    0 -0.00000000000E+00 -0.00000000000E+00 -0.45593999997E+02  0.45594000000E+02  0.51100000000E-03 0.  1.
    9900012    2    1    2    0    0 -0.83482995580E+01 -0.13451054839E+02 -0.40410368721E+02  0.47787275559E+02  0.20000020585E+02 0.  0.
         12    1    1    2    0    0  0.83482995580E+01  0.13451054839E+02  0.40410368721E+02  0.43400724441E+02  0.00000000000E+00 0. -1.
         11    1    3    3    0    0 -0.78570791747E+01 -0.25267666689E+01 -0.99577755155E+01  0.12933504414E+02  0.51100000000E-03 0. -1.
        -11    1    3    3    0    0 -0.72671840571E+00 -0.14146730607E+01 -0.22210172469E+02  0.22267042482E+02  0.51100000000E-03 0.  1.
        -12    1    3    3    0    0  0.23549802244E+00 -0.95096151091E+01 -0.82424207363E+01  0.12586728663E+02  0.00000000000E+00 0.  1.
</event>
<event>
 7    1  0.1634068E-009  0.4778725E+02  0.7816164E-02  0.1312668E+00
        -11   -1    0    0    0    0  0.00000000000E+00  0.00000000000E+00  0.45593999997E+02  0.45594000000E+02  0.51100000000E-03 0. -1.
         11   -1    0    0    0    0 -0.00000000000E+00 -0.00000000000E+00 -0.45593999997E+02  0.45594000000E+02  0.51100000000E-03 0.  1.
    9900012    2    1    2    0    0 -0.22649751220E+01 -0.18803048042E+02 -0.39050480057E+02  0.47787254377E+02  0.19999924004E+02 0.  0.
         12    1    1    2    0    0  0.22649751220E+01  0.18803048042E+02  0.39050480057E+02  0.43400745623E+02  0.00000000000E+00 0. -1.
         11    1    3    3    0    0 -0.26112160801E+01 -0.25195156973E+01 -0.16231386373E+02  0.16632026714E+02  0.51100000000E-03 0. -1.
        -11    1    3    3    0    0 -0.10921501161E+01  0.17393382651E-01 -0.10790682854E+02  0.10845825516E+02  0.51100000000E-03 0.  1.
        -12    1    3    3    0    0  0.14383910742E+01 -0.16300925728E+02 -0.12028410830E+02  0.20309402147E+02  0.00000000000E+00 0.  1.
</event>
<event>
 7    1  0.1634068E-009  0.4778727E+02  0.7816164E-02  0.1312668E+00
        -11   -1    0    0    0    0  0.00000000000E+00  0.00000000000E+00  0.45593999997E+02  0.45594000000E+02  0.51100000000E-03 0.  1.
         11   -1    0    0    0    0 -0.00000000000E+00 -0.00000000000E+00 -0.45593999997E+02  0.45594000000E+02  0.51100000000E-03 0. -1.
    9900012    2    1    2    0    0 -0.29931289827E+02  0.22590961070E+02  0.21849246765E+02  0.47787271700E+02  0.20000002990E+02 0.  0.
         12    1    1    2    0    0  0.29931289827E+02 -0.22590961070E+02 -0.21849246765E+02  0.43400728300E+02  0.00000000000E+00 0. -1.
         11    1    3    3    0    0 -0.23183047993E+01 -0.20555724551E+01  0.73660722495E+01  0.79911786306E+01  0.51100000000E-03 0. -1.
        -11    1    3    3    0    0 -0.95080577589E+01  0.89381288571E+01  0.60762791412E+01  0.14394946276E+02  0.51100000000E-03 0.  1.
         12    1    3    3    0    0 -0.18104927268E+02  0.15708404668E+02  0.84068953743E+01  0.25401146794E+02  0.00000000000E+00 0. -1.
</event>
<event>
 7    1  0.1634068E-009  0.4778727E+02  0.7816164E-02  0.1312668E+00
        -11   -1    0    0    0    0  0.00000000000E+00  0.00000000000E+00  0.45593999997E+02  0.45594000000E+02  0.51100000000E-03 0. -1.
         11   -1    0    0    0    0 -0.00000000000E+00 -0.00000000000E+00 -0.45593999997E+02  0.45594000000E+02  0.51100000000E-03 0.  1.
    9900012    2    1    2    0    0  0.26001036808E+02  0.33406072608E+02 -0.95710061346E+01  0.47787265437E+02  0.19999974434E+02 0.  0.
         12    1    1    2    0    0 -0.26001036808E+02 -0.33406072608E+02  0.95710061346E+01  0.43400734563E+02  0.00000000000E+00 0. -1.
         11    1    3    3    0    0  0.10084331718E+02  0.20221655955E+02 -0.36271275558E+01  0.22885916419E+02  0.51100000000E-03 0.  1.
        -11    1    3    3    0    0  0.91866000186E+01  0.87416265237E+00  0.93596955662E+00  0.92754417424E+01  0.51100000000E-03 0. -1.
         12    1    3    3    0    0  0.67301050715E+01  0.12310254001E+02 -0.68798481354E+01  0.15625907276E+02  0.00000000000E+00 0. -1.
</event>
<event>
 7    1  0.1634068E-009  0.4778728E+02  0.7816164E-02  0.1312668E+00
        -11   -1    0    0    0    0  0.00000000000E+00  0.00000000000E+00  0.45593999997E+02  0.45594000000E+02  0.51100000000E-03 0. -1.
         11   -1    0    0    0    0 -0.00000000000E+00 -0.00000000000E+00 -0.45593999997E+02  0.45594000000E+02  0.51100000000E-03 0.  1.
    9900012    2    1    2    0    0  0.32157857908E+02 -0.29055389227E+02 -0.22975775149E+01  0.47787281909E+02  0.20000049537E+02 0.  0.
         12    1    1    2    0    0 -0.32157857908E+02  0.29055389227E+02  0.22975775149E+01  0.43400718091E+02  0.00000000000E+00 0. -1.
         11    1    3    3    0    0  0.50925152065E+01 -0.25819579505E+01 -0.14824416031E+01  0.58989703639E+01  0.51100000000E-03 0.  1.
        -11    1    3    3    0    0 -0.87272415088E+00 -0.19047426781E+01 -0.40334217084E+01  0.45451273967E+01  0.51100000000E-03 0. -1.
         12    1    3    3    0    0  0.27938066852E+02 -0.24568688598E+02  0.32182857967E+01  0.37343184149E+02  0.00000000000E+00 0. -1.
</event>
<event>
 7    1  0.1634068E-009  0.4778727E+02  0.7816164E-02  0.1312668E+00
        -11   -1    0    0    0    0  0.00000000000E+00  0.00000000000E+00  0.45593999997E+02  0.45594000000E+02  0.51100000000E-03 0.  1.
         11   -1    0    0    0    0 -0.00000000000E+00 -0.00000000000E+00 -0.45593999997E+02  0.45594000000E+02  0.51100000000E-03 0. -1.
    9900012    2    1    2    0    0  0.13144188673E+02  0.61142138367E+01  0.40908065888E+02  0.47787272340E+02  0.20000005909E+02 0.  0.
         12    1    1    2    0    0 -0.13144188673E+02 -0.61142138367E+01 -0.40908065888E+02  0.43400727660E+02  0.00000000000E+00 0. -1.
         11    1    3    3    0    0  0.11766076577E+02  0.29688316108E+01  0.18505573269E+02  0.22129409423E+02  0.51100000000E-03 0. -1.
        -11    1    3    3    0    0  0.18641198818E+00 -0.38239939006E+01  0.14750915688E+02  0.15239658548E+02  0.51100000000E-03 0.  1.
         12    1    3    3    0    0  0.11917001076E+01  0.69693761266E+01  0.76515769312E+01  0.10418204369E+02  0.00000000000E+00 0. -1.
</event>
<event>
 7    1  0.1634068E-009  0.4778727E+02  0.7816164E-02  0.1312668E+00
        -11   -1    0    0    0    0  0.00000000000E+00  0.00000000000E+00  0.45593999997E+02  0.45594000000E+02  0.51100000000E-03 0.  1.
         11   -1    0    0    0    0 -0.00000000000E+00 -0.00000000000E+00 -0.45593999997E+02  0.45594000000E+02  0.51100000000E-03 0. -1.
    9900012    2    1    2    0    0  0.35648546201E+02  0.21990261108E+02  0.11368054904E+02  0.47787273023E+02  0.20000009020E+02 0.  0.
         12    1    1    2    0    0 -0.35648546201E+02 -0.21990261108E+02 -0.11368054904E+02  0.43400726977E+02  0.00000000000E+00 0. -1.
         11    1    3    3    0    0  0.11665608042E+02  0.27663309943E+00  0.99283723876E+00  0.11711048754E+02  0.51100000000E-03 0. -1.
        -11    1    3    3    0    0 -0.12519255039E+01 -0.10733536379E-01  0.45450319892E+00  0.13319182013E+01  0.51100000000E-03 0.  1.
        -12    1    3    3    0    0  0.25234863663E+02  0.21724361545E+02  0.99207144665E+01  0.34744306068E+02  0.00000000000E+00 0.  1.
</event>
<event>
 7    1  0.1634068E-009  0.4778727E+02  0.7816164E-02  0.1312668E+00
        -11   -1    0    0    0    0  0.00000000000E+00  0.00000000000E+00  0.45593999997E+02  0.45594000000E+02  0.51100000000E-03 0. -1.
         11   -1    0    0    0    0 -0.00000000000E+00 -0.00000000000E+00 -0.45593999997E+02  0.45594000000E+02  0.51100000000E-03 0.  1.
    9900012    2    1    2    0    0 -0.10582835291E+02  0.14801888479E+01 -0.42064659715E+02  0.47787274674E+02  0.20000016550E+02 0.  0.
         12    1    1    2    0    0  0.10582835291E+02 -0.14801888479E+01  0.42064659715E+02  0.43400725326E+02  0.00000000000E+00 0. -1.
         11    1    3    3    0    0  0.39843347550E+01 -0.89571089679E+00 -0.15087598341E+02  0.15630510081E+02  0.51100000000E-03 0. -1.
        -11    1    3    3    0    0 -0.67949315504E+01 -0.35991927060E+01 -0.11363429914E+02  0.13720525594E+02  0.51100000000E-03 0.  1.
        -12    1    3    3    0    0 -0.77722384958E+01  0.59750924507E+01 -0.15613631461E+02  0.18436238999E+02  0.00000000000E+00 0.  1.
</event>
<event>
 7    1  0.1634068E-009  0.4778728E+02  0.7816164E-02  0.1312668E+00
        -11   -1    0    0    0    0  0.00000000000E+00  0.00000000000E+00  0.45593999997E+02  0.45594000000E+02  0.51100000000E-03 0. -1.
         11   -1    0    0    0    0 -0.00000000000E+00 -0.00000000000E+00 -0.45593999997E+02  0.45594000000E+02  0.51100000000E-03 0.  1.
    9900012    2    1    2    0    0 -0.31102214819E+02  0.11292656608E+02 -0.28084709676E+02  0.47787276763E+02  0.20000026074E+02 0.  0.
         12    1    1    2    0    0  0.31102214819E+02 -0.11292656608E+02  0.28084709676E+02  0.43400723237E+02  0.00000000000E+00 0. -1.
         11    1    3    3    0    0 -0.14320575544E+02  0.31201458684E+01 -0.59241130366E+01  0.15808520161E+02  0.51100000000E-03 0. -1.
        -11    1    3    3    0    0 -0.13900151211E+02  0.11178348955E+02 -0.13502965460E+02  0.22371852081E+02  0.51100000000E-03 0.  1.
        -12    1    3    3    0    0 -0.28814880635E+01 -0.30058382156E+01 -0.86576311791E+01  0.96069045208E+01  0.00000000000E+00 0.  1.
</event>
<event>
 7    1  0.1634068E-009  0.4778728E+02  0.7816164E-02  0.1312668E+00
        -11   -1    0    0    0    0  0.00000000000E+00  0.00000000000E+00  0.45593999997E+02  0.45594000000E+02  0.51100000000E-03 0.  1.
         11   -1    0    0    0    0 -0.00000000000E+00 -0.00000000000E+00 -0.45593999997E+02  0.45594000000E+02  0.51100000000E-03 0. -1.
    9900012    2    1    2    0    0 -0.39646292699E+01  0.40794341963E+02  0.14273259610E+02  0.47787279254E+02  0.20000037428E+02 0.  0.
         12    1    1    2    0    0  0.39646292699E+01 -0.40794341963E+02 -0.14273259610E+02  0.43400720746E+02  0.00000000000E+00 0. -1.
         11    1    3    3    0    0 -0.46934240899E+01  0.10409210426E+02  0.61974963139E+01  0.12991876393E+02  0.51100000000E-03 0. -1.
        -11    1    3    3    0    0  0.11280649474E+01  0.13033295984E+02 -0.39669245387E+01  0.13670253300E+02  0.51100000000E-03 0.  1.
        -12    1    3    3    0    0 -0.39927012739E+00  0.17351835553E+02  0.12042687834E+02  0.21125149561E+02  0.00000000000E+00 0.  1.
</event>
<event>
 7    1  0.1634068E-009  0.4778727E+02  0.7816164E-02  0.1312668E+00
        -11   -1    0    0    0    0  0.00000000000E+00  0.00000000000E+00  0.45593999997E+02  0.45594000000E+02  0.51100000000E-03 0.  1.
         11   -1    0    0    0    0 -0.00000000000E+00 -0.00000000000E+00 -0.45593999997E+02  0.45594000000E+02  0.51100000000E-03 0. -1.
    9900012    2    1    2    0    0 -0.34616660569E+02  0.18612140517E+02 -0.18409188145E+02  0.47787272221E+02  0.20000005364E+02 0.  0.
         12    1    1    2    0    0  0.34616660569E+02 -0.18612140517E+02  0.18409188145E+02  0.43400727779E+02  0.00000000000E+00 0. -1.
         11    1    3    3    0    0  0.11910722679E+01 -0.62506619240E-01  0.16744258834E+01  0.20557875680E+01  0.51100000000E-03 0. -1.
        -11    1    3    3    0    0 -0.13576512173E+02  0.92135778609E+01 -0.46192507961E+01  0.17045503159E+02  0.51100000000E-03 0.  1.
        -12    1    3    3    0    0 -0.22231220664E+02  0.94610692757E+01 -0.15464363232E+02  0.28685981493E+02  0.00000000000E+00 0.  1.
</event>
<event>
 7    1  0.1634068E-009  0.4778727E+02  0.7816164E-02  0.1312668E+00
        -11   -1    0    0    0    0  0.00000000000E+00  0.00000000000E+00  0.45593999997E+02  0.45594000000E+02  0.51100000000E-03 0.  1.
         11   -1    0    0    0    0 -0.00000000000E+00 -0.00000000000E+00 -0.45593999997E+02  0.45594000000E+02  0.51100000000E-03 0. -1.
    9900012    2    1    2    0    0  0.41749248266E+02 -0.34668964501E-01  0.11858441947E+02  0.47787267539E+02  0.19999984019E+02 0.  0.
         12    1    1    2    0    0 -0.41749248266E+02  0.34668964501E-01 -0.11858441947E+02  0.43400732461E+02  0.00000000000E+00 0. -1.
         11    1    3    3    0    0  0.98921094699E+01  0.46723958707E+00 -0.46972701551E+01  0.10960679257E+02  0.51100000000E-03 0. -1.
        -11    1    3    3    0    0  0.63963493947E+01 -0.30104625185E+01  0.54955191360E+01  0.89541555152E+01  0.51100000000E-03 0.  1.
        -12    1    3    3    0    0  0.25460789401E+02  0.25085539669E+01  0.11060192966E+02  0.27872432768E+02  0.00000000000E+00 0.  1.
</event>
<event>
 7    1  0.1634068E-009  0.4778730E+02  0.7816164E-02  0.1312668E+00
        -11   -1    0    0    0    0  0.00000000000E+00  0.00000000000E+00  0.45593999997E+02  0.45594000000E+02  0.51100000000E-03 0.  1.
         11   -1    0    0    0    0 -0.00000000000E+00 -0.00000000000E+00 -0.45593999997E+02  0.45594000000E+02  0.51100000000E-03 0. -1.
    9900012    2    1    2    0    0  0.19479532939E+00 -0.41878770620E+02  0.11390859588E+02  0.47787296596E+02  0.20000116499E+02 0.  0.
         12    1    1    2    0    0 -0.19479532939E+00  0.41878770620E+02 -0.11390859588E+02  0.43400703404E+02  0.00000000000E+00 0. -1.
         11    1    3    3    0    0  0.27120544333E+01 -0.50435913409E+01 -0.33047573937E+01  0.66116922611E+01  0.51100000000E-03 0. -1.
        -11    1    3    3    0    0 -0.34002180754E+01 -0.28973861374E+02  0.67087251361E+01  0.29934146373E+02  0.51100000000E-03 0.  1.
         12    1    3    3    0    0  0.88295897149E+00 -0.78613179045E+01  0.79868918457E+01  0.11241457961E+02  0.00000000000E+00 0. -1.
</event>
<event>
 7    1  0.1634068E-009  0.4778727E+02  0.7816164E-02  0.1312668E+00
        -11   -1    0    0    0    0  0.00000000000E+00  0.00000000000E+00  0.45593999997E+02  0.45594000000E+02  0.51100000000E-03 0. -1.
         11   -1    0    0    0    0 -0.00000000000E+00 -0.00000000000E+00 -0.45593999997E+02  0.45594000000E+02  0.51100000000E-03 0.  1.
    9900012    2    1    2    0    0  0.37133999788E+02  0.51273487991E+01  0.21872343587E+02  0.47787273509E+02  0.20000011238E+02 0.  0.
         12    1    1    2    0    0 -0.37133999788E+02 -0.51273487991E+01 -0.21872343587E+02  0.43400726491E+02  0.00000000000E+00 0. -1.
         11    1    3    3    0    0  0.14566552369E+01  0.40946157092E+01  0.40522540432E+01  0.59420943594E+01  0.51100000000E-03 0. -1.
        -11    1    3    3    0    0  0.24000562441E+02  0.66419960998E+01  0.11424406254E+02  0.27398178191E+02  0.51100000000E-03 0.  1.
        -12    1    3    3    0    0  0.11676782110E+02 -0.56092630099E+01  0.63956832902E+01  0.14447000959E+02  0.00000000000E+00 0.  1.
</event>
<event>
 7    1  0.1634068E-009  0.4778727E+02  0.7816164E-02  0.1312668E+00
        -11   -1    0    0    0    0  0.00000000000E+00  0.00000000000E+00  0.45593999997E+02  0.45594000000E+02  0.51100000000E-03 0.  1.
         11   -1    0    0    0    0 -0.00000000000E+00 -0.00000000000E+00 -0.45593999997E+02  0.45594000000E+02  0.51100000000E-03 0. -1.
    9900012    2    1    2    0    0  0.61373840809E+01 -0.42800096327E+02  0.37560141520E+01  0.47787269923E+02  0.19999994886E+02 0.  0.
         12    1    1    2    0    0 -0.61373840809E+01  0.42800096327E+02 -0.37560141520E+01  0.43400730077E+02  0.00000000000E+00 0. -1.
         11    1    3    3    0    0  0.52793402054E+01 -0.10861370402E+02 -0.20577248653E+01  0.12250511495E+02  0.51100000000E-03 0. -1.
        -11    1    3    3    0    0 -0.44599978772E+01 -0.24005000635E+02  0.11780431154E+00  0.24416091306E+02  0.51100000000E-03 0.  1.
         12    1    3    3    0    0  0.53180417528E+01 -0.79337252896E+01  0.56959347058E+01  0.11120667122E+02  0.00000000000E+00 0. -1.
</event>
<event>
 7    1  0.1634068E-009  0.4778727E+02  0.7816164E-02  0.1312668E+00
        -11   -1    0    0    0    0  0.00000000000E+00  0.00000000000E+00  0.45593999997E+02  0.45594000000E+02  0.51100000000E-03 0.  1.
         11   -1    0    0    0    0 -0.00000000000E+00 -0.00000000000E+00 -0.45593999997E+02  0.45594000000E+02  0.51100000000E-03 0. -1.
    9900012    2    1    2    0    0 -0.42360781660E+02 -0.29347735101E+01  0.89763216111E+01  0.47787273415E+02  0.20000010810E+02 0.  0.
         12    1    1    2    0    0  0.42360781660E+02  0.29347735101E+01 -0.89763216111E+01  0.43400726585E+02  0.00000000000E+00 0. -1.
         11    1    3    3    0    0 -0.65716903110E+01 -0.39567444339E+01  0.93359357776E+00  0.77275181843E+01  0.51100000000E-03 0. -1.
        -11    1    3    3    0    0 -0.11472404086E+02  0.77362528766E+01  0.10241361736E+01  0.13874960153E+02  0.51100000000E-03 0.  1.
        -12    1    3    3    0    0 -0.24316687263E+02 -0.67142819528E+01  0.70185918597E+01  0.26184795078E+02  0.00000000000E+00 0.  1.
</event>
<event>
 7    1  0.1634068E-009  0.4778727E+02  0.7816164E-02  0.1312668E+00
        -11   -1    0    0    0    0  0.00000000000E+00  0.00000000000E+00  0.45593999997E+02  0.45594000000E+02  0.51100000000E-03 0. -1.
         11   -1    0    0    0    0 -0.00000000000E+00 -0.00000000000E+00 -0.45593999997E+02  0.45594000000E+02  0.51100000000E-03 0.  1.
    9900012    2    1    2    0    0  0.37252408984E+02 -0.25690949643E+01 -0.22119698643E+02  0.47787270834E+02  0.19999999041E+02 0.  0.
         12    1    1    2    0    0 -0.37252408984E+02  0.25690949643E+01  0.22119698643E+02  0.43400729166E+02  0.00000000000E+00 0. -1.
         11    1    3    3    0    0  0.42720277721E+01  0.17516679518E+01  0.12904984727E+01  0.47941577433E+01  0.51100000000E-03 0. -1.
        -11    1    3    3    0    0  0.18083106465E+02 -0.64076671817E+01 -0.62594450414E+01  0.20180128608E+02  0.51100000000E-03 0.  1.
        -12    1    3    3    0    0  0.14897274747E+02  0.20869042657E+01 -0.17150752074E+02  0.22812984483E+02  0.00000000000E+00 0.  1.
</event>
<event>
 7    1  0.1634068E-009  0.4778724E+02  0.7816164E-02  0.1312668E+00
        -11   -1    0    0    0    0  0.00000000000E+00  0.00000000000E+00  0.45593999997E+02  0.45594000000E+02  0.51100000000E-03 0.  1.
         11   -1    0    0    0    0 -0.00000000000E+00 -0.00000000000E+00 -0.45593999997E+02  0.45594000000E+02  0.51100000000E-03 0. -1.
    9900012    2    1    2    0    0  0.39261205160E+02  0.43594848951E+01  0.17977159400E+02  0.47787244255E+02  0.19999877855E+02 0.  0.
         12    1    1    2    0    0 -0.39261205160E+02 -0.43594848951E+01 -0.17977159400E+02  0.43400755745E+02  0.00000000000E+00 0. -1.
         11    1    3    3    0    0  0.96298446534E+01 -0.35446095642E+01  0.12908566284E+02  0.16490277401E+02  0.51100000000E-03 0.  1.
        -11    1    3    3    0    0  0.10186258209E+02  0.98764420701E+00  0.12833327636E+01  0.10314176682E+02  0.51100000000E-03 0. -1.
        -12    1    3    3    0    0  0.19445102297E+02  0.69164502522E+01  0.37852603531E+01  0.20982790171E+02  0.00000000000E+00 0.  1.
</event>
<event>
 7    1  0.2174759E-009  0.4778727E+02  0.7816164E-02  0.1312668E+00
        -11   -1    0    0    0    0  0.00000000000E+00  0.00000000000E+00  0.45593999997E+02  0.45594000000E+02  0.51100000000E-03 0.  1.
         11   -1    0    0    0    0 -0.00000000000E+00 -0.00000000000E+00 -0.45593999997E+02  0.45594000000E+02  0.51100000000E-03 0. -1.
    9900012    2    1    2    0    0  0.29101291679E+02  0.30324439214E+02 -0.10824344432E+02  0.47787271625E+02  0.20000002649E+02 0.  0.
         12    1    1    2    0    0 -0.29101291679E+02 -0.30324439214E+02  0.10824344432E+02  0.43400728375E+02  0.00000000000E+00 0. -1.
         11    1    3    3    0    0  0.77309690190E+01  0.13509413698E+01  0.18989642952E+01  0.80745891668E+01  0.51100000000E-03 0. -1.
        -11    1    3    3    0    0  0.66258080852E+00  0.81535939337E+01 -0.38170065725E+01  0.90271616137E+01  0.51100000000E-03 0.  1.
        -12    1    3    3    0    0  0.20707741852E+02  0.20819903911E+02 -0.89063021550E+01  0.30685520845E+02  0.00000000000E+00 0.  1.
</event>
<event>
 7    1  0.1634068E-009  0.4778727E+02  0.7816164E-02  0.1312668E+00
        -11   -1    0    0    0    0  0.00000000000E+00  0.00000000000E+00  0.45593999997E+02  0.45594000000E+02  0.51100000000E-03 0.  1.
         11   -1    0    0    0    0 -0.00000000000E+00 -0.00000000000E+00 -0.45593999997E+02  0.45594000000E+02  0.51100000000E-03 0. -1.
    9900012    2    1    2    0    0 -0.42517401737E+02 -0.66299356173E+01  0.56513555705E+01  0.47787270553E+02  0.19999997760E+02 0.  0.
         12    1    1    2    0    0  0.42517401737E+02  0.66299356173E+01 -0.56513555705E+01  0.43400729447E+02  0.00000000000E+00 0. -1.
         11    1    3    3    0    0 -0.15492772108E+02 -0.22712384214E+01 -0.16167616516E+01  0.15741614595E+02  0.51100000000E-03 0.  1.
        -11    1    3    3    0    0 -0.76650019850E+01 -0.73318950797E-01 -0.45973669397E+01  0.89383115933E+01  0.51100000000E-03 0. -1.
         12    1    3    3    0    0 -0.19359627644E+02 -0.42853782451E+01  0.11865484162E+02  0.23107344365E+02  0.00000000000E+00 0. -1.
</event>
<event>
 7    1  0.1634068E-009  0.4778727E+02  0.7816164E-02  0.1312668E+00
        -11   -1    0    0    0    0  0.00000000000E+00  0.00000000000E+00  0.45593999997E+02  0.45594000000E+02  0.51100000000E-03 0. -1.
         11   -1    0    0    0    0 -0.00000000000E+00 -0.00000000000E+00 -0.45593999997E+02  0.45594000000E+02  0.51100000000E-03 0.  1.
    9900012    2    1    2    0    0 -0.30984629228E+02  0.10276475883E+02 -0.28600178140E+02  0.47787269654E+02  0.19999993659E+02 0.  0.
         12    1    1    2    0    0  0.30984629228E+02 -0.10276475883E+02  0.28600178140E+02  0.43400730346E+02  0.00000000000E+00 0. -1.
         11    1    3    3    0    0 -0.12076900357E+02  0.54157661099E+01 -0.54275294287E+01  0.14305248015E+02  0.51100000000E-03 0. -1.
        -11    1    3    3    0    0 -0.82416110525E+01  0.94630442154E+01 -0.12253369537E+02  0.17539054246E+02  0.51100000000E-03 0.  1.
         12    1    3    3    0    0 -0.10666117818E+02 -0.46023344421E+01 -0.10919279175E+02  0.15942967393E+02  0.00000000000E+00 0. -1.
</event>
<event>
 7    1  0.1634068E-009  0.4778727E+02  0.7816164E-02  0.1312668E+00
        -11   -1    0    0    0    0  0.00000000000E+00  0.00000000000E+00  0.45593999997E+02  0.45594000000E+02  0.51100000000E-03 0.  1.
         11   -1    0    0    0    0 -0.00000000000E+00 -0.00000000000E+00 -0.45593999997E+02  0.45594000000E+02  0.51100000000E-03 0. -1.
    9900012    2    1    2    0    0 -0.15840590559E+02 -0.33802187888E+02  0.22138452335E+02  0.47787270892E+02  0.19999999305E+02 0.  0.
         12    1    1    2    0    0  0.15840590559E+02  0.33802187888E+02 -0.22138452335E+02  0.43400729108E+02  0.00000000000E+00 0. -1.
         11    1    3    3    0    0 -0.22933573564E+01 -0.71653148062E+01  0.89261684081E+01  0.11673804305E+02  0.51100000000E-03 0. -1.
        -11    1    3    3    0    0 -0.14173384076E+02 -0.26639361608E+02  0.84857359497E+01  0.31345623585E+02  0.51100000000E-03 0.  1.
        -12    1    3    3    0    0  0.62615087331E+00  0.24885264241E-02  0.47265479776E+01  0.47678430022E+01  0.00000000000E+00 0.  1.
</event>
<event>
 7    1  0.1634068E-009  0.4778728E+02  0.7816164E-02  0.1312668E+00
        -11   -1    0    0    0    0  0.00000000000E+00  0.00000000000E+00  0.45593999997E+02  0.45594000000E+02  0.51100000000E-03 0.  1.
         11   -1    0    0    0    0 -0.00000000000E+00 -0.00000000000E+00 -0.45593999997E+02  0.45594000000E+02  0.51100000000E-03 0. -1.
    9900012    2    1    2    0    0  0.27132047004E+02  0.23567144700E+02  0.24332376821E+02  0.47787275977E+02  0.20000022488E+02 0.  0.
         12    1    1    2    0    0 -0.27132047004E+02 -0.23567144700E+02 -0.24332376821E+02  0.43400724023E+02  0.00000000000E+00 0. -1.
         11    1    3    3    0    0  0.10480363212E+02 -0.16047197409E+01  0.87598691451E+01  0.13753124962E+02  0.51100000000E-03 0. -1.
        -11    1    3    3    0    0  0.75041396296E+01  0.96314656230E+01  0.68962647641E+01  0.14022685534E+02  0.51100000000E-03 0.  1.
         12    1    3    3    0    0  0.91475441625E+01  0.15540398818E+02  0.86762429120E+01  0.20011465481E+02  0.00000000000E+00 0. -1.
</event>
<event>
 7    1  0.1634068E-009  0.4778728E+02  0.7816164E-02  0.1312668E+00
        -11   -1    0    0    0    0  0.00000000000E+00  0.00000000000E+00  0.45593999997E+02  0.45594000000E+02  0.51100000000E-03 0.  1.
         11   -1    0    0    0    0 -0.00000000000E+00 -0.00000000000E+00 -0.45593999997E+02  0.45594000000E+02  0.51100000000E-03 0. -1.
    9900012    2    1    2    0    0  0.14829407646E+02  0.40066524565E+02 -0.76409788174E+01  0.47787282504E+02  0.20000052249E+02 0.  0.
         12    1    1    2    0    0 -0.14829407646E+02 -0.40066524565E+02  0.76409788174E+01  0.43400717496E+02  0.00000000000E+00 0. -1.
         11    1    3    3    0    0  0.45727507097E+01  0.13216434598E+02 -0.55206714935E+01  0.15035358544E+02  0.51100000000E-03 0. -1.
        -11    1    3    3    0    0  0.13977944771E+02  0.16787897694E+02 -0.15906835136E+00  0.21845863499E+02  0.51100000000E-03 0.  1.
        -12    1    3    3    0    0 -0.37212878344E+01  0.10062192273E+02 -0.19612389725E+01  0.10906060462E+02  0.00000000000E+00 0.  1.
</event>
<event>
 7    1  0.1634068E-009  0.4778733E+02  0.7816164E-02  0.1312667E+00
        -11   -1    0    0    0    0  0.00000000000E+00  0.00000000000E+00  0.45593999997E+02  0.45594000000E+02  0.51100000000E-03 0.  1.
         11   -1    0    0    0    0 -0.00000000000E+00 -0.00000000000E+00 -0.45593999997E+02  0.45594000000E+02  0.51100000000E-03 0. -1.
    9900012    2    1    2    0    0  0.48585106141E+01  0.39615557701E+02  0.17047592722E+02  0.47787332321E+02  0.20000279382E+02 0.  0.
         12    1    1    2    0    0 -0.48585106141E+01 -0.39615557701E+02 -0.17047592722E+02  0.43400667679E+02  0.00000000000E+00 0. -1.
         11    1    3    3    0    0  0.28817811697E+00  0.12120232717E+02  0.12710353235E+02  0.17565197618E+02  0.51100000000E-03 0. -1.
        -11    1    3    3    0    0  0.19148266048E+01  0.24256514631E+02  0.69258486776E+01  0.25298467210E+02  0.51100000000E-03 0.  1.
         12    1    3    3    0    0  0.26555058923E+01  0.32388103529E+01 -0.25886091904E+01  0.49236674935E+01  0.00000000000E+00 0. -1.
</event>
<event>
 7    1  0.1634068E-009  0.4778727E+02  0.7816164E-02  0.1312668E+00
        -11   -1    0    0    0    0  0.00000000000E+00  0.00000000000E+00  0.45593999997E+02  0.45594000000E+02  0.51100000000E-03 0.  1.
         11   -1    0    0    0    0 -0.00000000000E+00 -0.00000000000E+00 -0.45593999997E+02  0.45594000000E+02  0.51100000000E-03 0. -1.
    9900012    2    1    2    0    0  0.26807751335E+02  0.40022729402E+01  0.33896157025E+02  0.47787272110E+02  0.20000004858E+02 0.  0.
         12    1    1    2    0    0 -0.26807751335E+02 -0.40022729402E+01 -0.33896157025E+02  0.43400727890E+02  0.00000000000E+00 0. -1.
         11    1    3    3    0    0  0.28729463571E+01 -0.20640396976E+01  0.12855734851E+02  0.13333566644E+02  0.51100000000E-03 0. -1.
        -11    1    3    3    0    0  0.18572970465E+02  0.58833779362E+01  0.21566004686E+02  0.29063068080E+02  0.51100000000E-03 0.  1.
         12    1    3    3    0    0  0.53618345123E+01  0.18293470166E+00 -0.52558251182E+00  0.53906373852E+01  0.00000000000E+00 0. -1.
</event>
<event>
 7    1  0.1634068E-009  0.4778727E+02  0.7816164E-02  0.1312668E+00
        -11   -1    0    0    0    0  0.00000000000E+00  0.00000000000E+00  0.45593999997E+02  0.45594000000E+02  0.51100000000E-03 0.  1.
         11   -1    0    0    0    0 -0.00000000000E+00 -0.00000000000E+00 -0.45593999997E+02  0.45594000000E+02  0.51100000000E-03 0. -1.
    9900012    2    1    2    0    0  0.55883269366E+01  0.25210183676E+02  0.34883243665E+02  0.47787269044E+02  0.19999990880E+02 0.  0.
         12    1    1    2    0    0 -0.55883269366E+01 -0.25210183676E+02 -0.34883243665E+02  0.43400730956E+02  0.00000000000E+00 0. -1.
         11    1    3    3    0    0  0.28486381845E+01  0.57678087340E+01  0.82819781293E+00  0.64860056257E+01  0.51100000000E-03 0. -1.
        -11    1    3    3    0    0 -0.32480972626E+01  0.19584703763E+01  0.11682633234E+02  0.12282901187E+02  0.51100000000E-03 0.  1.
         12    1    3    3    0    0  0.59877860147E+01  0.17483904566E+02  0.22372412618E+02  0.29018362231E+02  0.00000000000E+00 0. -1.
</event>
<event>
 7    1  0.1634068E-009  0.4778727E+02  0.7816164E-02  0.1312668E+00
        -11   -1    0    0    0    0  0.00000000000E+00  0.00000000000E+00  0.45593999997E+02  0.45594000000E+02  0.51100000000E-03 0.  1.
         11   -1    0    0    0    0 -0.00000000000E+00 -0.00000000000E+00 -0.45593999997E+02  0.45594000000E+02  0.51100000000E-03 0. -1.
    9900012    2    1    2    0    0  0.98097445342E+01 -0.28317838969E+01  0.42182620792E+02  0.47787267463E+02  0.19999983670E+02 0.  0.
         12    1    1    2    0    0 -0.98097445342E+01  0.28317838969E+01 -0.42182620792E+02  0.43400732537E+02  0.00000000000E+00 0. -1.
         11    1    3    3    0    0 -0.10996267925E+01 -0.97790270838E+00 -0.26481433015E+00  0.14951921885E+01  0.51100000000E-03 0. -1.
        -11    1    3    3    0    0  0.62192544546E+01 -0.29530566369E+01  0.40524649342E+02  0.41105314426E+02  0.51100000000E-03 0.  1.
         12    1    3    3    0    0  0.46901168722E+01  0.10991754483E+01  0.19227857799E+01  0.51867608482E+01  0.00000000000E+00 0. -1.
</event>
<event>
 7    1  0.1634068E-009  0.4778727E+02  0.7816164E-02  0.1312668E+00
        -11   -1    0    0    0    0  0.00000000000E+00  0.00000000000E+00  0.45593999997E+02  0.45594000000E+02  0.51100000000E-03 0.  1.
         11   -1    0    0    0    0 -0.00000000000E+00 -0.00000000000E+00 -0.45593999997E+02  0.45594000000E+02  0.51100000000E-03 0. -1.
    9900012    2    1    2    0    0 -0.28746446612E+01  0.31674197587E+02  0.29531426242E+02  0.47787268317E+02  0.19999987567E+02 0.  0.
         12    1    1    2    0    0  0.28746446612E+01 -0.31674197587E+02 -0.29531426242E+02  0.43400731683E+02  0.00000000000E+00 0. -1.
         11    1    3    3    0    0 -0.51949154398E+00  0.77194878286E-01  0.69698646695E+01  0.69896240447E+01  0.51100000000E-03 0. -1.
        -11    1    3    3    0    0 -0.96913763014E+00  0.30516416911E+02  0.23745424936E+02  0.38678626326E+02  0.51100000000E-03 0.  1.
         12    1    3    3    0    0 -0.13860154871E+01  0.10805857974E+01 -0.11838633632E+01  0.21190179467E+01  0.00000000000E+00 0. -1.
</event>
<event>
 7    1  0.1634068E-009  0.4778727E+02  0.7816164E-02  0.1312668E+00
        -11   -1    0    0    0    0  0.00000000000E+00  0.00000000000E+00  0.45593999997E+02  0.45594000000E+02  0.51100000000E-03 0. -1.
         11   -1    0    0    0    0 -0.00000000000E+00 -0.00000000000E+00 -0.45593999997E+02  0.45594000000E+02  0.51100000000E-03 0.  1.
    9900012    2    1    2    0    0 -0.21174225859E+02  0.30591411507E+02 -0.22348177096E+02  0.47787270534E+02  0.19999997672E+02 0.  0.
         12    1    1    2    0    0  0.21174225859E+02 -0.30591411507E+02  0.22348177096E+02  0.43400729466E+02  0.00000000000E+00 0. -1.
         11    1    3    3    0    0 -0.17399892099E+02  0.27231180207E+02 -0.12733474201E+02  0.34733770110E+02  0.51100000000E-03 0. -1.
        -11    1    3    3    0    0 -0.38720524391E+01  0.44125753300E+01 -0.10255968843E+02  0.11817296996E+02  0.51100000000E-03 0.  1.
         12    1    3    3    0    0  0.97718679968E-01 -0.10523440305E+01  0.64126594781E+00  0.12362034278E+01  0.00000000000E+00 0. -1.
</event>
<event>
 7    1  0.1634068E-009  0.4778727E+02  0.7816164E-02  0.1312668E+00
        -11   -1    0    0    0    0  0.00000000000E+00  0.00000000000E+00  0.45593999997E+02  0.45594000000E+02  0.51100000000E-03 0.  1.
         11   -1    0    0    0    0 -0.00000000000E+00 -0.00000000000E+00 -0.45593999997E+02  0.45594000000E+02  0.51100000000E-03 0. -1.
    9900012    2    1    2    0    0  0.24565875349E+02  0.12602451967E+02  0.33486105766E+02  0.47787270667E+02  0.19999998281E+02 0.  0.
         12    1    1    2    0    0 -0.24565875349E+02 -0.12602451967E+02 -0.33486105766E+02  0.43400729333E+02  0.00000000000E+00 0. -1.
         11    1    3    3    0    0  0.81875867384E+01  0.11515326815E+02  0.59653451366E+01  0.15337035930E+02  0.51100000000E-03 0. -1.
        -11    1    3    3    0    0  0.10836685795E+02  0.10683465529E+01  0.13307777858E+02  0.17195117771E+02  0.51100000000E-03 0.  1.
        -12    1    3    3    0    0  0.55416028150E+01  0.18778599299E-01  0.14212982771E+02  0.15255116966E+02  0.00000000000E+00 0.  1.
</event>
<event>
 7    1  0.1634068E-009  0.4778727E+02  0.7816164E-02  0.1312668E+00
        -11   -1    0    0    0    0  0.00000000000E+00  0.00000000000E+00  0.45593999997E+02  0.45594000000E+02  0.51100000000E-03 0.  1.
         11   -1    0    0    0    0 -0.00000000000E+00 -0.00000000000E+00 -0.45593999997E+02  0.45594000000E+02  0.51100000000E-03 0. -1.
    9900012    2    1    2    0    0  0.25811003762E+02 -0.33804023049E+02  0.86431138059E+01  0.47787270677E+02  0.19999998325E+02 0.  0.
         12    1    1    2    0    0 -0.25811003762E+02  0.33804023049E+02 -0.86431138059E+01  0.43400729323E+02  0.00000000000E+00 0. -1.
         11    1    3    3    0    0  0.10104651902E+02 -0.13842704616E+02 -0.10047206965E+01  0.17167816550E+02  0.51100000000E-03 0. -1.
        -11    1    3    3    0    0  0.15201773012E+02 -0.86898926921E+01  0.78700152660E+01  0.19197533130E+02  0.51100000000E-03 0.  1.
        -12    1    3    3    0    0  0.50457884856E+00 -0.11271425740E+02  0.17778192365E+01  0.11421920998E+02  0.00000000000E+00 0.  1.
</event>
<event>
 7    1  0.2197225E-009  0.4778727E+02  0.7816164E-02  0.1312668E+00
        -11   -1    0    0    0    0  0.00000000000E+00  0.00000000000E+00  0.45593999997E+02  0.45594000000E+02  0.51100000000E-03 0. -1.
         11   -1    0    0    0    0 -0.00000000000E+00 -0.00000000000E+00 -0.45593999997E+02  0.45594000000E+02  0.51100000000E-03 0.  1.
    9900012    2    1    2    0    0  0.15894902298E+02  0.70490057477E+01 -0.39765397737E+02  0.47787271224E+02  0.20000000820E+02 0.  0.
         12    1    1    2    0    0 -0.15894902298E+02 -0.70490057477E+01  0.39765397737E+02  0.43400728776E+02  0.00000000000E+00 0. -1.
         11    1    3    3    0    0  0.66500740032E+00 -0.38482862435E+01 -0.23634880212E+01  0.45648239552E+01  0.51100000000E-03 0. -1.
        -11    1    3    3    0    0  0.16615217375E+01  0.60257478126E+01 -0.17974829516E+02  0.19030627619E+02  0.51100000000E-03 0.  1.
        -12    1    3    3    0    0  0.13568373160E+02  0.48715441786E+01 -0.19427080200E+02  0.24191819650E+02  0.00000000000E+00 0.  1.
</event>
<event>
 7    1  0.1634068E-009  0.4778727E+02  0.7816164E-02  0.1312668E+00
        -11   -1    0    0    0    0  0.00000000000E+00  0.00000000000E+00  0.45593999997E+02  0.45594000000E+02  0.51100000000E-03 0. -1.
         11   -1    0    0    0    0 -0.00000000000E+00 -0.00000000000E+00 -0.45593999997E+02  0.45594000000E+02  0.51100000000E-03 0.  1.
    9900012    2    1    2    0    0 -0.27633272853E+02 -0.77909322078E+01 -0.32547307723E+02  0.47787266904E+02  0.19999981123E+02 0.  0.
         12    1    1    2    0    0  0.27633272853E+02  0.77909322078E+01  0.32547307723E+02  0.43400733096E+02  0.00000000000E+00 0. -1.
         11    1    3    3    0    0 -0.14720592164E+02  0.15063964487E+00 -0.21051773767E+02  0.25688435238E+02  0.51100000000E-03 0. -1.
        -11    1    3    3    0    0 -0.67466798051E+00 -0.42200187251E+01 -0.76142541352E+01  0.87315864092E+01  0.51100000000E-03 0.  1.
        -12    1    3    3    0    0 -0.12238012708E+02 -0.37215531275E+01 -0.38812798213E+01  0.13367245257E+02  0.00000000000E+00 0.  1.
</event>
<event>
 7    1  0.1634068E-009  0.4778727E+02  0.7816164E-02  0.1312668E+00
        -11   -1    0    0    0    0  0.00000000000E+00  0.00000000000E+00  0.45593999997E+02  0.45594000000E+02  0.51100000000E-03 0. -1.
         11   -1    0    0    0    0 -0.00000000000E+00 -0.00000000000E+00 -0.45593999997E+02  0.45594000000E+02  0.51100000000E-03 0.  1.
    9900012    2    1    2    0    0 -0.26398556564E+02  0.23348092977E+02 -0.25329939527E+02  0.47787273384E+02  0.20000010667E+02 0.  0.
         12    1    1    2    0    0  0.26398556564E+02 -0.23348092977E+02  0.25329939527E+02  0.43400726616E+02  0.00000000000E+00 0. -1.
         11    1    3    3    0    0 -0.70473984981E+01  0.36261002162E+01  0.38596018644E+00  0.79349476303E+01  0.51100000000E-03 0. -1.
        -11    1    3    3    0    0 -0.10961623182E+01  0.93358630624E+01 -0.69940979039E+01  0.11716540304E+02  0.51100000000E-03 0.  1.
        -12    1    3    3    0    0 -0.18254995747E+02  0.10386129699E+02 -0.18721801810E+02  0.28135785450E+02  0.00000000000E+00 0.  1.
</event>
<event>
 7    1  0.1634068E-009  0.4778728E+02  0.7816164E-02  0.1312668E+00
        -11   -1    0    0    0    0  0.00000000000E+00  0.00000000000E+00  0.45593999997E+02  0.45594000000E+02  0.51100000000E-03 0.  1.
         11   -1    0    0    0    0 -0.00000000000E+00 -0.00000000000E+00 -0.45593999997E+02  0.45594000000E+02  0.51100000000E-03 0. -1.
    9900012    2    1    2    0    0  0.23633693459E+01 -0.10554107748E+02  0.42031513857E+02  0.47787275788E+02  0.20000021629E+02 0.  0.
         12    1    1    2    0    0 -0.23633693459E+01  0.10554107748E+02 -0.42031513857E+02  0.43400724212E+02  0.00000000000E+00 0. -1.
         11    1    3    3    0    0  0.29339337276E+01  0.27264230565E+01  0.85116296366E+01  0.94068692525E+01  0.51100000000E-03 0. -1.
        -11    1    3    3    0    0  0.53605562801E+01 -0.11099776347E+02  0.20824019604E+02  0.24198768384E+02  0.51100000000E-03 0.  1.
         12    1    3    3    0    0 -0.59311206617E+01 -0.21807544575E+01  0.12695864616E+02  0.14181638152E+02  0.00000000000E+00 0. -1.
</event>
<event>
 7    1  0.1634068E-009  0.4778727E+02  0.7816164E-02  0.1312668E+00
        -11   -1    0    0    0    0  0.00000000000E+00  0.00000000000E+00  0.45593999997E+02  0.45594000000E+02  0.51100000000E-03 0. -1.
         11   -1    0    0    0    0 -0.00000000000E+00 -0.00000000000E+00 -0.45593999997E+02  0.45594000000E+02  0.51100000000E-03 0.  1.
    9900012    2    1    2    0    0  0.22542550130E+02  0.34493816696E+02  0.13624741537E+02  0.47787267995E+02  0.19999986095E+02 0.  0.
         12    1    1    2    0    0 -0.22542550130E+02 -0.34493816696E+02 -0.13624741537E+02  0.43400732005E+02  0.00000000000E+00 0. -1.
         11    1    3    3    0    0  0.17445193481E+02  0.16851031307E+02  0.13158422898E+02  0.27594132078E+02  0.51100000000E-03 0. -1.
        -11    1    3    3    0    0 -0.12258682176E+01  0.76659116948E+01  0.26059305337E+01  0.81890066068E+01  0.51100000000E-03 0.  1.
        -12    1    3    3    0    0  0.63232248661E+01  0.99768736950E+01 -0.21396118949E+01  0.12004129310E+02  0.00000000000E+00 0.  1.
</event>
<event>
 7    1  0.1634068E-009  0.4778726E+02  0.7816164E-02  0.1312668E+00
        -11   -1    0    0    0    0  0.00000000000E+00  0.00000000000E+00  0.45593999997E+02  0.45594000000E+02  0.51100000000E-03 0.  1.
         11   -1    0    0    0    0 -0.00000000000E+00 -0.00000000000E+00 -0.45593999997E+02  0.45594000000E+02  0.51100000000E-03 0. -1.
    9900012    2    1    2    0    0 -0.30313330267E+02  0.72537764566E+01  0.30201144579E+02  0.47787258086E+02  0.19999940919E+02 0.  0.
         12    1    1    2    0    0  0.30313330267E+02 -0.72537764566E+01 -0.30201144579E+02  0.43400741914E+02  0.00000000000E+00 0. -1.
         11    1    3    3    0    0 -0.23012881378E+01  0.94440415309E+00  0.11346376398E+02  0.11615854851E+02  0.51100000000E-03 0. -1.
        -11    1    3    3    0    0 -0.11537737629E+02  0.81119680787E+01  0.66710304773E+01  0.15602117280E+02  0.51100000000E-03 0.  1.
        -12    1    3    3    0    0 -0.16474304500E+02 -0.18025957752E+01  0.12183737704E+02  0.20569285955E+02  0.00000000000E+00 0.  1.
</event>
<event>
 7    1  0.1634068E-009  0.4778727E+02  0.7816164E-02  0.1312668E+00
        -11   -1    0    0    0    0  0.00000000000E+00  0.00000000000E+00  0.45593999997E+02  0.45594000000E+02  0.51100000000E-03 0.  1.
         11   -1    0    0    0    0 -0.00000000000E+00 -0.00000000000E+00 -0.45593999997E+02  0.45594000000E+02  0.51100000000E-03 0. -1.
    9900012    2    1    2    0    0  0.19199940453E+02 -0.29480769795E+02  0.25413967596E+02  0.47787271319E+02  0.20000001251E+02 0.  0.
         12    1    1    2    0    0 -0.19199940453E+02  0.29480769795E+02 -0.25413967596E+02  0.43400728681E+02  0.00000000000E+00 0. -1.
         11    1    3    3    0    0  0.13485808596E+02 -0.12914371041E+02  0.11419631286E+02  0.21887347758E+02  0.51100000000E-03 0.  1.
        -11    1    3    3    0    0  0.34418964943E+01  0.23347821078E+00 -0.63480017510E+00  0.35077250571E+01  0.51100000000E-03 0. -1.
         12    1    3    3    0    0  0.22722353623E+01 -0.16799876964E+02  0.14629136485E+02  0.22392198504E+02  0.00000000000E+00 0. -1.
</event>
<event>
 7    1  0.1634068E-009  0.4778727E+02  0.7816164E-02  0.1312668E+00
        -11   -1    0    0    0    0  0.00000000000E+00  0.00000000000E+00  0.45593999997E+02  0.45594000000E+02  0.51100000000E-03 0. -1.
         11   -1    0    0    0    0 -0.00000000000E+00 -0.00000000000E+00 -0.45593999997E+02  0.45594000000E+02  0.51100000000E-03 0.  1.
    9900012    2    1    2    0    0 -0.21065672968E+02  0.20542824444E+02 -0.31903811404E+02  0.47787269640E+02  0.19999993594E+02 0.  0.
         12    1    1    2    0    0  0.21065672968E+02 -0.20542824444E+02  0.31903811404E+02  0.43400730360E+02  0.00000000000E+00 0. -1.
         11    1    3    3    0    0 -0.96942269419E+01  0.90519896818E+01 -0.21256624682E+02  0.25055152092E+02  0.51100000000E-03 0. -1.
        -11    1    3    3    0    0 -0.11621523870E+02  0.37362102721E+01 -0.52936071437E+01  0.13305689051E+02  0.51100000000E-03 0.  1.
         12    1    3    3    0    0  0.25007784397E+00  0.77546244901E+01 -0.53535795778E+01  0.94264284969E+01  0.00000000000E+00 0. -1.
</event>
<event>
 7    1  0.1634068E-009  0.4778727E+02  0.7816164E-02  0.1312668E+00
        -11   -1    0    0    0    0  0.00000000000E+00  0.00000000000E+00  0.45593999997E+02  0.45594000000E+02  0.51100000000E-03 0.  1.
         11   -1    0    0    0    0 -0.00000000000E+00 -0.00000000000E+00 -0.45593999997E+02  0.45594000000E+02  0.51100000000E-03 0. -1.
    9900012    2    1    2    0    0 -0.40251573867E+02  0.16318016646E+01  0.16148412663E+02  0.47787271815E+02  0.20000003514E+02 0.  0.
         12    1    1    2    0    0  0.40251573867E+02 -0.16318016646E+01 -0.16148412663E+02  0.43400728185E+02  0.00000000000E+00 0. -1.
         11    1    3    3    0    0 -0.15702496307E+02 -0.58914618823E+01  0.99717165810E+00  0.16800954288E+02  0.51100000000E-03 0. -1.
        -11    1    3    3    0    0 -0.92887674982E+01 -0.97244506586E+00  0.34179875354E+01  0.99453250371E+01  0.51100000000E-03 0.  1.
        -12    1    3    3    0    0 -0.15260310062E+02  0.84957086128E+01  0.11733253469E+02  0.21040992490E+02  0.00000000000E+00 0.  1.
</event>
<event>
 7    1  0.1634068E-009  0.4778727E+02  0.7816164E-02  0.1312668E+00
        -11   -1    0    0    0    0  0.00000000000E+00  0.00000000000E+00  0.45593999997E+02  0.45594000000E+02  0.51100000000E-03 0.  1.
         11   -1    0    0    0    0 -0.00000000000E+00 -0.00000000000E+00 -0.45593999997E+02  0.45594000000E+02  0.51100000000E-03 0. -1.
    9900012    2    1    2    0    0  0.18746512374E+02 -0.24039548818E+02  0.30891606841E+02  0.47787274121E+02  0.20000014027E+02 0.  0.
         12    1    1    2    0    0 -0.18746512374E+02  0.24039548818E+02 -0.30891606841E+02  0.43400725879E+02  0.00000000000E+00 0. -1.
         11    1    3    3    0    0  0.73258808591E+01 -0.26270639039E+01  0.16897729369E+02  0.18603850494E+02  0.51100000000E-03 0. -1.
        -11    1    3    3    0    0  0.63945283183E+01 -0.17485298734E+02  0.13048759558E+02  0.22735342322E+02  0.51100000000E-03 0.  1.
        -12    1    3    3    0    0  0.50261031970E+01 -0.39271861803E+01  0.94511791394E+00  0.64480813048E+01  0.00000000000E+00 0.  1.
</event>
<event>
 7    1  0.1634068E-009  0.4778727E+02  0.7816164E-02  0.1312668E+00
        -11   -1    0    0    0    0  0.00000000000E+00  0.00000000000E+00  0.45593999997E+02  0.45594000000E+02  0.51100000000E-03 0. -1.
         11   -1    0    0    0    0 -0.00000000000E+00 -0.00000000000E+00 -0.45593999997E+02  0.45594000000E+02  0.51100000000E-03 0.  1.
    9900012    2    1    2    0    0  0.36262564017E+02  0.20748243699E+02 -0.11754147833E+02  0.47787272391E+02  0.20000006139E+02 0.  0.
         12    1    1    2    0    0 -0.36262564017E+02 -0.20748243699E+02  0.11754147833E+02  0.43400727609E+02  0.00000000000E+00 0. -1.
         11    1    3    3    0    0  0.54214683927E+01  0.52976496599E+00  0.39473908507E+01  0.67271736444E+01  0.51100000000E-03 0. -1.
        -11    1    3    3    0    0  0.69676532476E+01  0.55026601542E+01 -0.80644490958E+01  0.11994281972E+02  0.51100000000E-03 0.  1.
        -12    1    3    3    0    0  0.23873442377E+02  0.14715818579E+02 -0.76370895874E+01  0.29065816774E+02  0.00000000000E+00 0.  1.
</event>
<event>
 7    1  0.1634068E-009  0.4778727E+02  0.7816164E-02  0.1312668E+00
        -11   -1    0    0    0    0  0.00000000000E+00  0.00000000000E+00  0.45593999997E+02  0.45594000000E+02  0.51100000000E-03 0.  1.
         11   -1    0    0    0    0 -0.00000000000E+00 -0.00000000000E+00 -0.45593999997E+02  0.45594000000E+02  0.51100000000E-03 0. -1.
    9900012    2    1    2    0    0 -0.11171423826E+02  0.22430895782E+00  0.41937718520E+02  0.47787271211E+02  0.20000000758E+02 0.  0.
         12    1    1    2    0    0  0.11171423826E+02 -0.22430895782E+00 -0.41937718520E+02  0.43400728789E+02  0.00000000000E+00 0. -1.
         11    1    3    3    0    0 -0.59066926290E+01  0.51614038468E+01  0.13240691160E+02  0.15389769659E+02  0.51100000000E-03 0. -1.
        -11    1    3    3    0    0 -0.24390076649E+01  0.45283429208E+01  0.91643951158E+01  0.10509081125E+02  0.51100000000E-03 0.  1.
        -12    1    3    3    0    0 -0.28257235320E+01 -0.94654378098E+01  0.19532632244E+02  0.21888420427E+02  0.00000000000E+00 0.  1.
</event>
<event>
 7    1  0.1634068E-009  0.4778727E+02  0.7816164E-02  0.1312668E+00
        -11   -1    0    0    0    0  0.00000000000E+00  0.00000000000E+00  0.45593999997E+02  0.45594000000E+02  0.51100000000E-03 0.  1.
         11   -1    0    0    0    0 -0.00000000000E+00 -0.00000000000E+00 -0.45593999997E+02  0.45594000000E+02  0.51100000000E-03 0. -1.
    9900012    2    1    2    0    0  0.22603710561E+02  0.36059873947E+02 -0.85077147093E+01  0.47787269018E+02  0.19999990761E+02 0.  0.
         12    1    1    2    0    0 -0.22603710561E+02 -0.36059873947E+02  0.85077147093E+01  0.43400730982E+02  0.00000000000E+00 0. -1.
         11    1    3    3    0    0  0.52506979500E+01  0.45703530707E+01  0.33308652162E+01  0.77170343723E+01  0.51100000000E-03 0.  1.
        -11    1    3    3    0    0  0.14213678417E+02  0.13628711782E+02 -0.92344402000E+01  0.21749605170E+02  0.51100000000E-03 0. -1.
         12    1    3    3    0    0  0.31393341945E+01  0.17860809094E+02 -0.26041397255E+01  0.18320629476E+02  0.00000000000E+00 0. -1.
</event>
<event>
 7    1  0.1634068E-009  0.4778727E+02  0.7816164E-02  0.1312668E+00
        -11   -1    0    0    0    0  0.00000000000E+00  0.00000000000E+00  0.45593999997E+02  0.45594000000E+02  0.51100000000E-03 0.  1.
         11   -1    0    0    0    0 -0.00000000000E+00 -0.00000000000E+00 -0.45593999997E+02  0.45594000000E+02  0.51100000000E-03 0. -1.
    9900012    2    1    2    0    0  0.23163140397E+02 -0.13534091155E+02  0.34116277364E+02  0.47787273305E+02  0.20000010309E+02 0.  0.
         12    1    1    2    0    0 -0.23163140397E+02  0.13534091155E+02 -0.34116277364E+02  0.43400726695E+02  0.00000000000E+00 0. -1.
         11    1    3    3    0    0 -0.93802657359E+00  0.14244277096E+01  0.37614615185E+01  0.41300703589E+01  0.51100000000E-03 0. -1.
        -11    1    3    3    0    0  0.98191600827E+01 -0.13141382858E+02  0.11977413972E+02  0.20311826453E+02  0.51100000000E-03 0.  1.
        -12    1    3    3    0    0  0.14282006888E+02 -0.18171360075E+01  0.18377401874E+02  0.23345376494E+02  0.00000000000E+00 0.  1.
</event>
<event>
 7    1  0.1634068E-009  0.4778728E+02  0.7816164E-02  0.1312668E+00
        -11   -1    0    0    0    0  0.00000000000E+00  0.00000000000E+00  0.45593999997E+02  0.45594000000E+02  0.51100000000E-03 0.  1.
         11   -1    0    0    0    0 -0.00000000000E+00 -0.00000000000E+00 -0.45593999997E+02  0.45594000000E+02  0.51100000000E-03 0. -1.
    9900012    2    1    2    0    0  0.84772092979E+00 -0.36761750595E+02  0.23053791680E+02  0.47787282858E+02  0.20000053864E+02 0.  0.
         12    1    1    2    0    0 -0.84772092979E+00  0.36761750595E+02 -0.23053791680E+02  0.43400717142E+02  0.00000000000E+00 0. -1.
         11    1    3    3    0    0  0.20555634464E+01 -0.80900209720E+01  0.13109814504E+01  0.84494054840E+01  0.51100000000E-03 0.  1.
        -11    1    3    3    0    0 -0.83721655162E+01 -0.17303318313E+02  0.14458076129E+02  0.24052732604E+02  0.51100000000E-03 0. -1.
         12    1    3    3    0    0  0.71643229995E+01 -0.11368411309E+02  0.72847341010E+01  0.15285144771E+02  0.00000000000E+00 0. -1.
</event>
<event>
 7    1  0.1634068E-009  0.4778727E+02  0.7816164E-02  0.1312668E+00
        -11   -1    0    0    0    0  0.00000000000E+00  0.00000000000E+00  0.45593999997E+02  0.45594000000E+02  0.51100000000E-03 0.  1.
         11   -1    0    0    0    0 -0.00000000000E+00 -0.00000000000E+00 -0.45593999997E+02  0.45594000000E+02  0.51100000000E-03 0. -1.
    9900012    2    1    2    0    0  0.10864442836E+02 -0.92370484527E+01  0.40991025692E+02  0.47787269942E+02  0.19999994974E+02 0.  0.
         12    1    1    2    0    0 -0.10864442836E+02  0.92370484527E+01 -0.40991025692E+02  0.43400730058E+02  0.00000000000E+00 0. -1.
         11    1    3    3    0    0 -0.40521137171E+01 -0.52799772625E+01  0.42301029897E+01  0.78861623768E+01  0.51100000000E-03 0. -1.
        -11    1    3    3    0    0  0.50360741083E+01 -0.15664380641E+01  0.10743380170E+02  0.11968123845E+02  0.51100000000E-03 0.  1.
         12    1    3    3    0    0  0.98804824450E+01 -0.23906331261E+01  0.26017542533E+02  0.27932983721E+02  0.00000000000E+00 0. -1.
</event>
<event>
 7    1  0.1634068E-009  0.4778726E+02  0.7816164E-02  0.1312668E+00
        -11   -1    0    0    0    0  0.00000000000E+00  0.00000000000E+00  0.45593999997E+02  0.45594000000E+02  0.51100000000E-03 0. -1.
         11   -1    0    0    0    0 -0.00000000000E+00 -0.00000000000E+00 -0.45593999997E+02  0.45594000000E+02  0.51100000000E-03 0.  1.
    9900012    2    1    2    0    0 -0.54347362090E+01 -0.33891402194E+01 -0.42925533575E+02  0.47787261967E+02  0.19999958613E+02 0.  0.
         12    1    1    2    0    0  0.54347362090E+01  0.33891402194E+01  0.42925533575E+02  0.43400738033E+02  0.00000000000E+00 0. -1.
         11    1    3    3    0    0 -0.16745868075E+01 -0.26144862973E+01  0.65389706544E+00  0.31729105263E+01  0.51100000000E-03 0. -1.
        -11    1    3    3    0    0  0.27026961709E+01 -0.97056365864E+00 -0.94055298071E+01  0.98341523082E+01  0.51100000000E-03 0.  1.
        -12    1    3    3    0    0 -0.64628455724E+01  0.19590973653E+00 -0.34173900834E+02  0.34780199133E+02  0.00000000000E+00 0.  1.
</event>
<event>
 7    1  0.1634068E-009  0.4778727E+02  0.7816164E-02  0.1312668E+00
        -11   -1    0    0    0    0  0.00000000000E+00  0.00000000000E+00  0.45593999997E+02  0.45594000000E+02  0.51100000000E-03 0. -1.
         11   -1    0    0    0    0 -0.00000000000E+00 -0.00000000000E+00 -0.45593999997E+02  0.45594000000E+02  0.51100000000E-03 0.  1.
    9900012    2    1    2    0    0  0.10416121605E+02  0.27367155871E+02 -0.32033835363E+02  0.47787269386E+02  0.19999992440E+02 0.  0.
         12    1    1    2    0    0 -0.10416121605E+02 -0.27367155871E+02  0.32033835363E+02  0.43400730614E+02  0.00000000000E+00 0. -1.
         11    1    3    3    0    0  0.30311631145E+01  0.90784828290E+01 -0.24851903436E+01  0.98885272719E+01  0.51100000000E-03 0.  1.
        -11    1    3    3    0    0 -0.71835139981E+00  0.14925356345E+02 -0.19272957138E+02  0.24387069686E+02  0.51100000000E-03 0. -1.
        -12    1    3    3    0    0  0.81033098900E+01  0.33633166965E+01 -0.10275687881E+02  0.13511672428E+02  0.00000000000E+00 0.  1.
</event>
<event>
 7    1  0.1963883E-009  0.4778727E+02  0.7816164E-02  0.1312668E+00
        -11   -1    0    0    0    0  0.00000000000E+00  0.00000000000E+00  0.45593999997E+02  0.45594000000E+02  0.51100000000E-03 0.  1.
         11   -1    0    0    0    0 -0.00000000000E+00 -0.00000000000E+00 -0.45593999997E+02  0.45594000000E+02  0.51100000000E-03 0. -1.
    9900012    2    1    2    0    0  0.56993518882E+01 -0.32478547420E+02  0.28218523785E+02  0.47787265685E+02  0.19999975565E+02 0.  0.
         12    1    1    2    0    0 -0.56993518882E+01  0.32478547420E+02 -0.28218523785E+02  0.43400734315E+02  0.00000000000E+00 0. -1.
         11    1    3    3    0    0 -0.96704503152E+00 -0.20188113548E+01  0.10962030322E+02  0.11188247603E+02  0.51100000000E-03 0. -1.
        -11    1    3    3    0    0  0.80962482545E+00 -0.16634734737E+02  0.12584961227E+02  0.20874653086E+02  0.51100000000E-03 0.  1.
        -12    1    3    3    0    0  0.58567720942E+01 -0.13825001328E+02  0.46715322354E+01  0.15724364996E+02  0.00000000000E+00 0.  1.
</event>
<event>
 7    1  0.1634068E-009  0.4778728E+02  0.7816164E-02  0.1312668E+00
        -11   -1    0    0    0    0  0.00000000000E+00  0.00000000000E+00  0.45593999997E+02  0.45594000000E+02  0.51100000000E-03 0.  1.
         11   -1    0    0    0    0 -0.00000000000E+00 -0.00000000000E+00 -0.45593999997E+02  0.45594000000E+02  0.51100000000E-03 0. -1.
    9900012    2    1    2    0    0  0.38137268359E+02  0.19686566707E+02 -0.64506288721E+01  0.47787276971E+02  0.20000027020E+02 0.  0.
         12    1    1    2    0    0 -0.38137268359E+02 -0.19686566707E+02  0.64506288721E+01  0.43400723029E+02  0.00000000000E+00 0. -1.
         11    1    3    3    0    0  0.13406497460E+01  0.77258332893E+01 -0.42740259438E+01  0.89304613422E+01  0.51100000000E-03 0. -1.
        -11    1    3    3    0    0  0.16233107014E+02  0.58305641447E+01 -0.22820276446E+01  0.17398761221E+02  0.51100000000E-03 0.  1.
         12    1    3    3    0    0  0.20563511599E+02  0.61301692730E+01  0.10542471631E+00  0.21458054408E+02  0.00000000000E+00 0. -1.
</event>
<event>
 7    1  0.1634068E-009  0.4778727E+02  0.7816164E-02  0.1312668E+00
        -11   -1    0    0    0    0  0.00000000000E+00  0.00000000000E+00  0.45593999997E+02  0.45594000000E+02  0.51100000000E-03 0.  1.
         11   -1    0    0    0    0 -0.00000000000E+00 -0.00000000000E+00 -0.45593999997E+02  0.45594000000E+02  0.51100000000E-03 0. -1.
    9900012    2    1    2    0    0 -0.32960232452E+02 -0.27418730631E+02 -0.67423706496E+01  0.47787271035E+02  0.19999999958E+02 0.  0.
         12    1    1    2    0    0  0.32960232452E+02  0.27418730631E+02  0.67423706496E+01  0.43400728965E+02  0.00000000000E+00 0. -1.
         11    1    3    3    0    0 -0.16659222771E+02 -0.15230687000E+02 -0.68699078533E+01  0.23594473167E+02  0.51100000000E-03 0. -1.
        -11    1    3    3    0    0 -0.60265941516E+01 -0.10616966023E+02  0.43696059356E+01  0.12966621029E+02  0.51100000000E-03 0.  1.
         12    1    3    3    0    0 -0.10274415529E+02 -0.15710776077E+01 -0.42420687319E+01  0.11226176840E+02  0.00000000000E+00 0. -1.
</event>
<event>
 7    1  0.1634068E-009  0.4778726E+02  0.7816164E-02  0.1312668E+00
        -11   -1    0    0    0    0  0.00000000000E+00  0.00000000000E+00  0.45593999997E+02  0.45594000000E+02  0.51100000000E-03 0. -1.
         11   -1    0    0    0    0 -0.00000000000E+00 -0.00000000000E+00 -0.45593999997E+02  0.45594000000E+02  0.51100000000E-03 0.  1.
    9900012    2    1    2    0    0  0.43110316081E+02  0.14245627770E+01  0.48057505939E+01  0.47787263019E+02  0.19999963409E+02 0.  0.
         12    1    1    2    0    0 -0.43110316081E+02 -0.14245627770E+01 -0.48057505939E+01  0.43400736981E+02  0.00000000000E+00 0. -1.
         11    1    3    3    0    0  0.43052499295E+01 -0.57324133785E+01  0.13056172216E+01  0.72870005275E+01  0.51100000000E-03 0. -1.
        -11    1    3    3    0    0 -0.28884946802E+00 -0.26876065559E+00  0.43830971832E+00  0.58973042609E+00  0.51100000000E-03 0.  1.
        -12    1    3    3    0    0  0.39093915620E+02  0.74257368111E+01  0.30618236540E+01  0.39910532065E+02  0.00000000000E+00 0.  1.
</event>
<event>
 7    1  0.1634068E-009  0.4778727E+02  0.7816164E-02  0.1312668E+00
        -11   -1    0    0    0    0  0.00000000000E+00  0.00000000000E+00  0.45593999997E+02  0.45594000000E+02  0.51100000000E-03 0. -1.
         11   -1    0    0    0    0 -0.00000000000E+00 -0.00000000000E+00 -0.45593999997E+02  0.45594000000E+02  0.51100000000E-03 0.  1.
    9900012    2    1    2    0    0 -0.18178950555E+02  0.14578687602E+02 -0.36614356950E+02  0.47787268320E+02  0.19999987579E+02 0.  0.
         12    1    1    2    0    0  0.18178950555E+02 -0.14578687602E+02  0.36614356950E+02  0.43400731680E+02  0.00000000000E+00 0. -1.
         11    1    3    3    0    0 -0.11074133245E+01  0.11966134106E+02 -0.12639482829E+02  0.17440506190E+02  0.51100000000E-03 0. -1.
        -11    1    3    3    0    0 -0.62884752502E+01 -0.10069848198E+01 -0.13307458773E+02  0.14752877640E+02  0.51100000000E-03 0.  1.
        -12    1    3    3    0    0 -0.10783061981E+02  0.36195383160E+01 -0.10667415348E+02  0.15593884490E+02  0.00000000000E+00 0.  1.
</event>
<event>
 7    1  0.1634068E-009  0.4778728E+02  0.7816164E-02  0.1312668E+00
        -11   -1    0    0    0    0  0.00000000000E+00  0.00000000000E+00  0.45593999997E+02  0.45594000000E+02  0.51100000000E-03 0.  1.
         11   -1    0    0    0    0 -0.00000000000E+00 -0.00000000000E+00 -0.45593999997E+02  0.45594000000E+02  0.51100000000E-03 0. -1.
    9900012    2    1    2    0    0 -0.83720716146E+01  0.21526050525E+01  0.42531135158E+02  0.47787277086E+02  0.20000027546E+02 0.  0.
         12    1    1    2    0    0  0.83720716146E+01 -0.21526050525E+01 -0.42531135158E+02  0.43400722914E+02  0.00000000000E+00 0. -1.
         11    1    3    3    0    0 -0.15321487053E+01  0.69403440352E+01  0.72203594901E+01  0.10131606309E+02  0.51100000000E-03 0. -1.
        -11    1    3    3    0    0 -0.82493141026E+01 -0.30548609877E+00  0.24926576914E+02  0.26257927219E+02  0.51100000000E-03 0.  1.
        -12    1    3    3    0    0  0.14093911934E+01 -0.44822528839E+01  0.10384198754E+02  0.11397743558E+02  0.00000000000E+00 0.  1.
</event>
<event>
 7    1  0.1634068E-009  0.4778727E+02  0.7816164E-02  0.1312668E+00
        -11   -1    0    0    0    0  0.00000000000E+00  0.00000000000E+00  0.45593999997E+02  0.45594000000E+02  0.51100000000E-03 0.  1.
         11   -1    0    0    0    0 -0.00000000000E+00 -0.00000000000E+00 -0.45593999997E+02  0.45594000000E+02  0.51100000000E-03 0. -1.
    9900012    2    1    2    0    0 -0.95395499233E+01  0.18793722502E+02  0.37939639812E+02  0.47787270890E+02  0.19999999295E+02 0.  0.
         12    1    1    2    0    0  0.95395499233E+01 -0.18793722502E+02 -0.37939639812E+02  0.43400729110E+02  0.00000000000E+00 0. -1.
         11    1    3    3    0    0  0.11900468880E+01  0.13235985914E+02  0.24616500126E+02  0.27974624456E+02  0.51100000000E-03 0. -1.
        -11    1    3    3    0    0 -0.62515535582E+01  0.23927570931E+01  0.12618383228E+02  0.14283935170E+02  0.51100000000E-03 0.  1.
         12    1    3    3    0    0 -0.44780432531E+01  0.31649794948E+01  0.70475645828E+00  0.55287112644E+01  0.00000000000E+00 0. -1.
</event>
<event>
 7    1  0.1634068E-009  0.4778727E+02  0.7816164E-02  0.1312668E+00
        -11   -1    0    0    0    0  0.00000000000E+00  0.00000000000E+00  0.45593999997E+02  0.45594000000E+02  0.51100000000E-03 0.  1.
         11   -1    0    0    0    0 -0.00000000000E+00 -0.00000000000E+00 -0.45593999997E+02  0.45594000000E+02  0.51100000000E-03 0. -1.
    9900012    2    1    2    0    0 -0.17621338194E+02 -0.21298954567E+02  0.33458420869E+02  0.47787274748E+02  0.20000016886E+02 0.  0.
         12    1    1    2    0    0  0.17621338194E+02  0.21298954567E+02 -0.33458420869E+02  0.43400725252E+02  0.00000000000E+00 0. -1.
         11    1    3    3    0    0 -0.39110363584E+01  0.99354847630E-01  0.53433468794E+01  0.66224944634E+01  0.51100000000E-03 0. -1.
        -11    1    3    3    0    0 -0.69410104458E+01 -0.22027586283E+02  0.19773416774E+02  0.30403621406E+02  0.51100000000E-03 0.  1.
        -12    1    3    3    0    0 -0.67692913896E+01  0.62927686874E+00  0.83416572158E+01  0.10761158878E+02  0.00000000000E+00 0.  1.
</event>
<event>
 7    1  0.1634068E-009  0.4778727E+02  0.7816164E-02  0.1312668E+00
        -11   -1    0    0    0    0  0.00000000000E+00  0.00000000000E+00  0.45593999997E+02  0.45594000000E+02  0.51100000000E-03 0. -1.
         11   -1    0    0    0    0 -0.00000000000E+00 -0.00000000000E+00 -0.45593999997E+02  0.45594000000E+02  0.51100000000E-03 0.  1.
    9900012    2    1    2    0    0 -0.39141355050E+02 -0.81241833559E+01 -0.16898970355E+02  0.47787271557E+02  0.20000002335E+02 0.  0.
         12    1    1    2    0    0  0.39141355050E+02  0.81241833559E+01  0.16898970355E+02  0.43400728443E+02  0.00000000000E+00 0. -1.
         11    1    3    3    0    0 -0.24121006916E+01  0.67704190000E+00  0.20005034219E+01  0.32060302062E+01  0.51100000000E-03 0. -1.
        -11    1    3    3    0    0 -0.62885091312E+01  0.24168402906E+01 -0.77685090617E+01  0.10282810773E+02  0.51100000000E-03 0.  1.
        -12    1    3    3    0    0 -0.30440745227E+02 -0.11218065546E+02 -0.11130964715E+02  0.34298430578E+02  0.00000000000E+00 0.  1.
</event>
<event>
 7    1  0.1634068E-009  0.4778727E+02  0.7816164E-02  0.1312668E+00
        -11   -1    0    0    0    0  0.00000000000E+00  0.00000000000E+00  0.45593999997E+02  0.45594000000E+02  0.51100000000E-03 0.  1.
         11   -1    0    0    0    0 -0.00000000000E+00 -0.00000000000E+00 -0.45593999997E+02  0.45594000000E+02  0.51100000000E-03 0. -1.
    9900012    2    1    2    0    0  0.28756989644E+02 -0.19193037535E+02  0.26235214291E+02  0.47787267148E+02  0.19999982233E+02 0.  0.
         12    1    1    2    0    0 -0.28756989644E+02  0.19193037535E+02 -0.26235214291E+02  0.43400732852E+02  0.00000000000E+00 0. -1.
         11    1    3    3    0    0  0.15686872369E+02 -0.11167364991E+02  0.35137054768E+01  0.19573812404E+02  0.51100000000E-03 0. -1.
        -11    1    3    3    0    0  0.56701064201E+01  0.16646851150E+00  0.82468909739E+01  0.10009447016E+02  0.51100000000E-03 0.  1.
         12    1    3    3    0    0  0.74000108548E+01 -0.81921410557E+01  0.14474617840E+02  0.18204007728E+02  0.00000000000E+00 0. -1.
</event>
<event>
 7    1  0.1634068E-009  0.4778727E+02  0.7816164E-02  0.1312668E+00
        -11   -1    0    0    0    0  0.00000000000E+00  0.00000000000E+00  0.45593999997E+02  0.45594000000E+02  0.51100000000E-03 0.  1.
         11   -1    0    0    0    0 -0.00000000000E+00 -0.00000000000E+00 -0.45593999997E+02  0.45594000000E+02  0.51100000000E-03 0. -1.
    9900012    2    1    2    0    0  0.76310081836E+01 -0.14261473022E+02  0.40274075308E+02  0.47787273732E+02  0.20000012255E+02 0.  0.
         12    1    1    2    0    0 -0.76310081836E+01  0.14261473022E+02 -0.40274075308E+02  0.43400726268E+02  0.00000000000E+00 0. -1.
         11    1    3    3    0    0  0.45964619076E+01 -0.50362410267E+01  0.42770294363E+01  0.80488612118E+01  0.51100000000E-03 0.  1.
        -11    1    3    3    0    0  0.36354709081E+00 -0.62422402375E+01  0.35077074613E+02  0.35630027972E+02  0.51100000000E-03 0. -1.
         12    1    3    3    0    0  0.26709991852E+01 -0.29829917584E+01  0.91997125878E+00  0.41083845481E+01  0.00000000000E+00 0. -1.
</event>
<event>
 7    1  0.1634068E-009  0.4778727E+02  0.7816164E-02  0.1312668E+00
        -11   -1    0    0    0    0  0.00000000000E+00  0.00000000000E+00  0.45593999997E+02  0.45594000000E+02  0.51100000000E-03 0.  1.
         11   -1    0    0    0    0 -0.00000000000E+00 -0.00000000000E+00 -0.45593999997E+02  0.45594000000E+02  0.51100000000E-03 0. -1.
    9900012    2    1    2    0    0 -0.13222667141E+02 -0.39189094870E+02  0.13152916184E+02  0.47787270891E+02  0.19999999299E+02 0.  0.
         12    1    1    2    0    0  0.13222667141E+02  0.39189094870E+02 -0.13152916184E+02  0.43400729109E+02  0.00000000000E+00 0. -1.
         11    1    3    3    0    0 -0.12461348174E+02 -0.11025736966E+02  0.32874738266E+01  0.16960529425E+02  0.51100000000E-03 0. -1.
        -11    1    3    3    0    0  0.16074764714E+01 -0.64983408897E+01 -0.46077666832E+00  0.67100469688E+01  0.51100000000E-03 0.  1.
         12    1    3    3    0    0 -0.23687954385E+01 -0.21665017015E+02  0.10326219026E+02  0.24116694497E+02  0.00000000000E+00 0. -1.
</event>
<event>
 7    1  0.1634068E-009  0.4778727E+02  0.7816164E-02  0.1312668E+00
        -11   -1    0    0    0    0  0.00000000000E+00  0.00000000000E+00  0.45593999997E+02  0.45594000000E+02  0.51100000000E-03 0. -1.
         11   -1    0    0    0    0 -0.00000000000E+00 -0.00000000000E+00 -0.45593999997E+02  0.45594000000E+02  0.51100000000E-03 0.  1.
    9900012    2    1    2    0    0  0.16613510180E+02  0.38293224221E+02 -0.11884590084E+02  0.47787271628E+02  0.20000002662E+02 0.  0.
         12    1    1    2    0    0 -0.16613510180E+02 -0.38293224221E+02  0.11884590084E+02  0.43400728372E+02  0.00000000000E+00 0. -1.
         11    1    3    3    0    0  0.51633252049E+01  0.84079746281E+01  0.42614813522E+01  0.10747752700E+02  0.51100000000E-03 0. -1.
        -11    1    3    3    0    0  0.94231483553E+01  0.19678231389E+02 -0.62902997286E+01  0.22706747598E+02  0.51100000000E-03 0.  1.
        -12    1    3    3    0    0  0.20270366198E+01  0.10207018203E+02 -0.98557717077E+01  0.14332771331E+02  0.00000000000E+00 0.  1.
</event>
<event>
 7    1  0.1634068E-009  0.4778728E+02  0.7816164E-02  0.1312668E+00
        -11   -1    0    0    0    0  0.00000000000E+00  0.00000000000E+00  0.45593999997E+02  0.45594000000E+02  0.51100000000E-03 0.  1.
         11   -1    0    0    0    0 -0.00000000000E+00 -0.00000000000E+00 -0.45593999997E+02  0.45594000000E+02  0.51100000000E-03 0. -1.
    9900012    2    1    2    0    0 -0.37372924572E+02  0.21886416536E+02  0.28056899850E+01  0.47787278622E+02  0.20000034548E+02 0.  0.
         12    1    1    2    0    0  0.37372924572E+02 -0.21886416536E+02 -0.28056899850E+01  0.43400721378E+02  0.00000000000E+00 0. -1.
         11    1    3    3    0    0 -0.95629662419E+01  0.69708914935E+01  0.15950259050E+01  0.11941011660E+02  0.51100000000E-03 0. -1.
        -11    1    3    3    0    0 -0.15069539477E+02 -0.84012709863E+00  0.33844274850E+01  0.15467746548E+02  0.51100000000E-03 0.  1.
        -12    1    3    3    0    0 -0.12740418853E+02  0.15755652141E+02 -0.21737634049E+01  0.20378520414E+02  0.00000000000E+00 0.  1.
</event>
<event>
 7    1  0.1634068E-009  0.4778727E+02  0.7816164E-02  0.1312668E+00
        -11   -1    0    0    0    0  0.00000000000E+00  0.00000000000E+00  0.45593999997E+02  0.45594000000E+02  0.51100000000E-03 0.  1.
         11   -1    0    0    0    0 -0.00000000000E+00 -0.00000000000E+00 -0.45593999997E+02  0.45594000000E+02  0.51100000000E-03 0. -1.
    9900012    2    1    2    0    0 -0.30443673898E+02  0.10666065839E+02  0.29035168421E+02  0.47787271364E+02  0.20000001456E+02 0.  0.
         12    1    1    2    0    0  0.30443673898E+02 -0.10666065839E+02 -0.29035168421E+02  0.43400728636E+02  0.00000000000E+00 0. -1.
         11    1    3    3    0    0 -0.67679456363E+00 -0.12420746020E+01 -0.95114576358E+00  0.17045464860E+01  0.51100000000E-03 0. -1.
        -11    1    3    3    0    0 -0.14984828830E+02  0.67078270535E+00  0.19997948209E+02  0.24998259486E+02  0.51100000000E-03 0.  1.
        -12    1    3    3    0    0 -0.14782050504E+02  0.11237357736E+02  0.99883659760E+01  0.21084465392E+02  0.00000000000E+00 0.  1.
</event>
<event>
 7    1  0.1634068E-009  0.4778727E+02  0.7816164E-02  0.1312668E+00
        -11   -1    0    0    0    0  0.00000000000E+00  0.00000000000E+00  0.45593999997E+02  0.45594000000E+02  0.51100000000E-03 0. -1.
         11   -1    0    0    0    0 -0.00000000000E+00 -0.00000000000E+00 -0.45593999997E+02  0.45594000000E+02  0.51100000000E-03 0.  1.
    9900012    2    1    2    0    0  0.41503900173E+02  0.53918665623E+01  0.11488141286E+02  0.47787270227E+02  0.19999996274E+02 0.  0.
         12    1    1    2    0    0 -0.41503900173E+02 -0.53918665623E+01 -0.11488141286E+02  0.43400729773E+02  0.00000000000E+00 0. -1.
         11    1    3    3    0    0  0.21393063051E+01  0.61267870875E+01  0.96310770801E+00  0.65606194982E+01  0.51100000000E-03 0. -1.
        -11    1    3    3    0    0  0.20160761514E+02 -0.26005975625E+01  0.31474981737E+01  0.20570030567E+02  0.51100000000E-03 0.  1.
        -12    1    3    3    0    0  0.19203832354E+02  0.18656770373E+01  0.73775354043E+01  0.20656620162E+02  0.00000000000E+00 0.  1.
</event>
<event>
 7    1  0.1634068E-009  0.4778727E+02  0.7816164E-02  0.1312668E+00
        -11   -1    0    0    0    0  0.00000000000E+00  0.00000000000E+00  0.45593999997E+02  0.45594000000E+02  0.51100000000E-03 0. -1.
         11   -1    0    0    0    0 -0.00000000000E+00 -0.00000000000E+00 -0.45593999997E+02  0.45594000000E+02  0.51100000000E-03 0.  1.
    9900012    2    1    2    0    0  0.19709437796E+02 -0.25915684604E+02 -0.28697359508E+02  0.47787273169E+02  0.20000009687E+02 0.  0.
         12    1    1    2    0    0 -0.19709437796E+02  0.25915684604E+02  0.28697359508E+02  0.43400726831E+02  0.00000000000E+00 0. -1.
         11    1    3    3    0    0 -0.20094115047E+00 -0.59797887755E+00  0.57391086434E+00  0.85283645869E+00  0.51100000000E-03 0. -1.
        -11    1    3    3    0    0  0.10958086406E+02 -0.16777855186E+02 -0.65846096004E+01  0.21093438937E+02  0.51100000000E-03 0.  1.
        -12    1    3    3    0    0  0.89522925399E+01 -0.85398505411E+01 -0.22686660772E+02  0.25840997774E+02  0.00000000000E+00 0.  1.
</event>
<event>
 7    1  0.1634068E-009  0.4778725E+02  0.7816164E-02  0.1312668E+00
        -11   -1    0    0    0    0  0.00000000000E+00  0.00000000000E+00  0.45593999997E+02  0.45594000000E+02  0.51100000000E-03 0. -1.
         11   -1    0    0    0    0 -0.00000000000E+00 -0.00000000000E+00 -0.45593999997E+02  0.45594000000E+02  0.51100000000E-03 0.  1.
    9900012    2    1    2    0    0 -0.33148252637E+02  0.26102060980E+02 -0.10173525304E+02  0.47787252801E+02  0.19999916822E+02 0.  0.
         12    1    1    2    0    0  0.33148252637E+02 -0.26102060980E+02  0.10173525304E+02  0.43400747199E+02  0.00000000000E+00 0. -1.
         11    1    3    3    0    0  0.12644273283E+01  0.21065058828E+01 -0.11388574311E+01  0.27079771070E+01  0.51100000000E-03 0. -1.
        -11    1    3    3    0    0 -0.35558623150E+02  0.24105130876E+02 -0.84275090213E+01  0.43777801720E+02  0.51100000000E-03 0.  1.
        -12    1    3    3    0    0  0.11459431848E+01 -0.10957577851E+00 -0.60715885157E+00  0.13014739740E+01  0.00000000000E+00 0.  1.
</event>
<event>
 7    1  0.1634068E-009  0.4778727E+02  0.7816164E-02  0.1312668E+00
        -11   -1    0    0    0    0  0.00000000000E+00  0.00000000000E+00  0.45593999997E+02  0.45594000000E+02  0.51100000000E-03 0. -1.
         11   -1    0    0    0    0 -0.00000000000E+00 -0.00000000000E+00 -0.45593999997E+02  0.45594000000E+02  0.51100000000E-03 0.  1.
    9900012    2    1    2    0    0  0.35818827540E+02 -0.31012059826E+01 -0.24310849576E+02  0.47787270836E+02  0.19999999048E+02 0.  0.
         12    1    1    2    0    0 -0.35818827540E+02  0.31012059826E+01  0.24310849576E+02  0.43400729164E+02  0.00000000000E+00 0. -1.
         11    1    3    3    0    0  0.11823928178E+00  0.15385576932E+00  0.11545274370E+01  0.11707202866E+01  0.51100000000E-03 0. -1.
        -11    1    3    3    0    0  0.26428641247E+02 -0.77888594576E+01 -0.23270694164E+02  0.36064728156E+02  0.51100000000E-03 0.  1.
        -12    1    3    3    0    0  0.92719470106E+01  0.45337977057E+01 -0.21946828490E+01  0.10551822393E+02  0.00000000000E+00 0.  1.
</event>
<event>
 7    1  0.1634068E-009  0.4778727E+02  0.7816164E-02  0.1312668E+00
        -11   -1    0    0    0    0  0.00000000000E+00  0.00000000000E+00  0.45593999997E+02  0.45594000000E+02  0.51100000000E-03 0.  1.
         11   -1    0    0    0    0 -0.00000000000E+00 -0.00000000000E+00 -0.45593999997E+02  0.45594000000E+02  0.51100000000E-03 0. -1.
    9900012    2    1    2    0    0  0.36072446196E+02  0.74518825848E+01  0.22953676722E+02  0.47787271853E+02  0.20000003686E+02 0.  0.
         12    1    1    2    0    0 -0.36072446196E+02 -0.74518825848E+01 -0.22953676722E+02  0.43400728147E+02  0.00000000000E+00 0. -1.
         11    1    3    3    0    0  0.20332005764E+02 -0.55464042767E+01  0.83256633869E+01  0.22659870474E+02  0.51100000000E-03 0. -1.
        -11    1    3    3    0    0  0.46129230225E+01  0.39832758710E+01  0.48088772520E+01  0.77634300514E+01  0.51100000000E-03 0.  1.
         12    1    3    3    0    0  0.11127517410E+02  0.90150109905E+01  0.98191360827E+01  0.17363971328E+02  0.00000000000E+00 0. -1.
</event>
<event>
 7    1  0.1634068E-009  0.4778722E+02  0.7816164E-02  0.1312668E+00
        -11   -1    0    0    0    0  0.00000000000E+00  0.00000000000E+00  0.45593999997E+02  0.45594000000E+02  0.51100000000E-03 0.  1.
         11   -1    0    0    0    0 -0.00000000000E+00 -0.00000000000E+00 -0.45593999997E+02  0.45594000000E+02  0.51100000000E-03 0. -1.
    9900012    2    1    2    0    0  0.33953245143E+02 -0.25999571971E+02 -0.74045527573E+01  0.47787216597E+02  0.19999751752E+02 0.  0.
         12    1    1    2    0    0 -0.33953245143E+02  0.25999571971E+02  0.74045527573E+01  0.43400783403E+02  0.00000000000E+00 0. -1.
         11    1    3    3    0    0  0.32662644691E+01 -0.32948723271E+01  0.50229059665E+01  0.68377080841E+01  0.51100000000E-03 0. -1.
        -11    1    3    3    0    0  0.16710160654E+02 -0.84139218577E+01 -0.33966281567E+01  0.19014747782E+02  0.51100000000E-03 0.  1.
         12    1    3    3    0    0  0.13976820020E+02 -0.14290777787E+02 -0.90308305670E+01  0.21934760731E+02  0.00000000000E+00 0. -1.
</event>
<event>
 7    1  0.1634068E-009  0.4778727E+02  0.7816164E-02  0.1312668E+00
        -11   -1    0    0    0    0  0.00000000000E+00  0.00000000000E+00  0.45593999997E+02  0.45594000000E+02  0.51100000000E-03 0. -1.
         11   -1    0    0    0    0 -0.00000000000E+00 -0.00000000000E+00 -0.45593999997E+02  0.45594000000E+02  0.51100000000E-03 0.  1.
    9900012    2    1    2    0    0 -0.54313396891E+01  0.35867613665E+02 -0.23825162019E+02  0.47787268369E+02  0.19999987802E+02 0.  0.
         12    1    1    2    0    0  0.54313396891E+01 -0.35867613665E+02  0.23825162019E+02  0.43400731631E+02  0.00000000000E+00 0. -1.
         11    1    3    3    0    0 -0.73080483749E+01  0.77330438875E+01 -0.88644437315E+01  0.13848678700E+02  0.51100000000E-03 0. -1.
        -11    1    3    3    0    0 -0.93061193084E+00  0.16949794313E+02 -0.28447140132E+01  0.17212029627E+02  0.51100000000E-03 0.  1.
         12    1    3    3    0    0  0.28073206166E+01  0.11184775465E+02 -0.12116004275E+02  0.16726560042E+02  0.00000000000E+00 0. -1.
</event>
<event>
 7    1  0.1634068E-009  0.4778727E+02  0.7816164E-02  0.1312668E+00
        -11   -1    0    0    0    0  0.00000000000E+00  0.00000000000E+00  0.45593999997E+02  0.45594000000E+02  0.51100000000E-03 0.  1.
         11   -1    0    0    0    0 -0.00000000000E+00 -0.00000000000E+00 -0.45593999997E+02  0.45594000000E+02  0.51100000000E-03 0. -1.
    9900012    2    1    2    0    0 -0.22084355958E+01  0.13741303929E+02  0.41108669241E+02  0.47787270648E+02  0.19999998195E+02 0.  0.
         12    1    1    2    0    0  0.22084355958E+01 -0.13741303929E+02 -0.41108669241E+02  0.43400729352E+02  0.00000000000E+00 0. -1.
         11    1    3    3    0    0  0.30497517433E+00 -0.38134217114E+00  0.14169812487E+02  0.14178223369E+02  0.51100000000E-03 0. -1.
        -11    1    3    3    0    0 -0.58473221965E+01  0.13493466618E+02  0.26335177741E+02  0.30162997284E+02  0.51100000000E-03 0.  1.
         12    1    3    3    0    0  0.33339114263E+01  0.62917948222E+00  0.60367901254E+00  0.34460499952E+01  0.00000000000E+00 0. -1.
</event>
<event>
 7    1  0.1634068E-009  0.4778727E+02  0.7816164E-02  0.1312668E+00
        -11   -1    0    0    0    0  0.00000000000E+00  0.00000000000E+00  0.45593999997E+02  0.45594000000E+02  0.51100000000E-03 0. -1.
         11   -1    0    0    0    0 -0.00000000000E+00 -0.00000000000E+00 -0.45593999997E+02  0.45594000000E+02  0.51100000000E-03 0.  1.
    9900012    2    1    2    0    0 -0.76936231219E+00 -0.43348819135E+02 -0.19777323568E+01  0.47787268853E+02  0.19999990010E+02 0.  0.
         12    1    1    2    0    0  0.76936231219E+00  0.43348819135E+02  0.19777323568E+01  0.43400731147E+02  0.00000000000E+00 0. -1.
         11    1    3    3    0    0 -0.17896481830E+01 -0.43006971416E+01  0.43668553013E+01  0.63850028979E+01  0.51100000000E-03 0. -1.
        -11    1    3    3    0    0  0.25716590979E+01 -0.10325252037E+02 -0.68108315741E+01  0.12633751903E+02  0.51100000000E-03 0.  1.
         12    1    3    3    0    0 -0.15513732271E+01 -0.28722869956E+02  0.46624391604E+00  0.28768514053E+02  0.00000000000E+00 0. -1.
</event>
<event>
 7    1  0.1634068E-009  0.4778727E+02  0.7816164E-02  0.1312668E+00
        -11   -1    0    0    0    0  0.00000000000E+00  0.00000000000E+00  0.45593999997E+02  0.45594000000E+02  0.51100000000E-03 0.  1.
         11   -1    0    0    0    0 -0.00000000000E+00 -0.00000000000E+00 -0.45593999997E+02  0.45594000000E+02  0.51100000000E-03 0. -1.
    9900012    2    1    2    0    0  0.15448654205E+02  0.40806399812E+01  0.40352329946E+02  0.47787273376E+02  0.20000010631E+02 0.  0.
         12    1    1    2    0    0 -0.15448654205E+02 -0.40806399812E+01 -0.40352329946E+02  0.43400726624E+02  0.00000000000E+00 0. -1.
         11    1    3    3    0    0  0.76850249611E+01 -0.77226487795E+01  0.21031001240E+02  0.23685479227E+02  0.51100000000E-03 0. -1.
        -11    1    3    3    0    0  0.39726024344E+01  0.36050286787E+01  0.76561124199E+01  0.93484682983E+01  0.51100000000E-03 0.  1.
         12    1    3    3    0    0  0.37910268098E+01  0.81982600819E+01  0.11665216286E+02  0.14753325851E+02  0.00000000000E+00 0. -1.
</event>
<event>
 7    1  0.1634068E-009  0.4778726E+02  0.7816164E-02  0.1312668E+00
        -11   -1    0    0    0    0  0.00000000000E+00  0.00000000000E+00  0.45593999997E+02  0.45594000000E+02  0.51100000000E-03 0.  1.
         11   -1    0    0    0    0 -0.00000000000E+00 -0.00000000000E+00 -0.45593999997E+02  0.45594000000E+02  0.51100000000E-03 0. -1.
    9900012    2    1    2    0    0  0.24311930790E+02 -0.10343692094E+02  0.34431991647E+02  0.47787262752E+02  0.19999962193E+02 0.  0.
         12    1    1    2    0    0 -0.24311930790E+02  0.10343692094E+02 -0.34431991647E+02  0.43400737248E+02  0.00000000000E+00 0. -1.
         11    1    3    3    0    0  0.64557272664E+01 -0.76924205615E+01  0.88680511341E+01  0.13397465425E+02  0.51100000000E-03 0. -1.
        -11    1    3    3    0    0  0.82905704963E+01  0.58754572494E+01  0.10476513045E+02  0.14594926614E+02  0.51100000000E-03 0.  1.
        -12    1    3    3    0    0  0.95656330271E+01 -0.85267287823E+01  0.15087427468E+02  0.19794870713E+02  0.00000000000E+00 0.  1.
</event>
<event>
 7    1  0.1634068E-009  0.4778727E+02  0.7816164E-02  0.1312668E+00
        -11   -1    0    0    0    0  0.00000000000E+00  0.00000000000E+00  0.45593999997E+02  0.45594000000E+02  0.51100000000E-03 0. -1.
         11   -1    0    0    0    0 -0.00000000000E+00 -0.00000000000E+00 -0.45593999997E+02  0.45594000000E+02  0.51100000000E-03 0.  1.
    9900012    2    1    2    0    0 -0.86026386877E+01  0.16710201588E+02 -0.39120161092E+02  0.47787271512E+02  0.20000002130E+02 0.  0.
         12    1    1    2    0    0  0.86026386877E+01 -0.16710201588E+02  0.39120161092E+02  0.43400728488E+02  0.00000000000E+00 0. -1.
         11    1    3    3    0    0 -0.21189677822E+01  0.37320346404E+01 -0.74320258597E+00  0.43555088525E+01  0.51100000000E-03 0. -1.
        -11    1    3    3    0    0 -0.77597508551E+01  0.12887300617E+02 -0.20078768112E+02  0.25088905510E+02  0.51100000000E-03 0.  1.
        -12    1    3    3    0    0  0.12760799497E+01  0.90866330604E-01 -0.18298190393E+02  0.18342857149E+02  0.00000000000E+00 0.  1.
</event>
<event>
 7    1  0.1634068E-009  0.4778726E+02  0.7816164E-02  0.1312668E+00
        -11   -1    0    0    0    0  0.00000000000E+00  0.00000000000E+00  0.45593999997E+02  0.45594000000E+02  0.51100000000E-03 0. -1.
         11   -1    0    0    0    0 -0.00000000000E+00 -0.00000000000E+00 -0.45593999997E+02  0.45594000000E+02  0.51100000000E-03 0.  1.
    9900012    2    1    2    0    0 -0.39878005752E+01 -0.42481178729E+02 -0.79417380976E+01  0.47787259181E+02  0.19999945909E+02 0.  0.
         12    1    1    2    0    0  0.39878005752E+01  0.42481178729E+02  0.79417380976E+01  0.43400740819E+02  0.00000000000E+00 0. -1.
         11    1    3    3    0    0  0.35358531042E+00 -0.26967567333E+02  0.45163852647E+01  0.27345428257E+02  0.51100000000E-03 0. -1.
        -11    1    3    3    0    0 -0.75515254641E+00 -0.53897521153E+01 -0.47238152289E+01  0.72065327177E+01  0.51100000000E-03 0.  1.
         12    1    3    3    0    0 -0.35862333392E+01 -0.10123859281E+02 -0.77343081334E+01  0.13235298206E+02  0.00000000000E+00 0. -1.
</event>
<event>
 7    1  0.1634068E-009  0.4778727E+02  0.7816164E-02  0.1312668E+00
        -11   -1    0    0    0    0  0.00000000000E+00  0.00000000000E+00  0.45593999997E+02  0.45594000000E+02  0.51100000000E-03 0. -1.
         11   -1    0    0    0    0 -0.00000000000E+00 -0.00000000000E+00 -0.45593999997E+02  0.45594000000E+02  0.51100000000E-03 0.  1.
    9900012    2    1    2    0    0  0.16811847065E+02  0.78827980964E+01 -0.39228131644E+02  0.47787273971E+02  0.20000013341E+02 0.  0.
         12    1    1    2    0    0 -0.16811847065E+02 -0.78827980964E+01  0.39228131644E+02  0.43400726029E+02  0.00000000000E+00 0. -1.
         11    1    3    3    0    0  0.11936819978E+02 -0.21055532703E+01 -0.13706401861E+02  0.18297171312E+02  0.51100000000E-03 0. -1.
        -11    1    3    3    0    0  0.73871278403E+01  0.79592943679E+01 -0.22849533682E+02  0.25298640563E+02  0.51100000000E-03 0.  1.
        -12    1    3    3    0    0 -0.25121007537E+01  0.20290569988E+01 -0.26721961015E+01  0.41914620964E+01  0.00000000000E+00 0.  1.
</event>
<event>
 7    1  0.1634068E-009  0.4778730E+02  0.7816164E-02  0.1312668E+00
        -11   -1    0    0    0    0  0.00000000000E+00  0.00000000000E+00  0.45593999997E+02  0.45594000000E+02  0.51100000000E-03 0.  1.
         11   -1    0    0    0    0 -0.00000000000E+00 -0.00000000000E+00 -0.45593999997E+02  0.45594000000E+02  0.51100000000E-03 0. -1.
    9900012    2    1    2    0    0 -0.27900332474E+02  0.11272474381E+02  0.31274968605E+02  0.47787298484E+02  0.20000125109E+02 0.  0.
         12    1    1    2    0    0  0.27900332474E+02 -0.11272474381E+02 -0.31274968605E+02  0.43400701516E+02  0.00000000000E+00 0. -1.
         11    1    3    3    0    0 -0.44535314566E+01  0.39399893941E+01 -0.18190178778E+01  0.62182220258E+01  0.51100000000E-03 0. -1.
        -11    1    3    3    0    0 -0.99035973522E+01  0.71571633062E+00  0.10947342340E+02  0.14779641232E+02  0.51100000000E-03 0.  1.
         12    1    3    3    0    0 -0.13543203665E+02  0.66167686562E+01  0.22146644143E+02  0.26789435227E+02  0.00000000000E+00 0. -1.
</event>
<event>
 7    1  0.1634068E-009  0.4778727E+02  0.7816164E-02  0.1312668E+00
        -11   -1    0    0    0    0  0.00000000000E+00  0.00000000000E+00  0.45593999997E+02  0.45594000000E+02  0.51100000000E-03 0.  1.
         11   -1    0    0    0    0 -0.00000000000E+00 -0.00000000000E+00 -0.45593999997E+02  0.45594000000E+02  0.51100000000E-03 0. -1.
    9900012    2    1    2    0    0  0.92851251540E+01  0.42100410014E+02  0.49965082738E+01  0.47787272271E+02  0.20000005591E+02 0.  0.
         12    1    1    2    0    0 -0.92851251540E+01 -0.42100410014E+02 -0.49965082738E+01  0.43400727729E+02  0.00000000000E+00 0. -1.
         11    1    3    3    0    0 -0.17656638474E+01  0.12391876519E+01 -0.51966512188E+00  0.22188300878E+01  0.51100000000E-03 0. -1.
        -11    1    3    3    0    0  0.11525455417E+02  0.18564782591E+02  0.76809516168E+01  0.23162130585E+02  0.51100000000E-03 0.  1.
        -12    1    3    3    0    0 -0.47466641593E+00  0.22296439771E+02 -0.21647782212E+01  0.22406311598E+02  0.00000000000E+00 0.  1.
</event>
<event>
 7    1  0.1634068E-009  0.4778727E+02  0.7816164E-02  0.1312668E+00
        -11   -1    0    0    0    0  0.00000000000E+00  0.00000000000E+00  0.45593999997E+02  0.45594000000E+02  0.51100000000E-03 0.  1.
         11   -1    0    0    0    0 -0.00000000000E+00 -0.00000000000E+00 -0.45593999997E+02  0.45594000000E+02  0.51100000000E-03 0. -1.
    9900012    2    1    2    0    0 -0.10666318943E+02 -0.10055455335E+02  0.40850224355E+02  0.47787269918E+02  0.19999994863E+02 0.  0.
         12    1    1    2    0    0  0.10666318943E+02  0.10055455335E+02 -0.40850224355E+02  0.43400730082E+02  0.00000000000E+00 0. -1.
         11    1    3    3    0    0  0.51209621616E+00 -0.33019513288E+01  0.55620105787E+00  0.33874009197E+01  0.51100000000E-03 0. -1.
        -11    1    3    3    0    0 -0.11104436242E+02 -0.87304191922E+01  0.22987336798E+02  0.26980481405E+02  0.51100000000E-03 0.  1.
        -12    1    3    3    0    0 -0.73978917113E-01  0.19769151859E+01  0.17306686500E+02  0.17419387593E+02  0.00000000000E+00 0.  1.
</event>
<event>
 7    1  0.1634068E-009  0.4778727E+02  0.7816164E-02  0.1312668E+00
        -11   -1    0    0    0    0  0.00000000000E+00  0.00000000000E+00  0.45593999997E+02  0.45594000000E+02  0.51100000000E-03 0.  1.
         11   -1    0    0    0    0 -0.00000000000E+00 -0.00000000000E+00 -0.45593999997E+02  0.45594000000E+02  0.51100000000E-03 0. -1.
    9900012    2    1    2    0    0 -0.26862078818E+02  0.45823589215E+01  0.33779489037E+02  0.47787272226E+02  0.20000005388E+02 0.  0.
         12    1    1    2    0    0  0.26862078818E+02 -0.45823589215E+01 -0.33779489037E+02  0.43400727774E+02  0.00000000000E+00 0. -1.
         11    1    3    3    0    0 -0.87739828811E+01  0.16164730606E+01  0.14570625089E+02  0.17085048332E+02  0.51100000000E-03 0. -1.
        -11    1    3    3    0    0 -0.14801409596E+02  0.20434175741E+01  0.21791197042E+02  0.26421838509E+02  0.51100000000E-03 0.  1.
         12    1    3    3    0    0 -0.32866863404E+01  0.92246828678E+00 -0.25823330939E+01  0.42803853855E+01  0.00000000000E+00 0. -1.
</event>
<event>
 7    1  0.1634068E-009  0.4778727E+02  0.7816164E-02  0.1312668E+00
        -11   -1    0    0    0    0  0.00000000000E+00  0.00000000000E+00  0.45593999997E+02  0.45594000000E+02  0.51100000000E-03 0.  1.
         11   -1    0    0    0    0 -0.00000000000E+00 -0.00000000000E+00 -0.45593999997E+02  0.45594000000E+02  0.51100000000E-03 0. -1.
    9900012    2    1    2    0    0 -0.29512718963E+02  0.17576891471E+02  0.26526878539E+02  0.47787274437E+02  0.20000015469E+02 0.  0.
         12    1    1    2    0    0  0.29512718963E+02 -0.17576891471E+02 -0.26526878539E+02  0.43400725563E+02  0.00000000000E+00 0. -1.
         11    1    3    3    0    0 -0.13948280452E+02  0.17239997332E+01  0.11402322883E+02  0.18098057079E+02  0.51100000000E-03 0. -1.
        -11    1    3    3    0    0 -0.11410875834E+02  0.85494572210E+01  0.15772917129E+02  0.21262319278E+02  0.51100000000E-03 0.  1.
         12    1    3    3    0    0 -0.41535626760E+01  0.73034345168E+01 -0.64836147244E+00  0.84268980796E+01  0.00000000000E+00 0. -1.
</event>
<event>
 7    1  0.1634068E-009  0.4778728E+02  0.7816164E-02  0.1312668E+00
        -11   -1    0    0    0    0  0.00000000000E+00  0.00000000000E+00  0.45593999997E+02  0.45594000000E+02  0.51100000000E-03 0.  1.
         11   -1    0    0    0    0 -0.00000000000E+00 -0.00000000000E+00 -0.45593999997E+02  0.45594000000E+02  0.51100000000E-03 0. -1.
    9900012    2    1    2    0    0  0.33955032063E+02 -0.59602594128E+01  0.26365764749E+02  0.47787280588E+02  0.20000043514E+02 0.  0.
         12    1    1    2    0    0 -0.33955032063E+02  0.59602594128E+01 -0.26365764749E+02  0.43400719412E+02  0.00000000000E+00 0. -1.
         11    1    3    3    0    0  0.86374753921E+01  0.51108127415E+01  0.65451398369E+01  0.11981871464E+02  0.51100000000E-03 0. -1.
        -11    1    3    3    0    0  0.36488468393E+01 -0.64973865507E+01  0.69557938210E+01  0.10193781594E+02  0.51100000000E-03 0.  1.
         12    1    3    3    0    0  0.21668709831E+02 -0.45736856036E+01  0.12864831091E+02  0.25611627530E+02  0.00000000000E+00 0. -1.
</event>
<event>
 7    1  0.1634068E-009  0.4778727E+02  0.7816164E-02  0.1312668E+00
        -11   -1    0    0    0    0  0.00000000000E+00  0.00000000000E+00  0.45593999997E+02  0.45594000000E+02  0.51100000000E-03 0.  1.
         11   -1    0    0    0    0 -0.00000000000E+00 -0.00000000000E+00 -0.45593999997E+02  0.45594000000E+02  0.51100000000E-03 0. -1.
    9900012    2    1    2    0    0  0.91870509069E+01 -0.34149531668E+02  0.25160102473E+02  0.47787272196E+02  0.20000005249E+02 0.  0.
         12    1    1    2    0    0 -0.91870509069E+01  0.34149531668E+02 -0.25160102473E+02  0.43400727804E+02  0.00000000000E+00 0. -1.
         11    1    3    3    0    0  0.20918040702E+01 -0.62817643966E+01  0.86458829315E+01  0.10889788801E+02  0.51100000000E-03 0. -1.
        -11    1    3    3    0    0  0.56584535100E+01 -0.22716203300E+02  0.46279012536E+01  0.23863391602E+02  0.51100000000E-03 0.  1.
        -12    1    3    3    0    0  0.14367933267E+01 -0.51515639713E+01  0.11886318288E+02  0.13034091793E+02  0.00000000000E+00 0.  1.
</event>
<event>
 7    1  0.1634068E-009  0.4778727E+02  0.7816164E-02  0.1312668E+00
        -11   -1    0    0    0    0  0.00000000000E+00  0.00000000000E+00  0.45593999997E+02  0.45594000000E+02  0.51100000000E-03 0.  1.
         11   -1    0    0    0    0 -0.00000000000E+00 -0.00000000000E+00 -0.45593999997E+02  0.45594000000E+02  0.51100000000E-03 0. -1.
    9900012    2    1    2    0    0  0.39785804774E+02 -0.15326675052E+02  0.81120882243E+01  0.47787271837E+02  0.20000003615E+02 0.  0.
         12    1    1    2    0    0 -0.39785804774E+02  0.15326675052E+02 -0.81120882243E+01  0.43400728163E+02  0.00000000000E+00 0. -1.
         11    1    3    3    0    0 -0.96901164806E+00 -0.16460493340E+01  0.20131031835E+01  0.27750759760E+01  0.51100000000E-03 0. -1.
        -11    1    3    3    0    0  0.21158192013E+02 -0.10563868903E+02  0.82649026865E+01  0.25051407788E+02  0.51100000000E-03 0.  1.
         12    1    3    3    0    0  0.19596624409E+02 -0.31167568149E+01 -0.21659176456E+01  0.19960788074E+02  0.00000000000E+00 0. -1.
</event>
<event>
 7    1  0.1634068E-009  0.4778727E+02  0.7816164E-02  0.1312668E+00
        -11   -1    0    0    0    0  0.00000000000E+00  0.00000000000E+00  0.45593999997E+02  0.45594000000E+02  0.51100000000E-03 0.  1.
         11   -1    0    0    0    0 -0.00000000000E+00 -0.00000000000E+00 -0.45593999997E+02  0.45594000000E+02  0.51100000000E-03 0. -1.
    9900012    2    1    2    0    0  0.30607808887E+02 -0.54271462499E+00  0.30765092346E+02  0.47787269464E+02  0.19999992793E+02 0.  0.
         12    1    1    2    0    0 -0.30607808887E+02  0.54271462499E+00 -0.30765092346E+02  0.43400730536E+02  0.00000000000E+00 0. -1.
         11    1    3    3    0    0  0.57593245941E+01  0.46152890528E+01  0.25293444573E+01  0.78018136652E+01  0.51100000000E-03 0. -1.
        -11    1    3    3    0    0  0.21488390252E+02  0.68860169941E+00  0.22651770871E+02  0.31230238741E+02  0.51100000000E-03 0.  1.
         12    1    3    3    0    0  0.33600940402E+01 -0.58466053772E+01  0.55839770178E+01  0.87552170580E+01  0.00000000000E+00 0. -1.
</event>
<event>
 7    1  0.1634068E-009  0.4778727E+02  0.7816164E-02  0.1312668E+00
        -11   -1    0    0    0    0  0.00000000000E+00  0.00000000000E+00  0.45593999997E+02  0.45594000000E+02  0.51100000000E-03 0.  1.
         11   -1    0    0    0    0 -0.00000000000E+00 -0.00000000000E+00 -0.45593999997E+02  0.45594000000E+02  0.51100000000E-03 0. -1.
    9900012    2    1    2    0    0  0.34019266495E+02  0.22780799712E+02  0.14399570482E+02  0.47787274678E+02  0.20000016567E+02 0.  0.
         12    1    1    2    0    0 -0.34019266495E+02 -0.22780799712E+02 -0.14399570482E+02  0.43400725322E+02  0.00000000000E+00 0. -1.
         11    1    3    3    0    0  0.60000903516E+01  0.22871159464E+01 -0.18013573732E+01  0.66690983069E+01  0.51100000000E-03 0. -1.
        -11    1    3    3    0    0  0.15831318924E+01  0.36734127900E+01 -0.24142891345E+01  0.46721580025E+01  0.51100000000E-03 0.  1.
        -12    1    3    3    0    0  0.26436044251E+02  0.16820270976E+02  0.18615216990E+02  0.36446018369E+02  0.00000000000E+00 0.  1.
</event>
<event>
 7    1  0.1634068E-009  0.4778724E+02  0.7816164E-02  0.1312668E+00
        -11   -1    0    0    0    0  0.00000000000E+00  0.00000000000E+00  0.45593999997E+02  0.45594000000E+02  0.51100000000E-03 0.  1.
         11   -1    0    0    0    0 -0.00000000000E+00 -0.00000000000E+00 -0.45593999997E+02  0.45594000000E+02  0.51100000000E-03 0. -1.
    9900012    2    1    2    0    0  0.20693308354E+02  0.18645557038E+02  0.33282967131E+02  0.47787242991E+02  0.19999872093E+02 0.  0.
         12    1    1    2    0    0 -0.20693308354E+02 -0.18645557038E+02 -0.33282967131E+02  0.43400757009E+02  0.00000000000E+00 0. -1.
         11    1    3    3    0    0  0.33875954677E+01  0.31786031672E+01 -0.56189166513E+00  0.46792139993E+01  0.51100000000E-03 0. -1.
        -11    1    3    3    0    0  0.27983703424E+01  0.10496139678E+02  0.18236945342E+02  0.21227011103E+02  0.51100000000E-03 0.  1.
        -12    1    3    3    0    0  0.14507342544E+02  0.49708141928E+01  0.15607913454E+02  0.21881017888E+02  0.00000000000E+00 0.  1.
</event>
<event>
 7    1  0.1634068E-009  0.4778727E+02  0.7816164E-02  0.1312668E+00
        -11   -1    0    0    0    0  0.00000000000E+00  0.00000000000E+00  0.45593999997E+02  0.45594000000E+02  0.51100000000E-03 0.  1.
         11   -1    0    0    0    0 -0.00000000000E+00 -0.00000000000E+00 -0.45593999997E+02  0.45594000000E+02  0.51100000000E-03 0. -1.
    9900012    2    1    2    0    0  0.34990277904E+02  0.22901415751E+02 -0.11611581808E+02  0.47787271628E+02  0.20000002658E+02 0.  0.
         12    1    1    2    0    0 -0.34990277904E+02 -0.22901415751E+02  0.11611581808E+02  0.43400728372E+02  0.00000000000E+00 0. -1.
         11    1    3    3    0    0 -0.44774002894E-02  0.12785457419E+01  0.11851099754E+01  0.17433258950E+01  0.51100000000E-03 0. -1.
        -11    1    3    3    0    0  0.31704702011E+02  0.18741904902E+02 -0.16458483512E+02  0.40340163717E+02  0.51100000000E-03 0.  1.
        -12    1    3    3    0    0  0.32900532928E+01  0.28809651068E+01  0.36617917280E+01  0.57037820150E+01  0.00000000000E+00 0.  1.
</event>
<event>
 7    1  0.1634068E-009  0.4778727E+02  0.7816164E-02  0.1312668E+00
        -11   -1    0    0    0    0  0.00000000000E+00  0.00000000000E+00  0.45593999997E+02  0.45594000000E+02  0.51100000000E-03 0. -1.
         11   -1    0    0    0    0 -0.00000000000E+00 -0.00000000000E+00 -0.45593999997E+02  0.45594000000E+02  0.51100000000E-03 0.  1.
    9900012    2    1    2    0    0  0.42214713688E+02  0.16337652350E+01 -0.99434416772E+01  0.47787271054E+02  0.20000000045E+02 0.  0.
         12    1    1    2    0    0 -0.42214713688E+02 -0.16337652350E+01  0.99434416772E+01  0.43400728946E+02  0.00000000000E+00 0. -1.
         11    1    3    3    0    0  0.22039099457E+02 -0.32418145929E+01 -0.51167502248E+01  0.22856342661E+02  0.51100000000E-03 0.  1.
        -11    1    3    3    0    0  0.13464174392E+02  0.91029451515E+01 -0.14729947967E+01  0.16319231490E+02  0.51100000000E-03 0. -1.
         12    1    3    3    0    0  0.67114398395E+01 -0.42273653236E+01 -0.33536966556E+01  0.86116969034E+01  0.00000000000E+00 0. -1.
</event>
<event>
 7    1  0.1634068E-009  0.4778727E+02  0.7816164E-02  0.1312668E+00
        -11   -1    0    0    0    0  0.00000000000E+00  0.00000000000E+00  0.45593999997E+02  0.45594000000E+02  0.51100000000E-03 0.  1.
         11   -1    0    0    0    0 -0.00000000000E+00 -0.00000000000E+00 -0.45593999997E+02  0.45594000000E+02  0.51100000000E-03 0. -1.
    9900012    2    1    2    0    0 -0.33343809519E+02  0.15182328307E+02  0.23266081638E+02  0.47787270964E+02  0.19999999634E+02 0.  0.
         12    1    1    2    0    0  0.33343809519E+02 -0.15182328307E+02 -0.23266081638E+02  0.43400729036E+02  0.00000000000E+00 0. -1.
         11    1    3    3    0    0 -0.20630728272E+02  0.99265075160E+01  0.53358746924E+01  0.23508170058E+02  0.51100000000E-03 0.  1.
        -11    1    3    3    0    0 -0.69261693139E+01  0.74578423684E+01  0.11057705665E+02  0.15028775366E+02  0.51100000000E-03 0. -1.
        -12    1    3    3    0    0 -0.57869119333E+01 -0.22020215775E+01  0.68725012807E+01  0.92503255405E+01  0.00000000000E+00 0.  1.
</event>
<event>
 7    1  0.1634068E-009  0.4778729E+02  0.7816164E-02  0.1312668E+00
        -11   -1    0    0    0    0  0.00000000000E+00  0.00000000000E+00  0.45593999997E+02  0.45594000000E+02  0.51100000000E-03 0.  1.
         11   -1    0    0    0    0 -0.00000000000E+00 -0.00000000000E+00 -0.45593999997E+02  0.45594000000E+02  0.51100000000E-03 0. -1.
    9900012    2    1    2    0    0 -0.39195418394E+02  0.31151479690E+01 -0.18374888089E+02  0.47787291685E+02  0.20000094106E+02 0.  0.
         12    1    1    2    0    0  0.39195418394E+02 -0.31151479690E+01  0.18374888089E+02  0.43400708315E+02  0.00000000000E+00 0. -1.
         11    1    3    3    0    0 -0.14136598132E+02  0.41454498386E+01 -0.13155646616E+02  0.19750929073E+02  0.51100000000E-03 0. -1.
        -11    1    3    3    0    0 -0.24366858747E+02  0.17276251746E+00 -0.73868563702E+01  0.25462507720E+02  0.51100000000E-03 0.  1.
        -12    1    3    3    0    0 -0.69196151546E+00 -0.12030643870E+01  0.21676148973E+01  0.25738548912E+01  0.00000000000E+00 0.  1.
</event>
<event>
 7    1  0.1634068E-009  0.4778732E+02  0.7816164E-02  0.1312668E+00
        -11   -1    0    0    0    0  0.00000000000E+00  0.00000000000E+00  0.45593999997E+02  0.45594000000E+02  0.51100000000E-03 0.  1.
         11   -1    0    0    0    0 -0.00000000000E+00 -0.00000000000E+00 -0.45593999997E+02  0.45594000000E+02  0.51100000000E-03 0. -1.
    9900012    2    1    2    0    0 -0.33932212720E+02  0.80987018974E+01  0.25819271589E+02  0.47787322379E+02  0.20000234056E+02 0.  0.
         12    1    1    2    0    0  0.33932212720E+02 -0.80987018974E+01 -0.25819271589E+02  0.43400677621E+02  0.00000000000E+00 0. -1.
         11    1    3    3    0    0 -0.89499408857E+00 -0.25761456426E+01  0.54384901258E+00  0.27808834568E+01  0.51100000000E-03 0. -1.
        -11    1    3    3    0    0 -0.30295470975E+02  0.67983003168E+01  0.16827679179E+02  0.35315764690E+02  0.51100000000E-03 0.  1.
         12    1    3    3    0    0 -0.27417476571E+01  0.38765472231E+01  0.84477433971E+01  0.96906742330E+01  0.00000000000E+00 0. -1.
</event>
<event>
 7    1  0.1634068E-009  0.4778728E+02  0.7816164E-02  0.1312668E+00
        -11   -1    0    0    0    0  0.00000000000E+00  0.00000000000E+00  0.45593999997E+02  0.45594000000E+02  0.51100000000E-03 0.  1.
         11   -1    0    0    0    0 -0.00000000000E+00 -0.00000000000E+00 -0.45593999997E+02  0.45594000000E+02  0.51100000000E-03 0. -1.
    9900012    2    1    2    0    0  0.20346537010E+02 -0.33478735937E+02  0.18676604263E+02  0.47787275639E+02  0.20000020947E+02 0.  0.
         12    1    1    2    0    0 -0.20346537010E+02  0.33478735937E+02 -0.18676604263E+02  0.43400724361E+02  0.00000000000E+00 0. -1.
         11    1    3    3    0    0  0.10598602085E+02 -0.38265414903E+01  0.10209259336E+02  0.15205320199E+02  0.51100000000E-03 0.  1.
        -11    1    3    3    0    0  0.15260952391E+01 -0.10510877495E+02  0.24914405087E+01  0.10909389922E+02  0.51100000000E-03 0. -1.
        -12    1    3    3    0    0  0.82218396868E+01 -0.19141316952E+02  0.59759044189E+01  0.21672565517E+02  0.00000000000E+00 0.  1.
</event>
<event>
 7    1  0.1634068E-009  0.4778727E+02  0.7816164E-02  0.1312668E+00
        -11   -1    0    0    0    0  0.00000000000E+00  0.00000000000E+00  0.45593999997E+02  0.45594000000E+02  0.51100000000E-03 0.  1.
         11   -1    0    0    0    0 -0.00000000000E+00 -0.00000000000E+00 -0.45593999997E+02  0.45594000000E+02  0.51100000000E-03 0. -1.
    9900012    2    1    2    0    0 -0.21295996553E+02  0.86609537936E+01  0.36811570202E+02  0.47787270852E+02  0.19999999125E+02 0.  0.
         12    1    1    2    0    0  0.21295996553E+02 -0.86609537936E+01 -0.36811570202E+02  0.43400729148E+02  0.00000000000E+00 0. -1.
         11    1    3    3    0    0 -0.82521753926E+01  0.11244073690E-01  0.17912683656E+01  0.84443571548E+01  0.51100000000E-03 0. -1.
        -11    1    3    3    0    0 -0.12693982594E+02  0.48486015300E+01  0.22819348248E+02  0.26558779822E+02  0.51100000000E-03 0.  1.
        -12    1    3    3    0    0 -0.34983856649E+00  0.38011081898E+01  0.12200953588E+02  0.12784133876E+02  0.00000000000E+00 0.  1.
</event>
<event>
 7    1  0.1634068E-009  0.4778728E+02  0.7816164E-02  0.1312668E+00
        -11   -1    0    0    0    0  0.00000000000E+00  0.00000000000E+00  0.45593999997E+02  0.45594000000E+02  0.51100000000E-03 0.  1.
         11   -1    0    0    0    0 -0.00000000000E+00 -0.00000000000E+00 -0.45593999997E+02  0.45594000000E+02  0.51100000000E-03 0. -1.
    9900012    2    1    2    0    0 -0.84732106841E+01  0.18567141536E+02  0.38302594422E+02  0.47787276693E+02  0.20000025752E+02 0.  0.
         12    1    1    2    0    0  0.84732106841E+01 -0.18567141536E+02 -0.38302594422E+02  0.43400723307E+02  0.00000000000E+00 0. -1.
         11    1    3    3    0    0  0.15492202368E+01 -0.64596324993E+00  0.17761597389E+02  0.17840731317E+02  0.51100000000E-03 0. -1.
        -11    1    3    3    0    0 -0.47993722133E+01  0.97136163754E+01  0.11811009798E+02  0.16027734382E+02  0.51100000000E-03 0.  1.
         12    1    3    3    0    0 -0.52230587076E+01  0.94994884105E+01  0.87299872356E+01  0.13918810993E+02  0.00000000000E+00 0. -1.
</event>
<event>
 7    1  0.1634068E-009  0.4778727E+02  0.7816164E-02  0.1312668E+00
        -11   -1    0    0    0    0  0.00000000000E+00  0.00000000000E+00  0.45593999997E+02  0.45594000000E+02  0.51100000000E-03 0.  1.
         11   -1    0    0    0    0 -0.00000000000E+00 -0.00000000000E+00 -0.45593999997E+02  0.45594000000E+02  0.51100000000E-03 0. -1.
    9900012    2    1    2    0    0  0.19819017319E+02  0.14061087516E+02  0.35959914699E+02  0.47787273108E+02  0.20000009407E+02 0.  0.
         12    1    1    2    0    0 -0.19819017319E+02 -0.14061087516E+02 -0.35959914699E+02  0.43400726892E+02  0.00000000000E+00 0. -1.
         11    1    3    3    0    0  0.59384362487E+01  0.17924521087E+01  0.14130580889E+02  0.15432149110E+02  0.51100000000E-03 0.  1.
        -11    1    3    3    0    0  0.17222399064E+01  0.50002550306E+01 -0.11013478297E+01  0.54020022186E+01  0.51100000000E-03 0. -1.
         12    1    3    3    0    0  0.12158341164E+02  0.72683803765E+01  0.22930681640E+02  0.26953121779E+02  0.00000000000E+00 0. -1.
</event>
<event>
 7    1 -0.1634068E-009  0.4778727E+02  0.7816164E-02  0.1312668E+00
        -11   -1    0    0    0    0  0.00000000000E+00  0.00000000000E+00  0.45593999997E+02  0.45594000000E+02  0.51100000000E-03 0.  1.
         11   -1    0    0    0    0 -0.00000000000E+00 -0.00000000000E+00 -0.45593999997E+02  0.45594000000E+02  0.51100000000E-03 0. -1.
    9900012    2    1    2    0    0 -0.37065686762E+02 -0.18092535005E+02  0.13506248636E+02  0.47787266017E+02  0.19999977077E+02 0.  0.
         12    1    1    2    0    0  0.37065686762E+02  0.18092535005E+02 -0.13506248636E+02  0.43400733983E+02  0.00000000000E+00 0. -1.
         11    1    3    3    0    0 -0.20195464236E+02 -0.70822491710E+01 -0.98168191876E+00  0.21423788849E+02  0.51100000000E-03 0. -1.
        -11    1    3    3    0    0 -0.15556307580E+02 -0.10357174255E+02  0.91136702935E+01  0.20792516696E+02  0.51100000000E-03 0.  1.
         12    1    3    3    0    0 -0.13139149465E+01 -0.65311157933E+00  0.53742602610E+01  0.55709604715E+01  0.00000000000E+00 0. -1.
</event>
<event>
 7    1  0.1634068E-009  0.4778727E+02  0.7816164E-02  0.1312668E+00
        -11   -1    0    0    0    0  0.00000000000E+00  0.00000000000E+00  0.45593999997E+02  0.45594000000E+02  0.51100000000E-03 0.  1.
         11   -1    0    0    0    0 -0.00000000000E+00 -0.00000000000E+00 -0.45593999997E+02  0.45594000000E+02  0.51100000000E-03 0. -1.
    9900012    2    1    2    0    0 -0.32525627737E+02  0.23079490454E+02  0.17118529722E+02  0.47787269601E+02  0.19999993418E+02 0.  0.
         12    1    1    2    0    0  0.32525627737E+02 -0.23079490454E+02 -0.17118529722E+02  0.43400730399E+02  0.00000000000E+00 0. -1.
         11    1    3    3    0    0 -0.30010198946E+02  0.19355453906E+02  0.20059917861E+02  0.40959076424E+02  0.51100000000E-03 0. -1.
        -11    1    3    3    0    0 -0.23885200783E+01  0.40631174177E+01 -0.95483179239E+00  0.48089141526E+01  0.51100000000E-03 0.  1.
         12    1    3    3    0    0 -0.12690871324E+00 -0.33908086911E+00 -0.19865563468E+01  0.20192790239E+01  0.00000000000E+00 0. -1.
</event>
<event>
 7    1  0.1634068E-009  0.4778727E+02  0.7816164E-02  0.1312668E+00
        -11   -1    0    0    0    0  0.00000000000E+00  0.00000000000E+00  0.45593999997E+02  0.45594000000E+02  0.51100000000E-03 0.  1.
         11   -1    0    0    0    0 -0.00000000000E+00 -0.00000000000E+00 -0.45593999997E+02  0.45594000000E+02  0.51100000000E-03 0. -1.
    9900012    2    1    2    0    0  0.59898651768E+01  0.12116069486E+02  0.41242519424E+02  0.47787273819E+02  0.20000012650E+02 0.  0.
         12    1    1    2    0    0 -0.59898651768E+01 -0.12116069486E+02 -0.41242519424E+02  0.43400726181E+02  0.00000000000E+00 0. -1.
         11    1    3    3    0    0 -0.14468614954E+00  0.83008698552E+01  0.11084309941E+02  0.13848729240E+02  0.51100000000E-03 0. -1.
        -11    1    3    3    0    0  0.10206466872E+02  0.24712426645E+01  0.15943847058E+02  0.19091497206E+02  0.51100000000E-03 0.  1.
         12    1    3    3    0    0 -0.40719155453E+01  0.13439569658E+01  0.14214362425E+02  0.14847047373E+02  0.00000000000E+00 0. -1.
</event>
<event>
 7    1  0.1634068E-009  0.4778727E+02  0.7816164E-02  0.1312668E+00
        -11   -1    0    0    0    0  0.00000000000E+00  0.00000000000E+00  0.45593999997E+02  0.45594000000E+02  0.51100000000E-03 0.  1.
         11   -1    0    0    0    0 -0.00000000000E+00 -0.00000000000E+00 -0.45593999997E+02  0.45594000000E+02  0.51100000000E-03 0. -1.
    9900012    2    1    2    0    0  0.11239003000E+02  0.37519793637E+02  0.18696889655E+02  0.47787265147E+02  0.19999973113E+02 0.  0.
         12    1    1    2    0    0 -0.11239003000E+02 -0.37519793637E+02 -0.18696889655E+02  0.43400734853E+02  0.00000000000E+00 0. -1.
         11    1    3    3    0    0  0.18814517781E+01  0.17160826880E+02  0.84968330068E+01  0.19241361995E+02  0.51100000000E-03 0. -1.
        -11    1    3    3    0    0  0.42298471085E+01  0.33346180582E+01  0.92952976882E+01  0.10743083521E+02  0.51100000000E-03 0.  1.
        -12    1    3    3    0    0  0.51277041136E+01  0.17024348698E+02  0.90475895955E+00  0.17802819632E+02  0.00000000000E+00 0.  1.
</event>
<event>
 7    1  0.1634068E-009  0.4778726E+02  0.7816164E-02  0.1312668E+00
        -11   -1    0    0    0    0  0.00000000000E+00  0.00000000000E+00  0.45593999997E+02  0.45594000000E+02  0.51100000000E-03 0. -1.
         11   -1    0    0    0    0 -0.00000000000E+00 -0.00000000000E+00 -0.45593999997E+02  0.45594000000E+02  0.51100000000E-03 0.  1.
    9900012    2    1    2    0    0  0.21288705648E+02  0.38805448864E+01 -0.37621221318E+02  0.47787263713E+02  0.19999966572E+02 0.  0.
         12    1    1    2    0    0 -0.21288705648E+02 -0.38805448864E+01  0.37621221318E+02  0.43400736287E+02  0.00000000000E+00 0. -1.
         11    1    3    3    0    0  0.66574919295E+01 -0.50505463225E+01 -0.15610365412E+02  0.17706318802E+02  0.51100000000E-03 0. -1.
        -11    1    3    3    0    0  0.15835337011E+02  0.53429333662E+01 -0.18226669165E+02  0.24728855702E+02  0.51100000000E-03 0.  1.
        -12    1    3    3    0    0 -0.12041232927E+01  0.35881578428E+01 -0.37841867417E+01  0.53520892093E+01  0.00000000000E+00 0.  1.
</event>
<event>
 7    1  0.1634068E-009  0.4778727E+02  0.7816164E-02  0.1312668E+00
        -11   -1    0    0    0    0  0.00000000000E+00  0.00000000000E+00  0.45593999997E+02  0.45594000000E+02  0.51100000000E-03 0.  1.
         11   -1    0    0    0    0 -0.00000000000E+00 -0.00000000000E+00 -0.45593999997E+02  0.45594000000E+02  0.51100000000E-03 0. -1.
    9900012    2    1    2    0    0 -0.14846111668E+02  0.26103939950E+02  0.31333697165E+02  0.47787270852E+02  0.19999999124E+02 0.  0.
         12    1    1    2    0    0  0.14846111668E+02 -0.26103939950E+02 -0.31333697165E+02  0.43400729148E+02  0.00000000000E+00 0. -1.
         11    1    3    3    0    0 -0.65433665983E+01  0.18144518345E+02  0.91227978848E+01  0.21336931221E+02  0.51100000000E-03 0. -1.
        -11    1    3    3    0    0 -0.15253379494E+01 -0.17746801380E+01  0.23446958543E+01  0.33126642393E+01  0.51100000000E-03 0.  1.
        -12    1    3    3    0    0 -0.67774071200E+01  0.97341017427E+01  0.19866203426E+02  0.23137675392E+02  0.00000000000E+00 0.  1.
</event>
<event>
 7    1  0.1634068E-009  0.4778726E+02  0.7816164E-02  0.1312668E+00
        -11   -1    0    0    0    0  0.00000000000E+00  0.00000000000E+00  0.45593999997E+02  0.45594000000E+02  0.51100000000E-03 0. -1.
         11   -1    0    0    0    0 -0.00000000000E+00 -0.00000000000E+00 -0.45593999997E+02  0.45594000000E+02  0.51100000000E-03 0.  1.
    9900012    2    1    2    0    0  0.51864976572E+01 -0.39611357575E+02  0.16960675051E+02  0.47787263773E+02  0.19999966847E+02 0.  0.
         12    1    1    2    0    0 -0.51864976572E+01  0.39611357575E+02 -0.16960675051E+02  0.43400736227E+02  0.00000000000E+00 0. -1.
         11    1    3    3    0    0  0.11915963103E+02 -0.21853801493E+02  0.11557875244E+02  0.27443820740E+02  0.51100000000E-03 0.  1.
        -11    1    3    3    0    0 -0.36793329618E+01 -0.67502004778E+01  0.44470701831E+01  0.88813924026E+01  0.51100000000E-03 0. -1.
        -12    1    3    3    0    0 -0.30501324835E+01 -0.11007355604E+02  0.95572962409E+00  0.11462050631E+02  0.00000000000E+00 0.  1.
</event>
<event>
 7    1  0.1634068E-009  0.4778727E+02  0.7816164E-02  0.1312668E+00
        -11   -1    0    0    0    0  0.00000000000E+00  0.00000000000E+00  0.45593999997E+02  0.45594000000E+02  0.51100000000E-03 0.  1.
         11   -1    0    0    0    0 -0.00000000000E+00 -0.00000000000E+00 -0.45593999997E+02  0.45594000000E+02  0.51100000000E-03 0. -1.
    9900012    2    1    2    0    0 -0.32671989251E+02  0.13171795230E+02  0.25350899875E+02  0.47787271946E+02  0.20000004109E+02 0.  0.
         12    1    1    2    0    0  0.32671989251E+02 -0.13171795230E+02 -0.25350899875E+02  0.43400728054E+02  0.00000000000E+00 0. -1.
         11    1    3    3    0    0 -0.20847531203E+02  0.52034879202E+00  0.16628460770E+02  0.26672008323E+02  0.51100000000E-03 0. -1.
        -11    1    3    3    0    0 -0.10324236987E+02  0.11158569948E+02  0.10396201110E+02  0.18416963659E+02  0.51100000000E-03 0.  1.
        -12    1    3    3    0    0 -0.15002210604E+01  0.14928764899E+01 -0.16737620050E+01  0.26982999636E+01  0.00000000000E+00 0.  1.
</event>
<event>
 7    1  0.1634068E-009  0.4778727E+02  0.7816164E-02  0.1312668E+00
        -11   -1    0    0    0    0  0.00000000000E+00  0.00000000000E+00  0.45593999997E+02  0.45594000000E+02  0.51100000000E-03 0.  1.
         11   -1    0    0    0    0 -0.00000000000E+00 -0.00000000000E+00 -0.45593999997E+02  0.45594000000E+02  0.51100000000E-03 0. -1.
    9900012    2    1    2    0    0  0.14186677204E+02  0.58793195604E+00  0.41012385628E+02  0.47787271331E+02  0.20000001307E+02 0.  0.
         12    1    1    2    0    0 -0.14186677204E+02 -0.58793195604E+00 -0.41012385628E+02  0.43400728669E+02  0.00000000000E+00 0. -1.
         11    1    3    3    0    0  0.11828878012E+02 -0.20984073394E+01  0.18126096608E+02  0.21745828264E+02  0.51100000000E-03 0. -1.
        -11    1    3    3    0    0 -0.73200133612E+00  0.51639178184E-01 -0.13128327203E+01  0.15040021853E+01  0.51100000000E-03 0.  1.
        -12    1    3    3    0    0  0.30898005284E+01  0.26347001173E+01  0.24199121740E+02  0.24537440882E+02  0.00000000000E+00 0.  1.
</event>
<event>
 7    1  0.1634068E-009  0.4778728E+02  0.7816164E-02  0.1312668E+00
        -11   -1    0    0    0    0  0.00000000000E+00  0.00000000000E+00  0.45593999997E+02  0.45594000000E+02  0.51100000000E-03 0.  1.
         11   -1    0    0    0    0 -0.00000000000E+00 -0.00000000000E+00 -0.45593999997E+02  0.45594000000E+02  0.51100000000E-03 0. -1.
    9900012    2    1    2    0    0  0.40737214056E+02  0.91294312879E+01 -0.11864053231E+02  0.47787275539E+02  0.20000020491E+02 0.  0.
         12    1    1    2    0    0 -0.40737214056E+02 -0.91294312879E+01  0.11864053231E+02  0.43400724461E+02  0.00000000000E+00 0. -1.
         11    1    3    3    0    0  0.28302582379E+02  0.48712432261E+01 -0.10420249847E+02  0.30550724820E+02  0.51100000000E-03 0. -1.
        -11    1    3    3    0    0  0.12224103468E+01  0.20829840589E+01 -0.47650544771E+01  0.53421769043E+01  0.51100000000E-03 0.  1.
        -12    1    3    3    0    0  0.11212221331E+02  0.21752040029E+01  0.33212510935E+01  0.11894373815E+02  0.00000000000E+00 0.  1.
</event>
<event>
 7    1  0.1634068E-009  0.4778727E+02  0.7816164E-02  0.1312668E+00
        -11   -1    0    0    0    0  0.00000000000E+00  0.00000000000E+00  0.45593999997E+02  0.45594000000E+02  0.51100000000E-03 0.  1.
         11   -1    0    0    0    0 -0.00000000000E+00 -0.00000000000E+00 -0.45593999997E+02  0.45594000000E+02  0.51100000000E-03 0. -1.
    9900012    2    1    2    0    0 -0.40215320126E+01 -0.28186983524E+01  0.43121981762E+02  0.47787273148E+02  0.20000009593E+02 0.  0.
         12    1    1    2    0    0  0.40215320126E+01  0.28186983524E+01 -0.43121981762E+02  0.43400726852E+02  0.00000000000E+00 0. -1.
         11    1    3    3    0    0 -0.14902586878E+01 -0.37941807686E+01  0.34010277709E+01  0.53088293268E+01  0.51100000000E-03 0. -1.
        -11    1    3    3    0    0 -0.48552727564E+01  0.70303279185E+01  0.21338169908E+02  0.22985140406E+02  0.51100000000E-03 0.  1.
        -12    1    3    3    0    0  0.23239994316E+01 -0.60548455022E+01  0.18382784083E+02  0.19493303416E+02  0.00000000000E+00 0.  1.
</event>
<event>
 7    1  0.1634068E-009  0.4778727E+02  0.7816164E-02  0.1312668E+00
        -11   -1    0    0    0    0  0.00000000000E+00  0.00000000000E+00  0.45593999997E+02  0.45594000000E+02  0.51100000000E-03 0.  1.
         11   -1    0    0    0    0 -0.00000000000E+00 -0.00000000000E+00 -0.45593999997E+02  0.45594000000E+02  0.51100000000E-03 0. -1.
    9900012    2    1    2    0    0  0.35853715930E+02  0.24095183739E+02 -0.41900236099E+01  0.47787272779E+02  0.20000007910E+02 0.  0.
         12    1    1    2    0    0 -0.35853715930E+02 -0.24095183739E+02  0.41900236099E+01  0.43400727221E+02  0.00000000000E+00 0. -1.
         11    1    3    3    0    0  0.64525415746E+01  0.10994817718E+02  0.42312339309E+01  0.13432224323E+02  0.51100000000E-03 0. -1.
        -11    1    3    3    0    0  0.20182451753E+02  0.91648610973E+01 -0.15856743070E+01  0.22222520130E+02  0.51100000000E-03 0.  1.
        -12    1    3    3    0    0  0.92187226033E+01  0.39355049238E+01 -0.68355832337E+01  0.12132528326E+02  0.00000000000E+00 0.  1.
</event>
<event>
 7    1  0.1634068E-009  0.4778729E+02  0.7816164E-02  0.1312668E+00
        -11   -1    0    0    0    0  0.00000000000E+00  0.00000000000E+00  0.45593999997E+02  0.45594000000E+02  0.51100000000E-03 0. -1.
         11   -1    0    0    0    0 -0.00000000000E+00 -0.00000000000E+00 -0.45593999997E+02  0.45594000000E+02  0.51100000000E-03 0.  1.
    9900012    2    1    2    0    0 -0.11555913396E+02 -0.41920356363E+01 -0.41623427853E+02  0.47787285220E+02  0.20000064634E+02 0.  0.
         12    1    1    2    0    0  0.11555913396E+02  0.41920356363E+01  0.41623427853E+02  0.43400714780E+02  0.00000000000E+00 0. -1.
         11    1    3    3    0    0 -0.90534032608E+00 -0.50122352182E+01 -0.26982854966E+01  0.57639298982E+01  0.51100000000E-03 0. -1.
        -11    1    3    3    0    0 -0.11854333503E+02 -0.21058642815E+01 -0.25065927005E+02  0.27807563433E+02  0.51100000000E-03 0.  1.
         12    1    3    3    0    0  0.12037604327E+01  0.29260638635E+01 -0.13859215351E+02  0.14215791889E+02  0.00000000000E+00 0. -1.
</event>
<event>
 7    1  0.1634068E-009  0.4778727E+02  0.7816164E-02  0.1312668E+00
        -11   -1    0    0    0    0  0.00000000000E+00  0.00000000000E+00  0.45593999997E+02  0.45594000000E+02  0.51100000000E-03 0.  1.
         11   -1    0    0    0    0 -0.00000000000E+00 -0.00000000000E+00 -0.45593999997E+02  0.45594000000E+02  0.51100000000E-03 0. -1.
    9900012    2    1    2    0    0 -0.16712186655E+02 -0.20470869998E+02  0.34427743321E+02  0.47787271764E+02  0.20000003282E+02 0.  0.
         12    1    1    2    0    0  0.16712186655E+02  0.20470869998E+02 -0.34427743321E+02  0.43400728236E+02  0.00000000000E+00 0. -1.
         11    1    3    3    0    0 -0.46383389668E+01  0.12278529223E+01  0.11117480949E+01  0.49252203257E+01  0.51100000000E-03 0. -1.
        -11    1    3    3    0    0 -0.58566427555E+00 -0.52814407720E+01  0.14228076309E+02  0.15187981268E+02  0.51100000000E-03 0.  1.
        -12    1    3    3    0    0 -0.11488183412E+02 -0.16417282148E+02  0.19087918916E+02  0.27674070170E+02  0.00000000000E+00 0.  1.
</event>
<event>
 7    1  0.1634068E-009  0.4778727E+02  0.7816164E-02  0.1312668E+00
        -11   -1    0    0    0    0  0.00000000000E+00  0.00000000000E+00  0.45593999997E+02  0.45594000000E+02  0.51100000000E-03 0.  1.
         11   -1    0    0    0    0 -0.00000000000E+00 -0.00000000000E+00 -0.45593999997E+02  0.45594000000E+02  0.51100000000E-03 0. -1.
    9900012    2    1    2    0    0  0.11279507578E+02  0.29845266213E+02  0.29422035305E+02  0.47787269960E+02  0.19999995056E+02 0.  0.
         12    1    1    2    0    0 -0.11279507578E+02 -0.29845266213E+02 -0.29422035305E+02  0.43400730040E+02  0.00000000000E+00 0. -1.
         11    1    3    3    0    0  0.89760457072E+01  0.50192344513E+01  0.85218836269E+01  0.13356070224E+02  0.51100000000E-03 0. -1.
        -11    1    3    3    0    0  0.20563182573E+01  0.20486695582E+02  0.10400218095E+02  0.23067242516E+02  0.51100000000E-03 0.  1.
         12    1    3    3    0    0  0.24714361397E+00  0.43393361800E+01  0.10499933583E+02  0.11363957220E+02  0.00000000000E+00 0. -1.
</event>
<event>
 7    1  0.1634068E-009  0.4778728E+02  0.7816164E-02  0.1312668E+00
        -11   -1    0    0    0    0  0.00000000000E+00  0.00000000000E+00  0.45593999997E+02  0.45594000000E+02  0.51100000000E-03 0.  1.
         11   -1    0    0    0    0 -0.00000000000E+00 -0.00000000000E+00 -0.45593999997E+02  0.45594000000E+02  0.51100000000E-03 0. -1.
    9900012    2    1    2    0    0  0.67010168343E+01 -0.13853306342E+02  0.40580845875E+02  0.47787276790E+02  0.20000026194E+02 0.  0.
         12    1    1    2    0    0 -0.67010168343E+01  0.13853306342E+02 -0.40580845875E+02  0.43400723210E+02  0.00000000000E+00 0. -1.
         11    1    3    3    0    0 -0.17395309567E+01 -0.75182183875E+01  0.99493958870E+01  0.12591268977E+02  0.51100000000E-03 0. -1.
        -11    1    3    3    0    0  0.59835147235E+01  0.25395503164E+01  0.20496198120E+02  0.21502230160E+02  0.51100000000E-03 0.  1.
        -12    1    3    3    0    0  0.24570330675E+01 -0.88746382714E+01  0.10135251869E+02  0.13693777652E+02  0.00000000000E+00 0.  1.
</event>
<event>
 7    1  0.1634068E-009  0.4778721E+02  0.7816164E-02  0.1312668E+00
        -11   -1    0    0    0    0  0.00000000000E+00  0.00000000000E+00  0.45593999997E+02  0.45594000000E+02  0.51100000000E-03 0.  1.
         11   -1    0    0    0    0 -0.00000000000E+00 -0.00000000000E+00 -0.45593999997E+02  0.45594000000E+02  0.51100000000E-03 0. -1.
    9900012    2    1    2    0    0 -0.18952140416E+02 -0.31996206883E+02  0.22376051122E+02  0.47787210317E+02  0.19999723118E+02 0.  0.
         12    1    1    2    0    0  0.18952140416E+02  0.31996206883E+02 -0.22376051122E+02  0.43400789683E+02  0.00000000000E+00 0. -1.
         11    1    3    3    0    0 -0.58251340441E+01 -0.74827517216E+01 -0.53341002588E+00  0.94978042975E+01  0.51100000000E-03 0. -1.
        -11    1    3    3    0    0 -0.58578369561E+01 -0.12203087491E+02  0.31456993844E+01  0.13896942937E+02  0.51100000000E-03 0.  1.
         12    1    3    3    0    0 -0.72691694163E+01 -0.12310367671E+02  0.19763761763E+02  0.24392463083E+02  0.00000000000E+00 0. -1.
</event>
<event>
 7    1  0.1634068E-009  0.4778727E+02  0.7816164E-02  0.1312668E+00
        -11   -1    0    0    0    0  0.00000000000E+00  0.00000000000E+00  0.45593999997E+02  0.45594000000E+02  0.51100000000E-03 0. -1.
         11   -1    0    0    0    0 -0.00000000000E+00 -0.00000000000E+00 -0.45593999997E+02  0.45594000000E+02  0.51100000000E-03 0.  1.
    9900012    2    1    2    0    0 -0.10807418206E+02 -0.29373976054E+02 -0.30066470244E+02  0.47787269702E+02  0.19999993877E+02 0.  0.
         12    1    1    2    0    0  0.10807418206E+02  0.29373976054E+02  0.30066470244E+02  0.43400730298E+02  0.00000000000E+00 0. -1.
         11    1    3    3    0    0 -0.49133720610E+01 -0.27711694148E+01 -0.11221863794E+02  0.12559889817E+02  0.51100000000E-03 0. -1.
        -11    1    3    3    0    0 -0.88073731609E+01 -0.14831078779E+02 -0.82328998032E+01  0.19113120080E+02  0.51100000000E-03 0.  1.
         12    1    3    3    0    0  0.29133270157E+01 -0.11771727860E+02 -0.10611706647E+02  0.16114259805E+02  0.00000000000E+00 0. -1.
</event>
<event>
 7    1  0.1634068E-009  0.4778726E+02  0.7816164E-02  0.1312668E+00
        -11   -1    0    0    0    0  0.00000000000E+00  0.00000000000E+00  0.45593999997E+02  0.45594000000E+02  0.51100000000E-03 0.  1.
         11   -1    0    0    0    0 -0.00000000000E+00 -0.00000000000E+00 -0.45593999997E+02  0.45594000000E+02  0.51100000000E-03 0. -1.
    9900012    2    1    2    0    0 -0.98707738297E-01  0.32712531243E+02  0.28521998884E+02  0.47787264247E+02  0.19999969009E+02 0.  0.
         12    1    1    2    0    0  0.98707738297E-01 -0.32712531243E+02 -0.28521998884E+02  0.43400735753E+02  0.00000000000E+00 0. -1.
         11    1    3    3    0    0 -0.85535067984E+00  0.13605093860E+02  0.79798401688E+01  0.15795823913E+02  0.51100000000E-03 0. -1.
        -11    1    3    3    0    0 -0.56015574595E+01  0.16849659553E+02  0.15474617995E+02  0.23553179730E+02  0.51100000000E-03 0.  1.
        -12    1    3    3    0    0  0.63582004010E+01  0.22577778294E+01  0.50675407202E+01  0.84382606038E+01  0.00000000000E+00 0.  1.
</event>
<event>
 7    1  0.1634068E-009  0.4778727E+02  0.7816164E-02  0.1312668E+00
        -11   -1    0    0    0    0  0.00000000000E+00  0.00000000000E+00  0.45593999997E+02  0.45594000000E+02  0.51100000000E-03 0. -1.
         11   -1    0    0    0    0 -0.00000000000E+00 -0.00000000000E+00 -0.45593999997E+02  0.45594000000E+02  0.51100000000E-03 0.  1.
    9900012    2    1    2    0    0 -0.35684429584E+01  0.42375984768E+02 -0.86697843799E+01  0.47787273838E+02  0.20000012738E+02 0.  0.
         12    1    1    2    0    0  0.35684429584E+01 -0.42375984768E+02  0.86697843799E+01  0.43400726162E+02  0.00000000000E+00 0. -1.
         11    1    3    3    0    0  0.90346369357E+00  0.64715524305E+01  0.21974127148E+01  0.68939002318E+01  0.51100000000E-03 0. -1.
        -11    1    3    3    0    0 -0.69640533761E+01  0.20319394961E+02 -0.12781214724E+02  0.24994705461E+02  0.51100000000E-03 0.  1.
        -12    1    3    3    0    0  0.24921467241E+01  0.15585037376E+02  0.19140176292E+01  0.15898668146E+02  0.00000000000E+00 0.  1.
</event>
<event>
 7    1  0.1634068E-009  0.4778727E+02  0.7816164E-02  0.1312668E+00
        -11   -1    0    0    0    0  0.00000000000E+00  0.00000000000E+00  0.45593999997E+02  0.45594000000E+02  0.51100000000E-03 0. -1.
         11   -1    0    0    0    0 -0.00000000000E+00 -0.00000000000E+00 -0.45593999997E+02  0.45594000000E+02  0.51100000000E-03 0.  1.
    9900012    2    1    2    0    0  0.37560026535E+02 -0.76292685272E+01 -0.20363248723E+02  0.47787271548E+02  0.20000002296E+02 0.  0.
         12    1    1    2    0    0 -0.37560026535E+02  0.76292685272E+01  0.20363248723E+02  0.43400728452E+02  0.00000000000E+00 0. -1.
         11    1    3    3    0    0  0.71461197408E+01  0.10299169484E+01 -0.90437429647E+00  0.72763761172E+01  0.51100000000E-03 0. -1.
        -11    1    3    3    0    0  0.19959673698E+02 -0.12729789110E+02 -0.16660525355E+02  0.28948388734E+02  0.51100000000E-03 0.  1.
        -12    1    3    3    0    0  0.10454233096E+02  0.40706036346E+01 -0.27983490713E+01  0.11562506696E+02  0.00000000000E+00 0.  1.
</event>
<event>
 7    1  0.1634068E-009  0.4778727E+02  0.7816164E-02  0.1312668E+00
        -11   -1    0    0    0    0  0.00000000000E+00  0.00000000000E+00  0.45593999997E+02  0.45594000000E+02  0.51100000000E-03 0.  1.
         11   -1    0    0    0    0 -0.00000000000E+00 -0.00000000000E+00 -0.45593999997E+02  0.45594000000E+02  0.51100000000E-03 0. -1.
    9900012    2    1    2    0    0 -0.70501122300E+01  0.14097780950E+02  0.40437259501E+02  0.47787268829E+02  0.19999989900E+02 0.  0.
         12    1    1    2    0    0  0.70501122300E+01 -0.14097780950E+02 -0.40437259501E+02  0.43400731171E+02  0.00000000000E+00 0. -1.
         11    1    3    3    0    0 -0.73121044574E+01  0.89003601559E-01  0.84807013253E+01  0.11198084143E+02  0.51100000000E-03 0. -1.
        -11    1    3    3    0    0 -0.28666524385E+01  0.57119652192E+01  0.47182839502E+01  0.79439566065E+01  0.51100000000E-03 0.  1.
        -12    1    3    3    0    0  0.31286446659E+01  0.82968121292E+01  0.27238274226E+02  0.28645228080E+02  0.00000000000E+00 0.  1.
</event>
<event>
 7    1  0.1634068E-009  0.4778732E+02  0.7816164E-02  0.1312668E+00
        -11   -1    0    0    0    0  0.00000000000E+00  0.00000000000E+00  0.45593999997E+02  0.45594000000E+02  0.51100000000E-03 0.  1.
         11   -1    0    0    0    0 -0.00000000000E+00 -0.00000000000E+00 -0.45593999997E+02  0.45594000000E+02  0.51100000000E-03 0. -1.
    9900012    2    1    2    0    0  0.23582799617E+02 -0.84745482603E+01  0.35435190240E+02  0.47787318976E+02  0.20000218537E+02 0.  0.
         12    1    1    2    0    0 -0.23582799617E+02  0.84745482603E+01 -0.35435190240E+02  0.43400681024E+02  0.00000000000E+00 0. -1.
         11    1    3    3    0    0  0.18459438461E+01 -0.34385186249E+01 -0.16385021806E+00  0.39061190678E+01  0.51100000000E-03 0. -1.
        -11    1    3    3    0    0  0.10074597236E+02 -0.79144163633E+01  0.23878668086E+02  0.27098455411E+02  0.51100000000E-03 0.  1.
         12    1    3    3    0    0  0.11662258536E+02  0.28783867279E+01  0.11720372373E+02  0.16782744497E+02  0.00000000000E+00 0. -1.
</event>
<event>
 7    1  0.1634068E-009  0.4778727E+02  0.7816164E-02  0.1312668E+00
        -11   -1    0    0    0    0  0.00000000000E+00  0.00000000000E+00  0.45593999997E+02  0.45594000000E+02  0.51100000000E-03 0.  1.
         11   -1    0    0    0    0 -0.00000000000E+00 -0.00000000000E+00 -0.45593999997E+02  0.45594000000E+02  0.51100000000E-03 0. -1.
    9900012    2    1    2    0    0  0.28361934437E+02  0.18553955637E+02  0.27110423214E+02  0.47787266808E+02  0.19999980684E+02 0.  0.
         12    1    1    2    0    0 -0.28361934437E+02 -0.18553955637E+02 -0.27110423214E+02  0.43400733192E+02  0.00000000000E+00 0. -1.
         11    1    3    3    0    0  0.54347633675E+01  0.14998040749E+01  0.67258375495E+01  0.87762723366E+01  0.51100000000E-03 0. -1.
        -11    1    3    3    0    0  0.19493905504E+02  0.10691827378E+02  0.22343465536E+02  0.31520754700E+02  0.51100000000E-03 0.  1.
         12    1    3    3    0    0  0.34332655655E+01  0.63623241848E+01 -0.19588798714E+01  0.74902397710E+01  0.00000000000E+00 0. -1.
</event>
<event>
 7    1  0.1634068E-009  0.4778726E+02  0.7816164E-02  0.1312668E+00
        -11   -1    0    0    0    0  0.00000000000E+00  0.00000000000E+00  0.45593999997E+02  0.45594000000E+02  0.51100000000E-03 0. -1.
         11   -1    0    0    0    0 -0.00000000000E+00 -0.00000000000E+00 -0.45593999997E+02  0.45594000000E+02  0.51100000000E-03 0.  1.
    9900012    2    1    2    0    0 -0.40204909338E+02 -0.16314092683E+02 -0.10195534857E+01  0.47787264473E+02  0.19999970039E+02 0.  0.
         12    1    1    2    0    0  0.40204909338E+02  0.16314092683E+02  0.10195534857E+01  0.43400735527E+02  0.00000000000E+00 0. -1.
         11    1    3    3    0    0 -0.83814631464E+01  0.19504902270E+01  0.16918628633E+01  0.87701617322E+01  0.51100000000E-03 0. -1.
        -11    1    3    3    0    0 -0.26689940685E+02 -0.10311189574E+02 -0.55262123987E+01  0.29141252340E+02  0.51100000000E-03 0.  1.
         12    1    3    3    0    0 -0.51335055068E+01 -0.79533933359E+01  0.28147960497E+01  0.98758504012E+01  0.00000000000E+00 0. -1.
</event>
<event>
 7    1  0.1634068E-009  0.4778727E+02  0.7816164E-02  0.1312668E+00
        -11   -1    0    0    0    0  0.00000000000E+00  0.00000000000E+00  0.45593999997E+02  0.45594000000E+02  0.51100000000E-03 0. -1.
         11   -1    0    0    0    0 -0.00000000000E+00 -0.00000000000E+00 -0.45593999997E+02  0.45594000000E+02  0.51100000000E-03 0.  1.
    9900012    2    1    2    0    0 -0.18122379169E+02 -0.35125843214E+02 -0.17927011445E+02  0.47787271577E+02  0.20000002430E+02 0.  0.
         12    1    1    2    0    0  0.18122379169E+02  0.35125843214E+02  0.17927011445E+02  0.43400728423E+02  0.00000000000E+00 0. -1.
         11    1    3    3    0    0  0.77391014378E+00 -0.13955072732E+02 -0.59555207758E+01  0.15192472473E+02  0.51100000000E-03 0. -1.
        -11    1    3    3    0    0 -0.10828862645E+02 -0.17989211981E+02 -0.11428280421E+02  0.23905681491E+02  0.51100000000E-03 0.  1.
         12    1    3    3    0    0 -0.80674266672E+01 -0.31815585006E+01 -0.54321024864E+00  0.86891176133E+01  0.00000000000E+00 0. -1.
</event>
<event>
 7    1  0.1634068E-009  0.4778727E+02  0.7816164E-02  0.1312668E+00
        -11   -1    0    0    0    0  0.00000000000E+00  0.00000000000E+00  0.45593999997E+02  0.45594000000E+02  0.51100000000E-03 0.  1.
         11   -1    0    0    0    0 -0.00000000000E+00 -0.00000000000E+00 -0.45593999997E+02  0.45594000000E+02  0.51100000000E-03 0. -1.
    9900012    2    1    2    0    0 -0.25863761149E+02 -0.32703893302E+02  0.12047589414E+02  0.47787272027E+02  0.20000004481E+02 0.  0.
         12    1    1    2    0    0  0.25863761149E+02  0.32703893302E+02 -0.12047589414E+02  0.43400727973E+02  0.00000000000E+00 0. -1.
         11    1    3    3    0    0 -0.16236237775E+02 -0.16591731313E+02  0.11292719045E+02  0.25815237143E+02  0.51100000000E-03 0. -1.
        -11    1    3    3    0    0 -0.11463967270E+02 -0.16323035523E+02 -0.72861248395E-01  0.19946662459E+02  0.51100000000E-03 0.  1.
         12    1    3    3    0    0  0.18364438957E+01  0.21087353400E+00  0.82773161699E+00  0.20253724248E+01  0.00000000000E+00 0. -1.
</event>
<event>
 7    1  0.1634068E-009  0.4778727E+02  0.7816164E-02  0.1312668E+00
        -11   -1    0    0    0    0  0.00000000000E+00  0.00000000000E+00  0.45593999997E+02  0.45594000000E+02  0.51100000000E-03 0. -1.
         11   -1    0    0    0    0 -0.00000000000E+00 -0.00000000000E+00 -0.45593999997E+02  0.45594000000E+02  0.51100000000E-03 0.  1.
    9900012    2    1    2    0    0  0.23708575985E+02 -0.36340447107E+02 -0.94791589751E+00  0.47787271714E+02  0.20000003055E+02 0.  0.
         12    1    1    2    0    0 -0.23708575985E+02  0.36340447107E+02  0.94791589751E+00  0.43400728286E+02  0.00000000000E+00 0. -1.
         11    1    3    3    0    0  0.13990465034E+02 -0.24243321760E+02 -0.11324218331E+01  0.28013463572E+02  0.51100000000E-03 0.  1.
        -11    1    3    3    0    0  0.43086590664E+00 -0.60875754429E+01  0.48231419470E+01  0.77786193315E+01  0.51100000000E-03 0. -1.
         12    1    3    3    0    0  0.92872450444E+01 -0.60095499041E+01 -0.46386360114E+01  0.11995188811E+02  0.00000000000E+00 0. -1.
</event>
<event>
 7    1  0.1634068E-009  0.4778727E+02  0.7816164E-02  0.1312668E+00
        -11   -1    0    0    0    0  0.00000000000E+00  0.00000000000E+00  0.45593999997E+02  0.45594000000E+02  0.51100000000E-03 0. -1.
         11   -1    0    0    0    0 -0.00000000000E+00 -0.00000000000E+00 -0.45593999997E+02  0.45594000000E+02  0.51100000000E-03 0.  1.
    9900012    2    1    2    0    0  0.42361523450E+02  0.94076497955E+01  0.78779801100E+00  0.47787272248E+02  0.20000005488E+02 0.  0.
         12    1    1    2    0    0 -0.42361523450E+02 -0.94076497955E+01 -0.78779801100E+00  0.43400727752E+02  0.00000000000E+00 0. -1.
         11    1    3    3    0    0  0.16855605318E+01  0.27964410256E+01 -0.40599036306E+01  0.52099917915E+01  0.51100000000E-03 0. -1.
        -11    1    3    3    0    0  0.17230547986E+02  0.41953871252E+01  0.66479756838E+01  0.18939077010E+02  0.51100000000E-03 0.  1.
        -12    1    3    3    0    0  0.23445414933E+02  0.24158216448E+01 -0.18002740422E+01  0.23638203447E+02  0.00000000000E+00 0.  1.
</event>
<event>
 7    1  0.1634068E-009  0.4778727E+02  0.7816164E-02  0.1312668E+00
        -11   -1    0    0    0    0  0.00000000000E+00  0.00000000000E+00  0.45593999997E+02  0.45594000000E+02  0.51100000000E-03 0. -1.
         11   -1    0    0    0    0 -0.00000000000E+00 -0.00000000000E+00 -0.45593999997E+02  0.45594000000E+02  0.51100000000E-03 0.  1.
    9900012    2    1    2    0    0  0.11553145595E+02  0.39504730754E+02  0.13766794788E+02  0.47787267704E+02  0.19999984771E+02 0.  0.
         12    1    1    2    0    0 -0.11553145595E+02 -0.39504730754E+02 -0.13766794788E+02  0.43400732296E+02  0.00000000000E+00 0. -1.
         11    1    3    3    0    0  0.91617646182E+01  0.18407793779E+02  0.36364671245E+01  0.20880821251E+02  0.51100000000E-03 0. -1.
        -11    1    3    3    0    0  0.74546190004E+01  0.82827971907E+01  0.47960764076E+01  0.12131711459E+02  0.51100000000E-03 0.  1.
         12    1    3    3    0    0 -0.50632380234E+01  0.12814139784E+02  0.53342512561E+01  0.14774734995E+02  0.00000000000E+00 0. -1.
</event>
<event>
 7    1  0.1634068E-009  0.4778727E+02  0.7816164E-02  0.1312668E+00
        -11   -1    0    0    0    0  0.00000000000E+00  0.00000000000E+00  0.45593999997E+02  0.45594000000E+02  0.51100000000E-03 0.  1.
         11   -1    0    0    0    0 -0.00000000000E+00 -0.00000000000E+00 -0.45593999997E+02  0.45594000000E+02  0.51100000000E-03 0. -1.
    9900012    2    1    2    0    0  0.27735761469E+02  0.90448808459E+01  0.32133172755E+02  0.47787272758E+02  0.20000007814E+02 0.  0.
         12    1    1    2    0    0 -0.27735761469E+02 -0.90448808459E+01 -0.32133172755E+02  0.43400727242E+02  0.00000000000E+00 0. -1.
         11    1    3    3    0    0  0.19121986516E+02  0.47298189654E+01  0.12571154574E+02  0.23367830095E+02  0.51100000000E-03 0. -1.
        -11    1    3    3    0    0  0.10425044667E+02  0.18449175501E+01  0.10740350797E+02  0.15081127696E+02  0.51100000000E-03 0.  1.
         12    1    3    3    0    0 -0.18112697141E+01  0.24701443304E+01  0.88216673843E+01  0.93383149674E+01  0.00000000000E+00 0. -1.
</event>
<event>
 7    1  0.1634068E-009  0.4778728E+02  0.7816164E-02  0.1312668E+00
        -11   -1    0    0    0    0  0.00000000000E+00  0.00000000000E+00  0.45593999997E+02  0.45594000000E+02  0.51100000000E-03 0.  1.
         11   -1    0    0    0    0 -0.00000000000E+00 -0.00000000000E+00 -0.45593999997E+02  0.45594000000E+02  0.51100000000E-03 0. -1.
    9900012    2    1    2    0    0 -0.38041340780E+02 -0.14474235750E+02  0.15065697306E+02  0.47787281755E+02  0.20000048833E+02 0.  0.
         12    1    1    2    0    0  0.38041340780E+02  0.14474235750E+02 -0.15065697306E+02  0.43400718245E+02  0.00000000000E+00 0. -1.
         11    1    3    3    0    0 -0.58383015144E+01  0.32610569689E+01 -0.11332296455E+01  0.67826592733E+01  0.51100000000E-03 0. -1.
        -11    1    3    3    0    0 -0.11871809633E+02 -0.88668400391E+01  0.10320915202E+02  0.18057740919E+02  0.51100000000E-03 0.  1.
        -12    1    3    3    0    0 -0.20331229633E+02 -0.88684526797E+01  0.58780117492E+01  0.22946881562E+02  0.00000000000E+00 0.  1.
</event>
<event>
 7    1  0.1634068E-009  0.4778727E+02  0.7816164E-02  0.1312668E+00
        -11   -1    0    0    0    0  0.00000000000E+00  0.00000000000E+00  0.45593999997E+02  0.45594000000E+02  0.51100000000E-03 0.  1.
         11   -1    0    0    0    0 -0.00000000000E+00 -0.00000000000E+00 -0.45593999997E+02  0.45594000000E+02  0.51100000000E-03 0. -1.
    9900012    2    1    2    0    0  0.17312553276E+02  0.35494078370E+02  0.18001916232E+02  0.47787273182E+02  0.20000009748E+02 0.  0.
         12    1    1    2    0    0 -0.17312553276E+02 -0.35494078370E+02 -0.18001916232E+02  0.43400726818E+02  0.00000000000E+00 0. -1.
         11    1    3    3    0    0  0.84680300686E+01  0.22721671882E+02  0.38821201113E+01  0.24557132634E+02  0.51100000000E-03 0. -1.
        -11    1    3    3    0    0  0.22714691186E+01  0.10708918215E+02  0.11451103284E+02  0.15841978032E+02  0.51100000000E-03 0.  1.
         12    1    3    3    0    0  0.65730540892E+01  0.20634882726E+01  0.26686928370E+01  0.73881625165E+01  0.00000000000E+00 0. -1.
</event>
<event>
 7    1  0.1634068E-009  0.4778727E+02  0.7816164E-02  0.1312668E+00
        -11   -1    0    0    0    0  0.00000000000E+00  0.00000000000E+00  0.45593999997E+02  0.45594000000E+02  0.51100000000E-03 0. -1.
         11   -1    0    0    0    0 -0.00000000000E+00 -0.00000000000E+00 -0.45593999997E+02  0.45594000000E+02  0.51100000000E-03 0.  1.
    9900012    2    1    2    0    0  0.42884614330E+01 -0.38187651865E+02 -0.20172650764E+02  0.47787268493E+02  0.19999988369E+02 0.  0.
         12    1    1    2    0    0 -0.42884614330E+01  0.38187651865E+02  0.20172650764E+02  0.43400731507E+02  0.00000000000E+00 0. -1.
         11    1    3    3    0    0  0.48840688652E+01 -0.81995158049E+01 -0.95481462152E+01  0.13500121648E+02  0.51100000000E-03 0. -1.
        -11    1    3    3    0    0 -0.56561009004E+01 -0.13813671584E+02 -0.85790490410E+01  0.17216535155E+02  0.51100000000E-03 0.  1.
         12    1    3    3    0    0  0.50604934682E+01 -0.16174464476E+02 -0.20454555076E+01  0.17070611690E+02  0.00000000000E+00 0. -1.
</event>
<event>
 7    1  0.1634068E-009  0.4778727E+02  0.7816164E-02  0.1312668E+00
        -11   -1    0    0    0    0  0.00000000000E+00  0.00000000000E+00  0.45593999997E+02  0.45594000000E+02  0.51100000000E-03 0.  1.
         11   -1    0    0    0    0 -0.00000000000E+00 -0.00000000000E+00 -0.45593999997E+02  0.45594000000E+02  0.51100000000E-03 0. -1.
    9900012    2    1    2    0    0  0.30249977096E+02  0.25177736682E+01  0.31019714521E+02  0.47787274344E+02  0.20000015042E+02 0.  0.
         12    1    1    2    0    0 -0.30249977096E+02 -0.25177736682E+01 -0.31019714521E+02  0.43400725656E+02  0.00000000000E+00 0. -1.
         11    1    3    3    0    0  0.16591905410E+02 -0.22636188235E+01  0.12278678533E+02  0.20764904096E+02  0.51100000000E-03 0. -1.
        -11    1    3    3    0    0  0.38656219694E+01 -0.21227441701E+01  0.13016804135E+02  0.13743590003E+02  0.51100000000E-03 0.  1.
        -12    1    3    3    0    0  0.97924497157E+01  0.69041366618E+01  0.57242318527E+01  0.13278780245E+02  0.00000000000E+00 0.  1.
</event>
<event>
 7    1  0.1634068E-009  0.4778727E+02  0.7816164E-02  0.1312668E+00
        -11   -1    0    0    0    0  0.00000000000E+00  0.00000000000E+00  0.45593999997E+02  0.45594000000E+02  0.51100000000E-03 0.  1.
         11   -1    0    0    0    0 -0.00000000000E+00 -0.00000000000E+00 -0.45593999997E+02  0.45594000000E+02  0.51100000000E-03 0. -1.
    9900012    2    1    2    0    0  0.23281664082E+02 -0.35428758437E+02  0.92946448365E+01  0.47787271556E+02  0.20000002334E+02 0.  0.
         12    1    1    2    0    0 -0.23281664082E+02  0.35428758437E+02 -0.92946448365E+01  0.43400728444E+02  0.00000000000E+00 0. -1.
         11    1    3    3    0    0  0.46566594975E+01 -0.48774985116E+01 -0.25066251087E+01  0.71942782198E+01  0.51100000000E-03 0. -1.
        -11    1    3    3    0    0  0.18593723512E+01 -0.14403509186E+02  0.91500215359E+01  0.17165116859E+02  0.51100000000E-03 0.  1.
        -12    1    3    3    0    0  0.16765632233E+02 -0.16147750739E+02  0.26512484093E+01  0.23427876478E+02  0.00000000000E+00 0.  1.
</event>
<event>
 7    1  0.1634068E-009  0.4778727E+02  0.7816164E-02  0.1312668E+00
        -11   -1    0    0    0    0  0.00000000000E+00  0.00000000000E+00  0.45593999997E+02  0.45594000000E+02  0.51100000000E-03 0.  1.
         11   -1    0    0    0    0 -0.00000000000E+00 -0.00000000000E+00 -0.45593999997E+02  0.45594000000E+02  0.51100000000E-03 0. -1.
    9900012    2    1    2    0    0 -0.12062114855E+02  0.37476083093E+02  0.18266685398E+02  0.47787271732E+02  0.20000003136E+02 0.  0.
         12    1    1    2    0    0  0.12062114855E+02 -0.37476083093E+02 -0.18266685398E+02  0.43400728268E+02  0.00000000000E+00 0. -1.
         11    1    3    3    0    0 -0.84073403547E+01  0.34904385314E+02  0.12594545717E+02  0.38047628942E+02  0.51100000000E-03 0.  1.
        -11    1    3    3    0    0  0.14467400917E+01 -0.52321238677E+00  0.46834334088E-01  0.15391562009E+01  0.51100000000E-03 0. -1.
        -12    1    3    3    0    0 -0.51015145916E+01  0.30949101653E+01  0.56253053472E+01  0.82004865898E+01  0.00000000000E+00 0.  1.
</event>
<event>
 7    1  0.1634068E-009  0.4778727E+02  0.7816164E-02  0.1312668E+00
        -11   -1    0    0    0    0  0.00000000000E+00  0.00000000000E+00  0.45593999997E+02  0.45594000000E+02  0.51100000000E-03 0.  1.
         11   -1    0    0    0    0 -0.00000000000E+00 -0.00000000000E+00 -0.45593999997E+02  0.45594000000E+02  0.51100000000E-03 0. -1.
    9900012    2    1    2    0    0  0.35559049600E+02 -0.25614655618E+01  0.24751084839E+02  0.47787270571E+02  0.19999997843E+02 0.  0.
         12    1    1    2    0    0 -0.35559049600E+02  0.25614655618E+01 -0.24751084839E+02  0.43400729429E+02  0.00000000000E+00 0. -1.
         11    1    3    3    0    0  0.23173459213E+02 -0.14715669388E+01  0.16806941866E+02  0.28664403296E+02  0.51100000000E-03 0.  1.
        -11    1    3    3    0    0  0.66613830532E+01 -0.23220537507E+01  0.10568232406E+02  0.12706435151E+02  0.51100000000E-03 0. -1.
        -12    1    3    3    0    0  0.57242073338E+01  0.12321551278E+01 -0.26240894335E+01  0.64164321250E+01  0.00000000000E+00 0.  1.
</event>
<event>
 7    1  0.1634068E-009  0.4778727E+02  0.7816164E-02  0.1312668E+00
        -11   -1    0    0    0    0  0.00000000000E+00  0.00000000000E+00  0.45593999997E+02  0.45594000000E+02  0.51100000000E-03 0.  1.
         11   -1    0    0    0    0 -0.00000000000E+00 -0.00000000000E+00 -0.45593999997E+02  0.45594000000E+02  0.51100000000E-03 0. -1.
    9900012    2    1    2    0    0  0.15383109970E+02 -0.22157938440E+02  0.34000133563E+02  0.47787269700E+02  0.19999993872E+02 0.  0.
         12    1    1    2    0    0 -0.15383109970E+02  0.22157938440E+02 -0.34000133563E+02  0.43400730300E+02  0.00000000000E+00 0. -1.
         11    1    3    3    0    0  0.10968369675E+02 -0.15251577125E+02  0.13673865090E+02  0.23235540125E+02  0.51100000000E-03 0. -1.
        -11    1    3    3    0    0  0.23704657905E+00 -0.89570832390E+01  0.15058314135E+02  0.17522509982E+02  0.51100000000E-03 0.  1.
        -12    1    3    3    0    0  0.41776937155E+01  0.20507219235E+01  0.52679543381E+01  0.70292195937E+01  0.00000000000E+00 0.  1.
</event>
<event>
 7    1  0.1634068E-009  0.4778727E+02  0.7816164E-02  0.1312668E+00
        -11   -1    0    0    0    0  0.00000000000E+00  0.00000000000E+00  0.45593999997E+02  0.45594000000E+02  0.51100000000E-03 0.  1.
         11   -1    0    0    0    0 -0.00000000000E+00 -0.00000000000E+00 -0.45593999997E+02  0.45594000000E+02  0.51100000000E-03 0. -1.
    9900012    2    1    2    0    0 -0.24265488039E+02  0.32517236783E+02  0.15409043472E+02  0.47787271683E+02  0.20000002911E+02 0.  0.
         12    1    1    2    0    0  0.24265488039E+02 -0.32517236783E+02 -0.15409043472E+02  0.43400728317E+02  0.00000000000E+00 0. -1.
         11    1    3    3    0    0 -0.31501756175E+01  0.60847160080E+01  0.18462889405E+01  0.70962073273E+01  0.51100000000E-03 0. -1.
        -11    1    3    3    0    0  0.11056154901E+01  0.11394443257E+02  0.28276653781E+01  0.11792006381E+02  0.51100000000E-03 0.  1.
        -12    1    3    3    0    0 -0.22220927911E+02  0.15038077518E+02  0.10735089153E+02  0.28899057974E+02  0.00000000000E+00 0.  1.
</event>
<event>
 7    1  0.1634068E-009  0.4778727E+02  0.7816164E-02  0.1312668E+00
        -11   -1    0    0    0    0  0.00000000000E+00  0.00000000000E+00  0.45593999997E+02  0.45594000000E+02  0.51100000000E-03 0.  1.
         11   -1    0    0    0    0 -0.00000000000E+00 -0.00000000000E+00 -0.45593999997E+02  0.45594000000E+02  0.51100000000E-03 0. -1.
    9900012    2    1    2    0    0 -0.19643810562E+02  0.26865220499E+02  0.27856848744E+02  0.47787269732E+02  0.19999994014E+02 0.  0.
         12    1    1    2    0    0  0.19643810562E+02 -0.26865220499E+02 -0.27856848744E+02  0.43400730268E+02  0.00000000000E+00 0. -1.
         11    1    3    3    0    0 -0.28678932943E+01  0.47929436399E+01 -0.12231828829E+01  0.57178052877E+01  0.51100000000E-03 0. -1.
        -11    1    3    3    0    0 -0.45357582721E+01  0.36339695682E+00  0.12651098954E+01  0.47228872271E+01  0.51100000000E-03 0.  1.
        -12    1    3    3    0    0 -0.12240158995E+02  0.21708879903E+02  0.27814921732E+02  0.37346577217E+02  0.00000000000E+00 0.  1.
</event>
<event>
 7    1  0.1634068E-009  0.4778729E+02  0.7816164E-02  0.1312668E+00
        -11   -1    0    0    0    0  0.00000000000E+00  0.00000000000E+00  0.45593999997E+02  0.45594000000E+02  0.51100000000E-03 0.  1.
         11   -1    0    0    0    0 -0.00000000000E+00 -0.00000000000E+00 -0.45593999997E+02  0.45594000000E+02  0.51100000000E-03 0. -1.
    9900012    2    1    2    0    0  0.21887065396E+02 -0.16235333674E+02  0.33778574876E+02  0.47787287888E+02  0.20000076798E+02 0.  0.
         12    1    1    2    0    0 -0.21887065396E+02  0.16235333674E+02 -0.33778574876E+02  0.43400712112E+02  0.00000000000E+00 0. -1.
         11    1    3    3    0    0  0.13504697328E+02 -0.64193173716E+01  0.84930394772E+01  0.17196400939E+02  0.51100000000E-03 0. -1.
        -11    1    3    3    0    0  0.10986770216E+02 -0.91947661072E+01  0.22858579322E+02  0.26977166130E+02  0.51100000000E-03 0.  1.
         12    1    3    3    0    0 -0.26044021486E+01 -0.62125019553E+00  0.24269560770E+01  0.36137208189E+01  0.00000000000E+00 0. -1.
</event>
<event>
 7    1  0.1634068E-009  0.4778727E+02  0.7816164E-02  0.1312668E+00
        -11   -1    0    0    0    0  0.00000000000E+00  0.00000000000E+00  0.45593999997E+02  0.45594000000E+02  0.51100000000E-03 0.  1.
         11   -1    0    0    0    0 -0.00000000000E+00 -0.00000000000E+00 -0.45593999997E+02  0.45594000000E+02  0.51100000000E-03 0. -1.
    9900012    2    1    2    0    0 -0.19051822178E+02 -0.38817756198E+02  0.37192945542E+01  0.47787271014E+02  0.19999999863E+02 0.  0.
         12    1    1    2    0    0  0.19051822178E+02  0.38817756198E+02 -0.37192945542E+01  0.43400728986E+02  0.00000000000E+00 0. -1.
         11    1    3    3    0    0  0.62311307611E+00  0.46221691083E+00  0.16969003901E+01  0.18658471463E+01  0.51100000000E-03 0. -1.
        -11    1    3    3    0    0 -0.31699839104E+01 -0.19465105019E+02 -0.19941149786E+01  0.19822098935E+02  0.51100000000E-03 0.  1.
         12    1    3    3    0    0 -0.16504951343E+02 -0.19814868090E+02  0.40165091426E+01  0.26099324933E+02  0.00000000000E+00 0. -1.
</event>
<event>
 7    1  0.1634068E-009  0.4778727E+02  0.7816164E-02  0.1312668E+00
        -11   -1    0    0    0    0  0.00000000000E+00  0.00000000000E+00  0.45593999997E+02  0.45594000000E+02  0.51100000000E-03 0.  1.
         11   -1    0    0    0    0 -0.00000000000E+00 -0.00000000000E+00 -0.45593999997E+02  0.45594000000E+02  0.51100000000E-03 0. -1.
    9900012    2    1    2    0    0  0.20840890202E+02  0.37400155712E+02  0.71069738561E+01  0.47787269257E+02  0.19999991848E+02 0.  0.
         12    1    1    2    0    0 -0.20840890202E+02 -0.37400155712E+02 -0.71069738561E+01  0.43400730743E+02  0.00000000000E+00 0. -1.
         11    1    3    3    0    0  0.10317098088E+01  0.87167040020E+01  0.41870124585E+01  0.97250412532E+01  0.51100000000E-03 0. -1.
        -11    1    3    3    0    0  0.56111375626E+01  0.10137670425E+02 -0.60147314830E+01  0.13055045824E+02  0.51100000000E-03 0.  1.
         12    1    3    3    0    0  0.14198042830E+02  0.18545781285E+02  0.89346928805E+01  0.25007182179E+02  0.00000000000E+00 0. -1.
</event>
<event>
 7    1  0.1634068E-009  0.4778726E+02  0.7816164E-02  0.1312668E+00
        -11   -1    0    0    0    0  0.00000000000E+00  0.00000000000E+00  0.45593999997E+02  0.45594000000E+02  0.51100000000E-03 0.  1.
         11   -1    0    0    0    0 -0.00000000000E+00 -0.00000000000E+00 -0.45593999997E+02  0.45594000000E+02  0.51100000000E-03 0. -1.
    9900012    2    1    2    0    0  0.16123859404E+02 -0.26503079023E+02  0.30351800779E+02  0.47787264403E+02  0.19999969721E+02 0.  0.
         12    1    1    2    0    0 -0.16123859404E+02  0.26503079023E+02 -0.30351800779E+02  0.43400735597E+02  0.00000000000E+00 0. -1.
         11    1    3    3    0    0 -0.15498066995E+01  0.13236323328E+01 -0.10754601243E+00  0.20409482513E+01  0.51100000000E-03 0. -1.
        -11    1    3    3    0    0  0.30298258729E+01 -0.39206525468E+01  0.95980421658E+01  0.10801563539E+02  0.51100000000E-03 0.  1.
        -12    1    3    3    0    0  0.14643840230E+02 -0.23906058809E+02  0.20861304626E+02  0.34944752613E+02  0.00000000000E+00 0.  1.
</event>
<event>
 7    1  0.1634068E-009  0.4778727E+02  0.7816164E-02  0.1312668E+00
        -11   -1    0    0    0    0  0.00000000000E+00  0.00000000000E+00  0.45593999997E+02  0.45594000000E+02  0.51100000000E-03 0.  1.
         11   -1    0    0    0    0 -0.00000000000E+00 -0.00000000000E+00 -0.45593999997E+02  0.45594000000E+02  0.51100000000E-03 0. -1.
    9900012    2    1    2    0    0  0.12250351288E+02 -0.30204460271E+02  0.28657334914E+02  0.47787269922E+02  0.19999994884E+02 0.  0.
         12    1    1    2    0    0 -0.12250351288E+02  0.30204460271E+02 -0.28657334914E+02  0.43400730078E+02  0.00000000000E+00 0. -1.
         11    1    3    3    0    0 -0.15252263104E+01 -0.99543705510E+01  0.90321812244E+01  0.13527605342E+02  0.51100000000E-03 0. -1.
        -11    1    3    3    0    0  0.15809044020E+02 -0.19339962580E+02  0.15028558114E+02  0.29151630909E+02  0.51100000000E-03 0.  1.
         12    1    3    3    0    0 -0.20334664216E+01 -0.91012713995E+00  0.45965955758E+01  0.51080336712E+01  0.00000000000E+00 0. -1.
</event>
<event>
 7    1  0.1634068E-009  0.4778727E+02  0.7816164E-02  0.1312668E+00
        -11   -1    0    0    0    0  0.00000000000E+00  0.00000000000E+00  0.45593999997E+02  0.45594000000E+02  0.51100000000E-03 0. -1.
         11   -1    0    0    0    0 -0.00000000000E+00 -0.00000000000E+00 -0.45593999997E+02  0.45594000000E+02  0.51100000000E-03 0.  1.
    9900012    2    1    2    0    0  0.29536342811E+02  0.22914175828E+02 -0.22049227725E+02  0.47787269087E+02  0.19999991073E+02 0.  0.
         12    1    1    2    0    0 -0.29536342811E+02 -0.22914175828E+02  0.22049227725E+02  0.43400730913E+02  0.00000000000E+00 0. -1.
         11    1    3    3    0    0  0.56014085218E+01  0.70945010895E+01 -0.56928047837E+01  0.10682497353E+02  0.51100000000E-03 0. -1.
        -11    1    3    3    0    0  0.20163274706E+02  0.18495946715E+02 -0.17317349788E+02  0.32381295460E+02  0.51100000000E-03 0.  1.
         12    1    3    3    0    0  0.37716595832E+01 -0.26762719759E+01  0.96092684610E+00  0.47234762732E+01  0.00000000000E+00 0. -1.
</event>
<event>
 7    1  0.1634068E-009  0.4778727E+02  0.7816164E-02  0.1312668E+00
        -11   -1    0    0    0    0  0.00000000000E+00  0.00000000000E+00  0.45593999997E+02  0.45594000000E+02  0.51100000000E-03 0.  1.
         11   -1    0    0    0    0 -0.00000000000E+00 -0.00000000000E+00 -0.45593999997E+02  0.45594000000E+02  0.51100000000E-03 0. -1.
    9900012    2    1    2    0    0  0.42839806295E+01  0.12737301514E+02  0.41267806196E+02  0.47787272263E+02  0.20000005555E+02 0.  0.
         12    1    1    2    0    0 -0.42839806295E+01 -0.12737301514E+02 -0.41267806196E+02  0.43400727737E+02  0.00000000000E+00 0. -1.
         11    1    3    3    0    0  0.88798975549E+01  0.30201468863E+01  0.12960040827E+02  0.15998016324E+02  0.51100000000E-03 0. -1.
        -11    1    3    3    0    0 -0.27949344922E+01  0.15248615364E+00  0.13095112748E+01  0.30902638857E+01  0.51100000000E-03 0.  1.
        -12    1    3    3    0    0 -0.18009824331E+01  0.95646684736E+01  0.26998254095E+02  0.28698992053E+02  0.00000000000E+00 0.  1.
</event>
<event>
 7    1  0.1634068E-009  0.4778727E+02  0.7816164E-02  0.1312668E+00
        -11   -1    0    0    0    0  0.00000000000E+00  0.00000000000E+00  0.45593999997E+02  0.45594000000E+02  0.51100000000E-03 0.  1.
         11   -1    0    0    0    0 -0.00000000000E+00 -0.00000000000E+00 -0.45593999997E+02  0.45594000000E+02  0.51100000000E-03 0. -1.
    9900012    2    1    2    0    0  0.27679084775E+02  0.79122294688E+01  0.32479041190E+02  0.47787271598E+02  0.20000002526E+02 0.  0.
         12    1    1    2    0    0 -0.27679084775E+02 -0.79122294688E+01 -0.32479041190E+02  0.43400728402E+02  0.00000000000E+00 0. -1.
         11    1    3    3    0    0  0.43000886101E+01  0.19900223113E+01 -0.19158511190E+01  0.51109134825E+01  0.51100000000E-03 0. -1.
        -11    1    3    3    0    0  0.18369384738E+02  0.50105631963E+01  0.21002462697E+02  0.28348606294E+02  0.51100000000E-03 0.  1.
        -12    1    3    3    0    0  0.50096114274E+01  0.91164396120E+00  0.13392429612E+02  0.14327751822E+02  0.00000000000E+00 0.  1.
</event>
<event>
 7    1  0.1634068E-009  0.4778727E+02  0.7816164E-02  0.1312668E+00
        -11   -1    0    0    0    0  0.00000000000E+00  0.00000000000E+00  0.45593999997E+02  0.45594000000E+02  0.51100000000E-03 0.  1.
         11   -1    0    0    0    0 -0.00000000000E+00 -0.00000000000E+00 -0.45593999997E+02  0.45594000000E+02  0.51100000000E-03 0. -1.
    9900012    2    1    2    0    0 -0.16020815450E+02 -0.29830756911E+02  0.27149274643E+02  0.47787266144E+02  0.19999977657E+02 0.  0.
         12    1    1    2    0    0  0.16020815450E+02  0.29830756911E+02 -0.27149274643E+02  0.43400733856E+02  0.00000000000E+00 0. -1.
         11    1    3    3    0    0  0.17060502288E+01 -0.99972771184E+01  0.19053657572E+01  0.10319233309E+02  0.51100000000E-03 0. -1.
        -11    1    3    3    0    0 -0.73690235293E+01 -0.42039107233E+01  0.48822860123E+01  0.97883650377E+01  0.51100000000E-03 0.  1.
         12    1    3    3    0    0 -0.10357842150E+02 -0.15629569070E+02  0.20361622874E+02  0.27679667797E+02  0.00000000000E+00 0. -1.
</event>
<event>
 7    1  0.1634068E-009  0.4778727E+02  0.7816164E-02  0.1312668E+00
        -11   -1    0    0    0    0  0.00000000000E+00  0.00000000000E+00  0.45593999997E+02  0.45594000000E+02  0.51100000000E-03 0.  1.
         11   -1    0    0    0    0 -0.00000000000E+00 -0.00000000000E+00 -0.45593999997E+02  0.45594000000E+02  0.51100000000E-03 0. -1.
    9900012    2    1    2    0    0 -0.17481393125E+02 -0.33414869157E+01  0.39583564735E+02  0.47787271463E+02  0.20000001910E+02 0.  0.
         12    1    1    2    0    0  0.17481393125E+02  0.33414869157E+01 -0.39583564735E+02  0.43400728537E+02  0.00000000000E+00 0. -1.
         11    1    3    3    0    0 -0.10007903517E+02  0.37653950750E+01  0.26288411881E+02  0.28379868435E+02  0.51100000000E-03 0. -1.
        -11    1    3    3    0    0 -0.54990590476E+01 -0.15186267212E+00  0.17270916549E+01  0.57658961598E+01  0.51100000000E-03 0.  1.
        -12    1    3    3    0    0 -0.19744305604E+01 -0.69550193186E+01  0.11568061198E+02  0.13641506869E+02  0.00000000000E+00 0.  1.
</event>
<event>
 7    1  0.1634068E-009  0.4778727E+02  0.7816164E-02  0.1312668E+00
        -11   -1    0    0    0    0  0.00000000000E+00  0.00000000000E+00  0.45593999997E+02  0.45594000000E+02  0.51100000000E-03 0.  1.
         11   -1    0    0    0    0 -0.00000000000E+00 -0.00000000000E+00 -0.45593999997E+02  0.45594000000E+02  0.51100000000E-03 0. -1.
    9900012    2    1    2    0    0  0.20396525619E+02 -0.74378317880E+01  0.37580361519E+02  0.47787272230E+02  0.20000005407E+02 0.  0.
         12    1    1    2    0    0 -0.20396525619E+02  0.74378317880E+01 -0.37580361519E+02  0.43400727770E+02  0.00000000000E+00 0. -1.
         11    1    3    3    0    0  0.12011405491E+01  0.80542012595E+00  0.65030298394E+01  0.66618944416E+01  0.51100000000E-03 0. -1.
        -11    1    3    3    0    0  0.11866218927E+02 -0.54771048106E+01  0.51617527076E+01  0.14051673210E+02  0.51100000000E-03 0.  1.
        -12    1    3    3    0    0  0.73291661422E+01 -0.27661471034E+01  0.25915578972E+02  0.27073704578E+02  0.00000000000E+00 0.  1.
</event>
<event>
 7    1  0.1634068E-009  0.4778727E+02  0.7816164E-02  0.1312668E+00
        -11   -1    0    0    0    0  0.00000000000E+00  0.00000000000E+00  0.45593999997E+02  0.45594000000E+02  0.51100000000E-03 0. -1.
         11   -1    0    0    0    0 -0.00000000000E+00 -0.00000000000E+00 -0.45593999997E+02  0.45594000000E+02  0.51100000000E-03 0.  1.
    9900012    2    1    2    0    0  0.12555564684E+02 -0.41506822234E+02 -0.17788894324E+01  0.47787274843E+02  0.20000017319E+02 0.  0.
         12    1    1    2    0    0 -0.12555564684E+02  0.41506822234E+02  0.17788894324E+01  0.43400725157E+02  0.00000000000E+00 0. -1.
         11    1    3    3    0    0  0.27356222874E+01 -0.34899678618E+01 -0.41068214090E+01  0.60439628823E+01  0.51100000000E-03 0. -1.
        -11    1    3    3    0    0  0.10823176615E+02 -0.22240362933E+02  0.61337554284E+01  0.25483285725E+02  0.51100000000E-03 0.  1.
         12    1    3    3    0    0 -0.10032342180E+01 -0.15776491440E+02 -0.38058234517E+01  0.16260026236E+02  0.00000000000E+00 0. -1.
</event>
<event>
 7    1  0.1634068E-009  0.4778727E+02  0.7816164E-02  0.1312668E+00
        -11   -1    0    0    0    0  0.00000000000E+00  0.00000000000E+00  0.45593999997E+02  0.45594000000E+02  0.51100000000E-03 0. -1.
         11   -1    0    0    0    0 -0.00000000000E+00 -0.00000000000E+00 -0.45593999997E+02  0.45594000000E+02  0.51100000000E-03 0.  1.
    9900012    2    1    2    0    0 -0.34999544414E+02  0.16586068628E+02 -0.19584624331E+02  0.47787270836E+02  0.19999999051E+02 0.  0.
         12    1    1    2    0    0  0.34999544414E+02 -0.16586068628E+02  0.19584624331E+02  0.43400729164E+02  0.00000000000E+00 0. -1.
         11    1    3    3    0    0 -0.13637789729E+02  0.38153129021E+01 -0.33582236259E+01  0.14554160485E+02  0.51100000000E-03 0. -1.
        -11    1    3    3    0    0 -0.18334042012E+02  0.14164908772E+02 -0.18107969620E+02  0.29405446792E+02  0.51100000000E-03 0.  1.
        -12    1    3    3    0    0 -0.30277126732E+01 -0.13941530457E+01  0.18815689149E+01  0.38276635599E+01  0.00000000000E+00 0.  1.
</event>
<event>
 7    1  0.1634068E-009  0.4778727E+02  0.7816164E-02  0.1312668E+00
        -11   -1    0    0    0    0  0.00000000000E+00  0.00000000000E+00  0.45593999997E+02  0.45594000000E+02  0.51100000000E-03 0.  1.
         11   -1    0    0    0    0 -0.00000000000E+00 -0.00000000000E+00 -0.45593999997E+02  0.45594000000E+02  0.51100000000E-03 0. -1.
    9900012    2    1    2    0    0  0.77732234690E+01 -0.21118829868E+02  0.37110581963E+02  0.47787271070E+02  0.20000000115E+02 0.  0.
         12    1    1    2    0    0 -0.77732234690E+01  0.21118829868E+02 -0.37110581963E+02  0.43400728930E+02  0.00000000000E+00 0. -1.
         11    1    3    3    0    0  0.91034779246E+01 -0.60276804947E+01  0.13233796400E+02  0.17156328567E+02  0.51100000000E-03 0. -1.
        -11    1    3    3    0    0  0.68957334741E+00 -0.16566958272E+02  0.21735508056E+02  0.27338103968E+02  0.51100000000E-03 0.  1.
        -12    1    3    3    0    0 -0.20198278030E+01  0.14758088996E+01  0.21412775059E+01  0.32928385352E+01  0.00000000000E+00 0.  1.
</event>
<event>
 7    1  0.1634068E-009  0.4778727E+02  0.7816164E-02  0.1312668E+00
        -11   -1    0    0    0    0  0.00000000000E+00  0.00000000000E+00  0.45593999997E+02  0.45594000000E+02  0.51100000000E-03 0.  1.
         11   -1    0    0    0    0 -0.00000000000E+00 -0.00000000000E+00 -0.45593999997E+02  0.45594000000E+02  0.51100000000E-03 0. -1.
    9900012    2    1    2    0    0 -0.39587005941E+02 -0.14993615960E+02  0.95751459941E+01  0.47787274433E+02  0.20000015452E+02 0.  0.
         12    1    1    2    0    0  0.39587005941E+02  0.14993615960E+02 -0.95751459941E+01  0.43400725567E+02  0.00000000000E+00 0. -1.
         11    1    3    3    0    0 -0.21110208239E+02 -0.14406873779E+02  0.55757517894E+01  0.26158897383E+02  0.51100000000E-03 0. -1.
        -11    1    3    3    0    0 -0.17062906974E+01 -0.33192515689E+01 -0.10949941062E+01  0.38894564241E+01  0.51100000000E-03 0.  1.
        -12    1    3    3    0    0 -0.16770507004E+02  0.27325093886E+01  0.50943883109E+01  0.17738920626E+02  0.00000000000E+00 0.  1.
</event>
<event>
 7    1  0.1634068E-009  0.4778727E+02  0.7816164E-02  0.1312668E+00
        -11   -1    0    0    0    0  0.00000000000E+00  0.00000000000E+00  0.45593999997E+02  0.45594000000E+02  0.51100000000E-03 0. -1.
         11   -1    0    0    0    0 -0.00000000000E+00 -0.00000000000E+00 -0.45593999997E+02  0.45594000000E+02  0.51100000000E-03 0.  1.
    9900012    2    1    2    0    0 -0.10864777192E+02 -0.67659795252E+01 -0.41470488788E+02  0.47787270713E+02  0.19999998487E+02 0.  0.
         12    1    1    2    0    0  0.10864777192E+02  0.67659795252E+01  0.41470488788E+02  0.43400729287E+02  0.00000000000E+00 0. -1.
         11    1    3    3    0    0  0.26947046409E+01  0.92831911915E+00 -0.72966064887E+01  0.78334970480E+01  0.51100000000E-03 0. -1.
        -11    1    3    3    0    0 -0.68218826406E+01 -0.75622312151E+01 -0.30754524187E+02  0.32397008842E+02  0.51100000000E-03 0.  1.
        -12    1    3    3    0    0 -0.67375991922E+01 -0.13206742931E+00 -0.34193581126E+01  0.75567648225E+01  0.00000000000E+00 0.  1.
</event>
<event>
 7    1  0.1634068E-009  0.4778727E+02  0.7816164E-02  0.1312668E+00
        -11   -1    0    0    0    0  0.00000000000E+00  0.00000000000E+00  0.45593999997E+02  0.45594000000E+02  0.51100000000E-03 0.  1.
         11   -1    0    0    0    0 -0.00000000000E+00 -0.00000000000E+00 -0.45593999997E+02  0.45594000000E+02  0.51100000000E-03 0. -1.
    9900012    2    1    2    0    0  0.43245180856E+02  0.27355411186E+01  0.24483765858E+01  0.47787269587E+02  0.19999993356E+02 0.  0.
         12    1    1    2    0    0 -0.43245180856E+02 -0.27355411186E+01 -0.24483765858E+01  0.43400730413E+02  0.00000000000E+00 0. -1.
         11    1    3    3    0    0  0.26582025801E+02  0.61419526974E+01 -0.52169617897E+00  0.27287356886E+02  0.51100000000E-03 0. -1.
        -11    1    3    3    0    0  0.10991956356E+02  0.95896907331E+00 -0.27116402319E+01  0.11362029714E+02  0.51100000000E-03 0.  1.
        -12    1    3    3    0    0  0.56711986984E+01 -0.43653806521E+01  0.56817129966E+01  0.91378829874E+01  0.00000000000E+00 0.  1.
</event>
<event>
 7    1  0.1634068E-009  0.4778727E+02  0.7816164E-02  0.1312668E+00
        -11   -1    0    0    0    0  0.00000000000E+00  0.00000000000E+00  0.45593999997E+02  0.45594000000E+02  0.51100000000E-03 0.  1.
         11   -1    0    0    0    0 -0.00000000000E+00 -0.00000000000E+00 -0.45593999997E+02  0.45594000000E+02  0.51100000000E-03 0. -1.
    9900012    2    1    2    0    0  0.33416421644E+02 -0.52744808375E+01  0.27187235259E+02  0.47787272533E+02  0.20000006788E+02 0.  0.
         12    1    1    2    0    0 -0.33416421644E+02  0.52744808375E+01 -0.27187235259E+02  0.43400727467E+02  0.00000000000E+00 0. -1.
         11    1    3    3    0    0  0.16848816391E+02 -0.23588724838E+01  0.15438193756E+01  0.17083040470E+02  0.51100000000E-03 0. -1.
        -11    1    3    3    0    0  0.54627363221E+01 -0.16684396399E+01  0.87610388145E+01  0.10458536242E+02  0.51100000000E-03 0.  1.
         12    1    3    3    0    0  0.11104868931E+02 -0.12471687138E+01  0.16882377069E+02  0.20245695821E+02  0.00000000000E+00 0. -1.
</event>
<event>
 7    1  0.1634068E-009  0.4778727E+02  0.7816164E-02  0.1312668E+00
        -11   -1    0    0    0    0  0.00000000000E+00  0.00000000000E+00  0.45593999997E+02  0.45594000000E+02  0.51100000000E-03 0. -1.
         11   -1    0    0    0    0 -0.00000000000E+00 -0.00000000000E+00 -0.45593999997E+02  0.45594000000E+02  0.51100000000E-03 0.  1.
    9900012    2    1    2    0    0  0.62621242077E+01  0.39808387011E+02  0.16115269194E+02  0.47787265246E+02  0.19999973561E+02 0.  0.
         12    1    1    2    0    0 -0.62621242077E+01 -0.39808387011E+02 -0.16115269194E+02  0.43400734754E+02  0.00000000000E+00 0. -1.
         11    1    3    3    0    0 -0.56671564621E+01  0.81107414728E+01 -0.77461929592E+00  0.99247581794E+01  0.51100000000E-03 0. -1.
        -11    1    3    3    0    0  0.43921686700E+01  0.11889171046E+02  0.57239000045E+01  0.13907068897E+02  0.51100000000E-03 0.  1.
         12    1    3    3    0    0  0.75371119998E+01  0.19808474492E+02  0.11165988485E+02  0.23955438169E+02  0.00000000000E+00 0. -1.
</event>
<event>
 7    1  0.1812758E-009  0.4778727E+02  0.7816164E-02  0.1312668E+00
        -11   -1    0    0    0    0  0.00000000000E+00  0.00000000000E+00  0.45593999997E+02  0.45594000000E+02  0.51100000000E-03 0. -1.
         11   -1    0    0    0    0 -0.00000000000E+00 -0.00000000000E+00 -0.45593999997E+02  0.45594000000E+02  0.51100000000E-03 0.  1.
    9900012    2    1    2    0    0 -0.11225013835E+02  0.29602959010E+02 -0.29686482527E+02  0.47787270022E+02  0.19999995339E+02 0.  0.
         12    1    1    2    0    0  0.11225013835E+02 -0.29602959010E+02  0.29686482527E+02  0.43400729978E+02  0.00000000000E+00 0. -1.
         11    1    3    3    0    0 -0.54166196639E+01  0.18150526245E+02 -0.91200039195E+01  0.21022745856E+02  0.51100000000E-03 0. -1.
        -11    1    3    3    0    0 -0.43908170798E+01  0.12694111931E+02 -0.20906529411E+02  0.24849602102E+02  0.51100000000E-03 0.  1.
         12    1    3    3    0    0 -0.14175770913E+01 -0.12416791665E+01  0.34005080334E+00  0.19149220640E+01  0.00000000000E+00 0. -1.
</event>
<event>
 7    1  0.1634068E-009  0.4778727E+02  0.7816164E-02  0.1312668E+00
        -11   -1    0    0    0    0  0.00000000000E+00  0.00000000000E+00  0.45593999997E+02  0.45594000000E+02  0.51100000000E-03 0.  1.
         11   -1    0    0    0    0 -0.00000000000E+00 -0.00000000000E+00 -0.45593999997E+02  0.45594000000E+02  0.51100000000E-03 0. -1.
    9900012    2    1    2    0    0 -0.27243019932E+02 -0.20104278978E+02  0.27152518722E+02  0.47787269117E+02  0.19999991211E+02 0.  0.
         12    1    1    2    0    0  0.27243019932E+02  0.20104278978E+02 -0.27152518722E+02  0.43400730883E+02  0.00000000000E+00 0. -1.
         11    1    3    3    0    0 -0.94639693395E+01 -0.20739408978E+01  0.72787659800E+01  0.12118101376E+02  0.51100000000E-03 0. -1.
        -11    1    3    3    0    0  0.61528487255E+00 -0.31981856229E+01 -0.16990519337E+01  0.36733832481E+01  0.51100000000E-03 0.  1.
        -12    1    3    3    0    0 -0.18394335465E+02 -0.14832152457E+02  0.21572804676E+02  0.31995784493E+02  0.00000000000E+00 0.  1.
</event>
<event>
 7    1  0.1634068E-009  0.4778727E+02  0.7816164E-02  0.1312668E+00
        -11   -1    0    0    0    0  0.00000000000E+00  0.00000000000E+00  0.45593999997E+02  0.45594000000E+02  0.51100000000E-03 0.  1.
         11   -1    0    0    0    0 -0.00000000000E+00 -0.00000000000E+00 -0.45593999997E+02  0.45594000000E+02  0.51100000000E-03 0. -1.
    9900012    2    1    2    0    0  0.19248104820E+02 -0.10160253617E+02  0.37548677960E+02  0.47787268333E+02  0.19999987636E+02 0.  0.
         12    1    1    2    0    0 -0.19248104820E+02  0.10160253617E+02 -0.37548677960E+02  0.43400731667E+02  0.00000000000E+00 0. -1.
         11    1    3    3    0    0  0.76656165132E+01 -0.87017280497E+01  0.10128526280E+02  0.15397038431E+02  0.51100000000E-03 0. -1.
        -11    1    3    3    0    0  0.17751494598E+01 -0.28146896158E+01  0.97559182324E-01  0.33291367188E+01  0.51100000000E-03 0.  1.
        -12    1    3    3    0    0  0.98073388467E+01  0.13561640486E+01  0.27322592498E+02  0.29061093183E+02  0.00000000000E+00 0.  1.
</event>
<event>
 7    1  0.1634068E-009  0.4778727E+02  0.7816164E-02  0.1312668E+00
        -11   -1    0    0    0    0  0.00000000000E+00  0.00000000000E+00  0.45593999997E+02  0.45594000000E+02  0.51100000000E-03 0.  1.
         11   -1    0    0    0    0 -0.00000000000E+00 -0.00000000000E+00 -0.45593999997E+02  0.45594000000E+02  0.51100000000E-03 0. -1.
    9900012    2    1    2    0    0  0.38681101064E+02 -0.19411803015E+02  0.32523158481E+01  0.47787271501E+02  0.20000002083E+02 0.  0.
         12    1    1    2    0    0 -0.38681101064E+02  0.19411803015E+02 -0.32523158481E+01  0.43400728499E+02  0.00000000000E+00 0. -1.
         11    1    3    3    0    0  0.19403315365E+01  0.63420393600E+00  0.33018026709E+01  0.38818812762E+01  0.51100000000E-03 0. -1.
        -11    1    3    3    0    0  0.30075575301E+02 -0.16530725158E+02  0.52150619697E+01  0.34713138371E+02  0.51100000000E-03 0.  1.
         12    1    3    3    0    0  0.66651942267E+01 -0.35152817926E+01 -0.52645487925E+01  0.91922518541E+01  0.00000000000E+00 0. -1.
</event>
<event>
 7    1  0.1634068E-009  0.4778727E+02  0.7816164E-02  0.1312668E+00
        -11   -1    0    0    0    0  0.00000000000E+00  0.00000000000E+00  0.45593999997E+02  0.45594000000E+02  0.51100000000E-03 0.  1.
         11   -1    0    0    0    0 -0.00000000000E+00 -0.00000000000E+00 -0.45593999997E+02  0.45594000000E+02  0.51100000000E-03 0. -1.
    9900012    2    1    2    0    0 -0.15534116119E+02  0.25716948963E+02  0.31320169879E+02  0.47787271103E+02  0.20000000267E+02 0.  0.
         12    1    1    2    0    0  0.15534116119E+02 -0.25716948963E+02 -0.31320169879E+02  0.43400728897E+02  0.00000000000E+00 0. -1.
         11    1    3    3    0    0  0.47312796760E+00  0.32852818849E+01 -0.14831307843E+01  0.36354648013E+01  0.51100000000E-03 0. -1.
        -11    1    3    3    0    0 -0.56386389195E+01  0.36987487755E+01  0.14470045996E+02  0.15964248268E+02  0.51100000000E-03 0.  1.
        -12    1    3    3    0    0 -0.10368605167E+02  0.18732918303E+02  0.18333254667E+02  0.28187558034E+02  0.00000000000E+00 0.  1.
</event>
<event>
 7    1  0.1634068E-009  0.4778727E+02  0.7816164E-02  0.1312668E+00
        -11   -1    0    0    0    0  0.00000000000E+00  0.00000000000E+00  0.45593999997E+02  0.45594000000E+02  0.51100000000E-03 0.  1.
         11   -1    0    0    0    0 -0.00000000000E+00 -0.00000000000E+00 -0.45593999997E+02  0.45594000000E+02  0.51100000000E-03 0. -1.
    9900012    2    1    2    0    0  0.14941695547E+02 -0.30325059624E+01  0.40634625683E+02  0.47787272326E+02  0.20000005842E+02 0.  0.
         12    1    1    2    0    0 -0.14941695547E+02  0.30325059624E+01 -0.40634625683E+02  0.43400727674E+02  0.00000000000E+00 0. -1.
         11    1    3    3    0    0  0.50195642706E+01 -0.81663737734E+01  0.91784138510E+01  0.13271358904E+02  0.51100000000E-03 0. -1.
        -11    1    3    3    0    0 -0.21295586850E+00  0.14462190824E+01  0.13432414308E+02  0.13511722845E+02  0.51100000000E-03 0.  1.
        -12    1    3    3    0    0  0.10135087145E+02  0.36876487287E+01  0.18023797524E+02  0.21004190576E+02  0.00000000000E+00 0.  1.
</event>
<event>
 7    1  0.1634068E-009  0.4778727E+02  0.7816164E-02  0.1312668E+00
        -11   -1    0    0    0    0  0.00000000000E+00  0.00000000000E+00  0.45593999997E+02  0.45594000000E+02  0.51100000000E-03 0.  1.
         11   -1    0    0    0    0 -0.00000000000E+00 -0.00000000000E+00 -0.45593999997E+02  0.45594000000E+02  0.51100000000E-03 0. -1.
    9900012    2    1    2    0    0  0.29722467401E+02  0.11270729487E+02  0.29549425525E+02  0.47787274655E+02  0.20000016463E+02 0.  0.
         12    1    1    2    0    0 -0.29722467401E+02 -0.11270729487E+02 -0.29549425525E+02  0.43400725345E+02  0.00000000000E+00 0. -1.
         11    1    3    3    0    0  0.90490899718E+00  0.70483987826E+00  0.80064454535E+01  0.80881906882E+01  0.51100000000E-03 0. -1.
        -11    1    3    3    0    0  0.22646469696E+02  0.53849789104E+01  0.21430734412E+02  0.31640748494E+02  0.51100000000E-03 0.  1.
         12    1    3    3    0    0  0.61710887082E+01  0.51809106982E+01  0.11224565931E+00  0.80583354730E+01  0.00000000000E+00 0. -1.
</event>
<event>
 7    1  0.1634068E-009  0.4778728E+02  0.7816164E-02  0.1312668E+00
        -11   -1    0    0    0    0  0.00000000000E+00  0.00000000000E+00  0.45593999997E+02  0.45594000000E+02  0.51100000000E-03 0.  1.
         11   -1    0    0    0    0 -0.00000000000E+00 -0.00000000000E+00 -0.45593999997E+02  0.45594000000E+02  0.51100000000E-03 0. -1.
    9900012    2    1    2    0    0 -0.26397024782E+01  0.12611853012E+02  0.41443883976E+02  0.47787281290E+02  0.20000046712E+02 0.  0.
         12    1    1    2    0    0  0.26397024782E+01 -0.12611853012E+02 -0.41443883976E+02  0.43400718710E+02  0.00000000000E+00 0. -1.
         11    1    3    3    0    0  0.60042466218E+01  0.40960976030E+01  0.60911126502E+01  0.94831770334E+01  0.51100000000E-03 0. -1.
        -11    1    3    3    0    0 -0.46771593311E+01  0.58754097363E+01  0.99915286065E+01  0.12499076091E+02  0.51100000000E-03 0.  1.
         12    1    3    3    0    0 -0.39667897689E+01  0.26403456731E+01  0.25361242719E+02  0.25805028165E+02  0.00000000000E+00 0. -1.
</event>
<event>
 7    1  0.1634068E-009  0.4778727E+02  0.7816164E-02  0.1312668E+00
        -11   -1    0    0    0    0  0.00000000000E+00  0.00000000000E+00  0.45593999997E+02  0.45594000000E+02  0.51100000000E-03 0. -1.
         11   -1    0    0    0    0 -0.00000000000E+00 -0.00000000000E+00 -0.45593999997E+02  0.45594000000E+02  0.51100000000E-03 0.  1.
    9900012    2    1    2    0    0  0.16172191494E+02  0.39500287215E+02  0.78619924252E+01  0.47787269676E+02  0.19999993761E+02 0.  0.
         12    1    1    2    0    0 -0.16172191494E+02 -0.39500287215E+02 -0.78619924252E+01  0.43400730324E+02  0.00000000000E+00 0. -1.
         11    1    3    3    0    0  0.78722051555E+01  0.13561370940E+02  0.70033866474E+00  0.15696269311E+02  0.51100000000E-03 0. -1.
        -11    1    3    3    0    0  0.10618437063E+02  0.22793891369E+02  0.10205697183E+02  0.27137961321E+02  0.51100000000E-03 0.  1.
         12    1    3    3    0    0 -0.23184507239E+01  0.31450249050E+01 -0.30440434222E+01  0.49530390437E+01  0.00000000000E+00 0. -1.
</event>
<event>
 7    1  0.1634068E-009  0.4778726E+02  0.7816164E-02  0.1312668E+00
        -11   -1    0    0    0    0  0.00000000000E+00  0.00000000000E+00  0.45593999997E+02  0.45594000000E+02  0.51100000000E-03 0.  1.
         11   -1    0    0    0    0 -0.00000000000E+00 -0.00000000000E+00 -0.45593999997E+02  0.45594000000E+02  0.51100000000E-03 0. -1.
    9900012    2    1    2    0    0 -0.34797760831E+01 -0.38152616435E+02  0.20393451863E+02  0.47787264277E+02  0.19999969146E+02 0.  0.
         12    1    1    2    0    0  0.34797760831E+01  0.38152616435E+02 -0.20393451863E+02  0.43400735723E+02  0.00000000000E+00 0. -1.
         11    1    3    3    0    0  0.23883762290E+01 -0.16323542576E+01  0.21092447978E+01  0.35802004569E+01  0.51100000000E-03 0. -1.
        -11    1    3    3    0    0  0.44116085282E+01 -0.16569401478E+02  0.40113563070E+01  0.17609609162E+02  0.51100000000E-03 0.  1.
        -12    1    3    3    0    0 -0.10279760840E+02 -0.19950860699E+02  0.14272850758E+02  0.26597454658E+02  0.00000000000E+00 0.  1.
</event>
<event>
 7    1  0.1634068E-009  0.4778727E+02  0.7816164E-02  0.1312668E+00
        -11   -1    0    0    0    0  0.00000000000E+00  0.00000000000E+00  0.45593999997E+02  0.45594000000E+02  0.51100000000E-03 0. -1.
         11   -1    0    0    0    0 -0.00000000000E+00 -0.00000000000E+00 -0.45593999997E+02  0.45594000000E+02  0.51100000000E-03 0.  1.
    9900012    2    1    2    0    0  0.78634015965E+00 -0.28838704642E+02 -0.32424281978E+02  0.47787270997E+02  0.19999999782E+02 0.  0.
         12    1    1    2    0    0 -0.78634015965E+00  0.28838704642E+02  0.32424281978E+02  0.43400729003E+02  0.00000000000E+00 0. -1.
         11    1    3    3    0    0  0.52156158145E+01 -0.20076830583E+01 -0.11536870760E+02  0.12819236591E+02  0.51100000000E-03 0. -1.
        -11    1    3    3    0    0 -0.52798473103E+01 -0.11117727754E+02 -0.92317326362E+01  0.15385237917E+02  0.51100000000E-03 0.  1.
        -12    1    3    3    0    0  0.85057165545E+00 -0.15713293829E+02 -0.11655678581E+02  0.19582796488E+02  0.00000000000E+00 0.  1.
</event>
<event>
 7    1  0.1634068E-009  0.4778728E+02  0.7816164E-02  0.1312668E+00
        -11   -1    0    0    0    0  0.00000000000E+00  0.00000000000E+00  0.45593999997E+02  0.45594000000E+02  0.51100000000E-03 0. -1.
         11   -1    0    0    0    0 -0.00000000000E+00 -0.00000000000E+00 -0.45593999997E+02  0.45594000000E+02  0.51100000000E-03 0.  1.
    9900012    2    1    2    0    0  0.32854550224E+02  0.21031042078E+02  0.19023582870E+02  0.47787275277E+02  0.20000019298E+02 0.  0.
         12    1    1    2    0    0 -0.32854550224E+02 -0.21031042078E+02 -0.19023582870E+02  0.43400724723E+02  0.00000000000E+00 0. -1.
         11    1    3    3    0    0 -0.72617046388E-01  0.23988220521E+01  0.30764178041E+01  0.39017902608E+01  0.51100000000E-03 0. -1.
        -11    1    3    3    0    0  0.11512486811E+02  0.70773636205E+01  0.14025298826E+02  0.19476535519E+02  0.51100000000E-03 0.  1.
        -12    1    3    3    0    0  0.21414680459E+02  0.11554856406E+02  0.19218662392E+01  0.24408949497E+02  0.00000000000E+00 0.  1.
</event>
<event>
 7    1  0.1634068E-009  0.4778727E+02  0.7816164E-02  0.1312668E+00
        -11   -1    0    0    0    0  0.00000000000E+00  0.00000000000E+00  0.45593999997E+02  0.45594000000E+02  0.51100000000E-03 0.  1.
         11   -1    0    0    0    0 -0.00000000000E+00 -0.00000000000E+00 -0.45593999997E+02  0.45594000000E+02  0.51100000000E-03 0. -1.
    9900012    2    1    2    0    0 -0.25598776999E+02 -0.26417638827E+02  0.23031159545E+02  0.47787270340E+02  0.19999996789E+02 0.  0.
         12    1    1    2    0    0  0.25598776999E+02  0.26417638827E+02 -0.23031159545E+02  0.43400729660E+02  0.00000000000E+00 0. -1.
         11    1    3    3    0    0  0.13692774943E+00 -0.42895883570E+01  0.10049246823E+02  0.10927336338E+02  0.51100000000E-03 0. -1.
        -11    1    3    3    0    0 -0.89652515450E+01 -0.11727716117E+02  0.57810039546E+01  0.15853550630E+02  0.51100000000E-03 0.  1.
        -12    1    3    3    0    0 -0.16770453204E+02 -0.10400334352E+02  0.72009087669E+01  0.21006383372E+02  0.00000000000E+00 0.  1.
</event>
<event>
 7    1  0.1634068E-009  0.4778727E+02  0.7816164E-02  0.1312668E+00
        -11   -1    0    0    0    0  0.00000000000E+00  0.00000000000E+00  0.45593999997E+02  0.45594000000E+02  0.51100000000E-03 0.  1.
         11   -1    0    0    0    0 -0.00000000000E+00 -0.00000000000E+00 -0.45593999997E+02  0.45594000000E+02  0.51100000000E-03 0. -1.
    9900012    2    1    2    0    0 -0.21523815624E+02  0.34554356987E+02  0.15044769403E+02  0.47787270603E+02  0.19999997985E+02 0.  0.
         12    1    1    2    0    0  0.21523815624E+02 -0.34554356987E+02 -0.15044769403E+02  0.43400729397E+02  0.00000000000E+00 0. -1.
         11    1    3    3    0    0 -0.14887848964E+02  0.10542946706E+02  0.30404037986E+01  0.18494481002E+02  0.51100000000E-03 0. -1.
        -11    1    3    3    0    0 -0.56387132152E+01  0.14167970214E+02  0.11991368737E+02  0.19398953352E+02  0.51100000000E-03 0.  1.
        -12    1    3    3    0    0 -0.99725344559E+00  0.98434400678E+01  0.12996867560E-01  0.98938362490E+01  0.00000000000E+00 0.  1.
</event>
<event>
 7    1  0.1634068E-009  0.4778727E+02  0.7816164E-02  0.1312668E+00
        -11   -1    0    0    0    0  0.00000000000E+00  0.00000000000E+00  0.45593999997E+02  0.45594000000E+02  0.51100000000E-03 0. -1.
         11   -1    0    0    0    0 -0.00000000000E+00 -0.00000000000E+00 -0.45593999997E+02  0.45594000000E+02  0.51100000000E-03 0.  1.
    9900012    2    1    2    0    0  0.36749965891E+02  0.10874499451E+02 -0.20366852404E+02  0.47787269498E+02  0.19999992947E+02 0.  0.
         12    1    1    2    0    0 -0.36749965891E+02 -0.10874499451E+02  0.20366852404E+02  0.43400730502E+02  0.00000000000E+00 0. -1.
         11    1    3    3    0    0 -0.62014896908E+00  0.15020660778E+01  0.17195352558E+01  0.23659224423E+01  0.51100000000E-03 0. -1.
        -11    1    3    3    0    0  0.24006196223E+02  0.16717312918E+01 -0.11202998660E+02  0.26544289816E+02  0.51100000000E-03 0.  1.
        -12    1    3    3    0    0  0.13363918637E+02  0.77007020811E+01 -0.10883389000E+02  0.18877057239E+02  0.00000000000E+00 0.  1.
</event>
<event>
 7    1  0.1634068E-009  0.4778727E+02  0.7816164E-02  0.1312668E+00
        -11   -1    0    0    0    0  0.00000000000E+00  0.00000000000E+00  0.45593999997E+02  0.45594000000E+02  0.51100000000E-03 0.  1.
         11   -1    0    0    0    0 -0.00000000000E+00 -0.00000000000E+00 -0.45593999997E+02  0.45594000000E+02  0.51100000000E-03 0. -1.
    9900012    2    1    2    0    0  0.39507060650E+02  0.85069457202E+01  0.15825535095E+02  0.47787268120E+02  0.19999986666E+02 0.  0.
         12    1    1    2    0    0 -0.39507060650E+02 -0.85069457202E+01 -0.15825535095E+02  0.43400731880E+02  0.00000000000E+00 0. -1.
         11    1    3    3    0    0  0.48308899315E+01 -0.20282257251E+01  0.74144210915E+01  0.90788125603E+01  0.51100000000E-03 0.  1.
        -11    1    3    3    0    0  0.44594476206E+01  0.45661670994E+01 -0.10916725439E+01  0.64752068897E+01  0.51100000000E-03 0. -1.
         12    1    3    3    0    0  0.30216723098E+02  0.59690043459E+01  0.95027865471E+01  0.32233248670E+02  0.00000000000E+00 0. -1.
</event>
<event>
 7    1  0.1634068E-009  0.4778727E+02  0.7816164E-02  0.1312668E+00
        -11   -1    0    0    0    0  0.00000000000E+00  0.00000000000E+00  0.45593999997E+02  0.45594000000E+02  0.51100000000E-03 0. -1.
         11   -1    0    0    0    0 -0.00000000000E+00 -0.00000000000E+00 -0.45593999997E+02  0.45594000000E+02  0.51100000000E-03 0.  1.
    9900012    2    1    2    0    0  0.36040265429E+02 -0.18564871530E+02  0.15494130368E+02  0.47787271170E+02  0.20000000574E+02 0.  0.
         12    1    1    2    0    0 -0.36040265429E+02  0.18564871530E+02 -0.15494130368E+02  0.43400728830E+02  0.00000000000E+00 0. -1.
         11    1    3    3    0    0  0.12365894329E+02 -0.36559124701E+01  0.10850388232E+02  0.16852654497E+02  0.51100000000E-03 0. -1.
        -11    1    3    3    0    0  0.20775589825E+02 -0.72644367634E+01  0.11363056153E+01  0.22038338522E+02  0.51100000000E-03 0.  1.
         12    1    3    3    0    0  0.28987812745E+01 -0.76445222961E+01  0.35074365210E+01  0.88962781523E+01  0.00000000000E+00 0. -1.
</event>
<event>
 7    1  0.1634068E-009  0.4778727E+02  0.7816164E-02  0.1312668E+00
        -11   -1    0    0    0    0  0.00000000000E+00  0.00000000000E+00  0.45593999997E+02  0.45594000000E+02  0.51100000000E-03 0.  1.
         11   -1    0    0    0    0 -0.00000000000E+00 -0.00000000000E+00 -0.45593999997E+02  0.45594000000E+02  0.51100000000E-03 0. -1.
    9900012    2    1    2    0    0 -0.29377582468E+02  0.28603679657E+01  0.31818224198E+02  0.47787269042E+02  0.19999990870E+02 0.  0.
         12    1    1    2    0    0  0.29377582468E+02 -0.28603679657E+01 -0.31818224198E+02  0.43400730958E+02  0.00000000000E+00 0. -1.
         11    1    3    3    0    0 -0.21998347384E+01 -0.24651365048E+01  0.51910667121E+01  0.61533198141E+01  0.51100000000E-03 0. -1.
        -11    1    3    3    0    0 -0.28995009199E+02  0.54925026336E+01  0.22462330198E+02  0.37086849715E+02  0.51100000000E-03 0.  1.
         12    1    3    3    0    0  0.18172614697E+01 -0.16699816305E+00  0.41648272886E+01  0.45470995128E+01  0.00000000000E+00 0. -1.
</event>
<event>
 7    1  0.1634068E-009  0.4778727E+02  0.7816164E-02  0.1312668E+00
        -11   -1    0    0    0    0  0.00000000000E+00  0.00000000000E+00  0.45593999997E+02  0.45594000000E+02  0.51100000000E-03 0. -1.
         11   -1    0    0    0    0 -0.00000000000E+00 -0.00000000000E+00 -0.45593999997E+02  0.45594000000E+02  0.51100000000E-03 0.  1.
    9900012    2    1    2    0    0 -0.13523669851E+02 -0.35044173935E+02 -0.21740273970E+02  0.47787270913E+02  0.19999999401E+02 0.  0.
         12    1    1    2    0    0  0.13523669851E+02  0.35044173935E+02  0.21740273970E+02  0.43400729087E+02  0.00000000000E+00 0. -1.
         11    1    3    3    0    0 -0.56501830151E+01 -0.84021561368E+01 -0.90994693857E+01  0.13613270702E+02  0.51100000000E-03 0.  1.
        -11    1    3    3    0    0  0.16852346257E+01  0.11538080115E+00  0.16567318970E+01  0.23660281724E+01  0.51100000000E-03 0. -1.
         12    1    3    3    0    0 -0.95587214618E+01 -0.26757398599E+02 -0.14297536481E+02  0.31807972038E+02  0.00000000000E+00 0. -1.
</event>
<event>
 7    1  0.1634068E-009  0.4778727E+02  0.7816164E-02  0.1312668E+00
        -11   -1    0    0    0    0  0.00000000000E+00  0.00000000000E+00  0.45593999997E+02  0.45594000000E+02  0.51100000000E-03 0. -1.
         11   -1    0    0    0    0 -0.00000000000E+00 -0.00000000000E+00 -0.45593999997E+02  0.45594000000E+02  0.51100000000E-03 0.  1.
    9900012    2    1    2    0    0 -0.33863116945E+02  0.23917565111E+02  0.12839884431E+02  0.47787271408E+02  0.20000001659E+02 0.  0.
         12    1    1    2    0    0  0.33863116945E+02 -0.23917565111E+02 -0.12839884431E+02  0.43400728592E+02  0.00000000000E+00 0. -1.
         11    1    3    3    0    0  0.41695678995E+00  0.35070495307E+01 -0.16714528812E+01  0.39073014180E+01  0.51100000000E-03 0. -1.
        -11    1    3    3    0    0 -0.33327781603E+02  0.20517761270E+02  0.11607695509E+02  0.40822275162E+02  0.51100000000E-03 0.  1.
         12    1    3    3    0    0 -0.95229213224E+00 -0.10724568994E+00  0.29036418026E+01  0.30576948280E+01  0.00000000000E+00 0. -1.
</event>
<event>
 7    1  0.1634068E-009  0.4778728E+02  0.7816164E-02  0.1312668E+00
        -11   -1    0    0    0    0  0.00000000000E+00  0.00000000000E+00  0.45593999997E+02  0.45594000000E+02  0.51100000000E-03 0.  1.
         11   -1    0    0    0    0 -0.00000000000E+00 -0.00000000000E+00 -0.45593999997E+02  0.45594000000E+02  0.51100000000E-03 0. -1.
    9900012    2    1    2    0    0 -0.28900858416E+02 -0.27581675891E+02  0.16959196692E+02  0.47787276335E+02  0.20000024124E+02 0.  0.
         12    1    1    2    0    0  0.28900858416E+02  0.27581675891E+02 -0.16959196692E+02  0.43400723665E+02  0.00000000000E+00 0. -1.
         11    1    3    3    0    0 -0.25333038280E+01 -0.14441202795E+01  0.57615748381E+01  0.64574651794E+01  0.51100000000E-03 0.  1.
        -11    1    3    3    0    0 -0.11772535870E+02 -0.21313516225E+02  0.79990703712E+01  0.25628962167E+02  0.51100000000E-03 0. -1.
         12    1    3    3    0    0 -0.14595018719E+02 -0.48240393869E+01  0.31985514824E+01  0.15700848990E+02  0.00000000000E+00 0. -1.
</event>
<event>
 7    1  0.1634068E-009  0.4778727E+02  0.7816164E-02  0.1312668E+00
        -11   -1    0    0    0    0  0.00000000000E+00  0.00000000000E+00  0.45593999997E+02  0.45594000000E+02  0.51100000000E-03 0.  1.
         11   -1    0    0    0    0 -0.00000000000E+00 -0.00000000000E+00 -0.45593999997E+02  0.45594000000E+02  0.51100000000E-03 0. -1.
    9900012    2    1    2    0    0 -0.31002449109E+02 -0.24659740570E+02  0.17730444201E+02  0.47787270659E+02  0.19999998244E+02 0.  0.
         12    1    1    2    0    0  0.31002449109E+02  0.24659740570E+02 -0.17730444201E+02  0.43400729341E+02  0.00000000000E+00 0. -1.
         11    1    3    3    0    0 -0.12381645994E+01  0.14734656100E+01  0.42715150584E+01  0.46850820307E+01  0.51100000000E-03 0. -1.
        -11    1    3    3    0    0 -0.13910079406E+02 -0.62693341925E+01  0.26590909922E+01  0.15487595858E+02  0.51100000000E-03 0.  1.
        -12    1    3    3    0    0 -0.15854205104E+02 -0.19863871987E+02  0.10799838151E+02  0.27614592771E+02  0.00000000000E+00 0.  1.
</event>
<event>
 7    1  0.1634068E-009  0.4778727E+02  0.7816164E-02  0.1312668E+00
        -11   -1    0    0    0    0  0.00000000000E+00  0.00000000000E+00  0.45593999997E+02  0.45594000000E+02  0.51100000000E-03 0. -1.
         11   -1    0    0    0    0 -0.00000000000E+00 -0.00000000000E+00 -0.45593999997E+02  0.45594000000E+02  0.51100000000E-03 0.  1.
    9900012    2    1    2    0    0 -0.11377616863E+02  0.41444673343E+02  0.60425113338E+01  0.47787273540E+02  0.20000011380E+02 0.  0.
         12    1    1    2    0    0  0.11377616863E+02 -0.41444673343E+02 -0.60425113338E+01  0.43400726460E+02  0.00000000000E+00 0. -1.
         11    1    3    3    0    0 -0.17349598818E+01  0.59898595104E+01 -0.42437278126E+01  0.75430583157E+01  0.51100000000E-03 0. -1.
        -11    1    3    3    0    0 -0.43667952147E+01  0.30986837878E+02  0.53446198793E+01  0.31746149122E+02  0.51100000000E-03 0.  1.
        -12    1    3    3    0    0 -0.52758617668E+01  0.44679759545E+01  0.49416192670E+01  0.84980661031E+01  0.00000000000E+00 0.  1.
</event>
<event>
 7    1  0.1634068E-009  0.4778727E+02  0.7816164E-02  0.1312668E+00
        -11   -1    0    0    0    0  0.00000000000E+00  0.00000000000E+00  0.45593999997E+02  0.45594000000E+02  0.51100000000E-03 0. -1.
         11   -1    0    0    0    0 -0.00000000000E+00 -0.00000000000E+00 -0.45593999997E+02  0.45594000000E+02  0.51100000000E-03 0.  1.
    9900012    2    1    2    0    0  0.33812806188E+02 -0.51748678746E+01 -0.26712130995E+02  0.47787273484E+02  0.20000011123E+02 0.  0.
         12    1    1    2    0    0 -0.33812806188E+02  0.51748678746E+01  0.26712130995E+02  0.43400726516E+02  0.00000000000E+00 0. -1.
         11    1    3    3    0    0  0.20716499897E+01 -0.70549590461E+01 -0.37815929362E+01  0.82682904048E+01  0.51100000000E-03 0. -1.
        -11    1    3    3    0    0  0.11104676140E+02 -0.32709008864E+00 -0.10725431941E+02  0.15442011225E+02  0.51100000000E-03 0.  1.
        -12    1    3    3    0    0  0.20636480058E+02  0.22071812601E+01 -0.12205106118E+02  0.24076971854E+02  0.00000000000E+00 0.  1.
</event>
<event>
 7    1  0.1634068E-009  0.4778727E+02  0.7816164E-02  0.1312668E+00
        -11   -1    0    0    0    0  0.00000000000E+00  0.00000000000E+00  0.45593999997E+02  0.45594000000E+02  0.51100000000E-03 0. -1.
         11   -1    0    0    0    0 -0.00000000000E+00 -0.00000000000E+00 -0.45593999997E+02  0.45594000000E+02  0.51100000000E-03 0.  1.
    9900012    2    1    2    0    0 -0.50271275765E+01 -0.37199150337E+02 -0.21784728585E+02  0.47787271930E+02  0.20000004038E+02 0.  0.
         12    1    1    2    0    0  0.50271275765E+01  0.37199150337E+02  0.21784728585E+02  0.43400728070E+02  0.00000000000E+00 0. -1.
         11    1    3    3    0    0 -0.94192482133E+01 -0.15882965714E+02 -0.74999473261E+01  0.19930881740E+02  0.51100000000E-03 0. -1.
        -11    1    3    3    0    0  0.30261633400E+01 -0.51830455200E+00 -0.19556232407E+01  0.36401602561E+01  0.51100000000E-03 0.  1.
        -12    1    3    3    0    0  0.13659572967E+01 -0.20797880071E+02 -0.12329158018E+02  0.24216229934E+02  0.00000000000E+00 0.  1.
</event>
<event>
 7    1  0.1634068E-009  0.4778728E+02  0.7816164E-02  0.1312668E+00
        -11   -1    0    0    0    0  0.00000000000E+00  0.00000000000E+00  0.45593999997E+02  0.45594000000E+02  0.51100000000E-03 0.  1.
         11   -1    0    0    0    0 -0.00000000000E+00 -0.00000000000E+00 -0.45593999997E+02  0.45594000000E+02  0.51100000000E-03 0. -1.
    9900012    2    1    2    0    0  0.43434785225E+01 -0.42858751887E+02 -0.52805579764E+01  0.47787277523E+02  0.20000029538E+02 0.  0.
         12    1    1    2    0    0 -0.43434785225E+01  0.42858751887E+02  0.52805579764E+01  0.43400722477E+02  0.00000000000E+00 0. -1.
         11    1    3    3    0    0  0.32570115632E+00 -0.10957786583E+02  0.32444632796E+01  0.11432659808E+02  0.51100000000E-03 0. -1.
        -11    1    3    3    0    0  0.70827645795E+01 -0.19416259722E+02  0.45592843939E+00  0.20672797747E+02  0.51100000000E-03 0.  1.
         12    1    3    3    0    0 -0.30649872133E+01 -0.12484705581E+02 -0.89809496954E+01  0.15681819968E+02  0.00000000000E+00 0. -1.
</event>
<event>
 7    1  0.1634068E-009  0.4778728E+02  0.7816164E-02  0.1312668E+00
        -11   -1    0    0    0    0  0.00000000000E+00  0.00000000000E+00  0.45593999997E+02  0.45594000000E+02  0.51100000000E-03 0.  1.
         11   -1    0    0    0    0 -0.00000000000E+00 -0.00000000000E+00 -0.45593999997E+02  0.45594000000E+02  0.51100000000E-03 0. -1.
    9900012    2    1    2    0    0 -0.29691727050E+02 -0.31278928065E+02  0.48634210157E+01  0.47787275812E+02  0.20000021737E+02 0.  0.
         12    1    1    2    0    0  0.29691727050E+02  0.31278928065E+02 -0.48634210157E+01  0.43400724188E+02  0.00000000000E+00 0. -1.
         11    1    3    3    0    0 -0.14454603736E+02 -0.59390897752E+01 -0.22738794273E+01  0.15791734687E+02  0.51100000000E-03 0. -1.
        -11    1    3    3    0    0  0.88553123981E+00 -0.30897725486E+01  0.26255609069E+01  0.41502325617E+01  0.51100000000E-03 0.  1.
         12    1    3    3    0    0 -0.16122654554E+02 -0.22250065741E+02  0.45117395362E+01  0.27845308563E+02  0.00000000000E+00 0. -1.
</event>
<event>
 7    1  0.1634068E-009  0.4778727E+02  0.7816164E-02  0.1312668E+00
        -11   -1    0    0    0    0  0.00000000000E+00  0.00000000000E+00  0.45593999997E+02  0.45594000000E+02  0.51100000000E-03 0.  1.
         11   -1    0    0    0    0 -0.00000000000E+00 -0.00000000000E+00 -0.45593999997E+02  0.45594000000E+02  0.51100000000E-03 0. -1.
    9900012    2    1    2    0    0  0.17064628430E+02  0.39216360790E+02 -0.73823398845E+01  0.47787269139E+02  0.19999991312E+02 0.  0.
         12    1    1    2    0    0 -0.17064628430E+02 -0.39216360790E+02  0.73823398845E+01  0.43400730861E+02  0.00000000000E+00 0. -1.
         11    1    3    3    0    0  0.70067649120E+01  0.18581258990E+02  0.27064007035E+01  0.20042019490E+02  0.51100000000E-03 0. -1.
        -11    1    3    3    0    0  0.45374454732E+01  0.18880704651E+02 -0.10235834714E+02  0.21950893651E+02  0.51100000000E-03 0.  1.
         12    1    3    3    0    0  0.55204180453E+01  0.17543971489E+01  0.14709412576E+00  0.57943559981E+01  0.00000000000E+00 0. -1.
</event>
<event>
 7    1  0.1634068E-009  0.4778727E+02  0.7816164E-02  0.1312668E+00
        -11   -1    0    0    0    0  0.00000000000E+00  0.00000000000E+00  0.45593999997E+02  0.45594000000E+02  0.51100000000E-03 0.  1.
         11   -1    0    0    0    0 -0.00000000000E+00 -0.00000000000E+00 -0.45593999997E+02  0.45594000000E+02  0.51100000000E-03 0. -1.
    9900012    2    1    2    0    0 -0.22023937013E+02 -0.12755139523E+01  0.37375697170E+02  0.47787268712E+02  0.19999989365E+02 0.  0.
         12    1    1    2    0    0  0.22023937013E+02  0.12755139523E+01 -0.37375697170E+02  0.43400731288E+02  0.00000000000E+00 0. -1.
         11    1    3    3    0    0 -0.55718639057E+01 -0.20120446835E+01  0.15488339196E+02  0.16582600595E+02  0.51100000000E-03 0.  1.
        -11    1    3    3    0    0 -0.74562820007E+01  0.45118951027E+01  0.18367284870E+01  0.89065655832E+01  0.51100000000E-03 0. -1.
         12    1    3    3    0    0 -0.89957911067E+01 -0.37753643715E+01  0.20050629487E+02  0.22298102534E+02  0.00000000000E+00 0. -1.
</event>
<event>
 7    1  0.1634068E-009  0.4778727E+02  0.7816164E-02  0.1312668E+00
        -11   -1    0    0    0    0  0.00000000000E+00  0.00000000000E+00  0.45593999997E+02  0.45594000000E+02  0.51100000000E-03 0.  1.
         11   -1    0    0    0    0 -0.00000000000E+00 -0.00000000000E+00 -0.45593999997E+02  0.45594000000E+02  0.51100000000E-03 0. -1.
    9900012    2    1    2    0    0 -0.18144197482E+02 -0.33178491790E+02  0.21297858429E+02  0.47787274276E+02  0.20000014734E+02 0.  0.
         12    1    1    2    0    0  0.18144197482E+02  0.33178491790E+02 -0.21297858429E+02  0.43400725724E+02  0.00000000000E+00 0. -1.
         11    1    3    3    0    0 -0.84975600335E+01 -0.90346366166E+00  0.62664816380E+01  0.10596865833E+02  0.51100000000E-03 0. -1.
        -11    1    3    3    0    0 -0.68990006726E+00 -0.91100698039E+01  0.48999975250E+01  0.10367222865E+02  0.51100000000E-03 0.  1.
         12    1    3    3    0    0 -0.89567373810E+01 -0.23164958325E+02  0.10131379266E+02  0.26823185577E+02  0.00000000000E+00 0. -1.
</event>
<event>
 7    1  0.1634068E-009  0.4778727E+02  0.7816164E-02  0.1312668E+00
        -11   -1    0    0    0    0  0.00000000000E+00  0.00000000000E+00  0.45593999997E+02  0.45594000000E+02  0.51100000000E-03 0.  1.
         11   -1    0    0    0    0 -0.00000000000E+00 -0.00000000000E+00 -0.45593999997E+02  0.45594000000E+02  0.51100000000E-03 0. -1.
    9900012    2    1    2    0    0  0.13753942598E+02  0.31164919841E+02  0.26892379713E+02  0.47787271293E+02  0.20000001132E+02 0.  0.
         12    1    1    2    0    0 -0.13753942598E+02 -0.31164919841E+02 -0.26892379713E+02  0.43400728707E+02  0.00000000000E+00 0. -1.
         11    1    3    3    0    0  0.52243868323E+01  0.23179977473E+02  0.17186338242E+02  0.29325343917E+02  0.51100000000E-03 0.  1.
        -11    1    3    3    0    0  0.41876487241E+01  0.44693984703E+01 -0.11695173943E+01  0.62353585077E+01  0.51100000000E-03 0. -1.
        -12    1    3    3    0    0  0.43419070417E+01  0.35155438978E+01  0.10875558865E+02  0.12226568868E+02  0.00000000000E+00 0.  1.
</event>
<event>
 7    1  0.1634068E-009  0.4778727E+02  0.7816164E-02  0.1312668E+00
        -11   -1    0    0    0    0  0.00000000000E+00  0.00000000000E+00  0.45593999997E+02  0.45594000000E+02  0.51100000000E-03 0.  1.
         11   -1    0    0    0    0 -0.00000000000E+00 -0.00000000000E+00 -0.45593999997E+02  0.45594000000E+02  0.51100000000E-03 0. -1.
    9900012    2    1    2    0    0 -0.34500959144E+02 -0.10091323348E+02  0.24320202932E+02  0.47787271211E+02  0.20000000761E+02 0.  0.
         12    1    1    2    0    0  0.34500959144E+02  0.10091323348E+02 -0.24320202932E+02  0.43400728789E+02  0.00000000000E+00 0. -1.
         11    1    3    3    0    0 -0.49380131437E+01 -0.14224384558E+01  0.11013835368E+02  0.12153677417E+02  0.51100000000E-03 0. -1.
        -11    1    3    3    0    0 -0.28774464145E+02 -0.10379436459E+02  0.13981007517E+02  0.33632886577E+02  0.51100000000E-03 0.  1.
         12    1    3    3    0    0 -0.78848185497E+00  0.17105515676E+01 -0.67463995425E+00  0.20007072172E+01  0.00000000000E+00 0. -1.
</event>
<event>
 7    1  0.1634068E-009  0.4778727E+02  0.7816164E-02  0.1312668E+00
        -11   -1    0    0    0    0  0.00000000000E+00  0.00000000000E+00  0.45593999997E+02  0.45594000000E+02  0.51100000000E-03 0.  1.
         11   -1    0    0    0    0 -0.00000000000E+00 -0.00000000000E+00 -0.45593999997E+02  0.45594000000E+02  0.51100000000E-03 0. -1.
    9900012    2    1    2    0    0 -0.90400079223E+01  0.40433553437E+02 -0.12923988079E+02  0.47787268962E+02  0.19999990506E+02 0.  0.
         12    1    1    2    0    0  0.90400079223E+01 -0.40433553437E+02  0.12923988079E+02  0.43400731038E+02  0.00000000000E+00 0. -1.
         11    1    3    3    0    0 -0.37764203157E+00 -0.52278031093E+00  0.11127964826E+01  0.12861683522E+01  0.51100000000E-03 0. -1.
        -11    1    3    3    0    0 -0.10543041558E+02  0.39636798286E+02 -0.10592220030E+02  0.42360673143E+02  0.51100000000E-03 0.  1.
         12    1    3    3    0    0  0.18806756677E+01  0.13195354614E+01 -0.34445645308E+01  0.41404274668E+01  0.00000000000E+00 0. -1.
</event>
<event>
 7    1  0.1634068E-009  0.4778728E+02  0.7816164E-02  0.1312668E+00
        -11   -1    0    0    0    0  0.00000000000E+00  0.00000000000E+00  0.45593999997E+02  0.45594000000E+02  0.51100000000E-03 0.  1.
         11   -1    0    0    0    0 -0.00000000000E+00 -0.00000000000E+00 -0.45593999997E+02  0.45594000000E+02  0.51100000000E-03 0. -1.
    9900012    2    1    2    0    0  0.10099495715E+01  0.28175324651E+02  0.32996272038E+02  0.47787275516E+02  0.20000020388E+02 0.  0.
         12    1    1    2    0    0 -0.10099495715E+01 -0.28175324651E+02 -0.32996272038E+02  0.43400724484E+02  0.00000000000E+00 0. -1.
         11    1    3    3    0    0  0.43289195124E+00 -0.14304986787E+01  0.65875862107E-01  0.14960153079E+01  0.51100000000E-03 0. -1.
        -11    1    3    3    0    0  0.61335378646E+00  0.20651153314E+02  0.12917021890E+02  0.24365873488E+02  0.51100000000E-03 0.  1.
        -12    1    3    3    0    0 -0.36296166176E-01  0.89546700152E+01  0.20013374287E+02  0.21925386720E+02  0.00000000000E+00 0.  1.
</event>
<event>
 7    1  0.1634068E-009  0.4778728E+02  0.7816164E-02  0.1312668E+00
        -11   -1    0    0    0    0  0.00000000000E+00  0.00000000000E+00  0.45593999997E+02  0.45594000000E+02  0.51100000000E-03 0. -1.
         11   -1    0    0    0    0 -0.00000000000E+00 -0.00000000000E+00 -0.45593999997E+02  0.45594000000E+02  0.51100000000E-03 0.  1.
    9900012    2    1    2    0    0 -0.23341111083E+02 -0.21077781591E+02 -0.29908902519E+02  0.47787276581E+02  0.20000025246E+02 0.  0.
         12    1    1    2    0    0  0.23341111083E+02  0.21077781591E+02  0.29908902519E+02  0.43400723419E+02  0.00000000000E+00 0. -1.
         11    1    3    3    0    0  0.94190044672E+00 -0.12189950405E+01 -0.19118968478E+01  0.24552953342E+01  0.51100000000E-03 0. -1.
        -11    1    3    3    0    0 -0.26006191066E+02 -0.17110238624E+02 -0.20805476055E+02  0.37442623755E+02  0.51100000000E-03 0.  1.
        -12    1    3    3    0    0  0.17231795367E+01 -0.27485479267E+01 -0.71915296162E+01  0.78893574923E+01  0.00000000000E+00 0.  1.
</event>
<event>
 7    1  0.1634068E-009  0.4778727E+02  0.7816164E-02  0.1312668E+00
        -11   -1    0    0    0    0  0.00000000000E+00  0.00000000000E+00  0.45593999997E+02  0.45594000000E+02  0.51100000000E-03 0. -1.
         11   -1    0    0    0    0 -0.00000000000E+00 -0.00000000000E+00 -0.45593999997E+02  0.45594000000E+02  0.51100000000E-03 0.  1.
    9900012    2    1    2    0    0  0.25939251066E+02 -0.16135766686E+02 -0.30828809912E+02  0.47787271516E+02  0.20000002148E+02 0.  0.
         12    1    1    2    0    0 -0.25939251066E+02  0.16135766686E+02  0.30828809912E+02  0.43400728484E+02  0.00000000000E+00 0. -1.
         11    1    3    3    0    0  0.58078125424E+01 -0.96920329581E+01 -0.73733348117E+01  0.13491932993E+02  0.51100000000E-03 0. -1.
        -11    1    3    3    0    0  0.83006342575E+00 -0.55286074660E+01 -0.66399628222E+01  0.86800698352E+01  0.51100000000E-03 0.  1.
        -12    1    3    3    0    0  0.19301375097E+02 -0.91512626149E+00 -0.16815512278E+02  0.25615268687E+02  0.00000000000E+00 0.  1.
</event>
<event>
 7    1  0.1634068E-009  0.4778732E+02  0.7816164E-02  0.1312668E+00
        -11   -1    0    0    0    0  0.00000000000E+00  0.00000000000E+00  0.45593999997E+02  0.45594000000E+02  0.51100000000E-03 0.  1.
         11   -1    0    0    0    0 -0.00000000000E+00 -0.00000000000E+00 -0.45593999997E+02  0.45594000000E+02  0.51100000000E-03 0. -1.
    9900012    2    1    2    0    0 -0.22956743193E+02  0.77109893727E+01  0.36015938364E+02  0.47787317616E+02  0.20000212337E+02 0.  0.
         12    1    1    2    0    0  0.22956743193E+02 -0.77109893727E+01 -0.36015938364E+02  0.43400682384E+02  0.00000000000E+00 0. -1.
         11    1    3    3    0    0 -0.43582666761E+01  0.73024493797E+01  0.50863215193E+01  0.99091332730E+01  0.51100000000E-03 0. -1.
        -11    1    3    3    0    0 -0.12400532968E+02  0.24769614179E+01  0.27988827635E+02  0.30712913056E+02  0.51100000000E-03 0.  1.
         12    1    3    3    0    0 -0.61979435496E+01 -0.20684214249E+01  0.29407892095E+01  0.71652712865E+01  0.00000000000E+00 0. -1.
</event>
<event>
 7    1  0.1634068E-009  0.4778724E+02  0.7816164E-02  0.1312668E+00
        -11   -1    0    0    0    0  0.00000000000E+00  0.00000000000E+00  0.45593999997E+02  0.45594000000E+02  0.51100000000E-03 0. -1.
         11   -1    0    0    0    0 -0.00000000000E+00 -0.00000000000E+00 -0.45593999997E+02  0.45594000000E+02  0.51100000000E-03 0.  1.
    9900012    2    1    2    0    0  0.32996800958E+02 -0.14834705878E+02  0.23974331356E+02  0.47787240376E+02  0.19999860169E+02 0.  0.
         12    1    1    2    0    0 -0.32996800958E+02  0.14834705878E+02 -0.23974331356E+02  0.43400759624E+02  0.00000000000E+00 0. -1.
         11    1    3    3    0    0 -0.14691145202E+01  0.34559047569E+00  0.35831577015E+01  0.38880264435E+01  0.51100000000E-03 0. -1.
        -11    1    3    3    0    0  0.16943320087E+02 -0.25959991686E+01  0.70514305551E+01  0.18534777592E+02  0.51100000000E-03 0.  1.
        -12    1    3    3    0    0  0.17522595391E+02 -0.12584297185E+02  0.13339743100E+02  0.25364436340E+02  0.00000000000E+00 0.  1.
</event>
<event>
 7    1  0.1634068E-009  0.4778727E+02  0.7816164E-02  0.1312668E+00
        -11   -1    0    0    0    0  0.00000000000E+00  0.00000000000E+00  0.45593999997E+02  0.45594000000E+02  0.51100000000E-03 0. -1.
         11   -1    0    0    0    0 -0.00000000000E+00 -0.00000000000E+00 -0.45593999997E+02  0.45594000000E+02  0.51100000000E-03 0.  1.
    9900012    2    1    2    0    0  0.26959979071E+01  0.12252709980E+02 -0.41547876770E+02  0.47787269929E+02  0.19999994914E+02 0.  0.
         12    1    1    2    0    0 -0.26959979071E+01 -0.12252709980E+02  0.41547876770E+02  0.43400730071E+02  0.00000000000E+00 0. -1.
         11    1    3    3    0    0  0.10549177546E+01  0.15558812449E+01  0.12419718387E+01  0.22530229085E+01  0.51100000000E-03 0. -1.
        -11    1    3    3    0    0  0.11640455133E+01  0.12535671613E+02 -0.29009268152E+02  0.31623341122E+02  0.51100000000E-03 0.  1.
        -12    1    3    3    0    0  0.47703463929E+00 -0.18388428780E+01 -0.13780580457E+02  0.13910905899E+02  0.00000000000E+00 0.  1.
</event>
<event>
 7    1  0.1634068E-009  0.4778727E+02  0.7816164E-02  0.1312668E+00
        -11   -1    0    0    0    0  0.00000000000E+00  0.00000000000E+00  0.45593999997E+02  0.45594000000E+02  0.51100000000E-03 0. -1.
         11   -1    0    0    0    0 -0.00000000000E+00 -0.00000000000E+00 -0.45593999997E+02  0.45594000000E+02  0.51100000000E-03 0.  1.
    9900012    2    1    2    0    0 -0.38471703287E+02  0.17075765425E+02  0.10581561659E+02  0.47787272289E+02  0.20000005676E+02 0.  0.
         12    1    1    2    0    0  0.38471703287E+02 -0.17075765425E+02 -0.10581561659E+02  0.43400727711E+02  0.00000000000E+00 0. -1.
         11    1    3    3    0    0 -0.38767243335E+01  0.66529818339E+01 -0.62514476666E+00  0.77254103503E+01  0.51100000000E-03 0. -1.
        -11    1    3    3    0    0 -0.18727637636E+02 -0.22699511905E+00  0.19567874112E+01  0.18830957369E+02  0.51100000000E-03 0.  1.
         12    1    3    3    0    0 -0.15867341317E+02  0.10649778710E+02  0.92499190148E+01  0.21230904570E+02  0.00000000000E+00 0. -1.
</event>
<event>
 7    1  0.1634068E-009  0.4778727E+02  0.7816164E-02  0.1312668E+00
        -11   -1    0    0    0    0  0.00000000000E+00  0.00000000000E+00  0.45593999997E+02  0.45594000000E+02  0.51100000000E-03 0. -1.
         11   -1    0    0    0    0 -0.00000000000E+00 -0.00000000000E+00 -0.45593999997E+02  0.45594000000E+02  0.51100000000E-03 0.  1.
    9900012    2    1    2    0    0  0.13223949795E+02 -0.28356886058E+02  0.30077196015E+02  0.47787267804E+02  0.19999985224E+02 0.  0.
         12    1    1    2    0    0 -0.13223949795E+02  0.28356886058E+02 -0.30077196015E+02  0.43400732196E+02  0.00000000000E+00 0. -1.
         11    1    3    3    0    0  0.85483252115E+00 -0.12600454544E+00  0.50899911231E+01  0.51628117997E+01  0.51100000000E-03 0. -1.
        -11    1    3    3    0    0  0.72485093346E+01 -0.28455834025E+02  0.22003374654E+02  0.36693648961E+02  0.51100000000E-03 0.  1.
        -12    1    3    3    0    0  0.51206079390E+01  0.22495251260E+00  0.29838302376E+01  0.59308070433E+01  0.00000000000E+00 0.  1.
</event>
<event>
 7    1  0.1634068E-009  0.4778727E+02  0.7816164E-02  0.1312668E+00
        -11   -1    0    0    0    0  0.00000000000E+00  0.00000000000E+00  0.45593999997E+02  0.45594000000E+02  0.51100000000E-03 0.  1.
         11   -1    0    0    0    0 -0.00000000000E+00 -0.00000000000E+00 -0.45593999997E+02  0.45594000000E+02  0.51100000000E-03 0. -1.
    9900012    2    1    2    0    0 -0.42558731281E+02  0.54407606628E+01  0.65403485075E+01  0.47787266787E+02  0.19999980589E+02 0.  0.
         12    1    1    2    0    0  0.42558731281E+02 -0.54407606628E+01 -0.65403485075E+01  0.43400733213E+02  0.00000000000E+00 0. -1.
         11    1    3    3    0    0 -0.33425560944E+01  0.30245861828E+01  0.40050311623E+01  0.60300147341E+01  0.51100000000E-03 0. -1.
        -11    1    3    3    0    0 -0.31535108103E+02  0.12596988314E+00  0.73856889828E+01  0.32388691136E+02  0.51100000000E-03 0.  1.
         12    1    3    3    0    0 -0.76810670831E+01  0.22902045969E+01 -0.48503716376E+01  0.93685609169E+01  0.00000000000E+00 0. -1.
</event>
<event>
 7    1  0.1634068E-009  0.4778727E+02  0.7816164E-02  0.1312668E+00
        -11   -1    0    0    0    0  0.00000000000E+00  0.00000000000E+00  0.45593999997E+02  0.45594000000E+02  0.51100000000E-03 0. -1.
         11   -1    0    0    0    0 -0.00000000000E+00 -0.00000000000E+00 -0.45593999997E+02  0.45594000000E+02  0.51100000000E-03 0.  1.
    9900012    2    1    2    0    0  0.11457269671E+02 -0.40895826997E+02 -0.89378861392E+01  0.47787268408E+02  0.19999987978E+02 0.  0.
         12    1    1    2    0    0 -0.11457269671E+02  0.40895826997E+02  0.89378861392E+01  0.43400731592E+02  0.00000000000E+00 0. -1.
         11    1    3    3    0    0  0.21379796715E+01  0.12477657987E+01  0.14768013280E+01  0.28825022095E+01  0.51100000000E-03 0. -1.
        -11    1    3    3    0    0  0.40035179088E-01 -0.12293577113E+02 -0.44981505160E+01  0.13090721881E+02  0.51100000000E-03 0.  1.
        -12    1    3    3    0    0  0.92792548209E+01 -0.29850015683E+02 -0.59165369512E+01  0.31814044317E+02  0.00000000000E+00 0.  1.
</event>
<event>
 7    1  0.1634068E-009  0.4778727E+02  0.7816164E-02  0.1312668E+00
        -11   -1    0    0    0    0  0.00000000000E+00  0.00000000000E+00  0.45593999997E+02  0.45594000000E+02  0.51100000000E-03 0.  1.
         11   -1    0    0    0    0 -0.00000000000E+00 -0.00000000000E+00 -0.45593999997E+02  0.45594000000E+02  0.51100000000E-03 0. -1.
    9900012    2    1    2    0    0  0.20125807733E+02 -0.26569085994E+02  0.27796742884E+02  0.47787269794E+02  0.19999994299E+02 0.  0.
         12    1    1    2    0    0 -0.20125807733E+02  0.26569085994E+02 -0.27796742884E+02  0.43400730206E+02  0.00000000000E+00 0. -1.
         11    1    3    3    0    0  0.14621791276E+02 -0.18597665035E+02  0.12587593822E+02  0.26797713398E+02  0.51100000000E-03 0. -1.
        -11    1    3    3    0    0  0.26316932669E+00 -0.17734523965E+00 -0.16556481818E+01  0.16857878252E+01  0.51100000000E-03 0.  1.
        -12    1    3    3    0    0  0.52408471305E+01 -0.77940757192E+01  0.16864797244E+02  0.19303768571E+02  0.00000000000E+00 0.  1.
</event>
<event>
 7    1  0.1634068E-009  0.4778728E+02  0.7816164E-02  0.1312668E+00
        -11   -1    0    0    0    0  0.00000000000E+00  0.00000000000E+00  0.45593999997E+02  0.45594000000E+02  0.51100000000E-03 0.  1.
         11   -1    0    0    0    0 -0.00000000000E+00 -0.00000000000E+00 -0.45593999997E+02  0.45594000000E+02  0.51100000000E-03 0. -1.
    9900012    2    1    2    0    0  0.23152004055E+02 -0.29197633929E+02  0.22250964647E+02  0.47787279424E+02  0.20000038204E+02 0.  0.
         12    1    1    2    0    0 -0.23152004055E+02  0.29197633929E+02 -0.22250964647E+02  0.43400720576E+02  0.00000000000E+00 0. -1.
         11    1    3    3    0    0  0.14936006794E+02 -0.99813177716E+01  0.89855362325E+01  0.20086086355E+02  0.51100000000E-03 0. -1.
        -11    1    3    3    0    0  0.37514390607E+00 -0.19180018018E+01 -0.23905688925E+01  0.30877635520E+01  0.51100000000E-03 0.  1.
        -12    1    3    3    0    0  0.78408533547E+01 -0.17298314356E+02  0.15655997307E+02  0.24613429516E+02  0.00000000000E+00 0.  1.
</event>
<event>
 7    1  0.1634068E-009  0.4778727E+02  0.7816164E-02  0.1312668E+00
        -11   -1    0    0    0    0  0.00000000000E+00  0.00000000000E+00  0.45593999997E+02  0.45594000000E+02  0.51100000000E-03 0. -1.
         11   -1    0    0    0    0 -0.00000000000E+00 -0.00000000000E+00 -0.45593999997E+02  0.45594000000E+02  0.51100000000E-03 0.  1.
    9900012    2    1    2    0    0  0.79008076950E+00  0.21969426982E+02 -0.37421161533E+02  0.47787270973E+02  0.19999999675E+02 0.  0.
         12    1    1    2    0    0 -0.79008076950E+00 -0.21969426982E+02  0.37421161533E+02  0.43400729027E+02  0.00000000000E+00 0. -1.
         11    1    3    3    0    0  0.13571577819E+01  0.72251285172E+01 -0.86649044840E+01  0.11363315067E+02  0.51100000000E-03 0. -1.
        -11    1    3    3    0    0  0.54234019496E+01  0.50871031112E+01 -0.21954750551E+02  0.23179796781E+02  0.51100000000E-03 0.  1.
         12    1    3    3    0    0 -0.59904789621E+01  0.96571953538E+01 -0.68015064982E+01  0.13244159126E+02  0.00000000000E+00 0. -1.
</event>
<event>
 7    1  0.1634068E-009  0.4778727E+02  0.7816164E-02  0.1312668E+00
        -11   -1    0    0    0    0  0.00000000000E+00  0.00000000000E+00  0.45593999997E+02  0.45594000000E+02  0.51100000000E-03 0.  1.
         11   -1    0    0    0    0 -0.00000000000E+00 -0.00000000000E+00 -0.45593999997E+02  0.45594000000E+02  0.51100000000E-03 0. -1.
    9900012    2    1    2    0    0 -0.28103643494E+02 -0.33052038439E+02  0.11708738199E+01  0.47787274567E+02  0.20000016059E+02 0.  0.
         12    1    1    2    0    0  0.28103643494E+02  0.33052038439E+02 -0.11708738199E+01  0.43400725433E+02  0.00000000000E+00 0. -1.
         11    1    3    3    0    0 -0.35714570165E+01 -0.15001951703E+01 -0.10081845583E+01  0.40027899188E+01  0.51100000000E-03 0. -1.
        -11    1    3    3    0    0 -0.18720364874E+02 -0.17127188705E+02 -0.61996888107E+01  0.26119509864E+02  0.51100000000E-03 0.  1.
         12    1    3    3    0    0 -0.58118216043E+01 -0.14424654564E+02  0.83787471890E+01  0.17664974784E+02  0.00000000000E+00 0. -1.
</event>
<event>
 7    1  0.1634068E-009  0.4778726E+02  0.7816164E-02  0.1312668E+00
        -11   -1    0    0    0    0  0.00000000000E+00  0.00000000000E+00  0.45593999997E+02  0.45594000000E+02  0.51100000000E-03 0.  1.
         11   -1    0    0    0    0 -0.00000000000E+00 -0.00000000000E+00 -0.45593999997E+02  0.45594000000E+02  0.51100000000E-03 0. -1.
    9900012    2    1    2    0    0 -0.23304771458E+02 -0.35923274878E+02  0.70731824662E+01  0.47787263130E+02  0.19999963915E+02 0.  0.
         12    1    1    2    0    0  0.23304771458E+02  0.35923274878E+02 -0.70731824662E+01  0.43400736870E+02  0.00000000000E+00 0. -1.
         11    1    3    3    0    0  0.46743097287E+00  0.56363864745E+00  0.29767295419E+01  0.30654688493E+01  0.51100000000E-03 0. -1.
        -11    1    3    3    0    0 -0.72379987254E+01 -0.18635411036E+02 -0.30863723676E+00  0.19994059798E+02  0.51100000000E-03 0.  1.
        -12    1    3    3    0    0 -0.16534203705E+02 -0.17851502490E+02  0.44050901610E+01  0.24727734482E+02  0.00000000000E+00 0.  1.
</event>
<event>
 7    1  0.1634068E-009  0.4778727E+02  0.7816164E-02  0.1312668E+00
        -11   -1    0    0    0    0  0.00000000000E+00  0.00000000000E+00  0.45593999997E+02  0.45594000000E+02  0.51100000000E-03 0. -1.
         11   -1    0    0    0    0 -0.00000000000E+00 -0.00000000000E+00 -0.45593999997E+02  0.45594000000E+02  0.51100000000E-03 0.  1.
    9900012    2    1    2    0    0  0.36031398218E+02  0.22325037509E+02  0.93249240912E+01  0.47787272280E+02  0.20000005633E+02 0.  0.
         12    1    1    2    0    0 -0.36031398218E+02 -0.22325037509E+02 -0.93249240912E+01  0.43400727720E+02  0.00000000000E+00 0. -1.
         11    1    3    3    0    0  0.30461478127E+02  0.14729492866E+02  0.11572419548E+02  0.35760040607E+02  0.51100000000E-03 0. -1.
        -11    1    3    3    0    0  0.66861282577E+01  0.77633102096E+01 -0.92318452571E+00  0.10287155409E+02  0.51100000000E-03 0.  1.
         12    1    3    3    0    0 -0.11162081670E+01 -0.16776556616E+00 -0.13243109315E+01  0.17400762629E+01  0.00000000000E+00 0. -1.
</event>
<event>
 7    1  0.1634068E-009  0.4778727E+02  0.7816164E-02  0.1312668E+00
        -11   -1    0    0    0    0  0.00000000000E+00  0.00000000000E+00  0.45593999997E+02  0.45594000000E+02  0.51100000000E-03 0.  1.
         11   -1    0    0    0    0 -0.00000000000E+00 -0.00000000000E+00 -0.45593999997E+02  0.45594000000E+02  0.51100000000E-03 0. -1.
    9900012    2    1    2    0    0 -0.96873031825E+01 -0.41771460124E+02  0.67026021167E+01  0.47787267299E+02  0.19999982923E+02 0.  0.
         12    1    1    2    0    0  0.96873031825E+01  0.41771460124E+02 -0.67026021167E+01  0.43400732701E+02  0.00000000000E+00 0. -1.
         11    1    3    3    0    0 -0.58872595813E+01 -0.20723812735E+02 -0.40949274883E+01  0.21929538779E+02  0.51100000000E-03 0. -1.
        -11    1    3    3    0    0 -0.30212324000E+01 -0.82477973699E+00  0.24050613126E+01  0.39487247319E+01  0.51100000000E-03 0.  1.
         12    1    3    3    0    0 -0.77881120120E+00 -0.20222867652E+02  0.83924682925E+01  0.21909003789E+02  0.00000000000E+00 0. -1.
</event>
<event>
 7    1  0.1634068E-009  0.4778727E+02  0.7816164E-02  0.1312668E+00
        -11   -1    0    0    0    0  0.00000000000E+00  0.00000000000E+00  0.45593999997E+02  0.45594000000E+02  0.51100000000E-03 0. -1.
         11   -1    0    0    0    0 -0.00000000000E+00 -0.00000000000E+00 -0.45593999997E+02  0.45594000000E+02  0.51100000000E-03 0.  1.
    9900012    2    1    2    0    0  0.42798479642E+02  0.21242065688E+01  0.68848646532E+01  0.47787268733E+02  0.19999989463E+02 0.  0.
         12    1    1    2    0    0 -0.42798479642E+02 -0.21242065688E+01 -0.68848646532E+01  0.43400731267E+02  0.00000000000E+00 0. -1.
         11    1    3    3    0    0  0.13381062747E+02 -0.60491750559E+01 -0.17119145580E+01  0.14784316380E+02  0.51100000000E-03 0. -1.
        -11    1    3    3    0    0  0.47550700847E+01 -0.17408782029E+01 -0.99491009306E-02  0.50637385076E+01  0.51100000000E-03 0.  1.
        -12    1    3    3    0    0  0.24662346810E+02  0.99142598276E+01  0.86067283122E+01  0.27939213846E+02  0.00000000000E+00 0.  1.
</event>
<event>
 7    1  0.1634068E-009  0.4778725E+02  0.7816164E-02  0.1312668E+00
        -11   -1    0    0    0    0  0.00000000000E+00  0.00000000000E+00  0.45593999997E+02  0.45594000000E+02  0.51100000000E-03 0.  1.
         11   -1    0    0    0    0 -0.00000000000E+00 -0.00000000000E+00 -0.45593999997E+02  0.45594000000E+02  0.51100000000E-03 0. -1.
    9900012    2    1    2    0    0  0.25171519200E+02  0.19843949797E+02  0.29261530964E+02  0.47787252118E+02  0.19999913704E+02 0.  0.
         12    1    1    2    0    0 -0.25171519200E+02 -0.19843949797E+02 -0.29261530964E+02  0.43400747882E+02  0.00000000000E+00 0. -1.
         11    1    3    3    0    0  0.72535542311E+01  0.32233571961E+00  0.23796404018E+01  0.76407223482E+01  0.51100000000E-03 0. -1.
        -11    1    3    3    0    0  0.11279826653E+02  0.76039664821E+01  0.21581967708E+02  0.25511490078E+02  0.51100000000E-03 0.  1.
         12    1    3    3    0    0  0.66381383164E+01  0.11917647595E+02  0.52999228543E+01  0.14635039691E+02  0.00000000000E+00 0. -1.
</event>
<event>
 7    1  0.1634068E-009  0.4778727E+02  0.7816164E-02  0.1312668E+00
        -11   -1    0    0    0    0  0.00000000000E+00  0.00000000000E+00  0.45593999997E+02  0.45594000000E+02  0.51100000000E-03 0.  1.
         11   -1    0    0    0    0 -0.00000000000E+00 -0.00000000000E+00 -0.45593999997E+02  0.45594000000E+02  0.51100000000E-03 0. -1.
    9900012    2    1    2    0    0  0.18676157574E+02 -0.37141691443E+02  0.12462701587E+02  0.47787273787E+02  0.20000012506E+02 0.  0.
         12    1    1    2    0    0 -0.18676157574E+02  0.37141691443E+02 -0.12462701587E+02  0.43400726213E+02  0.00000000000E+00 0. -1.
         11    1    3    3    0    0  0.10803717798E+02 -0.95722782999E+01  0.11968024420E+02  0.18750531696E+02  0.51100000000E-03 0. -1.
        -11    1    3    3    0    0 -0.82816164668E-01 -0.58701283260E+01 -0.58617199692E+00  0.58999036392E+01  0.51100000000E-03 0.  1.
         12    1    3    3    0    0  0.79552559409E+01 -0.21699284817E+02  0.10808491641E+01  0.23136838452E+02  0.00000000000E+00 0. -1.
</event>
<event>
 7    1  0.1634068E-009  0.4778727E+02  0.7816164E-02  0.1312668E+00
        -11   -1    0    0    0    0  0.00000000000E+00  0.00000000000E+00  0.45593999997E+02  0.45594000000E+02  0.51100000000E-03 0.  1.
         11   -1    0    0    0    0 -0.00000000000E+00 -0.00000000000E+00 -0.45593999997E+02  0.45594000000E+02  0.51100000000E-03 0. -1.
    9900012    2    1    2    0    0  0.80529382029E+01 -0.42639749042E+02  0.79075707084E+00  0.47787270642E+02  0.19999998166E+02 0.  0.
         12    1    1    2    0    0 -0.80529382029E+01  0.42639749042E+02 -0.79075707084E+00  0.43400729358E+02  0.00000000000E+00 0. -1.
         11    1    3    3    0    0  0.18667949575E+01  0.32157491418E+00 -0.10009813017E+01  0.21424979968E+01  0.51100000000E-03 0. -1.
        -11    1    3    3    0    0  0.65825650810E+00 -0.19967150416E+02  0.74604913729E+01  0.21325555776E+02  0.51100000000E-03 0.  1.
         12    1    3    3    0    0  0.55278867374E+01 -0.22994173540E+02 -0.56687530004E+01  0.24319216870E+02  0.00000000000E+00 0. -1.
</event>
<event>
 7    1  0.1634068E-009  0.4778729E+02  0.7816164E-02  0.1312668E+00
        -11   -1    0    0    0    0  0.00000000000E+00  0.00000000000E+00  0.45593999997E+02  0.45594000000E+02  0.51100000000E-03 0. -1.
         11   -1    0    0    0    0 -0.00000000000E+00 -0.00000000000E+00 -0.45593999997E+02  0.45594000000E+02  0.51100000000E-03 0.  1.
    9900012    2    1    2    0    0  0.22940082428E+02 -0.12168729346E+02 -0.34774942084E+02  0.47787286266E+02  0.20000069400E+02 0.  0.
         12    1    1    2    0    0 -0.22940082428E+02  0.12168729346E+02  0.34774942084E+02  0.43400713734E+02  0.00000000000E+00 0. -1.
         11    1    3    3    0    0  0.29481941325E+01 -0.51530946195E+01 -0.44476317572E+01  0.74180631777E+01  0.51100000000E-03 0. -1.
        -11    1    3    3    0    0  0.56443662639E+01  0.32934114866E+01 -0.17078945204E+02  0.18286492263E+02  0.51100000000E-03 0.  1.
        -12    1    3    3    0    0  0.14347522031E+02 -0.10309046213E+02 -0.13248365123E+02  0.22082730825E+02  0.00000000000E+00 0.  1.
</event>
<event>
 7    1  0.1634068E-009  0.4778727E+02  0.7816164E-02  0.1312668E+00
        -11   -1    0    0    0    0  0.00000000000E+00  0.00000000000E+00  0.45593999997E+02  0.45594000000E+02  0.51100000000E-03 0. -1.
         11   -1    0    0    0    0 -0.00000000000E+00 -0.00000000000E+00 -0.45593999997E+02  0.45594000000E+02  0.51100000000E-03 0.  1.
    9900012    2    1    2    0    0 -0.31419152412E+02  0.29707329866E+02 -0.37329072620E+01  0.47787272095E+02  0.20000004791E+02 0.  0.
         12    1    1    2    0    0  0.31419152412E+02 -0.29707329866E+02  0.37329072620E+01  0.43400727905E+02  0.00000000000E+00 0. -1.
         11    1    3    3    0    0 -0.11359409792E+02  0.15621753433E+02 -0.79629850002E+01  0.20892211503E+02  0.51100000000E-03 0. -1.
        -11    1    3    3    0    0 -0.18676047918E+02  0.14141272019E+02  0.10762069336E+01  0.23450555681E+02  0.51100000000E-03 0.  1.
        -12    1    3    3    0    0 -0.13836947029E+01 -0.55695586048E-01  0.31538708046E+01  0.34445049109E+01  0.00000000000E+00 0.  1.
</event>
<event>
 7    1  0.1634068E-009  0.4778725E+02  0.7816164E-02  0.1312668E+00
        -11   -1    0    0    0    0  0.00000000000E+00  0.00000000000E+00  0.45593999997E+02  0.45594000000E+02  0.51100000000E-03 0. -1.
         11   -1    0    0    0    0 -0.00000000000E+00 -0.00000000000E+00 -0.45593999997E+02  0.45594000000E+02  0.51100000000E-03 0.  1.
    9900012    2    1    2    0    0 -0.33795206364E+02  0.13492064257E+02 -0.23653182978E+02  0.47787253046E+02  0.19999917939E+02 0.  0.
         12    1    1    2    0    0  0.33795206364E+02 -0.13492064257E+02  0.23653182978E+02  0.43400746954E+02  0.00000000000E+00 0. -1.
         11    1    3    3    0    0 -0.24565191032E+02  0.35715290199E+01 -0.75613800028E+01  0.25949545232E+02  0.51100000000E-03 0. -1.
        -11    1    3    3    0    0 -0.81553342574E+01  0.57619479632E+01 -0.84921557980E+01  0.13108250514E+02  0.51100000000E-03 0.  1.
        -12    1    3    3    0    0 -0.10746810754E+01  0.41585872744E+01 -0.75996471773E+01  0.87294573000E+01  0.00000000000E+00 0.  1.
</event>
<event>
 7    1  0.1634068E-009  0.4778727E+02  0.7816164E-02  0.1312668E+00
        -11   -1    0    0    0    0  0.00000000000E+00  0.00000000000E+00  0.45593999997E+02  0.45594000000E+02  0.51100000000E-03 0.  1.
         11   -1    0    0    0    0 -0.00000000000E+00 -0.00000000000E+00 -0.45593999997E+02  0.45594000000E+02  0.51100000000E-03 0. -1.
    9900012    2    1    2    0    0  0.19988097638E+02 -0.31825257838E+02  0.21708349588E+02  0.47787268146E+02  0.19999986786E+02 0.  0.
         12    1    1    2    0    0 -0.19988097638E+02  0.31825257838E+02 -0.21708349588E+02  0.43400731854E+02  0.00000000000E+00 0. -1.
         11    1    3    3    0    0  0.91511435175E+01 -0.27135549516E+01  0.96414401893E+01  0.13567025368E+02  0.51100000000E-03 0. -1.
        -11    1    3    3    0    0  0.14249915350E+01 -0.14342097918E+02  0.67671048736E+01  0.15922313971E+02  0.51100000000E-03 0.  1.
        -12    1    3    3    0    0  0.94119625852E+01 -0.14769604968E+02  0.52998045246E+01  0.18297928807E+02  0.00000000000E+00 0.  1.
</event>
<event>
 7    1  0.1634068E-009  0.4778727E+02  0.7816164E-02  0.1312668E+00
        -11   -1    0    0    0    0  0.00000000000E+00  0.00000000000E+00  0.45593999997E+02  0.45594000000E+02  0.51100000000E-03 0. -1.
         11   -1    0    0    0    0 -0.00000000000E+00 -0.00000000000E+00 -0.45593999997E+02  0.45594000000E+02  0.51100000000E-03 0.  1.
    9900012    2    1    2    0    0  0.36672581555E+02  0.15759319570E+02 -0.17040810438E+02  0.47787267154E+02  0.19999982262E+02 0.  0.
         12    1    1    2    0    0 -0.36672581555E+02 -0.15759319570E+02  0.17040810438E+02  0.43400732846E+02  0.00000000000E+00 0. -1.
         11    1    3    3    0    0  0.48987518549E+01  0.11903252079E-01  0.35182450006E+01  0.60312485912E+01  0.51100000000E-03 0. -1.
        -11    1    3    3    0    0  0.11674743350E+02  0.90912884495E+01 -0.55517680462E+01  0.15804217369E+02  0.51100000000E-03 0.  1.
        -12    1    3    3    0    0  0.20099086350E+02  0.66561278680E+01 -0.15007287393E+02  0.25951801194E+02  0.00000000000E+00 0.  1.
</event>
<event>
 7    1  0.1634068E-009  0.4778727E+02  0.7816164E-02  0.1312668E+00
        -11   -1    0    0    0    0  0.00000000000E+00  0.00000000000E+00  0.45593999997E+02  0.45594000000E+02  0.51100000000E-03 0.  1.
         11   -1    0    0    0    0 -0.00000000000E+00 -0.00000000000E+00 -0.45593999997E+02  0.45594000000E+02  0.51100000000E-03 0. -1.
    9900012    2    1    2    0    0 -0.32745243018E+02 -0.26672677637E+02  0.99970365982E+01  0.47787269438E+02  0.19999992674E+02 0.  0.
         12    1    1    2    0    0  0.32745243018E+02  0.26672677637E+02 -0.99970365982E+01  0.43400730562E+02  0.00000000000E+00 0. -1.
         11    1    3    3    0    0 -0.71320112191E+01 -0.12459530757E+02 -0.16631772864E+01  0.14452392524E+02  0.51100000000E-03 0. -1.
        -11    1    3    3    0    0 -0.52657996135E+01 -0.33629287345E+01  0.77355541182E+01  0.99436780428E+01  0.51100000000E-03 0.  1.
        -12    1    3    3    0    0 -0.20347432185E+02 -0.10850218145E+02  0.39246597664E+01  0.23391198871E+02  0.00000000000E+00 0.  1.
</event>
<event>
 7    1  0.1634068E-009  0.4778727E+02  0.7816164E-02  0.1312668E+00
        -11   -1    0    0    0    0  0.00000000000E+00  0.00000000000E+00  0.45593999997E+02  0.45594000000E+02  0.51100000000E-03 0. -1.
         11   -1    0    0    0    0 -0.00000000000E+00 -0.00000000000E+00 -0.45593999997E+02  0.45594000000E+02  0.51100000000E-03 0.  1.
    9900012    2    1    2    0    0  0.15234270530E+02 -0.66255420033E+01 -0.40095417713E+02  0.47787270433E+02  0.19999997211E+02 0.  0.
         12    1    1    2    0    0 -0.15234270530E+02  0.66255420033E+01  0.40095417713E+02  0.43400729567E+02  0.00000000000E+00 0. -1.
         11    1    3    3    0    0  0.10297011904E+01 -0.19251351280E+01 -0.13439690054E+00  0.21873483012E+01  0.51100000000E-03 0. -1.
        -11    1    3    3    0    0 -0.15457798540E+01 -0.56104797980E+01 -0.73655830251E+01  0.93871578490E+01  0.51100000000E-03 0.  1.
        -12    1    3    3    0    0  0.15750349194E+02  0.91007292275E+00 -0.32595437787E+02  0.36212764282E+02  0.00000000000E+00 0.  1.
</event>
<event>
 7    1  0.1634068E-009  0.4778729E+02  0.7816164E-02  0.1312668E+00
        -11   -1    0    0    0    0  0.00000000000E+00  0.00000000000E+00  0.45593999997E+02  0.45594000000E+02  0.51100000000E-03 0.  1.
         11   -1    0    0    0    0 -0.00000000000E+00 -0.00000000000E+00 -0.45593999997E+02  0.45594000000E+02  0.51100000000E-03 0. -1.
    9900012    2    1    2    0    0  0.98411126192E+01  0.40579582906E+02  0.11835190619E+02  0.47787288216E+02  0.20000078290E+02 0.  0.
         12    1    1    2    0    0 -0.98411126192E+01 -0.40579582906E+02 -0.11835190619E+02  0.43400711784E+02  0.00000000000E+00 0. -1.
         11    1    3    3    0    0  0.69354607011E+01  0.30232100946E+02 -0.31596658494E+00  0.31019032511E+02  0.51100000000E-03 0. -1.
        -11    1    3    3    0    0  0.26031761155E+01  0.71593349399E+01  0.55305846832E+01  0.94138180283E+01  0.51100000000E-03 0.  1.
         12    1    3    3    0    0  0.30247580263E+00  0.31881470197E+01  0.66205725211E+01  0.73544376765E+01  0.00000000000E+00 0. -1.
</event>
<event>
 7    1  0.1634068E-009  0.4778727E+02  0.7816164E-02  0.1312668E+00
        -11   -1    0    0    0    0  0.00000000000E+00  0.00000000000E+00  0.45593999997E+02  0.45594000000E+02  0.51100000000E-03 0. -1.
         11   -1    0    0    0    0 -0.00000000000E+00 -0.00000000000E+00 -0.45593999997E+02  0.45594000000E+02  0.51100000000E-03 0.  1.
    9900012    2    1    2    0    0  0.17516242787E+02  0.16701874592E+02 -0.36025712293E+02  0.47787270484E+02  0.19999997444E+02 0.  0.
         12    1    1    2    0    0 -0.17516242787E+02 -0.16701874592E+02  0.36025712293E+02  0.43400729516E+02  0.00000000000E+00 0. -1.
         11    1    3    3    0    0  0.60314753819E+01  0.12995204770E+02 -0.15719701216E+02  0.21268828103E+02  0.51100000000E-03 0. -1.
        -11    1    3    3    0    0  0.11244165765E+02  0.10771572328E+01 -0.20949474846E+02  0.23800672849E+02  0.51100000000E-03 0.  1.
         12    1    3    3    0    0  0.24060163976E+00  0.26295125893E+01  0.64346376882E+00  0.27177695318E+01  0.00000000000E+00 0. -1.
</event>
<event>
 7    1  0.1634068E-009  0.4778727E+02  0.7816164E-02  0.1312668E+00
        -11   -1    0    0    0    0  0.00000000000E+00  0.00000000000E+00  0.45593999997E+02  0.45594000000E+02  0.51100000000E-03 0.  1.
         11   -1    0    0    0    0 -0.00000000000E+00 -0.00000000000E+00 -0.45593999997E+02  0.45594000000E+02  0.51100000000E-03 0. -1.
    9900012    2    1    2    0    0  0.79098136092E+01 -0.15718695866E+02  0.39673426125E+02  0.47787270841E+02  0.19999999073E+02 0.  0.
         12    1    1    2    0    0 -0.79098136092E+01  0.15718695866E+02 -0.39673426125E+02  0.43400729159E+02  0.00000000000E+00 0. -1.
         11    1    3    3    0    0 -0.68632979831E+00  0.22903381803E+01  0.97819752390E+01  0.10069942274E+02  0.51100000000E-03 0. -1.
        -11    1    3    3    0    0  0.16221119240E+01 -0.57152088221E+01  0.16972232650E+01  0.61786265502E+01  0.51100000000E-03 0.  1.
        -12    1    3    3    0    0  0.69740314835E+01 -0.12293825224E+02  0.28194227621E+02  0.31538702017E+02  0.00000000000E+00 0.  1.
</event>
<event>
 7    1  0.1634068E-009  0.4778727E+02  0.7816164E-02  0.1312668E+00
        -11   -1    0    0    0    0  0.00000000000E+00  0.00000000000E+00  0.45593999997E+02  0.45594000000E+02  0.51100000000E-03 0.  1.
         11   -1    0    0    0    0 -0.00000000000E+00 -0.00000000000E+00 -0.45593999997E+02  0.45594000000E+02  0.51100000000E-03 0. -1.
    9900012    2    1    2    0    0  0.35022824862E+02  0.20074143178E+02  0.15939058565E+02  0.47787273352E+02  0.20000010521E+02 0.  0.
         12    1    1    2    0    0 -0.35022824862E+02 -0.20074143178E+02 -0.15939058565E+02  0.43400726648E+02  0.00000000000E+00 0. -1.
         11    1    3    3    0    0  0.10380054388E+02  0.97704522675E+01 -0.97679201852E+00  0.14288505503E+02  0.51100000000E-03 0. -1.
        -11    1    3    3    0    0  0.93714163525E+01 -0.14483171677E+01  0.39470482206E+01  0.10271331802E+02  0.51100000000E-03 0.  1.
         12    1    3    3    0    0  0.15271354121E+02  0.11752008078E+02  0.12968802363E+02  0.23227436047E+02  0.00000000000E+00 0. -1.
</event>
<event>
 7    1  0.1634068E-009  0.4778727E+02  0.7816164E-02  0.1312668E+00
        -11   -1    0    0    0    0  0.00000000000E+00  0.00000000000E+00  0.45593999997E+02  0.45594000000E+02  0.51100000000E-03 0.  1.
         11   -1    0    0    0    0 -0.00000000000E+00 -0.00000000000E+00 -0.45593999997E+02  0.45594000000E+02  0.51100000000E-03 0. -1.
    9900012    2    1    2    0    0  0.22430256822E+02  0.34142685374E+02  0.14655507064E+02  0.47787271055E+02  0.20000000048E+02 0.  0.
         12    1    1    2    0    0 -0.22430256822E+02 -0.34142685374E+02 -0.14655507064E+02  0.43400728945E+02  0.00000000000E+00 0. -1.
         11    1    3    3    0    0  0.49666973891E+01  0.42432266965E+01 -0.15617605001E+01  0.67165580377E+01  0.51100000000E-03 0. -1.
        -11    1    3    3    0    0  0.43446727846E+01  0.21983056480E+02  0.93904822431E+01  0.24296339453E+02  0.51100000000E-03 0.  1.
         12    1    3    3    0    0  0.13118886649E+02  0.79164021975E+01  0.68267853214E+01  0.16774373564E+02  0.00000000000E+00 0. -1.
</event>
<event>
 7    1  0.1634068E-009  0.4778727E+02  0.7816164E-02  0.1312668E+00
        -11   -1    0    0    0    0  0.00000000000E+00  0.00000000000E+00  0.45593999997E+02  0.45594000000E+02  0.51100000000E-03 0.  1.
         11   -1    0    0    0    0 -0.00000000000E+00 -0.00000000000E+00 -0.45593999997E+02  0.45594000000E+02  0.51100000000E-03 0. -1.
    9900012    2    1    2    0    0 -0.24862492860E+02  0.10863479835E+02  0.33874241188E+02  0.47787274644E+02  0.20000016413E+02 0.  0.
         12    1    1    2    0    0  0.24862492860E+02 -0.10863479835E+02 -0.33874241188E+02  0.43400725356E+02  0.00000000000E+00 0. -1.
         11    1    3    3    0    0 -0.16957638046E+02  0.84752894317E+01  0.17783292893E+02  0.25993028401E+02  0.51100000000E-03 0. -1.
        -11    1    3    3    0    0 -0.35776320128E+00  0.28690240634E+01 -0.10366047606E+01  0.30714562142E+01  0.51100000000E-03 0.  1.
        -12    1    3    3    0    0 -0.75470916125E+01 -0.48083365959E+00  0.17127553056E+02  0.18722790030E+02  0.00000000000E+00 0.  1.
</event>
<event>
 7    1  0.1634068E-009  0.4778727E+02  0.7816164E-02  0.1312668E+00
        -11   -1    0    0    0    0  0.00000000000E+00  0.00000000000E+00  0.45593999997E+02  0.45594000000E+02  0.51100000000E-03 0. -1.
         11   -1    0    0    0    0 -0.00000000000E+00 -0.00000000000E+00 -0.45593999997E+02  0.45594000000E+02  0.51100000000E-03 0.  1.
    9900012    2    1    2    0    0 -0.22822319394E+02  0.16048859776E+02 -0.33244534488E+02  0.47787271481E+02  0.20000001992E+02 0.  0.
         12    1    1    2    0    0  0.22822319394E+02 -0.16048859776E+02  0.33244534488E+02  0.43400728519E+02  0.00000000000E+00 0. -1.
         11    1    3    3    0    0 -0.37475907109E+01  0.79891910352E+01 -0.44618608301E+01  0.98883675024E+01  0.51100000000E-03 0. -1.
        -11    1    3    3    0    0 -0.66810121868E+01  0.31616815030E+01 -0.15093938230E+01  0.75438997700E+01  0.51100000000E-03 0.  1.
        -12    1    3    3    0    0 -0.12393716497E+02  0.48979872380E+01 -0.27273279835E+02  0.30355004209E+02  0.00000000000E+00 0.  1.
</event>
<event>
 7    1  0.1634068E-009  0.4778722E+02  0.7816164E-02  0.1312668E+00
        -11   -1    0    0    0    0  0.00000000000E+00  0.00000000000E+00  0.45593999997E+02  0.45594000000E+02  0.51100000000E-03 0.  1.
         11   -1    0    0    0    0 -0.00000000000E+00 -0.00000000000E+00 -0.45593999997E+02  0.45594000000E+02  0.51100000000E-03 0. -1.
    9900012    2    1    2    0    0  0.40954119389E+01 -0.29644506957E+02  0.31433398721E+02  0.47787219514E+02  0.19999765051E+02 0.  0.
         12    1    1    2    0    0 -0.40954119389E+01  0.29644506957E+02 -0.31433398721E+02  0.43400780486E+02  0.00000000000E+00 0. -1.
         11    1    3    3    0    0 -0.44434662913E+01 -0.10345556957E+02  0.13127308605E+02  0.17294541709E+02  0.51100000000E-03 0.  1.
        -11    1    3    3    0    0  0.84589043754E+01 -0.20510703320E+02  0.18895838020E+02  0.29142661317E+02  0.51100000000E-03 0. -1.
         12    1    3    3    0    0  0.79973854725E-01  0.12117533203E+01 -0.58974790464E+00  0.13500164880E+01  0.00000000000E+00 0. -1.
</event>
<event>
 7    1  0.1634068E-009  0.4778727E+02  0.7816164E-02  0.1312668E+00
        -11   -1    0    0    0    0  0.00000000000E+00  0.00000000000E+00  0.45593999997E+02  0.45594000000E+02  0.51100000000E-03 0.  1.
         11   -1    0    0    0    0 -0.00000000000E+00 -0.00000000000E+00 -0.45593999997E+02  0.45594000000E+02  0.51100000000E-03 0. -1.
    9900012    2    1    2    0    0  0.32829769683E+02  0.15966499127E+02  0.23471267274E+02  0.47787271213E+02  0.20000000768E+02 0.  0.
         12    1    1    2    0    0 -0.32829769683E+02 -0.15966499127E+02 -0.23471267274E+02  0.43400728787E+02  0.00000000000E+00 0. -1.
         11    1    3    3    0    0  0.60835007472E+01  0.11249850775E+02  0.71280865154E+01  0.14641644083E+02  0.51100000000E-03 0. -1.
        -11    1    3    3    0    0  0.21586925913E+02  0.64360250248E+01  0.16125676072E+02  0.27702982105E+02  0.51100000000E-03 0.  1.
        -12    1    3    3    0    0  0.51593430236E+01 -0.17193766736E+01  0.21750468646E+00  0.54426450251E+01  0.00000000000E+00 0.  1.
</event>
<event>
 7    1  0.1634068E-009  0.4778728E+02  0.7816164E-02  0.1312668E+00
        -11   -1    0    0    0    0  0.00000000000E+00  0.00000000000E+00  0.45593999997E+02  0.45594000000E+02  0.51100000000E-03 0.  1.
         11   -1    0    0    0    0 -0.00000000000E+00 -0.00000000000E+00 -0.45593999997E+02  0.45594000000E+02  0.51100000000E-03 0. -1.
    9900012    2    1    2    0    0 -0.28635212475E+02 -0.37973989020E+01  0.32391772925E+02  0.47787278980E+02  0.20000036179E+02 0.  0.
         12    1    1    2    0    0  0.28635212475E+02  0.37973989020E+01 -0.32391772925E+02  0.43400721020E+02  0.00000000000E+00 0. -1.
         11    1    3    3    0    0 -0.69083610985E+01 -0.71205614999E-01  0.28117640425E+01  0.74589905885E+01  0.51100000000E-03 0. -1.
        -11    1    3    3    0    0 -0.68069889713E+01  0.30338120052E+00 -0.15657134875E+00  0.68155450154E+01  0.51100000000E-03 0.  1.
         12    1    3    3    0    0 -0.14919862405E+02 -0.40295744875E+01  0.29736580231E+02  0.33512743376E+02  0.00000000000E+00 0. -1.
</event>
<event>
 7    1  0.1634068E-009  0.4778727E+02  0.7816164E-02  0.1312668E+00
        -11   -1    0    0    0    0  0.00000000000E+00  0.00000000000E+00  0.45593999997E+02  0.45594000000E+02  0.51100000000E-03 0.  1.
         11   -1    0    0    0    0 -0.00000000000E+00 -0.00000000000E+00 -0.45593999997E+02  0.45594000000E+02  0.51100000000E-03 0. -1.
    9900012    2    1    2    0    0  0.37444973828E+02 -0.30331979360E+01  0.21732394184E+02  0.47787270609E+02  0.19999998013E+02 0.  0.
         12    1    1    2    0    0 -0.37444973828E+02  0.30331979360E+01 -0.21732394184E+02  0.43400729391E+02  0.00000000000E+00 0. -1.
         11    1    3    3    0    0  0.11837250061E+02  0.25860784433E+01  0.16505807041E+02  0.20475594181E+02  0.51100000000E-03 0. -1.
        -11    1    3    3    0    0  0.66246995137E+01 -0.19008882432E+00 -0.78223385715E+00  0.66734299634E+01  0.51100000000E-03 0.  1.
        -12    1    3    3    0    0  0.18983024253E+02 -0.54291875549E+01  0.60088210005E+01  0.20638246464E+02  0.00000000000E+00 0.  1.
</event>
<event>
 7    1  0.1634068E-009  0.4778727E+02  0.7816164E-02  0.1312668E+00
        -11   -1    0    0    0    0  0.00000000000E+00  0.00000000000E+00  0.45593999997E+02  0.45594000000E+02  0.51100000000E-03 0. -1.
         11   -1    0    0    0    0 -0.00000000000E+00 -0.00000000000E+00 -0.45593999997E+02  0.45594000000E+02  0.51100000000E-03 0.  1.
    9900012    2    1    2    0    0  0.19679142656E+02  0.28429745566E+02  0.26231744486E+02  0.47787268354E+02  0.19999987734E+02 0.  0.
         12    1    1    2    0    0 -0.19679142656E+02 -0.28429745566E+02 -0.26231744486E+02  0.43400731646E+02  0.00000000000E+00 0. -1.
         11    1    3    3    0    0  0.58114516240E+01  0.17694386304E+02  0.13214291748E+02  0.22835975638E+02  0.51100000000E-03 0. -1.
        -11    1    3    3    0    0  0.10660629829E+02  0.85982577888E+01  0.15250076524E+02  0.20497412022E+02  0.51100000000E-03 0.  1.
        -12    1    3    3    0    0  0.32070612031E+01  0.21371014727E+01 -0.22326237864E+01  0.44538806940E+01  0.00000000000E+00 0.  1.
</event>
<event>
 7    1  0.1634068E-009  0.4778728E+02  0.7816164E-02  0.1312668E+00
        -11   -1    0    0    0    0  0.00000000000E+00  0.00000000000E+00  0.45593999997E+02  0.45594000000E+02  0.51100000000E-03 0.  1.
         11   -1    0    0    0    0 -0.00000000000E+00 -0.00000000000E+00 -0.45593999997E+02  0.45594000000E+02  0.51100000000E-03 0. -1.
    9900012    2    1    2    0    0  0.26903182803E+02 -0.90764312679E+01  0.32824679723E+02  0.47787280555E+02  0.20000043360E+02 0.  0.
         12    1    1    2    0    0 -0.26903182803E+02  0.90764312679E+01 -0.32824679723E+02  0.43400719445E+02  0.00000000000E+00 0. -1.
         11    1    3    3    0    0  0.26282395806E+01 -0.68785351373E+01  0.60471107135E+01  0.95283491314E+01  0.51100000000E-03 0. -1.
        -11    1    3    3    0    0  0.19258301804E+02 -0.59198063452E+01  0.15703484340E+02  0.25544582914E+02  0.51100000000E-03 0.  1.
         12    1    3    3    0    0  0.50166414179E+01  0.37219102146E+01  0.11074084669E+02  0.12714348509E+02  0.00000000000E+00 0. -1.
</event>
<event>
 7    1  0.1634068E-009  0.4778727E+02  0.7816164E-02  0.1312668E+00
        -11   -1    0    0    0    0  0.00000000000E+00  0.00000000000E+00  0.45593999997E+02  0.45594000000E+02  0.51100000000E-03 0.  1.
         11   -1    0    0    0    0 -0.00000000000E+00 -0.00000000000E+00 -0.45593999997E+02  0.45594000000E+02  0.51100000000E-03 0. -1.
    9900012    2    1    2    0    0 -0.19000413325E+02 -0.38975253101E+02 -0.18808714081E+01  0.47787265696E+02  0.19999975615E+02 0.  0.
         12    1    1    2    0    0  0.19000413325E+02  0.38975253101E+02  0.18808714081E+01  0.43400734304E+02  0.00000000000E+00 0. -1.
         11    1    3    3    0    0 -0.19172758015E+02 -0.21067225603E+02  0.49453617276E+00  0.28489773793E+02  0.51100000000E-03 0. -1.
        -11    1    3    3    0    0 -0.21497025817E+01 -0.12695917641E+02  0.54387333648E+00  0.12888108644E+02  0.51100000000E-03 0.  1.
         12    1    3    3    0    0  0.23220472711E+01 -0.52121098568E+01 -0.29192809173E+01  0.64093832592E+01  0.00000000000E+00 0. -1.
</event>
<event>
 7    1  0.1634068E-009  0.4778727E+02  0.7816164E-02  0.1312668E+00
        -11   -1    0    0    0    0  0.00000000000E+00  0.00000000000E+00  0.45593999997E+02  0.45594000000E+02  0.51100000000E-03 0. -1.
         11   -1    0    0    0    0 -0.00000000000E+00 -0.00000000000E+00 -0.45593999997E+02  0.45594000000E+02  0.51100000000E-03 0.  1.
    9900012    2    1    2    0    0  0.42499613965E+02 -0.82263882580E+01  0.31196726834E+01  0.47787274100E+02  0.20000013932E+02 0.  0.
         12    1    1    2    0    0 -0.42499613965E+02  0.82263882580E+01 -0.31196726834E+01  0.43400725900E+02  0.00000000000E+00 0. -1.
         11    1    3    3    0    0  0.11777974251E+02 -0.20776925669E+01 -0.14599986525E+01  0.12048613206E+02  0.51100000000E-03 0. -1.
        -11    1    3    3    0    0  0.18358165730E+02 -0.26712256483E+01 -0.55693616337E+01  0.19369447196E+02  0.51100000000E-03 0.  1.
         12    1    3    3    0    0  0.12363473984E+02 -0.34774700428E+01  0.10149032970E+02  0.16369213698E+02  0.00000000000E+00 0. -1.
</event>
<event>
 7    1  0.1634068E-009  0.4778728E+02  0.7816164E-02  0.1312668E+00
        -11   -1    0    0    0    0  0.00000000000E+00  0.00000000000E+00  0.45593999997E+02  0.45594000000E+02  0.51100000000E-03 0.  1.
         11   -1    0    0    0    0 -0.00000000000E+00 -0.00000000000E+00 -0.45593999997E+02  0.45594000000E+02  0.51100000000E-03 0. -1.
    9900012    2    1    2    0    0 -0.14830873957E+02 -0.40733244258E+02  0.21143117477E+01  0.47787281985E+02  0.20000049882E+02 0.  0.
         12    1    1    2    0    0  0.14830873957E+02  0.40733244258E+02 -0.21143117477E+01  0.43400718015E+02  0.00000000000E+00 0. -1.
         11    1    3    3    0    0  0.32505347423E+01 -0.10569548223E+02  0.20065730638E+01  0.11238668136E+02  0.51100000000E-03 0. -1.
        -11    1    3    3    0    0 -0.78284019683E+01 -0.59572073283E+01  0.25048550410E+01  0.10151181979E+02  0.51100000000E-03 0.  1.
        -12    1    3    3    0    0 -0.10253006731E+02 -0.24206488706E+02 -0.23971163571E+01  0.26397431870E+02  0.00000000000E+00 0.  1.
</event>
<event>
 7    1  0.1634068E-009  0.4778725E+02  0.7816164E-02  0.1312668E+00
        -11   -1    0    0    0    0  0.00000000000E+00  0.00000000000E+00  0.45593999997E+02  0.45594000000E+02  0.51100000000E-03 0.  1.
         11   -1    0    0    0    0 -0.00000000000E+00 -0.00000000000E+00 -0.45593999997E+02  0.45594000000E+02  0.51100000000E-03 0. -1.
    9900012    2    1    2    0    0  0.29332634691E+02 -0.79784189064E+01  0.30976866441E+02  0.47787252533E+02  0.19999915598E+02 0.  0.
         12    1    1    2    0    0 -0.29332634691E+02  0.79784189064E+01 -0.30976866441E+02  0.43400747467E+02  0.00000000000E+00 0. -1.
         11    1    3    3    0    0 -0.75679546410E-01  0.18696444269E+01 -0.38527106482E+00  0.19104271070E+01  0.51100000000E-03 0. -1.
        -11    1    3    3    0    0  0.19064035068E+02  0.15527004773E+00  0.16936499530E+02  0.25501108965E+02  0.51100000000E-03 0.  1.
         12    1    3    3    0    0  0.10344279170E+02 -0.10003333381E+02  0.14425637976E+02  0.20375716461E+02  0.00000000000E+00 0. -1.
</event>
<event>
 7    1  0.1634068E-009  0.4778727E+02  0.7816164E-02  0.1312668E+00
        -11   -1    0    0    0    0  0.00000000000E+00  0.00000000000E+00  0.45593999997E+02  0.45594000000E+02  0.51100000000E-03 0.  1.
         11   -1    0    0    0    0 -0.00000000000E+00 -0.00000000000E+00 -0.45593999997E+02  0.45594000000E+02  0.51100000000E-03 0. -1.
    9900012    2    1    2    0    0  0.41099083818E+02 -0.12969583490E+02  0.51262601800E+01  0.47787270398E+02  0.19999997051E+02 0.  0.
         12    1    1    2    0    0 -0.41099083818E+02  0.12969583490E+02 -0.51262601800E+01  0.43400729602E+02  0.00000000000E+00 0. -1.
         11    1    3    3    0    0  0.10288274439E+02 -0.30368398744E+01  0.73224225849E+01  0.12988027569E+02  0.51100000000E-03 0. -1.
        -11    1    3    3    0    0  0.12553635994E+02  0.20058355624E+01 -0.26245231223E+01  0.12980958164E+02  0.51100000000E-03 0.  1.
        -12    1    3    3    0    0  0.18257173385E+02 -0.11938579178E+02  0.42836071741E+00  0.21818284665E+02  0.00000000000E+00 0.  1.
</event>
<event>
 7    1  0.1634068E-009  0.4778727E+02  0.7816164E-02  0.1312668E+00
        -11   -1    0    0    0    0  0.00000000000E+00  0.00000000000E+00  0.45593999997E+02  0.45594000000E+02  0.51100000000E-03 0.  1.
         11   -1    0    0    0    0 -0.00000000000E+00 -0.00000000000E+00 -0.45593999997E+02  0.45594000000E+02  0.51100000000E-03 0. -1.
    9900012    2    1    2    0    0  0.26268202912E+02  0.14276752766E+02  0.31460754379E+02  0.47787271667E+02  0.20000002838E+02 0.  0.
         12    1    1    2    0    0 -0.26268202912E+02 -0.14276752766E+02 -0.31460754379E+02  0.43400728333E+02  0.00000000000E+00 0. -1.
         11    1    3    3    0    0  0.10002582673E+02 -0.10892066593E+01  0.27347856884E+01  0.10426748500E+02  0.51100000000E-03 0. -1.
        -11    1    3    3    0    0  0.89387628855E+01  0.38398912349E+01  0.15805786667E+02  0.18559879823E+02  0.51100000000E-03 0.  1.
         12    1    3    3    0    0  0.73268573539E+01  0.11526068190E+02  0.12920182023E+02  0.18800643343E+02  0.00000000000E+00 0. -1.
</event>
<event>
 7    1  0.1634068E-009  0.4778727E+02  0.7816164E-02  0.1312668E+00
        -11   -1    0    0    0    0  0.00000000000E+00  0.00000000000E+00  0.45593999997E+02  0.45594000000E+02  0.51100000000E-03 0.  1.
         11   -1    0    0    0    0 -0.00000000000E+00 -0.00000000000E+00 -0.45593999997E+02  0.45594000000E+02  0.51100000000E-03 0. -1.
    9900012    2    1    2    0    0 -0.64676130991E+01  0.37374494319E+02  0.21093608244E+02  0.47787272431E+02  0.20000006322E+02 0.  0.
         12    1    1    2    0    0  0.64676130991E+01 -0.37374494319E+02 -0.21093608244E+02  0.43400727569E+02  0.00000000000E+00 0. -1.
         11    1    3    3    0    0 -0.45775805549E+01  0.62132530614E+01  0.49029294707E+01  0.91431654802E+01  0.51100000000E-03 0. -1.
        -11    1    3    3    0    0 -0.66633350635E+01  0.80463058337E+01  0.94769964178E+01  0.14105195252E+02  0.51100000000E-03 0.  1.
         12    1    3    3    0    0  0.47733025193E+01  0.23114935424E+02  0.67136823551E+01  0.24538911699E+02  0.00000000000E+00 0. -1.
</event>
<event>
 7    1  0.1634068E-009  0.4778727E+02  0.7816164E-02  0.1312668E+00
        -11   -1    0    0    0    0  0.00000000000E+00  0.00000000000E+00  0.45593999997E+02  0.45594000000E+02  0.51100000000E-03 0. -1.
         11   -1    0    0    0    0 -0.00000000000E+00 -0.00000000000E+00 -0.45593999997E+02  0.45594000000E+02  0.51100000000E-03 0.  1.
    9900012    2    1    2    0    0  0.31580731148E+02 -0.22963184721E+02 -0.18946576488E+02  0.47787271976E+02  0.20000004247E+02 0.  0.
         12    1    1    2    0    0 -0.31580731148E+02  0.22963184721E+02  0.18946576488E+02  0.43400728024E+02  0.00000000000E+00 0. -1.
         11    1    3    3    0    0 -0.89551709109E+00  0.93728325884E-01 -0.30910830996E+01  0.32195544489E+01  0.51100000000E-03 0. -1.
        -11    1    3    3    0    0  0.20562847804E+02 -0.81923971313E+01 -0.11829388931E+02  0.25097420651E+02  0.51100000000E-03 0.  1.
         12    1    3    3    0    0  0.11913400435E+02 -0.14864515916E+02 -0.40261044574E+01  0.19470296876E+02  0.00000000000E+00 0. -1.
</event>
<event>
 7    1  0.1634068E-009  0.4778727E+02  0.7816164E-02  0.1312668E+00
        -11   -1    0    0    0    0  0.00000000000E+00  0.00000000000E+00  0.45593999997E+02  0.45594000000E+02  0.51100000000E-03 0. -1.
         11   -1    0    0    0    0 -0.00000000000E+00 -0.00000000000E+00 -0.45593999997E+02  0.45594000000E+02  0.51100000000E-03 0.  1.
    9900012    2    1    2    0    0 -0.36451952820E+02  0.11812393062E+02 -0.20380036598E+02  0.47787269753E+02  0.19999994110E+02 0.  0.
         12    1    1    2    0    0  0.36451952820E+02 -0.11812393062E+02  0.20380036598E+02  0.43400730247E+02  0.00000000000E+00 0. -1.
         11    1    3    3    0    0 -0.62429269992E+01  0.19641496104E+01 -0.13160746041E+02  0.14698205939E+02  0.51100000000E-03 0. -1.
        -11    1    3    3    0    0 -0.10524181155E+02  0.63685466581E+01 -0.26372592252E+01  0.12580616520E+02  0.51100000000E-03 0.  1.
         12    1    3    3    0    0 -0.19684844666E+02  0.34796967933E+01 -0.45820313319E+01  0.20508447294E+02  0.00000000000E+00 0. -1.
</event>
<event>
 7    1  0.1634068E-009  0.4778725E+02  0.7816164E-02  0.1312668E+00
        -11   -1    0    0    0    0  0.00000000000E+00  0.00000000000E+00  0.45593999997E+02  0.45594000000E+02  0.51100000000E-03 0.  1.
         11   -1    0    0    0    0 -0.00000000000E+00 -0.00000000000E+00 -0.45593999997E+02  0.45594000000E+02  0.51100000000E-03 0. -1.
    9900012    2    1    2    0    0 -0.26698635603E+02 -0.28376069638E+02  0.19120841521E+02  0.47787250564E+02  0.19999906619E+02 0.  0.
         12    1    1    2    0    0  0.26698635603E+02  0.28376069638E+02 -0.19120841521E+02  0.43400749436E+02  0.00000000000E+00 0. -1.
         11    1    3    3    0    0 -0.89693870428E+01 -0.34908444452E+01 -0.26710921962E-01  0.96247915613E+01  0.51100000000E-03 0. -1.
        -11    1    3    3    0    0 -0.76495806793E+01 -0.71998014953E+01  0.13368092717E+02  0.17001739008E+02  0.51100000000E-03 0.  1.
         12    1    3    3    0    0 -0.10079667881E+02 -0.17685423698E+02  0.57794597259E+01  0.21160719994E+02  0.00000000000E+00 0. -1.
</event>
<event>
 7    1  0.1634068E-009  0.4778727E+02  0.7816164E-02  0.1312668E+00
        -11   -1    0    0    0    0  0.00000000000E+00  0.00000000000E+00  0.45593999997E+02  0.45594000000E+02  0.51100000000E-03 0.  1.
         11   -1    0    0    0    0 -0.00000000000E+00 -0.00000000000E+00 -0.45593999997E+02  0.45594000000E+02  0.51100000000E-03 0. -1.
    9900012    2    1    2    0    0  0.39749521204E+02 -0.17166900504E+02  0.29827576019E+01  0.47787265539E+02  0.19999974899E+02 0.  0.
         12    1    1    2    0    0 -0.39749521204E+02  0.17166900504E+02 -0.29827576019E+01  0.43400734461E+02  0.00000000000E+00 0. -1.
         11    1    3    3    0    0  0.37822025331E+01  0.42147248120E+01  0.14844718134E+01  0.58542820284E+01  0.51100000000E-03 0.  1.
        -11    1    3    3    0    0  0.26666241633E+02 -0.15618183239E+02  0.20987809763E+01  0.30974521342E+02  0.51100000000E-03 0. -1.
        -12    1    3    3    0    0  0.93010770372E+01 -0.57634420773E+01 -0.60049518784E+00  0.10958462169E+02  0.00000000000E+00 0.  1.
</event>
<event>
 7    1  0.1634068E-009  0.4778726E+02  0.7816164E-02  0.1312668E+00
        -11   -1    0    0    0    0  0.00000000000E+00  0.00000000000E+00  0.45593999997E+02  0.45594000000E+02  0.51100000000E-03 0. -1.
         11   -1    0    0    0    0 -0.00000000000E+00 -0.00000000000E+00 -0.45593999997E+02  0.45594000000E+02  0.51100000000E-03 0.  1.
    9900012    2    1    2    0    0  0.96341779752E+01 -0.40012248137E+02 -0.13777765656E+02  0.47787260229E+02  0.19999950687E+02 0.  0.
         12    1    1    2    0    0 -0.96341779752E+01  0.40012248137E+02  0.13777765656E+02  0.43400739771E+02  0.00000000000E+00 0. -1.
         11    1    3    3    0    0 -0.13339385074E+01 -0.64699733076E+01 -0.49000909911E+01  0.82250129803E+01  0.51100000000E-03 0. -1.
        -11    1    3    3    0    0  0.66455536829E+01 -0.18020198903E+02  0.31398544097E+01  0.19461491161E+02  0.51100000000E-03 0.  1.
        -12    1    3    3    0    0  0.43225627997E+01 -0.15522075926E+02 -0.12017529075E+02  0.20100756087E+02  0.00000000000E+00 0.  1.
</event>
<event>
 7    1  0.1634068E-009  0.4778727E+02  0.7816164E-02  0.1312668E+00
        -11   -1    0    0    0    0  0.00000000000E+00  0.00000000000E+00  0.45593999997E+02  0.45594000000E+02  0.51100000000E-03 0.  1.
         11   -1    0    0    0    0 -0.00000000000E+00 -0.00000000000E+00 -0.45593999997E+02  0.45594000000E+02  0.51100000000E-03 0. -1.
    9900012    2    1    2    0    0 -0.20043569650E+02  0.20486050943E+02  0.32591417619E+02  0.47787268786E+02  0.19999989702E+02 0.  0.
         12    1    1    2    0    0  0.20043569650E+02 -0.20486050943E+02 -0.32591417619E+02  0.43400731214E+02  0.00000000000E+00 0. -1.
         11    1    3    3    0    0  0.17514546119E+01  0.55077651542E+01  0.20469814117E+01  0.61313296610E+01  0.51100000000E-03 0. -1.
        -11    1    3    3    0    0 -0.12161544584E+02  0.11070082006E+02  0.11866258941E+02  0.20279496636E+02  0.51100000000E-03 0.  1.
         12    1    3    3    0    0 -0.96334796774E+01  0.39082037830E+01  0.18678177266E+02  0.21376442489E+02  0.00000000000E+00 0. -1.
</event>
<event>
 7    1  0.1634068E-009  0.4778727E+02  0.7816164E-02  0.1312668E+00
        -11   -1    0    0    0    0  0.00000000000E+00  0.00000000000E+00  0.45593999997E+02  0.45594000000E+02  0.51100000000E-03 0. -1.
         11   -1    0    0    0    0 -0.00000000000E+00 -0.00000000000E+00 -0.45593999997E+02  0.45594000000E+02  0.51100000000E-03 0.  1.
    9900012    2    1    2    0    0  0.14489052638E+02  0.15067869906E+02 -0.38034855182E+02  0.47787267765E+02  0.19999985047E+02 0.  0.
         12    1    1    2    0    0 -0.14489052638E+02 -0.15067869906E+02  0.38034855182E+02  0.43400732235E+02  0.00000000000E+00 0. -1.
         11    1    3    3    0    0 -0.19594650872E+01  0.54242899283E+01 -0.11087548124E+02  0.12497845747E+02  0.51100000000E-03 0.  1.
        -11    1    3    3    0    0  0.57581042964E+01  0.51186794747E+01 -0.22921600347E+01  0.80380745542E+01  0.51100000000E-03 0. -1.
         12    1    3    3    0    0  0.10690413429E+02  0.45249005027E+01 -0.24655147024E+02  0.27251347464E+02  0.00000000000E+00 0. -1.
</event>
<event>
 7    1  0.1634068E-009  0.4778727E+02  0.7816164E-02  0.1312668E+00
        -11   -1    0    0    0    0  0.00000000000E+00  0.00000000000E+00  0.45593999997E+02  0.45594000000E+02  0.51100000000E-03 0.  1.
         11   -1    0    0    0    0 -0.00000000000E+00 -0.00000000000E+00 -0.45593999997E+02  0.45594000000E+02  0.51100000000E-03 0. -1.
    9900012    2    1    2    0    0  0.11257287587E+01  0.22323485659E+02  0.37202393312E+02  0.47787270221E+02  0.19999996245E+02 0.  0.
         12    1    1    2    0    0 -0.11257287587E+01 -0.22323485659E+02 -0.37202393312E+02  0.43400729779E+02  0.00000000000E+00 0. -1.
         11    1    3    3    0    0 -0.84484754706E+01  0.42121126860E+01  0.11632945015E+02  0.14981456572E+02  0.51100000000E-03 0. -1.
        -11    1    3    3    0    0  0.34042898013E+01  0.48383781894E+01  0.73821377752E+01  0.94601823950E+01  0.51100000000E-03 0.  1.
         12    1    3    3    0    0  0.61699144280E+01  0.13272994784E+02  0.18187310522E+02  0.23345631253E+02  0.00000000000E+00 0. -1.
</event>
<event>
 7    1  0.1634068E-009  0.4778727E+02  0.7816164E-02  0.1312668E+00
        -11   -1    0    0    0    0  0.00000000000E+00  0.00000000000E+00  0.45593999997E+02  0.45594000000E+02  0.51100000000E-03 0.  1.
         11   -1    0    0    0    0 -0.00000000000E+00 -0.00000000000E+00 -0.45593999997E+02  0.45594000000E+02  0.51100000000E-03 0. -1.
    9900012    2    1    2    0    0 -0.16245181020E+02  0.66195134313E+01  0.39697600649E+02  0.47787270032E+02  0.19999995386E+02 0.  0.
         12    1    1    2    0    0  0.16245181020E+02 -0.66195134313E+01 -0.39697600649E+02  0.43400729968E+02  0.00000000000E+00 0. -1.
         11    1    3    3    0    0 -0.90576498479E+01 -0.13000476656E+01  0.19018450822E+02  0.21105274616E+02  0.51100000000E-03 0. -1.
        -11    1    3    3    0    0  0.23518541777E+01  0.25751970481E+00  0.10507908898E+02  0.10770964865E+02  0.51100000000E-03 0.  1.
         12    1    3    3    0    0 -0.95393853493E+01  0.76620413921E+01  0.10171240929E+02  0.15911030551E+02  0.00000000000E+00 0. -1.
</event>
<event>
 7    1  0.1634068E-009  0.4778727E+02  0.7816164E-02  0.1312668E+00
        -11   -1    0    0    0    0  0.00000000000E+00  0.00000000000E+00  0.45593999997E+02  0.45594000000E+02  0.51100000000E-03 0.  1.
         11   -1    0    0    0    0 -0.00000000000E+00 -0.00000000000E+00 -0.45593999997E+02  0.45594000000E+02  0.51100000000E-03 0. -1.
    9900012    2    1    2    0    0  0.98759198533E+01 -0.29144571362E+02  0.30605285858E+02  0.47787270107E+02  0.19999995724E+02 0.  0.
         12    1    1    2    0    0 -0.98759198533E+01  0.29144571362E+02 -0.30605285858E+02  0.43400729893E+02  0.00000000000E+00 0. -1.
         11    1    3    3    0    0 -0.11785997322E+01 -0.16517354646E+00 -0.19402704203E+00  0.12058301635E+01  0.51100000000E-03 0. -1.
        -11    1    3    3    0    0  0.48137609868E+01 -0.15316359985E+01  0.27411945108E+00  0.50589865985E+01  0.51100000000E-03 0.  1.
        -12    1    3    3    0    0  0.62407585987E+01 -0.27447761817E+02  0.30525193449E+02  0.41522453345E+02  0.00000000000E+00 0.  1.
</event>
<event>
 7    1  0.1634068E-009  0.4778726E+02  0.7816164E-02  0.1312668E+00
        -11   -1    0    0    0    0  0.00000000000E+00  0.00000000000E+00  0.45593999997E+02  0.45594000000E+02  0.51100000000E-03 0. -1.
         11   -1    0    0    0    0 -0.00000000000E+00 -0.00000000000E+00 -0.45593999997E+02  0.45594000000E+02  0.51100000000E-03 0.  1.
    9900012    2    1    2    0    0 -0.97224549148E+00  0.42042033363E+02 -0.10730628392E+02  0.47787260188E+02  0.19999950500E+02 0.  0.
         12    1    1    2    0    0  0.97224549148E+00 -0.42042033363E+02  0.10730628392E+02  0.43400739812E+02  0.00000000000E+00 0. -1.
         11    1    3    3    0    0  0.56957099657E+01  0.85162045241E+01 -0.58257183610E+01  0.11785832435E+02  0.51100000000E-03 0. -1.
        -11    1    3    3    0    0 -0.15743996837E+00  0.24307250132E+02 -0.22803930649E+01  0.24414491375E+02  0.51100000000E-03 0.  1.
        -12    1    3    3    0    0 -0.65105154888E+01  0.92185787066E+01 -0.26245169661E+01  0.11586936377E+02  0.00000000000E+00 0.  1.
</event>
<event>
 7    1  0.1634068E-009  0.4778728E+02  0.7816164E-02  0.1312668E+00
        -11   -1    0    0    0    0  0.00000000000E+00  0.00000000000E+00  0.45593999997E+02  0.45594000000E+02  0.51100000000E-03 0.  1.
         11   -1    0    0    0    0 -0.00000000000E+00 -0.00000000000E+00 -0.45593999997E+02  0.45594000000E+02  0.51100000000E-03 0. -1.
    9900012    2    1    2    0    0  0.32578099999E+02  0.25745877432E+02  0.12626957261E+02  0.47787275882E+02  0.20000022058E+02 0.  0.
         12    1    1    2    0    0 -0.32578099999E+02 -0.25745877432E+02 -0.12626957261E+02  0.43400724118E+02  0.00000000000E+00 0. -1.
         11    1    3    3    0    0  0.91945128918E+01  0.69229388480E+01  0.10771971131E+02  0.15763930725E+02  0.51100000000E-03 0. -1.
        -11    1    3    3    0    0  0.14178111386E+02  0.44039084356E+01  0.13712663952E+01  0.14909514539E+02  0.51100000000E-03 0.  1.
         12    1    3    3    0    0  0.92054757206E+01  0.14419030148E+02  0.48371973550E+00  0.17113830618E+02  0.00000000000E+00 0. -1.
</event>
<event>
 7    1  0.1634068E-009  0.4778727E+02  0.7816164E-02  0.1312668E+00
        -11   -1    0    0    0    0  0.00000000000E+00  0.00000000000E+00  0.45593999997E+02  0.45594000000E+02  0.51100000000E-03 0.  1.
         11   -1    0    0    0    0 -0.00000000000E+00 -0.00000000000E+00 -0.45593999997E+02  0.45594000000E+02  0.51100000000E-03 0. -1.
    9900012    2    1    2    0    0 -0.39920455367E+02 -0.16677803865E+02  0.34396927373E+01  0.47787269769E+02  0.19999994183E+02 0.  0.
         12    1    1    2    0    0  0.39920455367E+02  0.16677803865E+02 -0.34396927373E+01  0.43400730231E+02  0.00000000000E+00 0. -1.
         11    1    3    3    0    0 -0.19800126673E+02 -0.14903014307E+02  0.56568862385E+00  0.24788401634E+02  0.51100000000E-03 0.  1.
        -11    1    3    3    0    0 -0.73418914007E+01 -0.57928833748E+01  0.20768852077E+01  0.95798914170E+01  0.51100000000E-03 0. -1.
         12    1    3    3    0    0 -0.12778437294E+02  0.40180938169E+01  0.79711890573E+00  0.13418976718E+02  0.00000000000E+00 0. -1.
</event>
<event>
 7    1  0.1634068E-009  0.4778727E+02  0.7816164E-02  0.1312668E+00
        -11   -1    0    0    0    0  0.00000000000E+00  0.00000000000E+00  0.45593999997E+02  0.45594000000E+02  0.51100000000E-03 0.  1.
         11   -1    0    0    0    0 -0.00000000000E+00 -0.00000000000E+00 -0.45593999997E+02  0.45594000000E+02  0.51100000000E-03 0. -1.
    9900012    2    1    2    0    0  0.21952634933E+02  0.17574276569E+02  0.33058283098E+02  0.47787268914E+02  0.19999990287E+02 0.  0.
         12    1    1    2    0    0 -0.21952634933E+02 -0.17574276569E+02 -0.33058283098E+02  0.43400731086E+02  0.00000000000E+00 0. -1.
         11    1    3    3    0    0  0.12862707045E+01 -0.18544153326E+01  0.48633575018E+01  0.53614918635E+01  0.51100000000E-03 0. -1.
        -11    1    3    3    0    0 -0.89589971734E+00 -0.14216825111E+01  0.11254540334E+01  0.20224896807E+01  0.51100000000E-03 0.  1.
        -12    1    3    3    0    0  0.21562263946E+02  0.20850374413E+02  0.27069471563E+02  0.40403287370E+02  0.00000000000E+00 0.  1.
</event>
<event>
 7    1  0.1634068E-009  0.4778727E+02  0.7816164E-02  0.1312668E+00
        -11   -1    0    0    0    0  0.00000000000E+00  0.00000000000E+00  0.45593999997E+02  0.45594000000E+02  0.51100000000E-03 0. -1.
         11   -1    0    0    0    0 -0.00000000000E+00 -0.00000000000E+00 -0.45593999997E+02  0.45594000000E+02  0.51100000000E-03 0.  1.
    9900012    2    1    2    0    0  0.14251974417E+02  0.28144036394E+02 -0.29806338654E+02  0.47787269784E+02  0.19999994251E+02 0.  0.
         12    1    1    2    0    0 -0.14251974417E+02 -0.28144036394E+02  0.29806338654E+02  0.43400730216E+02  0.00000000000E+00 0. -1.
         11    1    3    3    0    0  0.12195946402E+02  0.78968625848E+01 -0.14698133003E+02  0.20667284808E+02  0.51100000000E-03 0. -1.
        -11    1    3    3    0    0  0.22450100060E+01  0.33235388871E+01 -0.76234801905E+01  0.86141413465E+01  0.51100000000E-03 0.  1.
         12    1    3    3    0    0 -0.18898199123E+00  0.16923634922E+02 -0.74847254611E+01  0.18505843629E+02  0.00000000000E+00 0. -1.
</event>
<event>
 7    1  0.1634068E-009  0.4778727E+02  0.7816164E-02  0.1312668E+00
        -11   -1    0    0    0    0  0.00000000000E+00  0.00000000000E+00  0.45593999997E+02  0.45594000000E+02  0.51100000000E-03 0.  1.
         11   -1    0    0    0    0 -0.00000000000E+00 -0.00000000000E+00 -0.45593999997E+02  0.45594000000E+02  0.51100000000E-03 0. -1.
    9900012    2    1    2    0    0  0.23816032997E+02  0.26779625860E+02  0.24480023736E+02  0.47787270155E+02  0.19999995945E+02 0.  0.
         12    1    1    2    0    0 -0.23816032997E+02 -0.26779625860E+02 -0.24480023736E+02  0.43400729845E+02  0.00000000000E+00 0. -1.
         11    1    3    3    0    0  0.31368588635E+01  0.63001317045E+01 -0.42918259777E+00  0.70509390145E+01  0.51100000000E-03 0. -1.
        -11    1    3    3    0    0  0.21588625981E+02  0.21566391397E+02  0.24787171767E+02  0.39313889328E+02  0.51100000000E-03 0.  1.
        -12    1    3    3    0    0 -0.90945184742E+00 -0.10868972406E+01  0.12203456643E+00  0.14224418125E+01  0.00000000000E+00 0.  1.
</event>
<event>
 7    1  0.1634068E-009  0.4778729E+02  0.7816164E-02  0.1312668E+00
        -11   -1    0    0    0    0  0.00000000000E+00  0.00000000000E+00  0.45593999997E+02  0.45594000000E+02  0.51100000000E-03 0.  1.
         11   -1    0    0    0    0 -0.00000000000E+00 -0.00000000000E+00 -0.45593999997E+02  0.45594000000E+02  0.51100000000E-03 0. -1.
    9900012    2    1    2    0    0  0.41020106763E+01 -0.40102152291E+02  0.16081441213E+02  0.47787287316E+02  0.20000074188E+02 0.  0.
         12    1    1    2    0    0 -0.41020106763E+01  0.40102152291E+02 -0.16081441213E+02  0.43400712684E+02  0.00000000000E+00 0. -1.
         11    1    3    3    0    0  0.70137947485E+00 -0.41389666863E+01 -0.21137083802E+01  0.47000789117E+01  0.51100000000E-03 0. -1.
        -11    1    3    3    0    0 -0.47635298699E+01 -0.24521432071E+02  0.12322817143E+02  0.27853970457E+02  0.51100000000E-03 0.  1.
        -12    1    3    3    0    0  0.81641610714E+01 -0.11441753534E+02  0.58723324505E+01  0.15233237947E+02  0.00000000000E+00 0.  1.
</event>
<event>
 7    1  0.1634068E-009  0.4778727E+02  0.7816164E-02  0.1312668E+00
        -11   -1    0    0    0    0  0.00000000000E+00  0.00000000000E+00  0.45593999997E+02  0.45594000000E+02  0.51100000000E-03 0.  1.
         11   -1    0    0    0    0 -0.00000000000E+00 -0.00000000000E+00 -0.45593999997E+02  0.45594000000E+02  0.51100000000E-03 0. -1.
    9900012    2    1    2    0    0 -0.77742032009E+01  0.24105917504E+02  0.35243294135E+02  0.47787271024E+02  0.19999999908E+02 0.  0.
         12    1    1    2    0    0  0.77742032009E+01 -0.24105917504E+02 -0.35243294135E+02  0.43400728976E+02  0.00000000000E+00 0. -1.
         11    1    3    3    0    0  0.34733363426E+01  0.12472040642E+02  0.71013032678E+01  0.14766325592E+02  0.51100000000E-03 0.  1.
        -11    1    3    3    0    0 -0.21115859445E+01  0.56813223100E+01  0.13183255099E+02  0.14509804742E+02  0.51100000000E-03 0. -1.
        -12    1    3    3    0    0 -0.91359535990E+01  0.59525545525E+01  0.14958735769E+02  0.18511140690E+02  0.00000000000E+00 0.  1.
</event>
<event>
 7    1  0.1634068E-009  0.4778727E+02  0.7816164E-02  0.1312668E+00
        -11   -1    0    0    0    0  0.00000000000E+00  0.00000000000E+00  0.45593999997E+02  0.45594000000E+02  0.51100000000E-03 0. -1.
         11   -1    0    0    0    0 -0.00000000000E+00 -0.00000000000E+00 -0.45593999997E+02  0.45594000000E+02  0.51100000000E-03 0.  1.
    9900012    2    1    2    0    0 -0.36738490227E+02  0.20028010460E+02 -0.11523277365E+02  0.47787265117E+02  0.19999972975E+02 0.  0.
         12    1    1    2    0    0  0.36738490227E+02 -0.20028010460E+02  0.11523277365E+02  0.43400734883E+02  0.00000000000E+00 0. -1.
         11    1    3    3    0    0 -0.32077768866E+01 -0.26232080402E+01 -0.62703188525E+00  0.41909691269E+01  0.51100000000E-03 0.  1.
        -11    1    3    3    0    0 -0.17029386828E+01  0.31498155065E+01  0.20034673779E+01  0.41030744177E+01  0.51100000000E-03 0. -1.
        -12    1    3    3    0    0 -0.31827774657E+02  0.19501402994E+02 -0.12899712858E+02  0.39493221573E+02  0.00000000000E+00 0.  1.
</event>
<event>
 7    1  0.1634068E-009  0.4778727E+02  0.7816164E-02  0.1312668E+00
        -11   -1    0    0    0    0  0.00000000000E+00  0.00000000000E+00  0.45593999997E+02  0.45594000000E+02  0.51100000000E-03 0.  1.
         11   -1    0    0    0    0 -0.00000000000E+00 -0.00000000000E+00 -0.45593999997E+02  0.45594000000E+02  0.51100000000E-03 0. -1.
    9900012    2    1    2    0    0  0.37055397823E+02  0.14390552040E+02 -0.17419324627E+02  0.47787269980E+02  0.19999995146E+02 0.  0.
         12    1    1    2    0    0 -0.37055397823E+02 -0.14390552040E+02  0.17419324627E+02  0.43400730020E+02  0.00000000000E+00 0. -1.
         11    1    3    3    0    0 -0.42674995002E+00  0.35406210501E+01 -0.28805145250E+01  0.45842640773E+01  0.51100000000E-03 0. -1.
        -11    1    3    3    0    0  0.24567165754E+02  0.50669005358E+01 -0.14655837608E+02  0.29051896504E+02  0.51100000000E-03 0.  1.
         12    1    3    3    0    0  0.12914982019E+02  0.57830304539E+01  0.11702750588E+00  0.14151109399E+02  0.00000000000E+00 0. -1.
</event>
<event>
 7    1  0.1634068E-009  0.4778728E+02  0.7816164E-02  0.1312668E+00
        -11   -1    0    0    0    0  0.00000000000E+00  0.00000000000E+00  0.45593999997E+02  0.45594000000E+02  0.51100000000E-03 0.  1.
         11   -1    0    0    0    0 -0.00000000000E+00 -0.00000000000E+00 -0.45593999997E+02  0.45594000000E+02  0.51100000000E-03 0. -1.
    9900012    2    1    2    0    0  0.81468881720E+01  0.35834263879E+02  0.23090167719E+02  0.47787284569E+02  0.20000061665E+02 0.  0.
         12    1    1    2    0    0 -0.81468881720E+01 -0.35834263879E+02 -0.23090167719E+02  0.43400715431E+02  0.00000000000E+00 0. -1.
         11    1    3    3    0    0  0.47067176674E+01  0.37938998308E+01  0.10583422295E+01  0.61373410906E+01  0.51100000000E-03 0. -1.
        -11    1    3    3    0    0  0.36959715376E+01  0.17308674084E+02  0.20113219164E+02  0.26791640292E+02  0.51100000000E-03 0.  1.
         12    1    3    3    0    0 -0.25580103306E+00  0.14731689963E+02  0.19186063257E+01  0.14858303186E+02  0.00000000000E+00 0. -1.
</event>
<event>
 7    1  0.1634068E-009  0.4778727E+02  0.7816164E-02  0.1312668E+00
        -11   -1    0    0    0    0  0.00000000000E+00  0.00000000000E+00  0.45593999997E+02  0.45594000000E+02  0.51100000000E-03 0. -1.
         11   -1    0    0    0    0 -0.00000000000E+00 -0.00000000000E+00 -0.45593999997E+02  0.45594000000E+02  0.51100000000E-03 0.  1.
    9900012    2    1    2    0    0  0.43083895953E+01  0.43114484851E+02  0.24904362035E+01  0.47787270774E+02  0.19999998767E+02 0.  0.
         12    1    1    2    0    0 -0.43083895953E+01 -0.43114484851E+02 -0.24904362035E+01  0.43400729226E+02  0.00000000000E+00 0. -1.
         11    1    3    3    0    0 -0.31675398253E+01  0.38811418677E+01 -0.46706241742E+01  0.68491825191E+01  0.51100000000E-03 0. -1.
        -11    1    3    3    0    0  0.52959628219E+01  0.15139285221E+02  0.40844498096E+01  0.16550767647E+02  0.51100000000E-03 0.  1.
        -12    1    3    3    0    0  0.21799665987E+01  0.24094057763E+02  0.30766105681E+01  0.24387320608E+02  0.00000000000E+00 0.  1.
</event>
<event>
 7    1  0.1634068E-009  0.4778727E+02  0.7816164E-02  0.1312668E+00
        -11   -1    0    0    0    0  0.00000000000E+00  0.00000000000E+00  0.45593999997E+02  0.45594000000E+02  0.51100000000E-03 0.  1.
         11   -1    0    0    0    0 -0.00000000000E+00 -0.00000000000E+00 -0.45593999997E+02  0.45594000000E+02  0.51100000000E-03 0. -1.
    9900012    2    1    2    0    0  0.93309272818E+00 -0.41714412639E+02  0.11944047312E+02  0.47787272471E+02  0.20000006506E+02 0.  0.
         12    1    1    2    0    0 -0.93309272818E+00  0.41714412639E+02 -0.11944047312E+02  0.43400727529E+02  0.00000000000E+00 0. -1.
         11    1    3    3    0    0 -0.43719569841E+01 -0.92290566526E+01  0.27320484999E+01  0.10571356764E+02  0.51100000000E-03 0. -1.
        -11    1    3    3    0    0 -0.27290033332E+01 -0.22845979818E+02  0.88816175792E+01  0.24663117891E+02  0.51100000000E-03 0.  1.
         12    1    3    3    0    0  0.80340530455E+01 -0.96393761679E+01  0.33038123316E+00  0.12552797816E+02  0.00000000000E+00 0. -1.
</event>
<event>
 7    1  0.1634068E-009  0.4778728E+02  0.7816164E-02  0.1312668E+00
        -11   -1    0    0    0    0  0.00000000000E+00  0.00000000000E+00  0.45593999997E+02  0.45594000000E+02  0.51100000000E-03 0.  1.
         11   -1    0    0    0    0 -0.00000000000E+00 -0.00000000000E+00 -0.45593999997E+02  0.45594000000E+02  0.51100000000E-03 0. -1.
    9900012    2    1    2    0    0  0.19636829984E+02  0.30917526933E+02  0.23283559816E+02  0.47787277412E+02  0.20000029031E+02 0.  0.
         12    1    1    2    0    0 -0.19636829984E+02 -0.30917526933E+02 -0.23283559816E+02  0.43400722588E+02  0.00000000000E+00 0. -1.
         11    1    3    3    0    0  0.16245469012E+02  0.15120523679E+02  0.53321296311E+01  0.22824922922E+02  0.51100000000E-03 0.  1.
        -11    1    3    3    0    0  0.21110242427E+01  0.87523552119E+00  0.32743275924E+01  0.39929540461E+01  0.51100000000E-03 0. -1.
        -12    1    3    3    0    0  0.12803367287E+01  0.14921767733E+02  0.14677102593E+02  0.20969400443E+02  0.00000000000E+00 0.  1.
</event>
<event>
 7    1  0.1634068E-009  0.4778727E+02  0.7816164E-02  0.1312668E+00
        -11   -1    0    0    0    0  0.00000000000E+00  0.00000000000E+00  0.45593999997E+02  0.45594000000E+02  0.51100000000E-03 0. -1.
         11   -1    0    0    0    0 -0.00000000000E+00 -0.00000000000E+00 -0.45593999997E+02  0.45594000000E+02  0.51100000000E-03 0.  1.
    9900012    2    1    2    0    0  0.60010640072E+01  0.36998041854E+02 -0.21880472412E+02  0.47787274854E+02  0.20000017369E+02 0.  0.
         12    1    1    2    0    0 -0.60010640072E+01 -0.36998041854E+02  0.21880472412E+02  0.43400725146E+02  0.00000000000E+00 0. -1.
         11    1    3    3    0    0 -0.44403895238E+01  0.43182890374E+01 -0.35655517609E+00  0.62041769146E+01  0.51100000000E-03 0. -1.
        -11    1    3    3    0    0  0.38147540137E+01  0.19878894812E+02 -0.17120711517E+02  0.26511159353E+02  0.51100000000E-03 0.  1.
        -12    1    3    3    0    0  0.66266995173E+01  0.12800858004E+02 -0.44032057190E+01  0.15071938586E+02  0.00000000000E+00 0.  1.
</event>
<event>
 7    1  0.1634068E-009  0.4778727E+02  0.7816164E-02  0.1312668E+00
        -11   -1    0    0    0    0  0.00000000000E+00  0.00000000000E+00  0.45593999997E+02  0.45594000000E+02  0.51100000000E-03 0.  1.
         11   -1    0    0    0    0 -0.00000000000E+00 -0.00000000000E+00 -0.45593999997E+02  0.45594000000E+02  0.51100000000E-03 0. -1.
    9900012    2    1    2    0    0  0.12013277044E+00 -0.39397728718E+02  0.18205167983E+02  0.47787267273E+02  0.19999982803E+02 0.  0.
         12    1    1    2    0    0 -0.12013277044E+00  0.39397728718E+02 -0.18205167983E+02  0.43400732727E+02  0.00000000000E+00 0. -1.
         11    1    3    3    0    0  0.87066991062E+01 -0.18818628904E+02  0.70514565840E+01  0.21901379942E+02  0.51100000000E-03 0. -1.
        -11    1    3    3    0    0 -0.54523643312E+01 -0.62487417371E+01  0.17933080040E+01  0.84847512607E+01  0.51100000000E-03 0.  1.
        -12    1    3    3    0    0 -0.31342020045E+01 -0.14330358077E+02  0.93604033945E+01  0.17401136070E+02  0.00000000000E+00 0.  1.
</event>
<event>
 7    1  0.1634068E-009  0.4778727E+02  0.7816164E-02  0.1312668E+00
        -11   -1    0    0    0    0  0.00000000000E+00  0.00000000000E+00  0.45593999997E+02  0.45594000000E+02  0.51100000000E-03 0. -1.
         11   -1    0    0    0    0 -0.00000000000E+00 -0.00000000000E+00 -0.45593999997E+02  0.45594000000E+02  0.51100000000E-03 0.  1.
    9900012    2    1    2    0    0 -0.47297129474E+01 -0.24644449165E+02 -0.35410506358E+02  0.47787273972E+02  0.20000013349E+02 0.  0.
         12    1    1    2    0    0  0.47297129474E+01  0.24644449165E+02  0.35410506358E+02  0.43400726028E+02  0.00000000000E+00 0. -1.
         11    1    3    3    0    0 -0.87072458074E+01 -0.10104929461E+02 -0.10862296048E+02  0.17202186043E+02  0.51100000000E-03 0. -1.
        -11    1    3    3    0    0 -0.16495271673E+01 -0.10985305146E+02 -0.11812756324E+02  0.16215396426E+02  0.51100000000E-03 0.  1.
        -12    1    3    3    0    0  0.56270600273E+01 -0.35542145585E+01 -0.12735453986E+02  0.14369691503E+02  0.00000000000E+00 0.  1.
</event>
<event>
 7    1  0.1634068E-009  0.4778727E+02  0.7816164E-02  0.1312668E+00
        -11   -1    0    0    0    0  0.00000000000E+00  0.00000000000E+00  0.45593999997E+02  0.45594000000E+02  0.51100000000E-03 0.  1.
         11   -1    0    0    0    0 -0.00000000000E+00 -0.00000000000E+00 -0.45593999997E+02  0.45594000000E+02  0.51100000000E-03 0. -1.
    9900012    2    1    2    0    0 -0.22847865470E+02 -0.22820506818E+02  0.28996945003E+02  0.47787270657E+02  0.19999998235E+02 0.  0.
         12    1    1    2    0    0  0.22847865470E+02  0.22820506818E+02 -0.28996945003E+02  0.43400729343E+02  0.00000000000E+00 0. -1.
         11    1    3    3    0    0 -0.70183789977E+01  0.25656210120E+00  0.13006821097E+01  0.71424955078E+01  0.51100000000E-03 0. -1.
        -11    1    3    3    0    0 -0.43541688478E+01 -0.61734230010E+01  0.14420899106E+02  0.16279811706E+02  0.51100000000E-03 0.  1.
         12    1    3    3    0    0 -0.11475317625E+02 -0.16903645918E+02  0.13275363787E+02  0.24364963443E+02  0.00000000000E+00 0. -1.
</event>
<event>
 7    1  0.1634068E-009  0.4778728E+02  0.7816164E-02  0.1312668E+00
        -11   -1    0    0    0    0  0.00000000000E+00  0.00000000000E+00  0.45593999997E+02  0.45594000000E+02  0.51100000000E-03 0.  1.
         11   -1    0    0    0    0 -0.00000000000E+00 -0.00000000000E+00 -0.45593999997E+02  0.45594000000E+02  0.51100000000E-03 0. -1.
    9900012    2    1    2    0    0  0.34095654905E+02  0.80485342995E+01  0.25618942569E+02  0.47787276433E+02  0.20000024569E+02 0.  0.
         12    1    1    2    0    0 -0.34095654905E+02 -0.80485342995E+01 -0.25618942569E+02  0.43400723567E+02  0.00000000000E+00 0. -1.
         11    1    3    3    0    0  0.65180355219E+01  0.46794090943E+01  0.57115018239E+01  0.98490055275E+01  0.51100000000E-03 0. -1.
        -11    1    3    3    0    0  0.82377805607E+01 -0.60290449700E+01  0.99024976963E+01  0.14222161323E+02  0.51100000000E-03 0.  1.
        -12    1    3    3    0    0  0.19339838822E+02  0.93981701752E+01  0.10004943049E+02  0.23716109582E+02  0.00000000000E+00 0.  1.
</event>
<event>
 7    1  0.1634068E-009  0.4778728E+02  0.7816164E-02  0.1312668E+00
        -11   -1    0    0    0    0  0.00000000000E+00  0.00000000000E+00  0.45593999997E+02  0.45594000000E+02  0.51100000000E-03 0.  1.
         11   -1    0    0    0    0 -0.00000000000E+00 -0.00000000000E+00 -0.45593999997E+02  0.45594000000E+02  0.51100000000E-03 0. -1.
    9900012    2    1    2    0    0  0.36281235710E+02 -0.21502957583E+02 -0.10242904179E+02  0.47787281856E+02  0.20000049292E+02 0.  0.
         12    1    1    2    0    0 -0.36281235710E+02  0.21502957583E+02  0.10242904179E+02  0.43400718144E+02  0.00000000000E+00 0. -1.
         11    1    3    3    0    0  0.10633247119E+01 -0.51017946840E+01  0.19578823107E+00  0.52151032332E+01  0.51100000000E-03 0. -1.
        -11    1    3    3    0    0  0.10699996311E+02 -0.10621064830E+02  0.55745913622E+00  0.15086672931E+02  0.51100000000E-03 0.  1.
        -12    1    3    3    0    0  0.24517914687E+02 -0.57800980691E+01 -0.10996151546E+02  0.27485505692E+02  0.00000000000E+00 0.  1.
</event>
<event>
 7    1  0.1634068E-009  0.4778726E+02  0.7816164E-02  0.1312668E+00
        -11   -1    0    0    0    0  0.00000000000E+00  0.00000000000E+00  0.45593999997E+02  0.45594000000E+02  0.51100000000E-03 0. -1.
         11   -1    0    0    0    0 -0.00000000000E+00 -0.00000000000E+00 -0.45593999997E+02  0.45594000000E+02  0.51100000000E-03 0.  1.
    9900012    2    1    2    0    0  0.16790990465E+02  0.17091060347E+02 -0.36188149637E+02  0.47787264076E+02  0.19999968230E+02 0.  0.
         12    1    1    2    0    0 -0.16790990465E+02 -0.17091060347E+02  0.36188149637E+02  0.43400735924E+02  0.00000000000E+00 0. -1.
         11    1    3    3    0    0  0.58850226298E+01 -0.17766938886E+01 -0.13380857242E+02  0.14725402315E+02  0.51100000000E-03 0. -1.
        -11    1    3    3    0    0  0.11279936946E+02  0.10327853488E+02 -0.16006990252E+02  0.22138773055E+02  0.51100000000E-03 0.  1.
         12    1    3    3    0    0 -0.37396911096E+00  0.85399007473E+01 -0.68003021425E+01  0.10923088707E+02  0.00000000000E+00 0. -1.
</event>
<event>
 7    1  0.1634068E-009  0.4778727E+02  0.7816164E-02  0.1312668E+00
        -11   -1    0    0    0    0  0.00000000000E+00  0.00000000000E+00  0.45593999997E+02  0.45594000000E+02  0.51100000000E-03 0. -1.
         11   -1    0    0    0    0 -0.00000000000E+00 -0.00000000000E+00 -0.45593999997E+02  0.45594000000E+02  0.51100000000E-03 0.  1.
    9900012    2    1    2    0    0  0.81554158452E+01 -0.42499551558E+02  0.33016356990E+01  0.47787268572E+02  0.19999988726E+02 0.  0.
         12    1    1    2    0    0 -0.81554158452E+01  0.42499551558E+02 -0.33016356990E+01  0.43400731428E+02  0.00000000000E+00 0. -1.
         11    1    3    3    0    0 -0.52185728076E+00  0.37095273875E+00  0.17534292541E+01  0.18666695921E+01  0.51100000000E-03 0. -1.
        -11    1    3    3    0    0  0.92693607393E+01 -0.23769371364E+02 -0.44352544838E+01  0.25895473468E+02  0.51100000000E-03 0.  1.
         12    1    3    3    0    0 -0.59208761331E+00 -0.19101132933E+02  0.59834609287E+01  0.20025125511E+02  0.00000000000E+00 0. -1.
</event>
<event>
 7    1  0.1634068E-009  0.4778727E+02  0.7816164E-02  0.1312668E+00
        -11   -1    0    0    0    0  0.00000000000E+00  0.00000000000E+00  0.45593999997E+02  0.45594000000E+02  0.51100000000E-03 0.  1.
         11   -1    0    0    0    0 -0.00000000000E+00 -0.00000000000E+00 -0.45593999997E+02  0.45594000000E+02  0.51100000000E-03 0. -1.
    9900012    2    1    2    0    0 -0.30166192556E+02  0.63353491088E+01  0.30553025232E+02  0.47787272213E+02  0.20000005326E+02 0.  0.
         12    1    1    2    0    0  0.30166192556E+02 -0.63353491088E+01 -0.30553025232E+02  0.43400727787E+02  0.00000000000E+00 0. -1.
         11    1    3    3    0    0 -0.39932229449E+01  0.56356912608E+01  0.64557576897E+01  0.94542928389E+01  0.51100000000E-03 0. -1.
        -11    1    3    3    0    0  0.45779886492E+00  0.30193911920E+01  0.29758054575E+01  0.42640029729E+01  0.51100000000E-03 0.  1.
         12    1    3    3    0    0 -0.26630768476E+02 -0.23197333439E+01  0.21121462084E+02  0.34068976401E+02  0.00000000000E+00 0. -1.
</event>
<event>
 7    1  0.1634068E-009  0.4778727E+02  0.7816164E-02  0.1312668E+00
        -11   -1    0    0    0    0  0.00000000000E+00  0.00000000000E+00  0.45593999997E+02  0.45594000000E+02  0.51100000000E-03 0.  1.
         11   -1    0    0    0    0 -0.00000000000E+00 -0.00000000000E+00 -0.45593999997E+02  0.45594000000E+02  0.51100000000E-03 0. -1.
    9900012    2    1    2    0    0  0.23852840885E+01  0.15487563552E+02  0.40473068775E+02  0.47787268428E+02  0.19999988069E+02 0.  0.
         12    1    1    2    0    0 -0.23852840885E+01 -0.15487563552E+02 -0.40473068775E+02  0.43400731572E+02  0.00000000000E+00 0. -1.
         11    1    3    3    0    0 -0.21004354767E+01  0.60002829396E+00  0.13572905531E+02  0.13747568075E+02  0.51100000000E-03 0. -1.
        -11    1    3    3    0    0 -0.25875643959E+01  0.13018715175E+02  0.14629601089E+02  0.19753674661E+02  0.51100000000E-03 0.  1.
        -12    1    3    3    0    0  0.70732839612E+01  0.18688200834E+01  0.12270562154E+02  0.14286025692E+02  0.00000000000E+00 0.  1.
</event>
<event>
 7    1  0.1634068E-009  0.4778728E+02  0.7816164E-02  0.1312668E+00
        -11   -1    0    0    0    0  0.00000000000E+00  0.00000000000E+00  0.45593999997E+02  0.45594000000E+02  0.51100000000E-03 0.  1.
         11   -1    0    0    0    0 -0.00000000000E+00 -0.00000000000E+00 -0.45593999997E+02  0.45594000000E+02  0.51100000000E-03 0. -1.
    9900012    2    1    2    0    0  0.28315038066E+02 -0.14119234641E+02  0.29707376709E+02  0.47787281130E+02  0.20000045984E+02 0.  0.
         12    1    1    2    0    0 -0.28315038066E+02  0.14119234641E+02 -0.29707376709E+02  0.43400718870E+02  0.00000000000E+00 0. -1.
         11    1    3    3    0    0  0.26960710559E+01  0.38803552136E+01  0.34910863266E+01  0.58748310378E+01  0.51100000000E-03 0. -1.
        -11    1    3    3    0    0  0.16330038709E+02 -0.61861479753E+01  0.11710082571E+02  0.21025332937E+02  0.51100000000E-03 0.  1.
        -12    1    3    3    0    0  0.92889283013E+01 -0.11813441879E+02  0.14506207811E+02  0.20887117156E+02  0.00000000000E+00 0.  1.
</event>
<event>
 7    1  0.1634068E-009  0.4778727E+02  0.7816164E-02  0.1312668E+00
        -11   -1    0    0    0    0  0.00000000000E+00  0.00000000000E+00  0.45593999997E+02  0.45594000000E+02  0.51100000000E-03 0.  1.
         11   -1    0    0    0    0 -0.00000000000E+00 -0.00000000000E+00 -0.45593999997E+02  0.45594000000E+02  0.51100000000E-03 0. -1.
    9900012    2    1    2    0    0 -0.20958581527E+01 -0.23901006206E+02  0.36165906262E+02  0.47787268499E+02  0.19999988394E+02 0.  0.
         12    1    1    2    0    0  0.20958581527E+01  0.23901006206E+02 -0.36165906262E+02  0.43400731501E+02  0.00000000000E+00 0. -1.
         11    1    3    3    0    0  0.10461346575E+01 -0.14596728898E+01  0.17894090474E+01  0.25351583120E+01  0.51100000000E-03 0. -1.
        -11    1    3    3    0    0  0.55682368902E+01 -0.18691247007E+02  0.26625294561E+02  0.33004155609E+02  0.51100000000E-03 0.  1.
         12    1    3    3    0    0 -0.87102297004E+01 -0.37500863088E+01  0.77512026542E+01  0.12247954578E+02  0.00000000000E+00 0. -1.
</event>
<event>
 7    1  0.1634068E-009  0.4778727E+02  0.7816164E-02  0.1312668E+00
        -11   -1    0    0    0    0  0.00000000000E+00  0.00000000000E+00  0.45593999997E+02  0.45594000000E+02  0.51100000000E-03 0.  1.
         11   -1    0    0    0    0 -0.00000000000E+00 -0.00000000000E+00 -0.45593999997E+02  0.45594000000E+02  0.51100000000E-03 0. -1.
    9900012    2    1    2    0    0 -0.18233854182E+02 -0.17278063065E+01  0.39346721308E+02  0.47787271543E+02  0.20000002271E+02 0.  0.
         12    1    1    2    0    0  0.18233854182E+02  0.17278063065E+01 -0.39346721308E+02  0.43400728457E+02  0.00000000000E+00 0. -1.
         11    1    3    3    0    0 -0.68605993487E+01 -0.80472399651E+01  0.95428698295E+01  0.14244025390E+02  0.51100000000E-03 0. -1.
        -11    1    3    3    0    0 -0.52247016870E+01  0.35300306397E-01  0.18495701873E+02  0.19219514611E+02  0.51100000000E-03 0.  1.
         12    1    3    3    0    0 -0.61485531458E+01  0.62841333522E+01  0.11308149605E+02  0.14323731541E+02  0.00000000000E+00 0. -1.
</event>
<event>
 7    1  0.1634068E-009  0.4778721E+02  0.7816164E-02  0.1312668E+00
        -11   -1    0    0    0    0  0.00000000000E+00  0.00000000000E+00  0.45593999997E+02  0.45594000000E+02  0.51100000000E-03 0.  1.
         11   -1    0    0    0    0 -0.00000000000E+00 -0.00000000000E+00 -0.45593999997E+02  0.45594000000E+02  0.51100000000E-03 0. -1.
    9900012    2    1    2    0    0 -0.35777332359E+01  0.32791690943E+02  0.28205207579E+02  0.47787206175E+02  0.19999704234E+02 0.  0.
         12    1    1    2    0    0  0.35777332359E+01 -0.32791690943E+02 -0.28205207579E+02  0.43400793825E+02  0.00000000000E+00 0. -1.
         11    1    3    3    0    0  0.35442503969E+01  0.41486224090E+01  0.34703298586E+01  0.64665267615E+01  0.51100000000E-03 0.  1.
        -11    1    3    3    0    0 -0.81644930679E+01  0.94936667733E+01  0.15809975679E+02  0.20167894959E+02  0.51100000000E-03 0. -1.
         12    1    3    3    0    0  0.10425094352E+01  0.19149401761E+02  0.89249020414E+01  0.21152784455E+02  0.00000000000E+00 0. -1.
</event>
<event>
 7    1  0.1634068E-009  0.4778729E+02  0.7816164E-02  0.1312668E+00
        -11   -1    0    0    0    0  0.00000000000E+00  0.00000000000E+00  0.45593999997E+02  0.45594000000E+02  0.51100000000E-03 0. -1.
         11   -1    0    0    0    0 -0.00000000000E+00 -0.00000000000E+00 -0.45593999997E+02  0.45594000000E+02  0.51100000000E-03 0.  1.
    9900012    2    1    2    0    0  0.15684426762E+01 -0.32914890412E+02 -0.28244852617E+02  0.47787288916E+02  0.20000081483E+02 0.  0.
         12    1    1    2    0    0 -0.15684426762E+01  0.32914890412E+02  0.28244852617E+02  0.43400711084E+02  0.00000000000E+00 0. -1.
         11    1    3    3    0    0  0.28630321035E+01 -0.14369211118E+02 -0.15351966134E+02  0.21221546725E+02  0.51100000000E-03 0. -1.
        -11    1    3    3    0    0  0.38290527918E+01 -0.16967720901E+02 -0.11996731376E+02  0.21130233360E+02  0.51100000000E-03 0.  1.
         12    1    3    3    0    0 -0.51236422190E+01 -0.15779583923E+01 -0.89615510737E+00  0.54355088311E+01  0.00000000000E+00 0. -1.
</event>
<event>
 7    1  0.1634068E-009  0.4778727E+02  0.7816164E-02  0.1312668E+00
        -11   -1    0    0    0    0  0.00000000000E+00  0.00000000000E+00  0.45593999997E+02  0.45594000000E+02  0.51100000000E-03 0.  1.
         11   -1    0    0    0    0 -0.00000000000E+00 -0.00000000000E+00 -0.45593999997E+02  0.45594000000E+02  0.51100000000E-03 0. -1.
    9900012    2    1    2    0    0 -0.17708368441E+02  0.38735348320E+02  0.83432754203E+01  0.47787265363E+02  0.19999974095E+02 0.  0.
         12    1    1    2    0    0  0.17708368441E+02 -0.38735348320E+02 -0.83432754203E+01  0.43400734637E+02  0.00000000000E+00 0. -1.
         11    1    3    3    0    0 -0.82495901150E+01  0.16965468855E+02  0.65103510614E+01  0.19956641545E+02  0.51100000000E-03 0. -1.
        -11    1    3    3    0    0 -0.36062906128E+01  0.21364305919E+02  0.29257344037E+01  0.21863184156E+02  0.51100000000E-03 0.  1.
         12    1    3    3    0    0 -0.58524877127E+01  0.40557354673E+00 -0.10928100448E+01  0.59674396623E+01  0.00000000000E+00 0. -1.
</event>
<event>
 7    1  0.1634068E-009  0.4778727E+02  0.7816164E-02  0.1312668E+00
        -11   -1    0    0    0    0  0.00000000000E+00  0.00000000000E+00  0.45593999997E+02  0.45594000000E+02  0.51100000000E-03 0.  1.
         11   -1    0    0    0    0 -0.00000000000E+00 -0.00000000000E+00 -0.45593999997E+02  0.45594000000E+02  0.51100000000E-03 0. -1.
    9900012    2    1    2    0    0 -0.22510591844E+02  0.86824188699E+01  0.36076476690E+02  0.47787270594E+02  0.19999997946E+02 0.  0.
         12    1    1    2    0    0  0.22510591844E+02 -0.86824188699E+01 -0.36076476690E+02  0.43400729406E+02  0.00000000000E+00 0. -1.
         11    1    3    3    0    0  0.21501286280E+01 -0.68454340609E+00  0.14110047432E+01  0.26613131042E+01  0.51100000000E-03 0. -1.
        -11    1    3    3    0    0 -0.12032140756E+02 -0.11901976497E+01  0.11333164975E+02  0.16571952517E+02  0.51100000000E-03 0.  1.
        -12    1    3    3    0    0 -0.12628579716E+02  0.10557159926E+02  0.23332306972E+02  0.28554004973E+02  0.00000000000E+00 0.  1.
</event>
<event>
 7    1  0.1634068E-009  0.4778727E+02  0.7816164E-02  0.1312668E+00
        -11   -1    0    0    0    0  0.00000000000E+00  0.00000000000E+00  0.45593999997E+02  0.45594000000E+02  0.51100000000E-03 0.  1.
         11   -1    0    0    0    0 -0.00000000000E+00 -0.00000000000E+00 -0.45593999997E+02  0.45594000000E+02  0.51100000000E-03 0. -1.
    9900012    2    1    2    0    0  0.31089071708E+02 -0.25472946446E+02  0.16377479548E+02  0.47787271703E+02  0.20000003004E+02 0.  0.
         12    1    1    2    0    0 -0.31089071708E+02  0.25472946446E+02 -0.16377479548E+02  0.43400728297E+02  0.00000000000E+00 0. -1.
         11    1    3    3    0    0 -0.13201476389E+01  0.72670749837E+00 -0.27600058192E+00  0.15320150649E+01  0.51100000000E-03 0. -1.
        -11    1    3    3    0    0  0.18757118077E+02 -0.18862740659E+02  0.55091958797E+01  0.27165855466E+02  0.51100000000E-03 0.  1.
        -12    1    3    3    0    0  0.13652101271E+02 -0.73369132861E+01  0.11144284250E+02  0.19089401172E+02  0.00000000000E+00 0.  1.
</event>
<event>
 7    1  0.1634068E-009  0.4778727E+02  0.7816164E-02  0.1312668E+00
        -11   -1    0    0    0    0  0.00000000000E+00  0.00000000000E+00  0.45593999997E+02  0.45594000000E+02  0.51100000000E-03 0. -1.
         11   -1    0    0    0    0 -0.00000000000E+00 -0.00000000000E+00 -0.45593999997E+02  0.45594000000E+02  0.51100000000E-03 0.  1.
    9900012    2    1    2    0    0 -0.75717179076E+01 -0.33983285741E+02 -0.25911944159E+02  0.47787268763E+02  0.19999989596E+02 0.  0.
         12    1    1    2    0    0  0.75717179076E+01  0.33983285741E+02  0.25911944159E+02  0.43400731237E+02  0.00000000000E+00 0. -1.
         11    1    3    3    0    0 -0.64611636392E+01 -0.17676861291E+02 -0.69838544244E+01  0.20074667707E+02  0.51100000000E-03 0. -1.
        -11    1    3    3    0    0  0.24816304846E+00  0.14245274974E+01  0.34736355066E+00  0.14871197621E+01  0.51100000000E-03 0.  1.
        -12    1    3    3    0    0 -0.13587173168E+01 -0.17730951948E+02 -0.19275453285E+02  0.26225481294E+02  0.00000000000E+00 0.  1.
</event>
<event>
 7    1  0.1634068E-009  0.4778727E+02  0.7816164E-02  0.1312668E+00
        -11   -1    0    0    0    0  0.00000000000E+00  0.00000000000E+00  0.45593999997E+02  0.45594000000E+02  0.51100000000E-03 0. -1.
         11   -1    0    0    0    0 -0.00000000000E+00 -0.00000000000E+00 -0.45593999997E+02  0.45594000000E+02  0.51100000000E-03 0.  1.
    9900012    2    1    2    0    0  0.41783853554E+01  0.39639157149E+02 -0.17172697076E+02  0.47787271797E+02  0.20000003432E+02 0.  0.
         12    1    1    2    0    0 -0.41783853554E+01 -0.39639157149E+02  0.17172697076E+02  0.43400728203E+02  0.00000000000E+00 0. -1.
         11    1    3    3    0    0 -0.63998201764E+01  0.76734868552E+01 -0.33366648506E+01  0.10534392787E+02  0.51100000000E-03 0. -1.
        -11    1    3    3    0    0  0.46576018759E+01  0.12257989021E+02 -0.95796013967E+01  0.16239467764E+02  0.51100000000E-03 0.  1.
        -12    1    3    3    0    0  0.59206036558E+01  0.19707681273E+02 -0.42564308287E+01  0.21013411246E+02  0.00000000000E+00 0.  1.
</event>
<event>
 7    1  0.1634068E-009  0.4778721E+02  0.7816164E-02  0.1312668E+00
        -11   -1    0    0    0    0  0.00000000000E+00  0.00000000000E+00  0.45593999997E+02  0.45594000000E+02  0.51100000000E-03 0.  1.
         11   -1    0    0    0    0 -0.00000000000E+00 -0.00000000000E+00 -0.45593999997E+02  0.45594000000E+02  0.51100000000E-03 0. -1.
    9900012    2    1    2    0    0 -0.43336647491E+02 -0.66583569113E+00  0.22627631572E+01  0.47787211412E+02  0.19999728110E+02 0.  0.
         12    1    1    2    0    0  0.43336647491E+02  0.66583569113E+00 -0.22627631572E+01  0.43400788588E+02  0.00000000000E+00 0. -1.
         11    1    3    3    0    0 -0.49143779798E+01  0.72205253601E+00  0.40529155659E+01  0.64108186403E+01  0.51100000000E-03 0. -1.
        -11    1    3    3    0    0 -0.20594468990E+02  0.13253865173E+01  0.63489497365E+01  0.21591617944E+02  0.51100000000E-03 0.  1.
         12    1    3    3    0    0 -0.17827800521E+02 -0.27132747444E+01 -0.81391021452E+01  0.19784774828E+02  0.00000000000E+00 0. -1.
</event>
<event>
 7    1  0.1634068E-009  0.4778727E+02  0.7816164E-02  0.1312668E+00
        -11   -1    0    0    0    0  0.00000000000E+00  0.00000000000E+00  0.45593999997E+02  0.45594000000E+02  0.51100000000E-03 0.  1.
         11   -1    0    0    0    0 -0.00000000000E+00 -0.00000000000E+00 -0.45593999997E+02  0.45594000000E+02  0.51100000000E-03 0. -1.
    9900012    2    1    2    0    0  0.25293079926E+02 -0.35256291794E+02 -0.93663073184E+00  0.47787270970E+02  0.19999999659E+02 0.  0.
         12    1    1    2    0    0 -0.25293079926E+02  0.35256291794E+02  0.93663073184E+00  0.43400729030E+02  0.00000000000E+00 0. -1.
         11    1    3    3    0    0  0.22423829979E+02 -0.15512836269E+02 -0.21445207221E+01  0.27350963592E+02  0.51100000000E-03 0. -1.
        -11    1    3    3    0    0  0.32315088229E+01 -0.10221081052E+02 -0.60219039240E+00  0.10736655936E+02  0.51100000000E-03 0.  1.
        -12    1    3    3    0    0 -0.36225887578E+00 -0.95223744736E+01  0.18100803827E+01  0.96996514422E+01  0.00000000000E+00 0.  1.
</event>
<event>
 7    1  0.1634068E-009  0.4778727E+02  0.7816164E-02  0.1312668E+00
        -11   -1    0    0    0    0  0.00000000000E+00  0.00000000000E+00  0.45593999997E+02  0.45594000000E+02  0.51100000000E-03 0.  1.
         11   -1    0    0    0    0 -0.00000000000E+00 -0.00000000000E+00 -0.45593999997E+02  0.45594000000E+02  0.51100000000E-03 0. -1.
    9900012    2    1    2    0    0  0.63904646176E+01  0.41512552983E+02  0.10931280612E+02  0.47787274326E+02  0.20000014963E+02 0.  0.
         12    1    1    2    0    0 -0.63904646176E+01 -0.41512552983E+02 -0.10931280612E+02  0.43400725674E+02  0.00000000000E+00 0. -1.
         11    1    3    3    0    0 -0.83427123473E+00 -0.43248435128E+00 -0.90688144805E+00  0.13059423529E+01  0.51100000000E-03 0. -1.
        -11    1    3    3    0    0  0.15470895843E+01  0.32129945729E+02  0.33983310915E+01  0.32346182978E+02  0.51100000000E-03 0.  1.
         12    1    3    3    0    0  0.56776462680E+01  0.98150916048E+01  0.84398309683E+01  0.14135148996E+02  0.00000000000E+00 0. -1.
</event>
<event>
 7    1  0.1634068E-009  0.4778727E+02  0.7816164E-02  0.1312668E+00
        -11   -1    0    0    0    0  0.00000000000E+00  0.00000000000E+00  0.45593999997E+02  0.45594000000E+02  0.51100000000E-03 0.  1.
         11   -1    0    0    0    0 -0.00000000000E+00 -0.00000000000E+00 -0.45593999997E+02  0.45594000000E+02  0.51100000000E-03 0. -1.
    9900012    2    1    2    0    0 -0.26209458221E+02 -0.25595536058E+02  0.23271357020E+02  0.47787271621E+02  0.20000002627E+02 0.  0.
         12    1    1    2    0    0  0.26209458221E+02  0.25595536058E+02 -0.23271357020E+02  0.43400728379E+02  0.00000000000E+00 0. -1.
         11    1    3    3    0    0 -0.27232680526E+01 -0.42124762763E+01  0.33153092781E+00  0.50270327512E+01  0.51100000000E-03 0. -1.
        -11    1    3    3    0    0 -0.23316594088E+02 -0.12677563508E+02  0.13022511828E+02  0.29562983458E+02  0.51100000000E-03 0.  1.
         12    1    3    3    0    0 -0.16959608077E+00 -0.87054962728E+01  0.99173142638E+01  0.13197255411E+02  0.00000000000E+00 0. -1.
</event>
<event>
 7    1  0.1634068E-009  0.4778727E+02  0.7816164E-02  0.1312668E+00
        -11   -1    0    0    0    0  0.00000000000E+00  0.00000000000E+00  0.45593999997E+02  0.45594000000E+02  0.51100000000E-03 0. -1.
         11   -1    0    0    0    0 -0.00000000000E+00 -0.00000000000E+00 -0.45593999997E+02  0.45594000000E+02  0.51100000000E-03 0.  1.
    9900012    2    1    2    0    0  0.61269253419E+01  0.22045626030E+02 -0.36879187371E+02  0.47787270717E+02  0.19999998505E+02 0.  0.
         12    1    1    2    0    0 -0.61269253419E+01 -0.22045626030E+02  0.36879187371E+02  0.43400729283E+02  0.00000000000E+00 0. -1.
         11    1    3    3    0    0 -0.72084196625E+01  0.65931669371E+01 -0.12713702931E+02  0.16033384134E+02  0.51100000000E-03 0. -1.
        -11    1    3    3    0    0  0.55347057124E+01  0.48666829327E+01 -0.73644885171E+01  0.10418889647E+02  0.51100000000E-03 0.  1.
         12    1    3    3    0    0  0.78006392920E+01  0.10585776160E+02 -0.16800995923E+02  0.21334996936E+02  0.00000000000E+00 0. -1.
</event>
<event>
 7    1  0.1634068E-009  0.4778727E+02  0.7816164E-02  0.1312668E+00
        -11   -1    0    0    0    0  0.00000000000E+00  0.00000000000E+00  0.45593999997E+02  0.45594000000E+02  0.51100000000E-03 0.  1.
         11   -1    0    0    0    0 -0.00000000000E+00 -0.00000000000E+00 -0.45593999997E+02  0.45594000000E+02  0.51100000000E-03 0. -1.
    9900012    2    1    2    0    0  0.11343326383E+01  0.82405835046E+01  0.42596117516E+02  0.47787272420E+02  0.20000006274E+02 0.  0.
         12    1    1    2    0    0 -0.11343326383E+01 -0.82405835046E+01 -0.42596117516E+02  0.43400727580E+02  0.00000000000E+00 0. -1.
         11    1    3    3    0    0 -0.30586883650E+01 -0.32513142477E+01  0.25601305201E+02  0.25987563316E+02  0.51100000000E-03 0. -1.
        -11    1    3    3    0    0  0.42509625449E+00  0.24890480730E+01  0.41249183212E+00  0.25585575835E+01  0.51100000000E-03 0.  1.
         12    1    3    3    0    0  0.37679247488E+01  0.90028496792E+01  0.16582320483E+02  0.19241151521E+02  0.00000000000E+00 0. -1.
</event>
<event>
 7    1  0.3206436E-009  0.4778725E+02  0.7816164E-02  0.1312668E+00
        -11   -1    0    0    0    0  0.00000000000E+00  0.00000000000E+00  0.45593999997E+02  0.45594000000E+02  0.51100000000E-03 0. -1.
         11   -1    0    0    0    0 -0.00000000000E+00 -0.00000000000E+00 -0.45593999997E+02  0.45594000000E+02  0.51100000000E-03 0.  1.
    9900012    2    1    2    0    0 -0.36269236509E+02  0.12185381824E+02  0.20486195762E+02  0.47787248118E+02  0.19999895469E+02 0.  0.
         12    1    1    2    0    0  0.36269236509E+02 -0.12185381824E+02 -0.20486195762E+02  0.43400751882E+02  0.00000000000E+00 0. -1.
         11    1    3    3    0    0 -0.49502437465E+01  0.53417684157E+01  0.10828414641E+02  0.13049673056E+02  0.51100000000E-03 0. -1.
        -11    1    3    3    0    0 -0.95326329378E+01 -0.17603428718E+01  0.92093405042E+00  0.97374543665E+01  0.51100000000E-03 0.  1.
        -12    1    3    3    0    0 -0.21786359824E+02  0.86039562801E+01  0.87368470705E+01  0.25000120696E+02  0.00000000000E+00 0.  1.
</event>
<event>
 7    1  0.1634068E-009  0.4778727E+02  0.7816164E-02  0.1312668E+00
        -11   -1    0    0    0    0  0.00000000000E+00  0.00000000000E+00  0.45593999997E+02  0.45594000000E+02  0.51100000000E-03 0.  1.
         11   -1    0    0    0    0 -0.00000000000E+00 -0.00000000000E+00 -0.45593999997E+02  0.45594000000E+02  0.51100000000E-03 0. -1.
    9900012    2    1    2    0    0  0.38194112866E+02 -0.79073232338E+01  0.19034366898E+02  0.47787272569E+02  0.20000006951E+02 0.  0.
         12    1    1    2    0    0 -0.38194112866E+02  0.79073232338E+01 -0.19034366898E+02  0.43400727431E+02  0.00000000000E+00 0. -1.
         11    1    3    3    0    0  0.36798891667E+01  0.24155916456E+01  0.46826134483E+01  0.64267827290E+01  0.51100000000E-03 0. -1.
        -11    1    3    3    0    0  0.20560050914E+02 -0.12340295699E+02  0.12784815412E+02  0.27174438300E+02  0.51100000000E-03 0.  1.
        -12    1    3    3    0    0  0.13954172785E+02  0.20173808200E+01  0.15669380377E+01  0.14186051540E+02  0.00000000000E+00 0.  1.
</event>
<event>
 7    1  0.1634068E-009  0.4778727E+02  0.7816164E-02  0.1312668E+00
        -11   -1    0    0    0    0  0.00000000000E+00  0.00000000000E+00  0.45593999997E+02  0.45594000000E+02  0.51100000000E-03 0.  1.
         11   -1    0    0    0    0 -0.00000000000E+00 -0.00000000000E+00 -0.45593999997E+02  0.45594000000E+02  0.51100000000E-03 0. -1.
    9900012    2    1    2    0    0  0.68344304375E+01  0.42829373725E+02  0.15995282964E+01  0.47787272081E+02  0.20000004728E+02 0.  0.
         12    1    1    2    0    0 -0.68344304375E+01 -0.42829373725E+02 -0.15995282964E+01  0.43400727919E+02  0.00000000000E+00 0. -1.
         11    1    3    3    0    0  0.43144796615E+01  0.11054657909E+02  0.85680344415E+01  0.14636646156E+02  0.51100000000E-03 0. -1.
        -11    1    3    3    0    0 -0.64409292812E+00  0.16251772064E+02 -0.12671815719E+01  0.16313819305E+02  0.51100000000E-03 0.  1.
        -12    1    3    3    0    0  0.31640437041E+01  0.15522943753E+02 -0.57013245732E+01  0.16836806621E+02  0.00000000000E+00 0.  1.
</event>
<event>
 7    1  0.1634068E-009  0.4778727E+02  0.7816164E-02  0.1312668E+00
        -11   -1    0    0    0    0  0.00000000000E+00  0.00000000000E+00  0.45593999997E+02  0.45594000000E+02  0.51100000000E-03 0. -1.
         11   -1    0    0    0    0 -0.00000000000E+00 -0.00000000000E+00 -0.45593999997E+02  0.45594000000E+02  0.51100000000E-03 0.  1.
    9900012    2    1    2    0    0 -0.13406231248E+02  0.37463852398E+02  0.17330780271E+02  0.47787271693E+02  0.20000002957E+02 0.  0.
         12    1    1    2    0    0  0.13406231248E+02 -0.37463852398E+02 -0.17330780271E+02  0.43400728307E+02  0.00000000000E+00 0. -1.
         11    1    3    3    0    0  0.36094528704E+01  0.86227017918E+01  0.37629247066E+00  0.93552516000E+01  0.51100000000E-03 0. -1.
        -11    1    3    3    0    0 -0.65482036632E+00 -0.54336706512E+00  0.54136127559E+00  0.10085186024E+01  0.51100000000E-03 0.  1.
        -12    1    3    3    0    0 -0.16360863752E+02  0.29384517671E+02  0.16413126525E+02  0.37423501491E+02  0.00000000000E+00 0.  1.
</event>
<event>
 7    1  0.1634068E-009  0.4778726E+02  0.7816164E-02  0.1312668E+00
        -11   -1    0    0    0    0  0.00000000000E+00  0.00000000000E+00  0.45593999997E+02  0.45594000000E+02  0.51100000000E-03 0.  1.
         11   -1    0    0    0    0 -0.00000000000E+00 -0.00000000000E+00 -0.45593999997E+02  0.45594000000E+02  0.51100000000E-03 0. -1.
    9900012    2    1    2    0    0 -0.42206588577E+02  0.95077311355E+01 -0.34396264401E+01  0.47787261519E+02  0.19999956568E+02 0.  0.
         12    1    1    2    0    0  0.42206588577E+02 -0.95077311355E+01  0.34396264401E+01  0.43400738481E+02  0.00000000000E+00 0. -1.
         11    1    3    3    0    0 -0.37724266836E+01  0.70570595839E+00 -0.47475341599E+01  0.61047772149E+01  0.51100000000E-03 0. -1.
        -11    1    3    3    0    0 -0.80930660977E+01 -0.33563835804E+01  0.20073969230E+01  0.89884744127E+01  0.51100000000E-03 0.  1.
        -12    1    3    3    0    0 -0.30341095796E+02  0.12158408757E+02 -0.69948920320E+00  0.32694009891E+02  0.00000000000E+00 0.  1.
</event>
<event>
 7    1  0.1634068E-009  0.4778728E+02  0.7816164E-02  0.1312668E+00
        -11   -1    0    0    0    0  0.00000000000E+00  0.00000000000E+00  0.45593999997E+02  0.45594000000E+02  0.51100000000E-03 0.  1.
         11   -1    0    0    0    0 -0.00000000000E+00 -0.00000000000E+00 -0.45593999997E+02  0.45594000000E+02  0.51100000000E-03 0. -1.
    9900012    2    1    2    0    0 -0.26877938257E+02 -0.16864135846E+02  0.29610807968E+02  0.47787278909E+02  0.20000035856E+02 0.  0.
         12    1    1    2    0    0  0.26877938257E+02  0.16864135846E+02 -0.29610807968E+02  0.43400721091E+02  0.00000000000E+00 0. -1.
         11    1    3    3    0    0 -0.57732504406E+01 -0.86218470347E+01  0.10635353254E+02  0.14858580216E+02  0.51100000000E-03 0. -1.
        -11    1    3    3    0    0 -0.16127372706E+02 -0.94424851314E+01  0.20348171260E+02  0.27627898033E+02  0.51100000000E-03 0.  1.
         12    1    3    3    0    0 -0.49773151105E+01  0.12001963203E+01 -0.13727165464E+01  0.53008006596E+01  0.00000000000E+00 0. -1.
</event>
<event>
 7    1  0.1634068E-009  0.4778727E+02  0.7816164E-02  0.1312668E+00
        -11   -1    0    0    0    0  0.00000000000E+00  0.00000000000E+00  0.45593999997E+02  0.45594000000E+02  0.51100000000E-03 0.  1.
         11   -1    0    0    0    0 -0.00000000000E+00 -0.00000000000E+00 -0.45593999997E+02  0.45594000000E+02  0.51100000000E-03 0. -1.
    9900012    2    1    2    0    0  0.17784238098E+02 -0.13932963124E+02  0.37056936726E+02  0.47787272521E+02  0.20000006732E+02 0.  0.
         12    1    1    2    0    0 -0.17784238098E+02  0.13932963124E+02 -0.37056936726E+02  0.43400727479E+02  0.00000000000E+00 0. -1.
         11    1    3    3    0    0  0.93484037321E+01 -0.11527481043E+02  0.15342809891E+02  0.21346598959E+02  0.51100000000E-03 0. -1.
        -11    1    3    3    0    0  0.11486882590E+02 -0.30686573426E+01  0.16066604003E+02  0.19987518454E+02  0.51100000000E-03 0.  1.
         12    1    3    3    0    0 -0.30510482234E+01  0.66317526140E+00  0.56475228331E+01  0.64531551073E+01  0.00000000000E+00 0. -1.
</event>
<event>
 7    1  0.1634068E-009  0.4778728E+02  0.7816164E-02  0.1312668E+00
        -11   -1    0    0    0    0  0.00000000000E+00  0.00000000000E+00  0.45593999997E+02  0.45594000000E+02  0.51100000000E-03 0.  1.
         11   -1    0    0    0    0 -0.00000000000E+00 -0.00000000000E+00 -0.45593999997E+02  0.45594000000E+02  0.51100000000E-03 0. -1.
    9900012    2    1    2    0    0 -0.41060892725E+02  0.12932170981E+02  0.55122421879E+01  0.47787276831E+02  0.20000026384E+02 0.  0.
         12    1    1    2    0    0  0.41060892725E+02 -0.12932170981E+02 -0.55122421879E+01  0.43400723169E+02  0.00000000000E+00 0. -1.
         11    1    3    3    0    0 -0.14589940887E+02  0.84120597566E+01  0.33917667705E+01  0.17179441391E+02  0.51100000000E-03 0. -1.
        -11    1    3    3    0    0 -0.91449004555E+01  0.76468630142E+01  0.47002620297E+01  0.12813905794E+02  0.51100000000E-03 0.  1.
         12    1    3    3    0    0 -0.17326051383E+02 -0.31267517894E+01 -0.25797866123E+01  0.17793929646E+02  0.00000000000E+00 0. -1.
</event>
<event>
 7    1  0.1634068E-009  0.4778725E+02  0.7816164E-02  0.1312668E+00
        -11   -1    0    0    0    0  0.00000000000E+00  0.00000000000E+00  0.45593999997E+02  0.45594000000E+02  0.51100000000E-03 0.  1.
         11   -1    0    0    0    0 -0.00000000000E+00 -0.00000000000E+00 -0.45593999997E+02  0.45594000000E+02  0.51100000000E-03 0. -1.
    9900012    2    1    2    0    0  0.17832490694E+02 -0.24561334914E+02  0.31022055497E+02  0.47787253182E+02  0.19999918557E+02 0.  0.
         12    1    1    2    0    0 -0.17832490694E+02  0.24561334914E+02 -0.31022055497E+02  0.43400746818E+02  0.00000000000E+00 0. -1.
         11    1    3    3    0    0  0.11491551190E+02 -0.10717618538E+02  0.17133750772E+02  0.23248408799E+02  0.51100000000E-03 0. -1.
        -11    1    3    3    0    0  0.10196040563E+02 -0.12136373120E+02  0.12178188607E+02  0.19988973803E+02  0.51100000000E-03 0.  1.
         12    1    3    3    0    0 -0.38551010585E+01 -0.17073432559E+01  0.17101161176E+01  0.45498705806E+01  0.00000000000E+00 0. -1.
</event>
<event>
 7    1  0.2670646E-009  0.4778728E+02  0.7816164E-02  0.1312668E+00
        -11   -1    0    0    0    0  0.00000000000E+00  0.00000000000E+00  0.45593999997E+02  0.45594000000E+02  0.51100000000E-03 0. -1.
         11   -1    0    0    0    0 -0.00000000000E+00 -0.00000000000E+00 -0.45593999997E+02  0.45594000000E+02  0.51100000000E-03 0.  1.
    9900012    2    1    2    0    0  0.21292637289E+02 -0.52980448269E+00 -0.37814883604E+02  0.47787279758E+02  0.20000039729E+02 0.  0.
         12    1    1    2    0    0 -0.21292637289E+02  0.52980448269E+00  0.37814883604E+02  0.43400720242E+02  0.00000000000E+00 0. -1.
         11    1    3    3    0    0  0.40858757259E+01 -0.92385150628E+00  0.60384786375E+00  0.42323178705E+01  0.51100000000E-03 0. -1.
        -11    1    3    3    0    0  0.15609221880E+02  0.80216092119E+00 -0.21633506082E+02  0.26688946317E+02  0.51100000000E-03 0.  1.
        -12    1    3    3    0    0  0.15975396839E+01 -0.40811389761E+00 -0.16785225385E+02  0.16866015571E+02  0.00000000000E+00 0.  1.
</event>
<event>
 7    1  0.1840002E-009  0.4778727E+02  0.7816164E-02  0.1312668E+00
        -11   -1    0    0    0    0  0.00000000000E+00  0.00000000000E+00  0.45593999997E+02  0.45594000000E+02  0.51100000000E-03 0.  1.
         11   -1    0    0    0    0 -0.00000000000E+00 -0.00000000000E+00 -0.45593999997E+02  0.45594000000E+02  0.51100000000E-03 0. -1.
    9900012    2    1    2    0    0  0.90777626710E+01  0.20707205972E+02  0.37046310615E+02  0.47787270923E+02  0.19999999446E+02 0.  0.
         12    1    1    2    0    0 -0.90777626710E+01 -0.20707205972E+02 -0.37046310615E+02  0.43400729077E+02  0.00000000000E+00 0. -1.
         11    1    3    3    0    0  0.22122628916E+01  0.21547387929E+00 -0.12585688825E+01  0.25543163445E+01  0.51100000000E-03 0. -1.
        -11    1    3    3    0    0  0.66532000702E+00  0.13522797512E+02  0.15421573028E+02  0.20521540346E+02  0.51100000000E-03 0.  1.
        -12    1    3    3    0    0  0.62001797723E+01  0.69689345804E+01  0.22883306470E+02  0.24711414233E+02  0.00000000000E+00 0.  1.
</event>
<event>
 7    1  0.1634068E-009  0.4778727E+02  0.7816164E-02  0.1312668E+00
        -11   -1    0    0    0    0  0.00000000000E+00  0.00000000000E+00  0.45593999997E+02  0.45594000000E+02  0.51100000000E-03 0. -1.
         11   -1    0    0    0    0 -0.00000000000E+00 -0.00000000000E+00 -0.45593999997E+02  0.45594000000E+02  0.51100000000E-03 0.  1.
    9900012    2    1    2    0    0 -0.75895809714E+01  0.41520138477E+02 -0.10104431628E+02  0.47787272161E+02  0.20000005091E+02 0.  0.
         12    1    1    2    0    0  0.75895809714E+01 -0.41520138477E+02  0.10104431628E+02  0.43400727839E+02  0.00000000000E+00 0. -1.
         11    1    3    3    0    0  0.22335734914E+01  0.68320668976E+01  0.51642319783E+00  0.72064333630E+01  0.51100000000E-03 0. -1.
        -11    1    3    3    0    0 -0.88646093218E+01  0.34712506073E+02 -0.12923785686E+02  0.38086265412E+02  0.51100000000E-03 0.  1.
        -12    1    3    3    0    0 -0.95854514096E+00 -0.24434493936E-01  0.23029308603E+01  0.24945733862E+01  0.00000000000E+00 0.  1.
</event>
<event>
 7    1  0.1634068E-009  0.4778727E+02  0.7816164E-02  0.1312668E+00
        -11   -1    0    0    0    0  0.00000000000E+00  0.00000000000E+00  0.45593999997E+02  0.45594000000E+02  0.51100000000E-03 0. -1.
         11   -1    0    0    0    0 -0.00000000000E+00 -0.00000000000E+00 -0.45593999997E+02  0.45594000000E+02  0.51100000000E-03 0.  1.
    9900012    2    1    2    0    0  0.70207137666E+01  0.12527561710E+02 -0.40955987697E+02  0.47787272443E+02  0.20000006377E+02 0.  0.
         12    1    1    2    0    0 -0.70207137666E+01 -0.12527561710E+02  0.40955987697E+02  0.43400727557E+02  0.00000000000E+00 0. -1.
         11    1    3    3    0    0  0.10185468653E+02  0.10864404518E+02 -0.16860841278E+02  0.22495933546E+02  0.51100000000E-03 0. -1.
        -11    1    3    3    0    0 -0.31794123476E+00 -0.24950368802E+01 -0.10359014793E+02  0.10659994531E+02  0.51100000000E-03 0.  1.
        -12    1    3    3    0    0 -0.28468136519E+01  0.41581940729E+01 -0.13736131626E+02  0.14631344366E+02  0.00000000000E+00 0.  1.
</event>
<event>
 7    1  0.1634068E-009  0.4778727E+02  0.7816164E-02  0.1312668E+00
        -11   -1    0    0    0    0  0.00000000000E+00  0.00000000000E+00  0.45593999997E+02  0.45594000000E+02  0.51100000000E-03 0.  1.
         11   -1    0    0    0    0 -0.00000000000E+00 -0.00000000000E+00 -0.45593999997E+02  0.45594000000E+02  0.51100000000E-03 0. -1.
    9900012    2    1    2    0    0 -0.41653991452E+01 -0.19737402665E+02  0.38427956542E+02  0.47787268923E+02  0.19999990328E+02 0.  0.
         12    1    1    2    0    0  0.41653991452E+01  0.19737402665E+02 -0.38427956542E+02  0.43400731077E+02  0.00000000000E+00 0. -1.
         11    1    3    3    0    0 -0.79560693853E+01 -0.97516197283E+01  0.25300288357E+02  0.28257701934E+02  0.51100000000E-03 0.  1.
        -11    1    3    3    0    0 -0.69598352312E+00  0.10384838265E+01 -0.57789032970E+00  0.13772433397E+01  0.51100000000E-03 0. -1.
        -12    1    3    3    0    0  0.44866537632E+01 -0.11024266764E+02  0.13705558515E+02  0.18152323649E+02  0.00000000000E+00 0.  1.
</event>
<event>
 7    1  0.1634068E-009  0.4778727E+02  0.7816164E-02  0.1312668E+00
        -11   -1    0    0    0    0  0.00000000000E+00  0.00000000000E+00  0.45593999997E+02  0.45594000000E+02  0.51100000000E-03 0.  1.
         11   -1    0    0    0    0 -0.00000000000E+00 -0.00000000000E+00 -0.45593999997E+02  0.45594000000E+02  0.51100000000E-03 0. -1.
    9900012    2    1    2    0    0  0.11718164310E+01  0.17645299043E+02  0.39634501236E+02  0.47787269357E+02  0.19999992307E+02 0.  0.
         12    1    1    2    0    0 -0.11718164310E+01 -0.17645299043E+02 -0.39634501236E+02  0.43400730643E+02  0.00000000000E+00 0. -1.
         11    1    3    3    0    0 -0.11948737789E+01  0.94652788549E+01  0.11353932736E+02  0.14830071341E+02  0.51100000000E-03 0. -1.
        -11    1    3    3    0    0 -0.29312307877E+01 -0.18762002705E+01  0.15356582725E+02  0.15746011389E+02  0.51100000000E-03 0.  1.
        -12    1    3    3    0    0  0.52979209976E+01  0.10056220459E+02  0.12923985775E+02  0.17211186628E+02  0.00000000000E+00 0.  1.
</event>
<event>
 7    1  0.1634068E-009  0.4778727E+02  0.7816164E-02  0.1312668E+00
        -11   -1    0    0    0    0  0.00000000000E+00  0.00000000000E+00  0.45593999997E+02  0.45594000000E+02  0.51100000000E-03 0.  1.
         11   -1    0    0    0    0 -0.00000000000E+00 -0.00000000000E+00 -0.45593999997E+02  0.45594000000E+02  0.51100000000E-03 0. -1.
    9900012    2    1    2    0    0 -0.30242060271E+02 -0.28776413489E+02 -0.11872611782E+02  0.47787273125E+02  0.20000009486E+02 0.  0.
         12    1    1    2    0    0  0.30242060271E+02  0.28776413489E+02  0.11872611782E+02  0.43400726875E+02  0.00000000000E+00 0. -1.
         11    1    3    3    0    0  0.25040239625E-01 -0.99443036516E+00 -0.50153607028E+01  0.51130579896E+01  0.51100000000E-03 0. -1.
        -11    1    3    3    0    0 -0.64233788810E+01 -0.80175225540E+01  0.19917003093E+01  0.10464575220E+02  0.51100000000E-03 0.  1.
        -12    1    3    3    0    0 -0.23843721630E+02 -0.19764460570E+02 -0.88489513889E+01  0.32209639915E+02  0.00000000000E+00 0.  1.
</event>
<event>
 7    1  0.1634068E-009  0.4778727E+02  0.7816164E-02  0.1312668E+00
        -11   -1    0    0    0    0  0.00000000000E+00  0.00000000000E+00  0.45593999997E+02  0.45594000000E+02  0.51100000000E-03 0.  1.
         11   -1    0    0    0    0 -0.00000000000E+00 -0.00000000000E+00 -0.45593999997E+02  0.45594000000E+02  0.51100000000E-03 0. -1.
    9900012    2    1    2    0    0 -0.16295113962E+01  0.33659554338E+02  0.27349634741E+02  0.47787269291E+02  0.19999992005E+02 0.  0.
         12    1    1    2    0    0  0.16295113962E+01 -0.33659554338E+02 -0.27349634741E+02  0.43400730709E+02  0.00000000000E+00 0. -1.
         11    1    3    3    0    0 -0.36758641206E+01  0.34297045340E+00  0.35327411282E+01  0.51097813950E+01  0.51100000000E-03 0. -1.
        -11    1    3    3    0    0  0.79161893319E+00 -0.88588587547E+00  0.78241316578E+00  0.14225417192E+01  0.51100000000E-03 0.  1.
        -12    1    3    3    0    0  0.12547337911E+01  0.34202469760E+02  0.23034480447E+02  0.41254946177E+02  0.00000000000E+00 0.  1.
</event>
<event>
 7    1  0.1634068E-009  0.4778727E+02  0.7816164E-02  0.1312668E+00
        -11   -1    0    0    0    0  0.00000000000E+00  0.00000000000E+00  0.45593999997E+02  0.45594000000E+02  0.51100000000E-03 0. -1.
         11   -1    0    0    0    0 -0.00000000000E+00 -0.00000000000E+00 -0.45593999997E+02  0.45594000000E+02  0.51100000000E-03 0.  1.
    9900012    2    1    2    0    0 -0.18553362688E+02 -0.48349896350E+01 -0.38936082996E+02  0.47787274765E+02  0.20000016964E+02 0.  0.
         12    1    1    2    0    0  0.18553362688E+02  0.48349896350E+01  0.38936082996E+02  0.43400725235E+02  0.00000000000E+00 0. -1.
         11    1    3    3    0    0 -0.17785193196E+01 -0.50431672610E+01 -0.23761589639E+02  0.24355898863E+02  0.51100000000E-03 0. -1.
        -11    1    3    3    0    0 -0.10561727224E+01  0.48896720769E+00 -0.39408006002E+01  0.41090752465E+01  0.51100000000E-03 0.  1.
        -12    1    3    3    0    0 -0.15718670646E+02 -0.28078958166E+00 -0.11233692758E+02  0.19322300656E+02  0.00000000000E+00 0.  1.
</event>
<event>
 7    1  0.1634068E-009  0.4778733E+02  0.7816164E-02  0.1312668E+00
        -11   -1    0    0    0    0  0.00000000000E+00  0.00000000000E+00  0.45593999997E+02  0.45594000000E+02  0.51100000000E-03 0. -1.
         11   -1    0    0    0    0 -0.00000000000E+00 -0.00000000000E+00 -0.45593999997E+02  0.45594000000E+02  0.51100000000E-03 0.  1.
    9900012    2    1    2    0    0 -0.20992903799E+02  0.34663036526E+02 -0.15536736974E+02  0.47787328267E+02  0.20000260898E+02 0.  0.
         12    1    1    2    0    0  0.20992903799E+02 -0.34663036526E+02  0.15536736974E+02  0.43400671733E+02  0.00000000000E+00 0. -1.
         11    1    3    3    0    0 -0.11746503313E+02  0.12644388840E+02 -0.44011262180E+01  0.17810974748E+02  0.51100000000E-03 0. -1.
        -11    1    3    3    0    0 -0.12633906871E+02  0.14758418887E+02 -0.10106098346E+02  0.21898852822E+02  0.51100000000E-03 0.  1.
         12    1    3    3    0    0  0.33875063848E+01  0.72602287980E+01 -0.10295124099E+01  0.80775006970E+01  0.00000000000E+00 0. -1.
</event>
<event>
 7    1  0.1634068E-009  0.4778727E+02  0.7816164E-02  0.1312668E+00
        -11   -1    0    0    0    0  0.00000000000E+00  0.00000000000E+00  0.45593999997E+02  0.45594000000E+02  0.51100000000E-03 0.  1.
         11   -1    0    0    0    0 -0.00000000000E+00 -0.00000000000E+00 -0.45593999997E+02  0.45594000000E+02  0.51100000000E-03 0. -1.
    9900012    2    1    2    0    0 -0.38765630804E+02  0.10666708817E+02  0.16342295095E+02  0.47787269389E+02  0.19999992450E+02 0.  0.
         12    1    1    2    0    0  0.38765630804E+02 -0.10666708817E+02 -0.16342295095E+02  0.43400730611E+02  0.00000000000E+00 0. -1.
         11    1    3    3    0    0 -0.11228151368E+02  0.75625776948E+01  0.44408415696E+00  0.13544784071E+02  0.51100000000E-03 0. -1.
        -11    1    3    3    0    0 -0.16335174611E+02  0.65314719696E+01  0.13758729715E+02  0.22333846496E+02  0.51100000000E-03 0.  1.
         12    1    3    3    0    0 -0.11202304826E+02 -0.34273408472E+01  0.21394812225E+01  0.11908638822E+02  0.00000000000E+00 0. -1.
</event>
<event>
 7    1  0.1634068E-009  0.4778727E+02  0.7816164E-02  0.1312668E+00
        -11   -1    0    0    0    0  0.00000000000E+00  0.00000000000E+00  0.45593999997E+02  0.45594000000E+02  0.51100000000E-03 0. -1.
         11   -1    0    0    0    0 -0.00000000000E+00 -0.00000000000E+00 -0.45593999997E+02  0.45594000000E+02  0.51100000000E-03 0.  1.
    9900012    2    1    2    0    0 -0.53894882439E+01  0.19087455187E+02 -0.38603698827E+02  0.47787273138E+02  0.20000009544E+02 0.  0.
         12    1    1    2    0    0  0.53894882439E+01 -0.19087455187E+02  0.38603698827E+02  0.43400726862E+02  0.00000000000E+00 0. -1.
         11    1    3    3    0    0 -0.26816161964E+01  0.54845874774E+01  0.33370779228E+00  0.61141742185E+01  0.51100000000E-03 0. -1.
        -11    1    3    3    0    0 -0.27767454884E+01  0.29290382784E+01 -0.13401709594E+02  0.13996263824E+02  0.51100000000E-03 0.  1.
         12    1    3    3    0    0  0.68873440999E-01  0.10673829431E+02 -0.25535697026E+02  0.27676835095E+02  0.00000000000E+00 0. -1.
</event>
<event>
 7    1  0.1634068E-009  0.4778727E+02  0.7816164E-02  0.1312668E+00
        -11   -1    0    0    0    0  0.00000000000E+00  0.00000000000E+00  0.45593999997E+02  0.45594000000E+02  0.51100000000E-03 0.  1.
         11   -1    0    0    0    0 -0.00000000000E+00 -0.00000000000E+00 -0.45593999997E+02  0.45594000000E+02  0.51100000000E-03 0. -1.
    9900012    2    1    2    0    0 -0.20883168026E+02  0.24246114303E+01  0.37968902292E+02  0.47787274331E+02  0.20000014983E+02 0.  0.
         12    1    1    2    0    0  0.20883168026E+02 -0.24246114303E+01 -0.37968902292E+02  0.43400725669E+02  0.00000000000E+00 0. -1.
         11    1    3    3    0    0 -0.76440449829E+00  0.53698322457E+01  0.87056545163E+01  0.10257086984E+02  0.51100000000E-03 0. -1.
        -11    1    3    3    0    0  0.49316237371E+00 -0.27660242330E+01  0.45671398652E+01  0.53621698960E+01  0.51100000000E-03 0.  1.
        -12    1    3    3    0    0 -0.20611925901E+02 -0.17919658243E+00  0.24696107910E+02  0.32168017450E+02  0.00000000000E+00 0.  1.
</event>
<event>
 7    1  0.1634068E-009  0.4778727E+02  0.7816164E-02  0.1312668E+00
        -11   -1    0    0    0    0  0.00000000000E+00  0.00000000000E+00  0.45593999997E+02  0.45594000000E+02  0.51100000000E-03 0.  1.
         11   -1    0    0    0    0 -0.00000000000E+00 -0.00000000000E+00 -0.45593999997E+02  0.45594000000E+02  0.51100000000E-03 0. -1.
    9900012    2    1    2    0    0  0.29666677198E+02 -0.22163861769E+02  0.22633484756E+02  0.47787272625E+02  0.20000007205E+02 0.  0.
         12    1    1    2    0    0 -0.29666677198E+02  0.22163861769E+02 -0.22633484756E+02  0.43400727375E+02  0.00000000000E+00 0. -1.
         11    1    3    3    0    0  0.90763513015E+01 -0.30224341782E+01 -0.17976761872E+01  0.97338019934E+01  0.51100000000E-03 0. -1.
        -11    1    3    3    0    0  0.56470932188E+00 -0.39561079382E+01  0.26374073363E+01  0.47880689589E+01  0.51100000000E-03 0.  1.
        -12    1    3    3    0    0  0.20025616575E+02 -0.15185319653E+02  0.21793753607E+02  0.33265401672E+02  0.00000000000E+00 0.  1.
</event>
<event>
 7    1  0.1634068E-009  0.4778728E+02  0.7816164E-02  0.1312668E+00
        -11   -1    0    0    0    0  0.00000000000E+00  0.00000000000E+00  0.45593999997E+02  0.45594000000E+02  0.51100000000E-03 0.  1.
         11   -1    0    0    0    0 -0.00000000000E+00 -0.00000000000E+00 -0.45593999997E+02  0.45594000000E+02  0.51100000000E-03 0. -1.
    9900012    2    1    2    0    0 -0.19059552545E+02 -0.32624652548E+01  0.38855021409E+02  0.47787275220E+02  0.20000019039E+02 0.  0.
         12    1    1    2    0    0  0.19059552545E+02  0.32624652548E+01 -0.38855021409E+02  0.43400724780E+02  0.00000000000E+00 0. -1.
         11    1    3    3    0    0 -0.69275828339E+00 -0.24559071362E+01 -0.36447976717E+00  0.25776422681E+01  0.51100000000E-03 0. -1.
        -11    1    3    3    0    0 -0.94192153533E+01 -0.40612747485E+01  0.94222270753E+01  0.13928170511E+02  0.51100000000E-03 0.  1.
        -12    1    3    3    0    0 -0.89475789078E+01  0.32547166299E+01  0.29797274101E+02  0.31281462441E+02  0.00000000000E+00 0.  1.
</event>
<event>
 7    1  0.1634068E-009  0.4778727E+02  0.7816164E-02  0.1312668E+00
        -11   -1    0    0    0    0  0.00000000000E+00  0.00000000000E+00  0.45593999997E+02  0.45594000000E+02  0.51100000000E-03 0.  1.
         11   -1    0    0    0    0 -0.00000000000E+00 -0.00000000000E+00 -0.45593999997E+02  0.45594000000E+02  0.51100000000E-03 0. -1.
    9900012    2    1    2    0    0  0.10098359802E+02  0.13794096249E+02  0.39891967303E+02  0.47787274000E+02  0.20000013475E+02 0.  0.
         12    1    1    2    0    0 -0.10098359802E+02 -0.13794096249E+02 -0.39891967303E+02  0.43400726000E+02  0.00000000000E+00 0. -1.
         11    1    3    3    0    0  0.68257157655E+01  0.31693339522E+01  0.69941466281E+01  0.10273906790E+02  0.51100000000E-03 0. -1.
        -11    1    3    3    0    0  0.46161001341E+01  0.59471556584E+01  0.31589032880E+02  0.32473743847E+02  0.51100000000E-03 0.  1.
        -12    1    3    3    0    0 -0.13434560979E+01  0.46776066383E+01  0.13087877951E+01  0.50396233631E+01  0.00000000000E+00 0.  1.
</event>
<event>
 7    1  0.1634068E-009  0.4778727E+02  0.7816164E-02  0.1312668E+00
        -11   -1    0    0    0    0  0.00000000000E+00  0.00000000000E+00  0.45593999997E+02  0.45594000000E+02  0.51100000000E-03 0.  1.
         11   -1    0    0    0    0 -0.00000000000E+00 -0.00000000000E+00 -0.45593999997E+02  0.45594000000E+02  0.51100000000E-03 0. -1.
    9900012    2    1    2    0    0 -0.39537564850E+02 -0.13287099967E+02  0.11994066665E+02  0.47787266193E+02  0.19999977882E+02 0.  0.
         12    1    1    2    0    0  0.39537564850E+02  0.13287099967E+02 -0.11994066665E+02  0.43400733807E+02  0.00000000000E+00 0. -1.
         11    1    3    3    0    0 -0.25598550721E+02 -0.80646868777E+01  0.43287738957E+01  0.27185717889E+02  0.51100000000E-03 0. -1.
        -11    1    3    3    0    0 -0.91586819666E+01 -0.80634845520E+01  0.86457059228E+01  0.14954914565E+02  0.51100000000E-03 0.  1.
         12    1    3    3    0    0 -0.47803321618E+01  0.28410714623E+01 -0.98041315334E+00  0.56466337390E+01  0.00000000000E+00 0. -1.
</event>
<event>
 7    1  0.1634068E-009  0.4778728E+02  0.7816164E-02  0.1312668E+00
        -11   -1    0    0    0    0  0.00000000000E+00  0.00000000000E+00  0.45593999997E+02  0.45594000000E+02  0.51100000000E-03 0.  1.
         11   -1    0    0    0    0 -0.00000000000E+00 -0.00000000000E+00 -0.45593999997E+02  0.45594000000E+02  0.51100000000E-03 0. -1.
    9900012    2    1    2    0    0 -0.45805943922E+00 -0.15070053155E+02  0.40697746853E+02  0.47787275128E+02  0.20000018617E+02 0.  0.
         12    1    1    2    0    0  0.45805943922E+00  0.15070053155E+02 -0.40697746853E+02  0.43400724872E+02  0.00000000000E+00 0. -1.
         11    1    3    3    0    0 -0.37974377139E+01 -0.45395299745E+01  0.33258269075E+01  0.67888872770E+01  0.51100000000E-03 0. -1.
        -11    1    3    3    0    0  0.80223801113E+01 -0.86650582291E+01  0.26797476199E+02  0.29283895705E+02  0.51100000000E-03 0.  1.
         12    1    3    3    0    0 -0.46830018367E+01 -0.18654649519E+01  0.10574443746E+02  0.11714492146E+02  0.00000000000E+00 0. -1.
</event>
<event>
 7    1  0.1634068E-009  0.4778727E+02  0.7816164E-02  0.1312668E+00
        -11   -1    0    0    0    0  0.00000000000E+00  0.00000000000E+00  0.45593999997E+02  0.45594000000E+02  0.51100000000E-03 0. -1.
         11   -1    0    0    0    0 -0.00000000000E+00 -0.00000000000E+00 -0.45593999997E+02  0.45594000000E+02  0.51100000000E-03 0.  1.
    9900012    2    1    2    0    0  0.16196374535E+01  0.31167062026E+02  0.30159809662E+02  0.47787273051E+02  0.20000009151E+02 0.  0.
         12    1    1    2    0    0 -0.16196374535E+01 -0.31167062026E+02 -0.30159809662E+02  0.43400726949E+02  0.00000000000E+00 0. -1.
         11    1    3    3    0    0  0.65253791804E+01  0.16849572055E+02  0.24775857667E+02  0.30664829614E+02  0.51100000000E-03 0. -1.
        -11    1    3    3    0    0 -0.16162056968E+01  0.15310616171E+01 -0.10196451238E+01  0.24486622816E+01  0.51100000000E-03 0.  1.
         12    1    3    3    0    0 -0.32895360301E+01  0.12786428354E+02  0.64035971192E+01  0.14673781156E+02  0.00000000000E+00 0. -1.
</event>
<event>
 7    1  0.1634068E-009  0.4778727E+02  0.7816164E-02  0.1312668E+00
        -11   -1    0    0    0    0  0.00000000000E+00  0.00000000000E+00  0.45593999997E+02  0.45594000000E+02  0.51100000000E-03 0.  1.
         11   -1    0    0    0    0 -0.00000000000E+00 -0.00000000000E+00 -0.45593999997E+02  0.45594000000E+02  0.51100000000E-03 0. -1.
    9900012    2    1    2    0    0 -0.32398764319E+02 -0.24534862468E+02  0.15231019306E+02  0.47787270112E+02  0.19999995750E+02 0.  0.
         12    1    1    2    0    0  0.32398764319E+02  0.24534862468E+02 -0.15231019306E+02  0.43400729888E+02  0.00000000000E+00 0. -1.
         11    1    3    3    0    0 -0.70659843997E+01 -0.81900535584E+01 -0.17556714612E+01  0.10958444021E+02  0.51100000000E-03 0. -1.
        -11    1    3    3    0    0 -0.21990191224E+02 -0.18193998839E+02  0.13184700680E+02  0.31439249929E+02  0.51100000000E-03 0.  1.
         12    1    3    3    0    0 -0.33425886956E+01  0.18491899300E+01  0.38019900867E+01  0.53895761618E+01  0.00000000000E+00 0. -1.
</event>
<event>
 7    1  0.1634068E-009  0.4778727E+02  0.7816164E-02  0.1312668E+00
        -11   -1    0    0    0    0  0.00000000000E+00  0.00000000000E+00  0.45593999997E+02  0.45594000000E+02  0.51100000000E-03 0. -1.
         11   -1    0    0    0    0 -0.00000000000E+00 -0.00000000000E+00 -0.45593999997E+02  0.45594000000E+02  0.51100000000E-03 0.  1.
    9900012    2    1    2    0    0  0.24539074265E+02  0.35444472868E+02 -0.50146193834E+01  0.47787271547E+02  0.20000002293E+02 0.  0.
         12    1    1    2    0    0 -0.24539074265E+02 -0.35444472868E+02  0.50146193834E+01  0.43400728453E+02  0.00000000000E+00 0. -1.
         11    1    3    3    0    0  0.15212633998E+02  0.13292810588E+02 -0.61642100280E+01  0.21121565567E+02  0.51100000000E-03 0. -1.
        -11    1    3    3    0    0 -0.17171245685E+01  0.11072612617E-01 -0.70071393522E+00  0.18546265572E+01  0.51100000000E-03 0.  1.
        -12    1    3    3    0    0  0.11043564836E+02  0.22140589667E+02  0.18503045799E+01  0.24811079423E+02  0.00000000000E+00 0.  1.
</event>
<event>
 7    1  0.1634068E-009  0.4778727E+02  0.7816164E-02  0.1312668E+00
        -11   -1    0    0    0    0  0.00000000000E+00  0.00000000000E+00  0.45593999997E+02  0.45594000000E+02  0.51100000000E-03 0.  1.
         11   -1    0    0    0    0 -0.00000000000E+00 -0.00000000000E+00 -0.45593999997E+02  0.45594000000E+02  0.51100000000E-03 0. -1.
    9900012    2    1    2    0    0 -0.12384782101E+02  0.21347137466E+02  0.35700704066E+02  0.47787269863E+02  0.19999994611E+02 0.  0.
         12    1    1    2    0    0  0.12384782101E+02 -0.21347137466E+02 -0.35700704066E+02  0.43400730137E+02  0.00000000000E+00 0. -1.
         11    1    3    3    0    0  0.18411866341E+00 -0.15102654494E-01 -0.17718190678E+00  0.25597160311E+00  0.51100000000E-03 0. -1.
        -11    1    3    3    0    0 -0.12248362433E+02  0.48726288588E+01  0.88787851326E+01  0.15893323126E+02  0.51100000000E-03 0.  1.
        -12    1    3    3    0    0 -0.32053833109E+00  0.16489611262E+02  0.26999100840E+02  0.31637975133E+02  0.00000000000E+00 0.  1.
</event>
<event>
 7    1  0.1634068E-009  0.4778727E+02  0.7816164E-02  0.1312668E+00
        -11   -1    0    0    0    0  0.00000000000E+00  0.00000000000E+00  0.45593999997E+02  0.45594000000E+02  0.51100000000E-03 0.  1.
         11   -1    0    0    0    0 -0.00000000000E+00 -0.00000000000E+00 -0.45593999997E+02  0.45594000000E+02  0.51100000000E-03 0. -1.
    9900012    2    1    2    0    0  0.12322337813E+02  0.78572676605E+01  0.40866206081E+02  0.47787268857E+02  0.19999990028E+02 0.  0.
         12    1    1    2    0    0 -0.12322337813E+02 -0.78572676605E+01 -0.40866206081E+02  0.43400731143E+02  0.00000000000E+00 0. -1.
         11    1    3    3    0    0 -0.10159940379E+01  0.49147754970E+01  0.34942849675E+01  0.61153323513E+01  0.51100000000E-03 0. -1.
        -11    1    3    3    0    0  0.11050091416E+02  0.69455511706E+01  0.21572612922E+02  0.25213544573E+02  0.51100000000E-03 0.  1.
         12    1    3    3    0    0  0.22882404344E+01 -0.40030590072E+01  0.15799308192E+02  0.16458391934E+02  0.00000000000E+00 0. -1.
</event>
<event>
 7    1  0.1634068E-009  0.4778728E+02  0.7816164E-02  0.1312668E+00
        -11   -1    0    0    0    0  0.00000000000E+00  0.00000000000E+00  0.45593999997E+02  0.45594000000E+02  0.51100000000E-03 0.  1.
         11   -1    0    0    0    0 -0.00000000000E+00 -0.00000000000E+00 -0.45593999997E+02  0.45594000000E+02  0.51100000000E-03 0. -1.
    9900012    2    1    2    0    0  0.13717000277E+02  0.11288977246E+02  0.39598296946E+02  0.47787283129E+02  0.20000055099E+02 0.  0.
         12    1    1    2    0    0 -0.13717000277E+02 -0.11288977246E+02 -0.39598296946E+02  0.43400716871E+02  0.00000000000E+00 0. -1.
         11    1    3    3    0    0  0.68661655191E+00  0.45981721876E+01  0.26620198506E+01  0.53573295309E+01  0.51100000000E-03 0. -1.
        -11    1    3    3    0    0  0.10614943389E+01 -0.40522472352E+01  0.12434819528E+02  0.13121441035E+02  0.51100000000E-03 0.  1.
        -12    1    3    3    0    0  0.11968889386E+02  0.10743052294E+02  0.24501457567E+02  0.29308512563E+02  0.00000000000E+00 0.  1.
</event>
<event>
 7    1  0.1634068E-009  0.4778727E+02  0.7816164E-02  0.1312668E+00
        -11   -1    0    0    0    0  0.00000000000E+00  0.00000000000E+00  0.45593999997E+02  0.45594000000E+02  0.51100000000E-03 0. -1.
         11   -1    0    0    0    0 -0.00000000000E+00 -0.00000000000E+00 -0.45593999997E+02  0.45594000000E+02  0.51100000000E-03 0.  1.
    9900012    2    1    2    0    0 -0.20715798352E+02  0.14571264901E+02 -0.35244255550E+02  0.47787267156E+02  0.19999982270E+02 0.  0.
         12    1    1    2    0    0  0.20715798352E+02 -0.14571264901E+02  0.35244255550E+02  0.43400732844E+02  0.00000000000E+00 0. -1.
         11    1    3    3    0    0  0.11515140368E+01 -0.10716577070E+01 -0.23499887544E+01  0.28278759211E+01  0.51100000000E-03 0. -1.
        -11    1    3    3    0    0 -0.20276857917E+02  0.72104872255E+01 -0.19436607879E+02  0.28998686507E+02  0.51100000000E-03 0.  1.
         12    1    3    3    0    0 -0.15904544716E+01  0.84324353828E+01 -0.13457658916E+02  0.15960704728E+02  0.00000000000E+00 0. -1.
</event>
<event>
 7    1  0.1634068E-009  0.4778727E+02  0.7816164E-02  0.1312668E+00
        -11   -1    0    0    0    0  0.00000000000E+00  0.00000000000E+00  0.45593999997E+02  0.45594000000E+02  0.51100000000E-03 0.  1.
         11   -1    0    0    0    0 -0.00000000000E+00 -0.00000000000E+00 -0.45593999997E+02  0.45594000000E+02  0.51100000000E-03 0. -1.
    9900012    2    1    2    0    0  0.23653263368E+01 -0.39464073070E+02  0.17905728549E+02  0.47787274812E+02  0.20000017178E+02 0.  0.
         12    1    1    2    0    0 -0.23653263368E+01  0.39464073070E+02 -0.17905728549E+02  0.43400725188E+02  0.00000000000E+00 0. -1.
         11    1    3    3    0    0  0.24618102307E+01 -0.65233776636E+01  0.60155651026E+01  0.92087995699E+01  0.51100000000E-03 0. -1.
        -11    1    3    3    0    0 -0.43517460425E+01 -0.16372799398E+02  0.13121649321E+02  0.21428577529E+02  0.51100000000E-03 0.  1.
         12    1    3    3    0    0  0.42552621487E+01 -0.16567896008E+02 -0.12314858749E+01  0.17149897713E+02  0.00000000000E+00 0. -1.
</event>
<event>
 7    1  0.1634068E-009  0.4778726E+02  0.7816164E-02  0.1312668E+00
        -11   -1    0    0    0    0  0.00000000000E+00  0.00000000000E+00  0.45593999997E+02  0.45594000000E+02  0.51100000000E-03 0.  1.
         11   -1    0    0    0    0 -0.00000000000E+00 -0.00000000000E+00 -0.45593999997E+02  0.45594000000E+02  0.51100000000E-03 0. -1.
    9900012    2    1    2    0    0 -0.19783509410E+02  0.38233218300E+02  0.55188859774E+01  0.47787258894E+02  0.19999944601E+02 0.  0.
         12    1    1    2    0    0  0.19783509410E+02 -0.38233218300E+02 -0.55188859774E+01  0.43400741106E+02  0.00000000000E+00 0. -1.
         11    1    3    3    0    0  0.18484783094E+00  0.15527471205E+02 -0.24018973363E+01  0.15713231425E+02  0.51100000000E-03 0. -1.
        -11    1    3    3    0    0 -0.55504113438E+01  0.87406370357E+01  0.58569918156E+01  0.11895804103E+02  0.51100000000E-03 0.  1.
         12    1    3    3    0    0 -0.14417945897E+02  0.13965110059E+02  0.20637914981E+01  0.20178223366E+02  0.00000000000E+00 0. -1.
</event>
<event>
 7    1  0.1634068E-009  0.4778727E+02  0.7816164E-02  0.1312668E+00
        -11   -1    0    0    0    0  0.00000000000E+00  0.00000000000E+00  0.45593999997E+02  0.45594000000E+02  0.51100000000E-03 0. -1.
         11   -1    0    0    0    0 -0.00000000000E+00 -0.00000000000E+00 -0.45593999997E+02  0.45594000000E+02  0.51100000000E-03 0.  1.
    9900012    2    1    2    0    0  0.14632259853E+02  0.11549287026E+02 -0.39193545057E+02  0.47787273815E+02  0.20000012633E+02 0.  0.
         12    1    1    2    0    0 -0.14632259853E+02 -0.11549287026E+02  0.39193545057E+02  0.43400726185E+02  0.00000000000E+00 0. -1.
         11    1    3    3    0    0  0.29283228605E+01 -0.21651487970E+01 -0.73888947503E+01  0.82376398307E+01  0.51100000000E-03 0. -1.
        -11    1    3    3    0    0  0.10221461101E+02  0.27657682532E+01 -0.23345010653E+02  0.25634298581E+02  0.51100000000E-03 0.  1.
         12    1    3    3    0    0  0.14824758913E+01  0.10948667570E+02 -0.84596396540E+01  0.13915335404E+02  0.00000000000E+00 0. -1.
</event>
<event>
 7    1  0.1634068E-009  0.4778729E+02  0.7816164E-02  0.1312668E+00
        -11   -1    0    0    0    0  0.00000000000E+00  0.00000000000E+00  0.45593999997E+02  0.45594000000E+02  0.51100000000E-03 0.  1.
         11   -1    0    0    0    0 -0.00000000000E+00 -0.00000000000E+00 -0.45593999997E+02  0.45594000000E+02  0.51100000000E-03 0. -1.
    9900012    2    1    2    0    0 -0.10735967928E+02  0.27900527544E+02  0.31463017701E+02  0.47787286556E+02  0.20000070725E+02 0.  0.
         12    1    1    2    0    0  0.10735967928E+02 -0.27900527544E+02 -0.31463017701E+02  0.43400713444E+02  0.00000000000E+00 0. -1.
         11    1    3    3    0    0 -0.69987866863E+01  0.68849489216E+01  0.40398652654E+01  0.10616310487E+02  0.51100000000E-03 0. -1.
        -11    1    3    3    0    0 -0.55929522920E+01  0.21439314892E+02  0.21208196046E+02  0.30671043643E+02  0.51100000000E-03 0.  1.
        -12    1    3    3    0    0  0.18557710507E+01 -0.42373626964E+00  0.62149563895E+01  0.64999324260E+01  0.00000000000E+00 0.  1.
</event>
<event>
 7    1  0.1634068E-009  0.4778727E+02  0.7816164E-02  0.1312668E+00
        -11   -1    0    0    0    0  0.00000000000E+00  0.00000000000E+00  0.45593999997E+02  0.45594000000E+02  0.51100000000E-03 0.  1.
         11   -1    0    0    0    0 -0.00000000000E+00 -0.00000000000E+00 -0.45593999997E+02  0.45594000000E+02  0.51100000000E-03 0. -1.
    9900012    2    1    2    0    0 -0.12857016053E+02  0.13575728037E+02  0.39166566757E+02  0.47787271837E+02  0.20000003616E+02 0.  0.
         12    1    1    2    0    0  0.12857016053E+02 -0.13575728037E+02 -0.39166566757E+02  0.43400728163E+02  0.00000000000E+00 0. -1.
         11    1    3    3    0    0 -0.13668485280E+02  0.82073391456E+01  0.11669882442E+02  0.19757886076E+02  0.51100000000E-03 0. -1.
        -11    1    3    3    0    0  0.17202558720E+00  0.21165180284E+01  0.11001202398E+02  0.11204271320E+02  0.51100000000E-03 0.  1.
         12    1    3    3    0    0  0.63944364046E+00  0.32518708633E+01  0.16495481917E+02  0.16825114441E+02  0.00000000000E+00 0. -1.
</event>
<event>
 7    1  0.1634068E-009  0.4778727E+02  0.7816164E-02  0.1312668E+00
        -11   -1    0    0    0    0  0.00000000000E+00  0.00000000000E+00  0.45593999997E+02  0.45594000000E+02  0.51100000000E-03 0.  1.
         11   -1    0    0    0    0 -0.00000000000E+00 -0.00000000000E+00 -0.45593999997E+02  0.45594000000E+02  0.51100000000E-03 0. -1.
    9900012    2    1    2    0    0 -0.36081020991E+02 -0.36238381982E+01  0.23846398519E+02  0.47787274184E+02  0.20000014313E+02 0.  0.
         12    1    1    2    0    0  0.36081020991E+02  0.36238381982E+01 -0.23846398519E+02  0.43400725816E+02  0.00000000000E+00 0. -1.
         11    1    3    3    0    0 -0.11962320115E+02  0.36223253504E+01  0.14653289718E+02  0.19259731132E+02  0.51100000000E-03 0. -1.
        -11    1    3    3    0    0 -0.18445582871E+02 -0.48273508076E+01  0.11112190208E+02  0.22068611528E+02  0.51100000000E-03 0.  1.
        -12    1    3    3    0    0 -0.56731180052E+01 -0.24188127409E+01 -0.19190814075E+01  0.64589315235E+01  0.00000000000E+00 0.  1.
</event>
<event>
 7    1  0.1634068E-009  0.4778727E+02  0.7816164E-02  0.1312668E+00
        -11   -1    0    0    0    0  0.00000000000E+00  0.00000000000E+00  0.45593999997E+02  0.45594000000E+02  0.51100000000E-03 0. -1.
         11   -1    0    0    0    0 -0.00000000000E+00 -0.00000000000E+00 -0.45593999997E+02  0.45594000000E+02  0.51100000000E-03 0.  1.
    9900012    2    1    2    0    0  0.17347203182E+02 -0.87317852344E+01 -0.38813062225E+02  0.47787270387E+02  0.19999997004E+02 0.  0.
         12    1    1    2    0    0 -0.17347203182E+02  0.87317852344E+01  0.38813062225E+02  0.43400729613E+02  0.00000000000E+00 0. -1.
         11    1    3    3    0    0  0.10600354414E+02  0.13596424695E+01 -0.75369867072E+01  0.13077549856E+02  0.51100000000E-03 0. -1.
        -11    1    3    3    0    0  0.52834526980E+01 -0.15205448458E+01 -0.68576777699E+01  0.87894637889E+01  0.51100000000E-03 0.  1.
        -12    1    3    3    0    0  0.14633960704E+01 -0.85708828581E+01 -0.24418397748E+02  0.25920256743E+02  0.00000000000E+00 0.  1.
</event>
<event>
 7    1  0.1634068E-009  0.4778728E+02  0.7816164E-02  0.1312668E+00
        -11   -1    0    0    0    0  0.00000000000E+00  0.00000000000E+00  0.45593999997E+02  0.45594000000E+02  0.51100000000E-03 0.  1.
         11   -1    0    0    0    0 -0.00000000000E+00 -0.00000000000E+00 -0.45593999997E+02  0.45594000000E+02  0.51100000000E-03 0. -1.
    9900012    2    1    2    0    0 -0.33370541061E+02 -0.20494216093E+00  0.27748653789E+02  0.47787276514E+02  0.20000024940E+02 0.  0.
         12    1    1    2    0    0  0.33370541061E+02  0.20494216093E+00 -0.27748653789E+02  0.43400723486E+02  0.00000000000E+00 0. -1.
         11    1    3    3    0    0 -0.21281579535E+02  0.23765429625E+01  0.11881848757E+02  0.24489424536E+02  0.51100000000E-03 0. -1.
        -11    1    3    3    0    0 -0.12790282974E+02 -0.55817064827E+01  0.13453846491E+02  0.19384343463E+02  0.51100000000E-03 0.  1.
         12    1    3    3    0    0  0.70132144903E+00  0.30002213592E+01  0.24129585410E+01  0.39135085154E+01  0.00000000000E+00 0. -1.
</event>
<event>
 7    1  0.1634068E-009  0.4778725E+02  0.7816164E-02  0.1312668E+00
        -11   -1    0    0    0    0  0.00000000000E+00  0.00000000000E+00  0.45593999997E+02  0.45594000000E+02  0.51100000000E-03 0.  1.
         11   -1    0    0    0    0 -0.00000000000E+00 -0.00000000000E+00 -0.45593999997E+02  0.45594000000E+02  0.51100000000E-03 0. -1.
    9900012    2    1    2    0    0 -0.16333331700E+02  0.37582223128E+02  0.14297674187E+02  0.47787254536E+02  0.19999924731E+02 0.  0.
         12    1    1    2    0    0  0.16333331700E+02 -0.37582223128E+02 -0.14297674187E+02  0.43400745464E+02  0.00000000000E+00 0. -1.
         11    1    3    3    0    0 -0.88199069938E+01  0.28617400796E+02  0.13622006999E+02  0.32898411248E+02  0.51100000000E-03 0. -1.
        -11    1    3    3    0    0 -0.57033477895E+01  0.27870142286E+01  0.41397531845E+01  0.75784682494E+01  0.51100000000E-03 0.  1.
         12    1    3    3    0    0 -0.18100769165E+01  0.61778081040E+01 -0.34640859966E+01  0.73103750386E+01  0.00000000000E+00 0. -1.
</event>
<event>
 7    1  0.1634068E-009  0.4778729E+02  0.7816164E-02  0.1312668E+00
        -11   -1    0    0    0    0  0.00000000000E+00  0.00000000000E+00  0.45593999997E+02  0.45594000000E+02  0.51100000000E-03 0.  1.
         11   -1    0    0    0    0 -0.00000000000E+00 -0.00000000000E+00 -0.45593999997E+02  0.45594000000E+02  0.51100000000E-03 0. -1.
    9900012    2    1    2    0    0 -0.31917358689E+02 -0.13825076440E+02  0.25957108753E+02  0.47787285501E+02  0.20000065913E+02 0.  0.
         12    1    1    2    0    0  0.31917358689E+02  0.13825076440E+02 -0.25957108753E+02  0.43400714499E+02  0.00000000000E+00 0. -1.
         11    1    3    3    0    0 -0.20920701106E+01 -0.54677687245E+01 -0.13145995690E+01  0.60001187038E+01  0.51100000000E-03 0. -1.
        -11    1    3    3    0    0 -0.92424013831E+01  0.51547318722E-03  0.10242586178E+02  0.13796106533E+02  0.51100000000E-03 0.  1.
        -12    1    3    3    0    0 -0.20582887195E+02 -0.83578231882E+01  0.17029122143E+02  0.27991060264E+02  0.00000000000E+00 0.  1.
</event>
<event>
 7    1  0.1634068E-009  0.4778727E+02  0.7816164E-02  0.1312668E+00
        -11   -1    0    0    0    0  0.00000000000E+00  0.00000000000E+00  0.45593999997E+02  0.45594000000E+02  0.51100000000E-03 0.  1.
         11   -1    0    0    0    0 -0.00000000000E+00 -0.00000000000E+00 -0.45593999997E+02  0.45594000000E+02  0.51100000000E-03 0. -1.
    9900012    2    1    2    0    0  0.40788137988E+02  0.11488297207E+01  0.14786188358E+02  0.47787269863E+02  0.19999994614E+02 0.  0.
         12    1    1    2    0    0 -0.40788137988E+02 -0.11488297207E+01 -0.14786188358E+02  0.43400730137E+02  0.00000000000E+00 0. -1.
         11    1    3    3    0    0  0.27612754866E+02 -0.30808698025E+01  0.25299761784E+01  0.27899046037E+02  0.51100000000E-03 0. -1.
        -11    1    3    3    0    0  0.11682751425E+02  0.39154586532E+01  0.64949500525E+01  0.13928455542E+02  0.51100000000E-03 0.  1.
        -12    1    3    3    0    0  0.14926316961E+01  0.31424087000E+00  0.57612621274E+01  0.59597682845E+01  0.00000000000E+00 0.  1.
</event>
<event>
 7    1  0.1634068E-009  0.4778727E+02  0.7816164E-02  0.1312668E+00
        -11   -1    0    0    0    0  0.00000000000E+00  0.00000000000E+00  0.45593999997E+02  0.45594000000E+02  0.51100000000E-03 0. -1.
         11   -1    0    0    0    0 -0.00000000000E+00 -0.00000000000E+00 -0.45593999997E+02  0.45594000000E+02  0.51100000000E-03 0.  1.
    9900012    2    1    2    0    0  0.42612175957E+02 -0.54165730533E+01 -0.62037330605E+01  0.47787272963E+02  0.20000008749E+02 0.  0.
         12    1    1    2    0    0 -0.42612175957E+02  0.54165730533E+01  0.62037330605E+01  0.43400727037E+02  0.00000000000E+00 0. -1.
         11    1    3    3    0    0  0.11080144905E+01  0.23087032440E+00 -0.42354995522E+01  0.43841138142E+01  0.51100000000E-03 0. -1.
        -11    1    3    3    0    0  0.22632667232E+02  0.70132400699E+00  0.31070014578E+01  0.22855698189E+02  0.51100000000E-03 0.  1.
        -12    1    3    3    0    0  0.18871494234E+02 -0.63487673847E+01 -0.50752349661E+01  0.20547460960E+02  0.00000000000E+00 0.  1.
</event>
<event>
 7    1  0.1634068E-009  0.4778727E+02  0.7816164E-02  0.1312668E+00
        -11   -1    0    0    0    0  0.00000000000E+00  0.00000000000E+00  0.45593999997E+02  0.45594000000E+02  0.51100000000E-03 0.  1.
         11   -1    0    0    0    0 -0.00000000000E+00 -0.00000000000E+00 -0.45593999997E+02  0.45594000000E+02  0.51100000000E-03 0. -1.
    9900012    2    1    2    0    0 -0.14110658331E+02 -0.87101118022E+01  0.40107936045E+02  0.47787271205E+02  0.20000000733E+02 0.  0.
         12    1    1    2    0    0  0.14110658331E+02  0.87101118022E+01 -0.40107936045E+02  0.43400728795E+02  0.00000000000E+00 0. -1.
         11    1    3    3    0    0 -0.65888820025E+01 -0.14070496229E+01  0.13921930902E+02  0.15466522394E+02  0.51100000000E-03 0. -1.
        -11    1    3    3    0    0 -0.11084420371E+02 -0.27580963077E+01  0.23107649264E+02  0.25776635253E+02  0.51100000000E-03 0.  1.
         12    1    3    3    0    0  0.35626440419E+01 -0.45449658715E+01  0.30783558793E+01  0.65441135582E+01  0.00000000000E+00 0. -1.
</event>
<event>
 7    1  0.1634068E-009  0.4778726E+02  0.7816164E-02  0.1312668E+00
        -11   -1    0    0    0    0  0.00000000000E+00  0.00000000000E+00  0.45593999997E+02  0.45594000000E+02  0.51100000000E-03 0. -1.
         11   -1    0    0    0    0 -0.00000000000E+00 -0.00000000000E+00 -0.45593999997E+02  0.45594000000E+02  0.51100000000E-03 0.  1.
    9900012    2    1    2    0    0  0.18938006650E+02 -0.13695447071E+02 -0.36570625002E+02  0.47787262916E+02  0.19999962940E+02 0.  0.
         12    1    1    2    0    0 -0.18938006650E+02  0.13695447071E+02  0.36570625002E+02  0.43400737084E+02  0.00000000000E+00 0. -1.
         11    1    3    3    0    0  0.94669253043E+01  0.11416012733E+01 -0.12040764627E+02  0.15359229839E+02  0.51100000000E-03 0. -1.
        -11    1    3    3    0    0  0.11379246568E+02 -0.15203660781E+02 -0.20441921890E+02  0.27901805039E+02  0.51100000000E-03 0.  1.
         12    1    3    3    0    0 -0.19081652223E+01  0.36661243729E+00 -0.40879384848E+01  0.45262280378E+01  0.00000000000E+00 0. -1.
</event>
<event>
 7    1  0.1634068E-009  0.4778724E+02  0.7816164E-02  0.1312668E+00
        -11   -1    0    0    0    0  0.00000000000E+00  0.00000000000E+00  0.45593999997E+02  0.45594000000E+02  0.51100000000E-03 0. -1.
         11   -1    0    0    0    0 -0.00000000000E+00 -0.00000000000E+00 -0.45593999997E+02  0.45594000000E+02  0.51100000000E-03 0.  1.
    9900012    2    1    2    0    0 -0.31143695216E+01 -0.39782883054E+02 -0.17066005374E+02  0.47787244004E+02  0.19999876711E+02 0.  0.
         12    1    1    2    0    0  0.31143695216E+01  0.39782883054E+02  0.17066005374E+02  0.43400755996E+02  0.00000000000E+00 0. -1.
         11    1    3    3    0    0 -0.43721127530E+01 -0.22808503828E+02 -0.10725027241E+02  0.25580645542E+02  0.51100000000E-03 0.  1.
        -11    1    3    3    0    0 -0.36591162959E+01 -0.30223316647E+00  0.90921744025E-01  0.36727025442E+01  0.51100000000E-03 0. -1.
         12    1    3    3    0    0  0.49168595273E+01 -0.16672146059E+02 -0.64318998776E+01  0.18533895917E+02  0.00000000000E+00 0. -1.
</event>
<event>
 7    1  0.1634068E-009  0.4778727E+02  0.7816164E-02  0.1312668E+00
        -11   -1    0    0    0    0  0.00000000000E+00  0.00000000000E+00  0.45593999997E+02  0.45594000000E+02  0.51100000000E-03 0. -1.
         11   -1    0    0    0    0 -0.00000000000E+00 -0.00000000000E+00 -0.45593999997E+02  0.45594000000E+02  0.51100000000E-03 0.  1.
    9900012    2    1    2    0    0  0.77354146475E+01  0.41759239716E+02 -0.89416023937E+01  0.47787274260E+02  0.20000014659E+02 0.  0.
         12    1    1    2    0    0 -0.77354146475E+01 -0.41759239716E+02  0.89416023937E+01  0.43400725740E+02  0.00000000000E+00 0. -1.
         11    1    3    3    0    0  0.35563766288E+01  0.48800578588E+01 -0.56761586387E+01  0.82874336549E+01  0.51100000000E-03 0. -1.
        -11    1    3    3    0    0  0.58275978108E+01  0.13908265418E+02  0.35314369874E+01  0.15487794893E+02  0.51100000000E-03 0.  1.
        -12    1    3    3    0    0 -0.16485597921E+01  0.22970916439E+02 -0.67968807425E+01  0.24012045712E+02  0.00000000000E+00 0.  1.
</event>
<event>
 7    1  0.1634068E-009  0.4778727E+02  0.7816164E-02  0.1312668E+00
        -11   -1    0    0    0    0  0.00000000000E+00  0.00000000000E+00  0.45593999997E+02  0.45594000000E+02  0.51100000000E-03 0. -1.
         11   -1    0    0    0    0 -0.00000000000E+00 -0.00000000000E+00 -0.45593999997E+02  0.45594000000E+02  0.51100000000E-03 0.  1.
    9900012    2    1    2    0    0 -0.34110129918E+02 -0.19841327016E+01 -0.26761637643E+02  0.47787274258E+02  0.20000014651E+02 0.  0.
         12    1    1    2    0    0  0.34110129918E+02  0.19841327016E+01  0.26761637643E+02  0.43400725742E+02  0.00000000000E+00 0. -1.
         11    1    3    3    0    0 -0.55138754857E+01  0.10098543814E+01 -0.10148444795E+02  0.11593686246E+02  0.51100000000E-03 0.  1.
        -11    1    3    3    0    0 -0.10367333045E+02  0.39112983334E+01 -0.11651389980E+02  0.16079015450E+02  0.51100000000E-03 0. -1.
        -12    1    3    3    0    0 -0.18228921388E+02 -0.69052854164E+01 -0.49618028674E+01  0.20114572562E+02  0.00000000000E+00 0.  1.
</event>
<event>
 7    1  0.1634068E-009  0.4778727E+02  0.7816164E-02  0.1312668E+00
        -11   -1    0    0    0    0  0.00000000000E+00  0.00000000000E+00  0.45593999997E+02  0.45594000000E+02  0.51100000000E-03 0.  1.
         11   -1    0    0    0    0 -0.00000000000E+00 -0.00000000000E+00 -0.45593999997E+02  0.45594000000E+02  0.51100000000E-03 0. -1.
    9900012    2    1    2    0    0  0.17322307614E+02 -0.27531083613E+02 -0.28733263610E+02  0.47787270241E+02  0.19999996335E+02 0.  0.
         12    1    1    2    0    0 -0.17322307614E+02  0.27531083613E+02  0.28733263610E+02  0.43400729759E+02  0.00000000000E+00 0. -1.
         11    1    3    3    0    0 -0.88574957643E+00  0.23418329319E+01 -0.34285925982E+00  0.25271103114E+01  0.51100000000E-03 0. -1.
        -11    1    3    3    0    0  0.85251393726E+01 -0.11656240455E+02 -0.94835732059E+01  0.17276692504E+02  0.51100000000E-03 0.  1.
         12    1    3    3    0    0  0.96829178181E+01 -0.18216676090E+02 -0.18906831144E+02  0.27983467425E+02  0.00000000000E+00 0. -1.
</event>
<event>
 7    1  0.1634068E-009  0.4778733E+02  0.7816164E-02  0.1312667E+00
        -11   -1    0    0    0    0  0.00000000000E+00  0.00000000000E+00  0.45593999997E+02  0.45594000000E+02  0.51100000000E-03 0.  1.
         11   -1    0    0    0    0 -0.00000000000E+00 -0.00000000000E+00 -0.45593999997E+02  0.45594000000E+02  0.51100000000E-03 0. -1.
    9900012    2    1    2    0    0 -0.34101388450E+02 -0.26247086893E+02  0.56394747022E+01  0.47787332499E+02  0.20000280194E+02 0.  0.
         12    1    1    2    0    0  0.34101388450E+02  0.26247086893E+02 -0.56394747022E+01  0.43400667501E+02  0.00000000000E+00 0. -1.
         11    1    3    3    0    0 -0.20108689435E+01 -0.31549570057E+00 -0.34021999638E+01  0.39646054406E+01  0.51100000000E-03 0. -1.
        -11    1    3    3    0    0 -0.13470875620E+02 -0.12841958608E+02  0.98320508431E+01  0.21048743785E+02  0.51100000000E-03 0.  1.
         12    1    3    3    0    0 -0.18619643886E+02 -0.13089632584E+02 -0.79037617704E+00  0.22773983274E+02  0.00000000000E+00 0. -1.
</event>
<event>
 7    1  0.1634068E-009  0.4778727E+02  0.7816164E-02  0.1312668E+00
        -11   -1    0    0    0    0  0.00000000000E+00  0.00000000000E+00  0.45593999997E+02  0.45594000000E+02  0.51100000000E-03 0.  1.
         11   -1    0    0    0    0 -0.00000000000E+00 -0.00000000000E+00 -0.45593999997E+02  0.45594000000E+02  0.51100000000E-03 0. -1.
    9900012    2    1    2    0    0 -0.20252301879E+02  0.35755749571E+02  0.13964039610E+02  0.47787265433E+02  0.19999974413E+02 0.  0.
         12    1    1    2    0    0  0.20252301879E+02 -0.35755749571E+02 -0.13964039610E+02  0.43400734567E+02  0.00000000000E+00 0. -1.
         11    1    3    3    0    0  0.45523571386E+00  0.45380391441E+00 -0.91304471089E+00  0.11166147290E+01  0.51100000000E-03 0. -1.
        -11    1    3    3    0    0 -0.22230171556E+02  0.24268718582E+02  0.12949789748E+02  0.35367333569E+02  0.51100000000E-03 0.  1.
        -12    1    3    3    0    0  0.15226339634E+01  0.11033227075E+02  0.19272945727E+01  0.11303317134E+02  0.00000000000E+00 0.  1.
</event>
<event>
 7    1  0.1634068E-009  0.4778727E+02  0.7816164E-02  0.1312668E+00
        -11   -1    0    0    0    0  0.00000000000E+00  0.00000000000E+00  0.45593999997E+02  0.45594000000E+02  0.51100000000E-03 0.  1.
         11   -1    0    0    0    0 -0.00000000000E+00 -0.00000000000E+00 -0.45593999997E+02  0.45594000000E+02  0.51100000000E-03 0. -1.
    9900012    2    1    2    0    0  0.21128954780E+02 -0.16883337125E+02  0.33943235237E+02  0.47787273959E+02  0.20000013287E+02 0.  0.
         12    1    1    2    0    0 -0.21128954780E+02  0.16883337125E+02 -0.33943235237E+02  0.43400726041E+02  0.00000000000E+00 0. -1.
         11    1    3    3    0    0  0.21737862609E+02 -0.14958443492E+02  0.24812020747E+02  0.36220520100E+02  0.51100000000E-03 0.  1.
        -11    1    3    3    0    0  0.96678671503E+00 -0.40296575113E+00  0.93100536636E+01  0.93687863371E+01  0.51100000000E-03 0. -1.
        -12    1    3    3    0    0 -0.15756945440E+01 -0.15219278820E+01 -0.17883917409E+00  0.21979675212E+01  0.00000000000E+00 0.  1.
</event>
<event>
 7    1  0.1634068E-009  0.4778727E+02  0.7816164E-02  0.1312668E+00
        -11   -1    0    0    0    0  0.00000000000E+00  0.00000000000E+00  0.45593999997E+02  0.45594000000E+02  0.51100000000E-03 0.  1.
         11   -1    0    0    0    0 -0.00000000000E+00 -0.00000000000E+00 -0.45593999997E+02  0.45594000000E+02  0.51100000000E-03 0. -1.
    9900012    2    1    2    0    0 -0.14436801533E+02  0.76138044991E+01  0.40214823836E+02  0.47787270587E+02  0.19999997912E+02 0.  0.
         12    1    1    2    0    0  0.14436801533E+02 -0.76138044991E+01 -0.40214823836E+02  0.43400729413E+02  0.00000000000E+00 0. -1.
         11    1    3    3    0    0 -0.46651944803E+01 -0.41346677214E+01  0.56960177530E+01  0.84441775922E+01  0.51100000000E-03 0. -1.
        -11    1    3    3    0    0 -0.19992456064E+01  0.73518889243E+01  0.67675545464E+01  0.10190537206E+02  0.51100000000E-03 0.  1.
        -12    1    3    3    0    0 -0.77723614462E+01  0.43965832962E+01  0.27751251537E+02  0.29152555788E+02  0.00000000000E+00 0.  1.
</event>
<event>
 7    1  0.1634068E-009  0.4778728E+02  0.7816164E-02  0.1312668E+00
        -11   -1    0    0    0    0  0.00000000000E+00  0.00000000000E+00  0.45593999997E+02  0.45594000000E+02  0.51100000000E-03 0.  1.
         11   -1    0    0    0    0 -0.00000000000E+00 -0.00000000000E+00 -0.45593999997E+02  0.45594000000E+02  0.51100000000E-03 0. -1.
    9900012    2    1    2    0    0  0.40799209500E+02  0.12833507296E+02  0.73721444035E+01  0.47787275139E+02  0.20000018668E+02 0.  0.
         12    1    1    2    0    0 -0.40799209500E+02 -0.12833507296E+02 -0.73721444035E+01  0.43400724861E+02  0.00000000000E+00 0. -1.
         11    1    3    3    0    0  0.31022724161E+01 -0.88095094404E+00  0.52854661292E+01  0.61916331589E+01  0.51100000000E-03 0.  1.
        -11    1    3    3    0    0  0.92995282479E+01  0.68516319477E+01 -0.30164384610E+01  0.11938382940E+02  0.51100000000E-03 0. -1.
        -12    1    3    3    0    0  0.28397408836E+02  0.68628262927E+01  0.51031167353E+01  0.29657259040E+02  0.00000000000E+00 0.  1.
</event>
<event>
 7    1  0.1634068E-009  0.4778731E+02  0.7816164E-02  0.1312668E+00
        -11   -1    0    0    0    0  0.00000000000E+00  0.00000000000E+00  0.45593999997E+02  0.45594000000E+02  0.51100000000E-03 0.  1.
         11   -1    0    0    0    0 -0.00000000000E+00 -0.00000000000E+00 -0.45593999997E+02  0.45594000000E+02  0.51100000000E-03 0. -1.
    9900012    2    1    2    0    0  0.32290868723E+01  0.23779204073E+02  0.36162724515E+02  0.47787306541E+02  0.20000161840E+02 0.  0.
         12    1    1    2    0    0 -0.32290868723E+01 -0.23779204073E+02 -0.36162724515E+02  0.43400693459E+02  0.00000000000E+00 0. -1.
         11    1    3    3    0    0 -0.49225954673E+01  0.13996167683E+02  0.18051744956E+02  0.23366432166E+02  0.51100000000E-03 0. -1.
        -11    1    3    3    0    0  0.60482006570E+01  0.88321506615E+01  0.19111318847E+02  0.21905025104E+02  0.51100000000E-03 0.  1.
         12    1    3    3    0    0  0.21034816826E+01  0.95088572878E+00 -0.10003392879E+01  0.25158492700E+01  0.00000000000E+00 0. -1.
</event>
<event>
 7    1  0.1634068E-009  0.4778727E+02  0.7816164E-02  0.1312668E+00
        -11   -1    0    0    0    0  0.00000000000E+00  0.00000000000E+00  0.45593999997E+02  0.45594000000E+02  0.51100000000E-03 0.  1.
         11   -1    0    0    0    0 -0.00000000000E+00 -0.00000000000E+00 -0.45593999997E+02  0.45594000000E+02  0.51100000000E-03 0. -1.
    9900012    2    1    2    0    0 -0.84280613703E+01  0.34552347683E+01  0.42434094942E+02  0.47787270981E+02  0.19999999712E+02 0.  0.
         12    1    1    2    0    0  0.84280613703E+01 -0.34552347683E+01 -0.42434094942E+02  0.43400729019E+02  0.00000000000E+00 0. -1.
         11    1    3    3    0    0 -0.53070294240E+01 -0.46806634296E+01  0.45374756977E+01  0.84060607550E+01  0.51100000000E-03 0. -1.
        -11    1    3    3    0    0 -0.41530688833E+01  0.34410375398E+01  0.13937859085E+02  0.14944987007E+02  0.51100000000E-03 0.  1.
         12    1    3    3    0    0  0.10320369370E+01  0.46948606580E+01  0.23958760160E+02  0.24436223220E+02  0.00000000000E+00 0. -1.
</event>
<event>
 7    1  0.1634068E-009  0.4778727E+02  0.7816164E-02  0.1312668E+00
        -11   -1    0    0    0    0  0.00000000000E+00  0.00000000000E+00  0.45593999997E+02  0.45594000000E+02  0.51100000000E-03 0.  1.
         11   -1    0    0    0    0 -0.00000000000E+00 -0.00000000000E+00 -0.45593999997E+02  0.45594000000E+02  0.51100000000E-03 0. -1.
    9900012    2    1    2    0    0  0.15237150338E+02 -0.21983852659E+02  0.34178396625E+02  0.47787270466E+02  0.19999997364E+02 0.  0.
         12    1    1    2    0    0 -0.15237150338E+02  0.21983852659E+02 -0.34178396625E+02  0.43400729534E+02  0.00000000000E+00 0. -1.
         11    1    3    3    0    0  0.42842749410E+01 -0.65964637661E+01  0.14419738411E+02  0.16425504622E+02  0.51100000000E-03 0. -1.
        -11    1    3    3    0    0 -0.84458750957E+00 -0.51038842299E+01 -0.10957678733E+01  0.52880686254E+01  0.51100000000E-03 0.  1.
        -12    1    3    3    0    0  0.11797462907E+02 -0.10283504663E+02  0.20854426087E+02  0.26073697218E+02  0.00000000000E+00 0.  1.
</event>
<event>
 7    1  0.1634068E-009  0.4778727E+02  0.7816164E-02  0.1312668E+00
        -11   -1    0    0    0    0  0.00000000000E+00  0.00000000000E+00  0.45593999997E+02  0.45594000000E+02  0.51100000000E-03 0. -1.
         11   -1    0    0    0    0 -0.00000000000E+00 -0.00000000000E+00 -0.45593999997E+02  0.45594000000E+02  0.51100000000E-03 0.  1.
    9900012    2    1    2    0    0  0.24775731370E+02  0.25899590232E+02 -0.24474428779E+02  0.47787270708E+02  0.19999998465E+02 0.  0.
         12    1    1    2    0    0 -0.24775731370E+02 -0.25899590232E+02  0.24474428779E+02  0.43400729292E+02  0.00000000000E+00 0. -1.
         11    1    3    3    0    0  0.57882179143E+01  0.24275502608E+01 -0.14562254691E+01  0.64433733222E+01  0.51100000000E-03 0. -1.
        -11    1    3    3    0    0  0.98659417015E+01  0.22804668395E+02 -0.19336341774E+02  0.31484660070E+02  0.51100000000E-03 0.  1.
        -12    1    3    3    0    0  0.91215717537E+01  0.66737157586E+00 -0.36818615356E+01  0.98592373156E+01  0.00000000000E+00 0.  1.
</event>
<event>
 7    1  0.1634068E-009  0.4778727E+02  0.7816164E-02  0.1312668E+00
        -11   -1    0    0    0    0  0.00000000000E+00  0.00000000000E+00  0.45593999997E+02  0.45594000000E+02  0.51100000000E-03 0.  1.
         11   -1    0    0    0    0 -0.00000000000E+00 -0.00000000000E+00 -0.45593999997E+02  0.45594000000E+02  0.51100000000E-03 0. -1.
    9900012    2    1    2    0    0  0.96549945048E+01  0.11660482276E+02  0.40674776459E+02  0.47787271828E+02  0.20000003575E+02 0.  0.
         12    1    1    2    0    0 -0.96549945048E+01 -0.11660482276E+02 -0.40674776459E+02  0.43400728172E+02  0.00000000000E+00 0. -1.
         11    1    3    3    0    0  0.44950686472E+01 -0.35934604953E+01  0.12479953043E+02  0.13742919220E+02  0.51100000000E-03 0. -1.
        -11    1    3    3    0    0  0.80991025895E+01  0.95185721595E+01  0.20475724143E+02  0.23988621431E+02  0.51100000000E-03 0.  1.
        -12    1    3    3    0    0 -0.29391767320E+01  0.57353706123E+01  0.77190992732E+01  0.10055731177E+02  0.00000000000E+00 0.  1.
</event>
<event>
 7    1  0.1634068E-009  0.4778727E+02  0.7816164E-02  0.1312668E+00
        -11   -1    0    0    0    0  0.00000000000E+00  0.00000000000E+00  0.45593999997E+02  0.45594000000E+02  0.51100000000E-03 0.  1.
         11   -1    0    0    0    0 -0.00000000000E+00 -0.00000000000E+00 -0.45593999997E+02  0.45594000000E+02  0.51100000000E-03 0. -1.
    9900012    2    1    2    0    0 -0.14227801516E+02 -0.32264450211E+02  0.25302147583E+02  0.47787265493E+02  0.19999974691E+02 0.  0.
         12    1    1    2    0    0  0.14227801516E+02  0.32264450211E+02 -0.25302147583E+02  0.43400734507E+02  0.00000000000E+00 0. -1.
         11    1    3    3    0    0 -0.59091270696E+00  0.22596082675E+01  0.10056073554E+01  0.25428829631E+01  0.51100000000E-03 0. -1.
        -11    1    3    3    0    0 -0.92324007769E+01 -0.11617177413E+02  0.96536868685E+01  0.17702816317E+02  0.51100000000E-03 0.  1.
        -12    1    3    3    0    0 -0.44044880323E+01 -0.22906881065E+02  0.14642853359E+02  0.27541566213E+02  0.00000000000E+00 0.  1.
</event>
<event>
 7    1  0.1634068E-009  0.4778727E+02  0.7816164E-02  0.1312668E+00
        -11   -1    0    0    0    0  0.00000000000E+00  0.00000000000E+00  0.45593999997E+02  0.45594000000E+02  0.51100000000E-03 0. -1.
         11   -1    0    0    0    0 -0.00000000000E+00 -0.00000000000E+00 -0.45593999997E+02  0.45594000000E+02  0.51100000000E-03 0.  1.
    9900012    2    1    2    0    0 -0.41944399131E+02 -0.28663705831E+01  0.10773807036E+02  0.47787267094E+02  0.19999981986E+02 0.  0.
         12    1    1    2    0    0  0.41944399131E+02  0.28663705831E+01 -0.10773807036E+02  0.43400732906E+02  0.00000000000E+00 0. -1.
         11    1    3    3    0    0 -0.10012622712E+02 -0.60181156199E+01 -0.17999616635E+01  0.11819906575E+02  0.51100000000E-03 0. -1.
        -11    1    3    3    0    0 -0.11236019678E+02 -0.14151693463E+01  0.90197016474E+01  0.14477771257E+02  0.51100000000E-03 0.  1.
         12    1    3    3    0    0 -0.20695756741E+02  0.45669143831E+01  0.35540670523E+01  0.21489589262E+02  0.00000000000E+00 0. -1.
</event>
<event>
 7    1  0.1634068E-009  0.4778727E+02  0.7816164E-02  0.1312668E+00
        -11   -1    0    0    0    0  0.00000000000E+00  0.00000000000E+00  0.45593999997E+02  0.45594000000E+02  0.51100000000E-03 0. -1.
         11   -1    0    0    0    0 -0.00000000000E+00 -0.00000000000E+00 -0.45593999997E+02  0.45594000000E+02  0.51100000000E-03 0.  1.
    9900012    2    1    2    0    0 -0.39454798595E+02  0.16186554242E+02  0.80583885178E+01  0.47787270791E+02  0.19999998844E+02 0.  0.
         12    1    1    2    0    0  0.39454798595E+02 -0.16186554242E+02 -0.80583885178E+01  0.43400729209E+02  0.00000000000E+00 0. -1.
         11    1    3    3    0    0 -0.43879463433E+01 -0.34402982499E+01  0.27867983465E+00  0.55827760005E+01  0.51100000000E-03 0. -1.
        -11    1    3    3    0    0 -0.16917001295E+02  0.10933768820E+02  0.89598006049E+01  0.22045640398E+02  0.51100000000E-03 0.  1.
        -12    1    3    3    0    0 -0.18149850956E+02  0.86930836726E+01 -0.11800919217E+01  0.20158854392E+02  0.00000000000E+00 0.  1.
</event>
<event>
 7    1  0.1634068E-009  0.4778727E+02  0.7816164E-02  0.1312668E+00
        -11   -1    0    0    0    0  0.00000000000E+00  0.00000000000E+00  0.45593999997E+02  0.45594000000E+02  0.51100000000E-03 0. -1.
         11   -1    0    0    0    0 -0.00000000000E+00 -0.00000000000E+00 -0.45593999997E+02  0.45594000000E+02  0.51100000000E-03 0.  1.
    9900012    2    1    2    0    0 -0.86290221764E+01 -0.39487734520E+02 -0.15807660015E+02  0.47787270554E+02  0.19999997765E+02 0.  0.
         12    1    1    2    0    0  0.86290221764E+01  0.39487734520E+02  0.15807660015E+02  0.43400729446E+02  0.00000000000E+00 0. -1.
         11    1    3    3    0    0 -0.82078622429E+01 -0.18174492420E+02 -0.17253004372E+02  0.26369439460E+02  0.51100000000E-03 0.  1.
        -11    1    3    3    0    0  0.49674906117E+00 -0.66326903100E+01  0.73033914691E+00  0.66912432259E+01  0.51100000000E-03 0. -1.
        -12    1    3    3    0    0 -0.91790899462E+00 -0.14680551791E+02  0.71500520986E+00  0.14726587868E+02  0.00000000000E+00 0.  1.
</event>
<event>
 7    1  0.1634068E-009  0.4778722E+02  0.7816164E-02  0.1312668E+00
        -11   -1    0    0    0    0  0.00000000000E+00  0.00000000000E+00  0.45593999997E+02  0.45594000000E+02  0.51100000000E-03 0. -1.
         11   -1    0    0    0    0 -0.00000000000E+00 -0.00000000000E+00 -0.45593999997E+02  0.45594000000E+02  0.51100000000E-03 0.  1.
    9900012    2    1    2    0    0 -0.35771332656E+02  0.92269176052E+01 -0.22779451116E+02  0.47787220726E+02  0.19999770576E+02 0.  0.
         12    1    1    2    0    0  0.35771332656E+02 -0.92269176052E+01  0.22779451116E+02  0.43400779274E+02  0.00000000000E+00 0. -1.
         11    1    3    3    0    0 -0.16304288119E+02  0.59442285715E+01 -0.12906530577E+02  0.21627348339E+02  0.51100000000E-03 0. -1.
        -11    1    3    3    0    0 -0.19132392531E+02  0.79405569114E+00 -0.12225663206E+02  0.22718842609E+02  0.51100000000E-03 0.  1.
         12    1    3    3    0    0 -0.33465200545E+00  0.24886333426E+01  0.23527426665E+01  0.34410297781E+01  0.00000000000E+00 0. -1.
</event>
<event>
 7    1  0.1634068E-009  0.4778727E+02  0.7816164E-02  0.1312668E+00
        -11   -1    0    0    0    0  0.00000000000E+00  0.00000000000E+00  0.45593999997E+02  0.45594000000E+02  0.51100000000E-03 0. -1.
         11   -1    0    0    0    0 -0.00000000000E+00 -0.00000000000E+00 -0.45593999997E+02  0.45594000000E+02  0.51100000000E-03 0.  1.
    9900012    2    1    2    0    0 -0.32006456368E+01  0.46621799219E+01 -0.43030728044E+02  0.47787267170E+02  0.19999982337E+02 0.  0.
         12    1    1    2    0    0  0.32006456368E+01 -0.46621799219E+01  0.43030728044E+02  0.43400732830E+02  0.00000000000E+00 0. -1.
         11    1    3    3    0    0 -0.45769141475E+01  0.59809221343E+01 -0.24270762263E+02  0.25412388195E+02  0.51100000000E-03 0.  1.
        -11    1    3    3    0    0 -0.87666261729E+00 -0.31925781859E+01  0.76701236746E-01  0.33116425167E+01  0.51100000000E-03 0. -1.
         12    1    3    3    0    0  0.22529311280E+01  0.18738359734E+01 -0.18836667018E+02  0.19063236459E+02  0.00000000000E+00 0. -1.
</event>
<event>
 7    1  0.1634068E-009  0.4778726E+02  0.7816164E-02  0.1312668E+00
        -11   -1    0    0    0    0  0.00000000000E+00  0.00000000000E+00  0.45593999997E+02  0.45594000000E+02  0.51100000000E-03 0.  1.
         11   -1    0    0    0    0 -0.00000000000E+00 -0.00000000000E+00 -0.45593999997E+02  0.45594000000E+02  0.51100000000E-03 0. -1.
    9900012    2    1    2    0    0 -0.15181023508E+02 -0.40414402196E+02 -0.44538533773E+01  0.47787260496E+02  0.19999951904E+02 0.  0.
         12    1    1    2    0    0  0.15181023508E+02  0.40414402196E+02  0.44538533773E+01  0.43400739504E+02  0.00000000000E+00 0. -1.
         11    1    3    3    0    0 -0.17280395531E+01 -0.13879547603E+02 -0.92153723124E+01  0.16749658190E+02  0.51100000000E-03 0. -1.
        -11    1    3    3    0    0 -0.10460267424E+02 -0.13808169194E+02  0.65982571357E+00  0.17335457920E+02  0.51100000000E-03 0.  1.
         12    1    3    3    0    0 -0.29927165308E+01 -0.12726685399E+02  0.41016932216E+01  0.13702144385E+02  0.00000000000E+00 0. -1.
</event>
<event>
 7    1  0.1634068E-009  0.4778728E+02  0.7816164E-02  0.1312668E+00
        -11   -1    0    0    0    0  0.00000000000E+00  0.00000000000E+00  0.45593999997E+02  0.45594000000E+02  0.51100000000E-03 0. -1.
         11   -1    0    0    0    0 -0.00000000000E+00 -0.00000000000E+00 -0.45593999997E+02  0.45594000000E+02  0.51100000000E-03 0.  1.
    9900012    2    1    2    0    0 -0.41090537407E+02 -0.98127167982E+01 -0.99448891510E+01  0.47787280010E+02  0.20000040880E+02 0.  0.
         12    1    1    2    0    0  0.41090537407E+02  0.98127167982E+01  0.99448891510E+01  0.43400719990E+02  0.00000000000E+00 0. -1.
         11    1    3    3    0    0 -0.33578915731E+02 -0.11732937273E+02 -0.29374510914E+01  0.35690811393E+02  0.51100000000E-03 0.  1.
        -11    1    3    3    0    0 -0.81492348306E+01  0.15703301927E+01 -0.44078992601E+01  0.93971028188E+01  0.51100000000E-03 0. -1.
        -12    1    3    3    0    0  0.63761315451E+00  0.34989028164E+00 -0.25995387996E+01  0.26993657985E+01  0.00000000000E+00 0.  1.
</event>
<event>
 7    1  0.1634068E-009  0.4778728E+02  0.7816164E-02  0.1312668E+00
        -11   -1    0    0    0    0  0.00000000000E+00  0.00000000000E+00  0.45593999997E+02  0.45594000000E+02  0.51100000000E-03 0.  1.
         11   -1    0    0    0    0 -0.00000000000E+00 -0.00000000000E+00 -0.45593999997E+02  0.45594000000E+02  0.51100000000E-03 0. -1.
    9900012    2    1    2    0    0  0.80685997272E+01  0.56250541187E-01  0.42644076248E+02  0.47787277601E+02  0.20000029896E+02 0.  0.
         12    1    1    2    0    0 -0.80685997272E+01 -0.56250541187E-01 -0.42644076248E+02  0.43400722399E+02  0.00000000000E+00 0. -1.
         11    1    3    3    0    0  0.60507178934E+00 -0.80423819962E+01  0.20448661508E+02  0.21981669131E+02  0.51100000000E-03 0. -1.
        -11    1    3    3    0    0  0.60534453803E+01  0.20411193877E+01  0.14945008633E+02  0.16253112090E+02  0.51100000000E-03 0.  1.
         12    1    3    3    0    0  0.14100825576E+01  0.60575131497E+01  0.72504061069E+01  0.95524963801E+01  0.00000000000E+00 0. -1.
</event>
<event>
 7    1  0.1634068E-009  0.4778727E+02  0.7816164E-02  0.1312668E+00
        -11   -1    0    0    0    0  0.00000000000E+00  0.00000000000E+00  0.45593999997E+02  0.45594000000E+02  0.51100000000E-03 0.  1.
         11   -1    0    0    0    0 -0.00000000000E+00 -0.00000000000E+00 -0.45593999997E+02  0.45594000000E+02  0.51100000000E-03 0. -1.
    9900012    2    1    2    0    0  0.33597370797E+02 -0.93156607744E+01  0.25846824804E+02  0.47787271751E+02  0.20000003219E+02 0.  0.
         12    1    1    2    0    0 -0.33597370797E+02  0.93156607744E+01 -0.25846824804E+02  0.43400728249E+02  0.00000000000E+00 0. -1.
         11    1    3    3    0    0  0.14234572318E+00  0.15917594417E+01  0.24815562016E+01  0.29516235987E+01  0.51100000000E-03 0. -1.
        -11    1    3    3    0    0  0.26872969073E+02 -0.54461037783E+01  0.10445631765E+02  0.29341570107E+02  0.51100000000E-03 0.  1.
         12    1    3    3    0    0  0.65820560014E+01 -0.54613164378E+01  0.12919636837E+02  0.15494078044E+02  0.00000000000E+00 0. -1.
</event>
<event>
 7    1  0.1634068E-009  0.4778727E+02  0.7816164E-02  0.1312668E+00
        -11   -1    0    0    0    0  0.00000000000E+00  0.00000000000E+00  0.45593999997E+02  0.45594000000E+02  0.51100000000E-03 0.  1.
         11   -1    0    0    0    0 -0.00000000000E+00 -0.00000000000E+00 -0.45593999997E+02  0.45594000000E+02  0.51100000000E-03 0. -1.
    9900012    2    1    2    0    0 -0.84088907819E+01 -0.40291617131E+02  0.13765874249E+02  0.47787272482E+02  0.20000006555E+02 0.  0.
         12    1    1    2    0    0  0.84088907819E+01  0.40291617131E+02 -0.13765874249E+02  0.43400727518E+02  0.00000000000E+00 0. -1.
         11    1    3    3    0    0 -0.39388526810E+00 -0.11569138809E+01 -0.28375953358E+01  0.30895861993E+01  0.51100000000E-03 0. -1.
        -11    1    3    3    0    0  0.24516994452E+01 -0.68345187609E+01  0.99715954573E+00  0.73291066498E+01  0.51100000000E-03 0.  1.
        -12    1    3    3    0    0 -0.10466704959E+02 -0.32300184490E+02  0.15606310039E+02  0.37368579633E+02  0.00000000000E+00 0.  1.
</event>
<event>
 7    1  0.1634068E-009  0.4778727E+02  0.7816164E-02  0.1312668E+00
        -11   -1    0    0    0    0  0.00000000000E+00  0.00000000000E+00  0.45593999997E+02  0.45594000000E+02  0.51100000000E-03 0.  1.
         11   -1    0    0    0    0 -0.00000000000E+00 -0.00000000000E+00 -0.45593999997E+02  0.45594000000E+02  0.51100000000E-03 0. -1.
    9900012    2    1    2    0    0 -0.17339681587E+02 -0.14092985913E+02  0.37206804826E+02  0.47787272647E+02  0.20000007305E+02 0.  0.
         12    1    1    2    0    0  0.17339681587E+02  0.14092985913E+02 -0.37206804826E+02  0.43400727353E+02  0.00000000000E+00 0. -1.
         11    1    3    3    0    0 -0.32393767842E+01 -0.38039174561E+01  0.16155183175E+01  0.52510236772E+01  0.51100000000E-03 0. -1.
        -11    1    3    3    0    0 -0.15239611188E+02 -0.58881697402E+01  0.33996921941E+02  0.37718788339E+02  0.51100000000E-03 0.  1.
        -12    1    3    3    0    0  0.11393063851E+01 -0.44008987163E+01  0.15943645670E+01  0.48174606302E+01  0.00000000000E+00 0.  1.
</event>
<event>
 7    1  0.1634068E-009  0.4778727E+02  0.7816164E-02  0.1312668E+00
        -11   -1    0    0    0    0  0.00000000000E+00  0.00000000000E+00  0.45593999997E+02  0.45594000000E+02  0.51100000000E-03 0.  1.
         11   -1    0    0    0    0 -0.00000000000E+00 -0.00000000000E+00 -0.45593999997E+02  0.45594000000E+02  0.51100000000E-03 0. -1.
    9900012    2    1    2    0    0 -0.31194246437E+02  0.28207426658E+02 -0.10718377197E+02  0.47787267988E+02  0.19999986065E+02 0.  0.
         12    1    1    2    0    0  0.31194246437E+02 -0.28207426658E+02  0.10718377197E+02  0.43400732012E+02  0.00000000000E+00 0. -1.
         11    1    3    3    0    0 -0.73525424987E+00  0.53424155539E+01 -0.21323889616E+00  0.53969874792E+01  0.51100000000E-03 0. -1.
        -11    1    3    3    0    0 -0.31181695702E+02  0.24250457505E+02 -0.99960084586E+01  0.40746816090E+02  0.51100000000E-03 0.  1.
        -12    1    3    3    0    0  0.72270351465E+00 -0.13854464015E+01 -0.50912984203E+00  0.16434644194E+01  0.00000000000E+00 0.  1.
</event>
<event>
 7    1  0.1634068E-009  0.4778727E+02  0.7816164E-02  0.1312668E+00
        -11   -1    0    0    0    0  0.00000000000E+00  0.00000000000E+00  0.45593999997E+02  0.45594000000E+02  0.51100000000E-03 0. -1.
         11   -1    0    0    0    0 -0.00000000000E+00 -0.00000000000E+00 -0.45593999997E+02  0.45594000000E+02  0.51100000000E-03 0.  1.
    9900012    2    1    2    0    0 -0.33536129922E+02  0.23535424008E+02 -0.14319053217E+02  0.47787268688E+02  0.19999989255E+02 0.  0.
         12    1    1    2    0    0  0.33536129922E+02 -0.23535424008E+02  0.14319053217E+02  0.43400731312E+02  0.00000000000E+00 0. -1.
         11    1    3    3    0    0 -0.15842144084E+02  0.12117485957E+02 -0.17286017964E+02  0.26393435025E+02  0.51100000000E-03 0. -1.
        -11    1    3    3    0    0 -0.46656969019E+01  0.42796890073E+01  0.84385917960E+00  0.63872188123E+01  0.51100000000E-03 0.  1.
         12    1    3    3    0    0 -0.13028288937E+02  0.71382490439E+01  0.21231055675E+01  0.15006614851E+02  0.00000000000E+00 0. -1.
</event>
<event>
 7    1  0.1634068E-009  0.4778727E+02  0.7816164E-02  0.1312668E+00
        -11   -1    0    0    0    0  0.00000000000E+00  0.00000000000E+00  0.45593999997E+02  0.45594000000E+02  0.51100000000E-03 0.  1.
         11   -1    0    0    0    0 -0.00000000000E+00 -0.00000000000E+00 -0.45593999997E+02  0.45594000000E+02  0.51100000000E-03 0. -1.
    9900012    2    1    2    0    0 -0.22316796665E+02 -0.25197837167E+02  0.27398043934E+02  0.47787271634E+02  0.20000002689E+02 0.  0.
         12    1    1    2    0    0  0.22316796665E+02  0.25197837167E+02 -0.27398043934E+02  0.43400728366E+02  0.00000000000E+00 0. -1.
         11    1    3    3    0    0 -0.49169601354E+00  0.89657427716E-01  0.49688124856E+01  0.49938863826E+01  0.51100000000E-03 0. -1.
        -11    1    3    3    0    0 -0.56895685154E+01 -0.15305362150E+02  0.51253567793E+01  0.17114163222E+02  0.51100000000E-03 0.  1.
         12    1    3    3    0    0 -0.16135532136E+02 -0.99821324447E+01  0.17303874669E+02  0.25679222029E+02  0.00000000000E+00 0. -1.
</event>
<event>
 7    1  0.1634068E-009  0.4778727E+02  0.7816164E-02  0.1312668E+00
        -11   -1    0    0    0    0  0.00000000000E+00  0.00000000000E+00  0.45593999997E+02  0.45594000000E+02  0.51100000000E-03 0.  1.
         11   -1    0    0    0    0 -0.00000000000E+00 -0.00000000000E+00 -0.45593999997E+02  0.45594000000E+02  0.51100000000E-03 0. -1.
    9900012    2    1    2    0    0  0.40851389363E+02 -0.49140742283E+01  0.13807225142E+02  0.47787267235E+02  0.19999982630E+02 0.  0.
         12    1    1    2    0    0 -0.40851389363E+02  0.49140742283E+01 -0.13807225142E+02  0.43400732765E+02  0.00000000000E+00 0. -1.
         11    1    3    3    0    0  0.37816501620E+02 -0.60383696939E+01  0.68355398856E+01  0.38900826587E+02  0.51100000000E-03 0. -1.
        -11    1    3    3    0    0  0.29864879257E+01  0.20164846431E+01  0.26491038858E+01  0.44724794136E+01  0.51100000000E-03 0.  1.
         12    1    3    3    0    0  0.48399817317E-01 -0.89218917753E+00  0.43225813709E+01  0.44139612344E+01  0.00000000000E+00 0. -1.
</event>
<event>
 7    1  0.1634068E-009  0.4778727E+02  0.7816164E-02  0.1312668E+00
        -11   -1    0    0    0    0  0.00000000000E+00  0.00000000000E+00  0.45593999997E+02  0.45594000000E+02  0.51100000000E-03 0. -1.
         11   -1    0    0    0    0 -0.00000000000E+00 -0.00000000000E+00 -0.45593999997E+02  0.45594000000E+02  0.51100000000E-03 0.  1.
    9900012    2    1    2    0    0  0.30050267485E+02  0.31214191966E+02 -0.25057517380E+01  0.47787272497E+02  0.20000006624E+02 0.  0.
         12    1    1    2    0    0 -0.30050267485E+02 -0.31214191966E+02  0.25057517380E+01  0.43400727503E+02  0.00000000000E+00 0. -1.
         11    1    3    3    0    0  0.14814788751E+01  0.12887623620E+02 -0.91427199366E+00  0.13004672844E+02  0.51100000000E-03 0. -1.
        -11    1    3    3    0    0  0.38305177457E+01  0.31059132320E+01 -0.28754565662E+01  0.57085737212E+01  0.51100000000E-03 0.  1.
        -12    1    3    3    0    0  0.24738270864E+02  0.15220655114E+02  0.12839768218E+01  0.29074025932E+02  0.00000000000E+00 0.  1.
</event>
<event>
 7    1  0.1634068E-009  0.4778727E+02  0.7816164E-02  0.1312668E+00
        -11   -1    0    0    0    0  0.00000000000E+00  0.00000000000E+00  0.45593999997E+02  0.45594000000E+02  0.51100000000E-03 0.  1.
         11   -1    0    0    0    0 -0.00000000000E+00 -0.00000000000E+00 -0.45593999997E+02  0.45594000000E+02  0.51100000000E-03 0. -1.
    9900012    2    1    2    0    0 -0.14675393247E+02 -0.27785533622E+02  0.29936933433E+02  0.47787273866E+02  0.20000012864E+02 0.  0.
         12    1    1    2    0    0  0.14675393247E+02  0.27785533622E+02 -0.29936933433E+02  0.43400726134E+02  0.00000000000E+00 0. -1.
         11    1    3    3    0    0  0.19050272104E+01 -0.53432852593E+01  0.92052041004E+00  0.57469282335E+01  0.51100000000E-03 0. -1.
        -11    1    3    3    0    0 -0.13781971789E+02 -0.84835346430E+01  0.15282597091E+02  0.22259175200E+02  0.51100000000E-03 0.  1.
         12    1    3    3    0    0 -0.27984486676E+01 -0.13958713719E+02  0.13733815932E+02  0.19781170433E+02  0.00000000000E+00 0. -1.
</event>
<event>
 7    1  0.1634068E-009  0.4778727E+02  0.7816164E-02  0.1312668E+00
        -11   -1    0    0    0    0  0.00000000000E+00  0.00000000000E+00  0.45593999997E+02  0.45594000000E+02  0.51100000000E-03 0.  1.
         11   -1    0    0    0    0 -0.00000000000E+00 -0.00000000000E+00 -0.45593999997E+02  0.45594000000E+02  0.51100000000E-03 0. -1.
    9900012    2    1    2    0    0 -0.89912641410E+01 -0.42051054944E+02  0.58727581438E+01  0.47787270272E+02  0.19999996477E+02 0.  0.
         12    1    1    2    0    0  0.89912641410E+01  0.42051054944E+02 -0.58727581438E+01  0.43400729728E+02  0.00000000000E+00 0. -1.
         11    1    3    3    0    0 -0.26258873638E+01 -0.76860668836E+01  0.70362411666E+01  0.10746143429E+02  0.51100000000E-03 0. -1.
        -11    1    3    3    0    0 -0.29754276642E+01 -0.27722786597E+02  0.37171775980E+01  0.28128694887E+02  0.51100000000E-03 0.  1.
         12    1    3    3    0    0 -0.33899491130E+01 -0.66422014627E+01 -0.48806606208E+01  0.89124319552E+01  0.00000000000E+00 0. -1.
</event>
<event>
 7    1  0.1634068E-009  0.4778727E+02  0.7816164E-02  0.1312668E+00
        -11   -1    0    0    0    0  0.00000000000E+00  0.00000000000E+00  0.45593999997E+02  0.45594000000E+02  0.51100000000E-03 0. -1.
         11   -1    0    0    0    0 -0.00000000000E+00 -0.00000000000E+00 -0.45593999997E+02  0.45594000000E+02  0.51100000000E-03 0.  1.
    9900012    2    1    2    0    0  0.29601729945E+02  0.26893924975E+02 -0.16854601788E+02  0.47787271691E+02  0.20000002948E+02 0.  0.
         12    1    1    2    0    0 -0.29601729945E+02 -0.26893924975E+02  0.16854601788E+02  0.43400728309E+02  0.00000000000E+00 0. -1.
         11    1    3    3    0    0  0.12758013715E+02  0.23310133637E+01 -0.75869537556E+01  0.15025392001E+02  0.51100000000E-03 0. -1.
        -11    1    3    3    0    0  0.70566989015E+01  0.11950652088E+02 -0.94608981873E+01  0.16796537723E+02  0.51100000000E-03 0.  1.
         12    1    3    3    0    0  0.97870173295E+01  0.12612259523E+02  0.19325015471E+00  0.15965341967E+02  0.00000000000E+00 0. -1.
</event>
<event>
 7    1  0.1634068E-009  0.4778727E+02  0.7816164E-02  0.1312668E+00
        -11   -1    0    0    0    0  0.00000000000E+00  0.00000000000E+00  0.45593999997E+02  0.45594000000E+02  0.51100000000E-03 0.  1.
         11   -1    0    0    0    0 -0.00000000000E+00 -0.00000000000E+00 -0.45593999997E+02  0.45594000000E+02  0.51100000000E-03 0. -1.
    9900012    2    1    2    0    0  0.37225930081E+02 -0.16550339220E+02  0.14964626318E+02  0.47787266832E+02  0.19999980794E+02 0.  0.
         12    1    1    2    0    0 -0.37225930081E+02  0.16550339220E+02 -0.14964626318E+02  0.43400733168E+02  0.00000000000E+00 0. -1.
         11    1    3    3    0    0  0.35889973260E+01 -0.36576710421E+01 -0.23289231175E+01  0.56287958221E+01  0.51100000000E-03 0. -1.
        -11    1    3    3    0    0  0.77164228333E+00 -0.39253121730E+01  0.37974195394E+01  0.55157866972E+01  0.51100000000E-03 0.  1.
        -12    1    3    3    0    0  0.32865290471E+02 -0.89673560053E+01  0.13496129896E+02  0.36642684313E+02  0.00000000000E+00 0.  1.
</event>
<event>
 7    1  0.1634068E-009  0.4778727E+02  0.7816164E-02  0.1312668E+00
        -11   -1    0    0    0    0  0.00000000000E+00  0.00000000000E+00  0.45593999997E+02  0.45594000000E+02  0.51100000000E-03 0. -1.
         11   -1    0    0    0    0 -0.00000000000E+00 -0.00000000000E+00 -0.45593999997E+02  0.45594000000E+02  0.51100000000E-03 0.  1.
    9900012    2    1    2    0    0  0.10750036094E+02  0.41004450947E+02 -0.93110319324E+01  0.47787267412E+02  0.19999983440E+02 0.  0.
         12    1    1    2    0    0 -0.10750036094E+02 -0.41004450947E+02  0.93110319324E+01  0.43400732588E+02  0.00000000000E+00 0. -1.
         11    1    3    3    0    0  0.58685227453E+01  0.11198388514E+01 -0.13367091399E+01  0.61221229856E+01  0.51100000000E-03 0. -1.
        -11    1    3    3    0    0  0.50249680673E+01  0.12999863337E+02 -0.39035209698E+01  0.14473569950E+02  0.51100000000E-03 0.  1.
         12    1    3    3    0    0 -0.14345471846E+00  0.26884748758E+02 -0.40708018227E+01  0.27191574477E+02  0.00000000000E+00 0. -1.
</event>
<event>
 7    1  0.1634068E-009  0.4778727E+02  0.7816164E-02  0.1312668E+00
        -11   -1    0    0    0    0  0.00000000000E+00  0.00000000000E+00  0.45593999997E+02  0.45594000000E+02  0.51100000000E-03 0. -1.
         11   -1    0    0    0    0 -0.00000000000E+00 -0.00000000000E+00 -0.45593999997E+02  0.45594000000E+02  0.51100000000E-03 0.  1.
    9900012    2    1    2    0    0 -0.24941462270E+02 -0.35383914827E+02 -0.30862952698E+01  0.47787272043E+02  0.20000004555E+02 0.  0.
         12    1    1    2    0    0  0.24941462270E+02  0.35383914827E+02  0.30862952698E+01  0.43400727957E+02  0.00000000000E+00 0. -1.
         11    1    3    3    0    0  0.86461646338E+00 -0.79623711332E+01 -0.18373329529E+01  0.82172202314E+01  0.51100000000E-03 0. -1.
        -11    1    3    3    0    0 -0.12988193372E+02 -0.20115256495E+02  0.32070343394E+01  0.24157851321E+02  0.51100000000E-03 0.  1.
         12    1    3    3    0    0 -0.12817885361E+02 -0.73062871987E+01 -0.44559966563E+01  0.15412200491E+02  0.00000000000E+00 0. -1.
</event>
<event>
 7    1  0.1634068E-009  0.4778727E+02  0.7816164E-02  0.1312668E+00
        -11   -1    0    0    0    0  0.00000000000E+00  0.00000000000E+00  0.45593999997E+02  0.45594000000E+02  0.51100000000E-03 0.  1.
         11   -1    0    0    0    0 -0.00000000000E+00 -0.00000000000E+00 -0.45593999997E+02  0.45594000000E+02  0.51100000000E-03 0. -1.
    9900012    2    1    2    0    0 -0.28200458365E+02  0.22710083626E+02  0.23929261018E+02  0.47787270937E+02  0.19999999511E+02 0.  0.
         12    1    1    2    0    0  0.28200458365E+02 -0.22710083626E+02 -0.23929261018E+02  0.43400729063E+02  0.00000000000E+00 0. -1.
         11    1    3    3    0    0 -0.14796095303E+02  0.10543724064E+02  0.61800757163E+01  0.19190828265E+02  0.51100000000E-03 0. -1.
        -11    1    3    3    0    0  0.14591223462E+01  0.50691047570E+01  0.15586419530E+01  0.55003841736E+01  0.51100000000E-03 0.  1.
        -12    1    3    3    0    0 -0.14863485408E+02  0.70972548046E+01  0.16190543349E+02  0.23096058499E+02  0.00000000000E+00 0.  1.
</event>
<event>
 7    1  0.1634068E-009  0.4778727E+02  0.7816164E-02  0.1312668E+00
        -11   -1    0    0    0    0  0.00000000000E+00  0.00000000000E+00  0.45593999997E+02  0.45594000000E+02  0.51100000000E-03 0.  1.
         11   -1    0    0    0    0 -0.00000000000E+00 -0.00000000000E+00 -0.45593999997E+02  0.45594000000E+02  0.51100000000E-03 0. -1.
    9900012    2    1    2    0    0  0.24897606560E+02  0.53798038278E+01  0.35139579765E+02  0.47787272267E+02  0.20000005576E+02 0.  0.
         12    1    1    2    0    0 -0.24897606560E+02 -0.53798038278E+01 -0.35139579765E+02  0.43400727733E+02  0.00000000000E+00 0. -1.
         11    1    3    3    0    0  0.70339096926E+01  0.55131802084E+01  0.37154781473E+01  0.96786269532E+01  0.51100000000E-03 0. -1.
        -11    1    3    3    0    0  0.18639261093E+02  0.19636322010E+01  0.24591759535E+02  0.30919775918E+02  0.51100000000E-03 0.  1.
        -12    1    3    3    0    0 -0.77556422559E+00 -0.20970085817E+01  0.68323420828E+01  0.71888693962E+01  0.00000000000E+00 0.  1.
</event>
<event>
 7    1  0.1634068E-009  0.4778727E+02  0.7816164E-02  0.1312668E+00
        -11   -1    0    0    0    0  0.00000000000E+00  0.00000000000E+00  0.45593999997E+02  0.45594000000E+02  0.51100000000E-03 0.  1.
         11   -1    0    0    0    0 -0.00000000000E+00 -0.00000000000E+00 -0.45593999997E+02  0.45594000000E+02  0.51100000000E-03 0. -1.
    9900012    2    1    2    0    0 -0.35810813443E+02 -0.92545382003E+01  0.22705996647E+02  0.47787272812E+02  0.20000008058E+02 0.  0.
         12    1    1    2    0    0  0.35810813443E+02  0.92545382003E+01 -0.22705996647E+02  0.43400727188E+02  0.00000000000E+00 0. -1.
         11    1    3    3    0    0 -0.12445046044E+00 -0.64296272418E+00 -0.16291509109E+01  0.17558536195E+01  0.51100000000E-03 0. -1.
        -11    1    3    3    0    0 -0.34587306751E+02 -0.80353714462E+01  0.18447639201E+02  0.40014552040E+02  0.51100000000E-03 0.  1.
        -12    1    3    3    0    0 -0.10990562312E+01 -0.57620402987E+00  0.58875083567E+01  0.60168671527E+01  0.00000000000E+00 0.  1.
</event>
<event>
 7    1  0.1634068E-009  0.4778727E+02  0.7816164E-02  0.1312668E+00
        -11   -1    0    0    0    0  0.00000000000E+00  0.00000000000E+00  0.45593999997E+02  0.45594000000E+02  0.51100000000E-03 0.  1.
         11   -1    0    0    0    0 -0.00000000000E+00 -0.00000000000E+00 -0.45593999997E+02  0.45594000000E+02  0.51100000000E-03 0. -1.
    9900012    2    1    2    0    0 -0.87226113573E+01  0.41867237066E+02  0.73941714601E+01  0.47787271204E+02  0.20000000726E+02 0.  0.
         12    1    1    2    0    0  0.87226113573E+01 -0.41867237066E+02 -0.73941714601E+01  0.43400728796E+02  0.00000000000E+00 0. -1.
         11    1    3    3    0    0  0.44397486679E-02 -0.62209163881E+00 -0.87686509755E+00  0.10751327262E+01  0.51100000000E-03 0. -1.
        -11    1    3    3    0    0 -0.73324348514E+01  0.29321936311E+02  0.12650746945E+02  0.32765560402E+02  0.51100000000E-03 0.  1.
        -12    1    3    3    0    0 -0.13946162546E+01  0.13167392394E+02 -0.43797103874E+01  0.13946578076E+02  0.00000000000E+00 0.  1.
</event>
<event>
 7    1  0.2280196E-009  0.4778727E+02  0.7816164E-02  0.1312668E+00
        -11   -1    0    0    0    0  0.00000000000E+00  0.00000000000E+00  0.45593999997E+02  0.45594000000E+02  0.51100000000E-03 0. -1.
         11   -1    0    0    0    0 -0.00000000000E+00 -0.00000000000E+00 -0.45593999997E+02  0.45594000000E+02  0.51100000000E-03 0.  1.
    9900012    2    1    2    0    0 -0.34729429855E+01  0.17060429689E+02 -0.39755549829E+02  0.47787270325E+02  0.19999996719E+02 0.  0.
         12    1    1    2    0    0  0.34729429855E+01 -0.17060429689E+02  0.39755549829E+02  0.43400729675E+02  0.00000000000E+00 0. -1.
         11    1    3    3    0    0  0.11648395937E+01  0.19374266727E+01 -0.37741970222E+00  0.22919247989E+01  0.51100000000E-03 0. -1.
        -11    1    3    3    0    0 -0.86202939101E+01  0.79206267418E+01 -0.33202600819E+02  0.35205944050E+02  0.51100000000E-03 0.  1.
        -12    1    3    3    0    0  0.39825113309E+01  0.72023762743E+01 -0.61755293080E+01  0.10289401476E+02  0.00000000000E+00 0.  1.
</event>
<event>
 7    1  0.1634068E-009  0.4778726E+02  0.7816164E-02  0.1312668E+00
        -11   -1    0    0    0    0  0.00000000000E+00  0.00000000000E+00  0.45593999997E+02  0.45594000000E+02  0.51100000000E-03 0.  1.
         11   -1    0    0    0    0 -0.00000000000E+00 -0.00000000000E+00 -0.45593999997E+02  0.45594000000E+02  0.51100000000E-03 0. -1.
    9900012    2    1    2    0    0  0.16385627451E+02  0.39159659733E+01  0.39997502792E+02  0.47787264914E+02  0.19999972047E+02 0.  0.
         12    1    1    2    0    0 -0.16385627451E+02 -0.39159659733E+01 -0.39997502792E+02  0.43400735086E+02  0.00000000000E+00 0. -1.
         11    1    3    3    0    0 -0.10854767518E+00  0.22906361572E+01 -0.13799130659E+01  0.26763701039E+01  0.51100000000E-03 0. -1.
        -11    1    3    3    0    0  0.52874714132E+01  0.54999068781E+00  0.61544585158E+01  0.81324783176E+01  0.51100000000E-03 0.  1.
        -12    1    3    3    0    0  0.11206703712E+02  0.10753391283E+01  0.35222957342E+02  0.36978416492E+02  0.00000000000E+00 0.  1.
</event>
<event>
 7    1  0.1634068E-009  0.4778726E+02  0.7816164E-02  0.1312668E+00
        -11   -1    0    0    0    0  0.00000000000E+00  0.00000000000E+00  0.45593999997E+02  0.45594000000E+02  0.51100000000E-03 0.  1.
         11   -1    0    0    0    0 -0.00000000000E+00 -0.00000000000E+00 -0.45593999997E+02  0.45594000000E+02  0.51100000000E-03 0. -1.
    9900012    2    1    2    0    0  0.93515522494E+01  0.26165377552E+01  0.42300430247E+02  0.47787260393E+02  0.19999951437E+02 0.  0.
         12    1    1    2    0    0 -0.93515522494E+01 -0.26165377552E+01 -0.42300430247E+02  0.43400739607E+02  0.00000000000E+00 0. -1.
         11    1    3    3    0    0  0.56475938333E+00 -0.10429798651E+01 -0.10139597345E+01  0.15604085248E+01  0.51100000000E-03 0. -1.
        -11    1    3    3    0    0  0.78804334926E+01  0.73128706255E+01  0.20945103242E+02  0.23543080914E+02  0.51100000000E-03 0.  1.
        -12    1    3    3    0    0  0.90635937345E+00 -0.36533530052E+01  0.22369286739E+02  0.22683770955E+02  0.00000000000E+00 0.  1.
</event>
<event>
 7    1  0.1634068E-009  0.4778727E+02  0.7816164E-02  0.1312668E+00
        -11   -1    0    0    0    0  0.00000000000E+00  0.00000000000E+00  0.45593999997E+02  0.45594000000E+02  0.51100000000E-03 0.  1.
         11   -1    0    0    0    0 -0.00000000000E+00 -0.00000000000E+00 -0.45593999997E+02  0.45594000000E+02  0.51100000000E-03 0. -1.
    9900012    2    1    2    0    0  0.21033072982E+02 -0.37875375189E+02  0.25863158521E+01  0.47787271498E+02  0.20000002069E+02 0.  0.
         12    1    1    2    0    0 -0.21033072982E+02  0.37875375189E+02 -0.25863158521E+01  0.43400728502E+02  0.00000000000E+00 0. -1.
         11    1    3    3    0    0  0.17613890948E+02 -0.14596968851E+02  0.54161506940E+00  0.22882613512E+02  0.51100000000E-03 0.  1.
        -11    1    3    3    0    0  0.15459719701E+01 -0.11668057663E+02 -0.29395728311E+01  0.12131557512E+02  0.51100000000E-03 0. -1.
        -12    1    3    3    0    0  0.18732100639E+01 -0.11610348675E+02  0.49842736138E+01  0.12773100475E+02  0.00000000000E+00 0.  1.
</event>
<event>
 7    1  0.1634068E-009  0.4778727E+02  0.7816164E-02  0.1312668E+00
        -11   -1    0    0    0    0  0.00000000000E+00  0.00000000000E+00  0.45593999997E+02  0.45594000000E+02  0.51100000000E-03 0. -1.
         11   -1    0    0    0    0 -0.00000000000E+00 -0.00000000000E+00 -0.45593999997E+02  0.45594000000E+02  0.51100000000E-03 0.  1.
    9900012    2    1    2    0    0 -0.12111089071E+02  0.24899754682E+01 -0.41602221179E+02  0.47787271165E+02  0.20000000551E+02 0.  0.
         12    1    1    2    0    0  0.12111089071E+02 -0.24899754682E+01  0.41602221179E+02  0.43400728835E+02  0.00000000000E+00 0. -1.
         11    1    3    3    0    0  0.29255085191E+00 -0.21382570658E+01  0.56390569802E+00  0.22306320131E+01  0.51100000000E-03 0. -1.
        -11    1    3    3    0    0 -0.43654220539E+01 -0.12835378543E+01 -0.38432886896E+01  0.59561100851E+01  0.51100000000E-03 0.  1.
        -12    1    3    3    0    0 -0.80382178687E+01  0.59117703884E+01 -0.38322838188E+02  0.39600529067E+02  0.00000000000E+00 0.  1.
</event>
<event>
 7    1  0.1634068E-009  0.4778727E+02  0.7816164E-02  0.1312668E+00
        -11   -1    0    0    0    0  0.00000000000E+00  0.00000000000E+00  0.45593999997E+02  0.45594000000E+02  0.51100000000E-03 0.  1.
         11   -1    0    0    0    0 -0.00000000000E+00 -0.00000000000E+00 -0.45593999997E+02  0.45594000000E+02  0.51100000000E-03 0. -1.
    9900012    2    1    2    0    0 -0.25952598121E+02 -0.32969333125E+02  0.11095443593E+02  0.47787272535E+02  0.20000006798E+02 0.  0.
         12    1    1    2    0    0  0.25952598121E+02  0.32969333125E+02 -0.11095443593E+02  0.43400727465E+02  0.00000000000E+00 0. -1.
         11    1    3    3    0    0 -0.19709857960E+02 -0.21160820745E+02  0.13137294132E+02  0.31762357167E+02  0.51100000000E-03 0. -1.
        -11    1    3    3    0    0 -0.52828998881E+01 -0.12591027163E+02 -0.20567547322E-01  0.13654428569E+02  0.51100000000E-03 0.  1.
         12    1    3    3    0    0 -0.95984027255E+00  0.78251478308E+00 -0.20212829921E+01  0.23704867999E+01  0.00000000000E+00 0. -1.
</event>
<event>
 7    1  0.1634068E-009  0.4778727E+02  0.7816164E-02  0.1312668E+00
        -11   -1    0    0    0    0  0.00000000000E+00  0.00000000000E+00  0.45593999997E+02  0.45594000000E+02  0.51100000000E-03 0.  1.
         11   -1    0    0    0    0 -0.00000000000E+00 -0.00000000000E+00 -0.45593999997E+02  0.45594000000E+02  0.51100000000E-03 0. -1.
    9900012    2    1    2    0    0 -0.84892009261E+01  0.26983531733E+02  0.32915736217E+02  0.47787271805E+02  0.20000003470E+02 0.  0.
         12    1    1    2    0    0  0.84892009261E+01 -0.26983531733E+02 -0.32915736217E+02  0.43400728195E+02  0.00000000000E+00 0. -1.
         11    1    3    3    0    0 -0.45146560976E+01 -0.52275638285E+00  0.80349457298E+01  0.92312375691E+01  0.51100000000E-03 0. -1.
        -11    1    3    3    0    0 -0.47572557671E+01  0.58855958779E+01  0.87556279406E+01  0.11572931442E+02  0.51100000000E-03 0.  1.
        -12    1    3    3    0    0  0.78271093857E+00  0.21620692238E+02  0.16125162546E+02  0.26983102794E+02  0.00000000000E+00 0.  1.
</event>
<event>
 7    1  0.1634068E-009  0.4778728E+02  0.7816164E-02  0.1312668E+00
        -11   -1    0    0    0    0  0.00000000000E+00  0.00000000000E+00  0.45593999997E+02  0.45594000000E+02  0.51100000000E-03 0.  1.
         11   -1    0    0    0    0 -0.00000000000E+00 -0.00000000000E+00 -0.45593999997E+02  0.45594000000E+02  0.51100000000E-03 0. -1.
    9900012    2    1    2    0    0  0.32142432809E+02  0.19384101321E+01  0.29098615648E+02  0.47787275889E+02  0.20000022086E+02 0.  0.
         12    1    1    2    0    0 -0.32142432809E+02 -0.19384101321E+01 -0.29098615648E+02  0.43400724111E+02  0.00000000000E+00 0. -1.
         11    1    3    3    0    0  0.23047707785E+02 -0.11830382183E+01  0.27396435879E+02  0.35821238291E+02  0.51100000000E-03 0. -1.
        -11    1    3    3    0    0  0.48671894810E+01 -0.93864637837E+00  0.32204389979E+01  0.59111604671E+01  0.51100000000E-03 0.  1.
        -12    1    3    3    0    0  0.42275355438E+01  0.40600947287E+01 -0.15182592288E+01  0.60548771306E+01  0.00000000000E+00 0.  1.
</event>
<event>
 7    1  0.1634068E-009  0.4778727E+02  0.7816164E-02  0.1312668E+00
        -11   -1    0    0    0    0  0.00000000000E+00  0.00000000000E+00  0.45593999997E+02  0.45594000000E+02  0.51100000000E-03 0. -1.
         11   -1    0    0    0    0 -0.00000000000E+00 -0.00000000000E+00 -0.45593999997E+02  0.45594000000E+02  0.51100000000E-03 0.  1.
    9900012    2    1    2    0    0  0.31887854022E+02 -0.21478555534E+02  0.20136022831E+02  0.47787274229E+02  0.20000014520E+02 0.  0.
         12    1    1    2    0    0 -0.31887854022E+02  0.21478555534E+02 -0.20136022831E+02  0.43400725771E+02  0.00000000000E+00 0. -1.
         11    1    3    3    0    0 -0.13598906264E+01  0.40387804790E+00  0.31248737142E+00  0.14526075216E+01  0.51100000000E-03 0. -1.
        -11    1    3    3    0    0  0.27733811149E+02 -0.11659931411E+02  0.12338840156E+02  0.32517153289E+02  0.51100000000E-03 0.  1.
         12    1    3    3    0    0  0.55139334989E+01 -0.10222502171E+02  0.74846953040E+01  0.13817513418E+02  0.00000000000E+00 0. -1.
</event>
<event>
 7    1  0.1634068E-009  0.4778727E+02  0.7816164E-02  0.1312668E+00
        -11   -1    0    0    0    0  0.00000000000E+00  0.00000000000E+00  0.45593999997E+02  0.45594000000E+02  0.51100000000E-03 0.  1.
         11   -1    0    0    0    0 -0.00000000000E+00 -0.00000000000E+00 -0.45593999997E+02  0.45594000000E+02  0.51100000000E-03 0. -1.
    9900012    2    1    2    0    0  0.26075537935E+01  0.38818295871E+02  0.19234445393E+02  0.47787270506E+02  0.19999997543E+02 0.  0.
         12    1    1    2    0    0 -0.26075537935E+01 -0.38818295871E+02 -0.19234445393E+02  0.43400729494E+02  0.00000000000E+00 0. -1.
         11    1    3    3    0    0  0.39215319732E+01  0.10111073980E+02  0.10125952699E+02  0.14837356515E+02  0.51100000000E-03 0.  1.
        -11    1    3    3    0    0  0.55333901947E+01  0.94420274689E+01  0.52703882171E+01  0.12146904214E+02  0.51100000000E-03 0. -1.
        -12    1    3    3    0    0 -0.68473683745E+01  0.19265194422E+02  0.38381044770E+01  0.20803009776E+02  0.00000000000E+00 0.  1.
</event>
<event>
 7    1  0.1634068E-009  0.4778726E+02  0.7816164E-02  0.1312668E+00
        -11   -1    0    0    0    0  0.00000000000E+00  0.00000000000E+00  0.45593999997E+02  0.45594000000E+02  0.51100000000E-03 0. -1.
         11   -1    0    0    0    0 -0.00000000000E+00 -0.00000000000E+00 -0.45593999997E+02  0.45594000000E+02  0.51100000000E-03 0.  1.
    9900012    2    1    2    0    0  0.21955302658E+01 -0.29439128851E+02 -0.31814167486E+02  0.47787263676E+02  0.19999966403E+02 0.  0.
         12    1    1    2    0    0 -0.21955302658E+01  0.29439128851E+02  0.31814167486E+02  0.43400736324E+02  0.00000000000E+00 0. -1.
         11    1    3    3    0    0 -0.34265561909E+01 -0.24594565986E+01 -0.59770970721E+01  0.73154564971E+01  0.51100000000E-03 0. -1.
        -11    1    3    3    0    0  0.98609856748E+01 -0.14735161888E+02 -0.18305669463E+02  0.25484535882E+02  0.51100000000E-03 0.  1.
        -12    1    3    3    0    0 -0.42388992181E+01 -0.12244510364E+02 -0.75314009510E+01  0.14987271297E+02  0.00000000000E+00 0.  1.
</event>
<event>
 7    1  0.1634068E-009  0.4778727E+02  0.7816164E-02  0.1312668E+00
        -11   -1    0    0    0    0  0.00000000000E+00  0.00000000000E+00  0.45593999997E+02  0.45594000000E+02  0.51100000000E-03 0.  1.
         11   -1    0    0    0    0 -0.00000000000E+00 -0.00000000000E+00 -0.45593999997E+02  0.45594000000E+02  0.51100000000E-03 0. -1.
    9900012    2    1    2    0    0  0.19767233285E+02 -0.58209390970E+00  0.38633419735E+02  0.47787268837E+02  0.19999989935E+02 0.  0.
         12    1    1    2    0    0 -0.19767233285E+02  0.58209390970E+00 -0.38633419735E+02  0.43400731163E+02  0.00000000000E+00 0. -1.
         11    1    3    3    0    0  0.69824541955E+01  0.17511425295E+01  0.42586648749E+01  0.83640536541E+01  0.51100000000E-03 0. -1.
        -11    1    3    3    0    0 -0.27235470844E+01 -0.23687327247E+01  0.88315973985E+01  0.95407398200E+01  0.51100000000E-03 0.  1.
        -12    1    3    3    0    0  0.15508326174E+02  0.35496285486E-01  0.25543157461E+02  0.29882475363E+02  0.00000000000E+00 0.  1.
</event>
<event>
 7    1  0.1634068E-009  0.4778727E+02  0.7816164E-02  0.1312668E+00
        -11   -1    0    0    0    0  0.00000000000E+00  0.00000000000E+00  0.45593999997E+02  0.45594000000E+02  0.51100000000E-03 0.  1.
         11   -1    0    0    0    0 -0.00000000000E+00 -0.00000000000E+00 -0.45593999997E+02  0.45594000000E+02  0.51100000000E-03 0. -1.
    9900012    2    1    2    0    0 -0.93861482659E+01  0.26102892147E+02  0.33379074597E+02  0.47787269837E+02  0.19999994497E+02 0.  0.
         12    1    1    2    0    0  0.93861482659E+01 -0.26102892147E+02 -0.33379074597E+02  0.43400730163E+02  0.00000000000E+00 0. -1.
         11    1    3    3    0    0  0.31323910071E+01  0.60517441335E+01  0.77108025752E+01  0.10290381776E+02  0.51100000000E-03 0. -1.
        -11    1    3    3    0    0 -0.15485829091E+01  0.10300717380E+02  0.18341211764E+02  0.21092722366E+02  0.51100000000E-03 0.  1.
         12    1    3    3    0    0 -0.10969956364E+02  0.97504306332E+01  0.73270602579E+01  0.16404165696E+02  0.00000000000E+00 0. -1.
</event>
<event>
 7    1  0.1634068E-009  0.4778726E+02  0.7816164E-02  0.1312668E+00
        -11   -1    0    0    0    0  0.00000000000E+00  0.00000000000E+00  0.45593999997E+02  0.45594000000E+02  0.51100000000E-03 0. -1.
         11   -1    0    0    0    0 -0.00000000000E+00 -0.00000000000E+00 -0.45593999997E+02  0.45594000000E+02  0.51100000000E-03 0.  1.
    9900012    2    1    2    0    0  0.56542448726E+01  0.39397580706E+02 -0.17305619646E+02  0.47787258970E+02  0.19999944948E+02 0.  0.
         12    1    1    2    0    0 -0.56542448726E+01 -0.39397580706E+02  0.17305619646E+02  0.43400741030E+02  0.00000000000E+00 0. -1.
         11    1    3    3    0    0  0.57485214928E+00 -0.19555449308E+01 -0.14680721052E+01  0.25119408705E+01  0.51100000000E-03 0. -1.
        -11    1    3    3    0    0 -0.16650737127E+01  0.16636866967E+02 -0.75758828885E+01  0.18356247295E+02  0.51100000000E-03 0.  1.
        -12    1    3    3    0    0  0.67444664361E+01  0.24716258670E+02 -0.82616646528E+01  0.26919070804E+02  0.00000000000E+00 0.  1.
</event>
<event>
 7    1  0.1634068E-009  0.4778727E+02  0.7816164E-02  0.1312668E+00
        -11   -1    0    0    0    0  0.00000000000E+00  0.00000000000E+00  0.45593999997E+02  0.45594000000E+02  0.51100000000E-03 0. -1.
         11   -1    0    0    0    0 -0.00000000000E+00 -0.00000000000E+00 -0.45593999997E+02  0.45594000000E+02  0.51100000000E-03 0.  1.
    9900012    2    1    2    0    0  0.11389848594E+02 -0.29498843776E+02 -0.29727307273E+02  0.47787271517E+02  0.20000002154E+02 0.  0.
         12    1    1    2    0    0 -0.11389848594E+02  0.29498843776E+02  0.29727307273E+02  0.43400728483E+02  0.00000000000E+00 0. -1.
         11    1    3    3    0    0  0.13731136683E+02 -0.14255278609E+02 -0.14684825121E+02  0.24645510178E+02  0.51100000000E-03 0. -1.
        -11    1    3    3    0    0 -0.24720846391E+01 -0.37255033917E+01 -0.91934406681E+01  0.10223009809E+02  0.51100000000E-03 0.  1.
        -12    1    3    3    0    0  0.13079655068E+00 -0.11518061776E+02 -0.58490414845E+01  0.12918751530E+02  0.00000000000E+00 0.  1.
</event>
<event>
 7    1  0.1634068E-009  0.4778727E+02  0.7816164E-02  0.1312668E+00
        -11   -1    0    0    0    0  0.00000000000E+00  0.00000000000E+00  0.45593999997E+02  0.45594000000E+02  0.51100000000E-03 0. -1.
         11   -1    0    0    0    0 -0.00000000000E+00 -0.00000000000E+00 -0.45593999997E+02  0.45594000000E+02  0.51100000000E-03 0.  1.
    9900012    2    1    2    0    0 -0.41338438128E+02 -0.12116942718E+02 -0.52855248053E+01  0.47787267977E+02  0.19999986013E+02 0.  0.
         12    1    1    2    0    0  0.41338438128E+02  0.12116942718E+02  0.52855248053E+01  0.43400732023E+02  0.00000000000E+00 0. -1.
         11    1    3    3    0    0 -0.26327429443E+02 -0.96670807782E+00 -0.28208502418E+01  0.26495759320E+02  0.51100000000E-03 0. -1.
        -11    1    3    3    0    0 -0.95007120361E+01 -0.36337896108E+01 -0.54050439003E+01  0.11518787087E+02  0.51100000000E-03 0.  1.
         12    1    3    3    0    0 -0.55102966486E+01 -0.75164450298E+01  0.29403693368E+01  0.97727215697E+01  0.00000000000E+00 0. -1.
</event>
<event>
 7    1  0.1634068E-009  0.4778727E+02  0.7816164E-02  0.1312668E+00
        -11   -1    0    0    0    0  0.00000000000E+00  0.00000000000E+00  0.45593999997E+02  0.45594000000E+02  0.51100000000E-03 0.  1.
         11   -1    0    0    0    0 -0.00000000000E+00 -0.00000000000E+00 -0.45593999997E+02  0.45594000000E+02  0.51100000000E-03 0. -1.
    9900012    2    1    2    0    0  0.73603677304E+01 -0.57031214560E+01  0.42390123354E+02  0.47787272293E+02  0.20000005694E+02 0.  0.
         12    1    1    2    0    0 -0.73603677304E+01  0.57031214560E+01 -0.42390123354E+02  0.43400727707E+02  0.00000000000E+00 0. -1.
         11    1    3    3    0    0  0.45788978267E+01 -0.46433537549E+01  0.22557201675E+02  0.23480936673E+02  0.51100000000E-03 0. -1.
        -11    1    3    3    0    0 -0.50969001452E+01 -0.30316579811E+01  0.83442258830E+01  0.10236964738E+02  0.51100000000E-03 0.  1.
         12    1    3    3    0    0  0.78783700488E+01  0.19718902801E+01  0.11488695797E+02  0.14069370882E+02  0.00000000000E+00 0. -1.
</event>
<event>
 7    1  0.1634068E-009  0.4778726E+02  0.7816164E-02  0.1312668E+00
        -11   -1    0    0    0    0  0.00000000000E+00  0.00000000000E+00  0.45593999997E+02  0.45594000000E+02  0.51100000000E-03 0.  1.
         11   -1    0    0    0    0 -0.00000000000E+00 -0.00000000000E+00 -0.45593999997E+02  0.45594000000E+02  0.51100000000E-03 0. -1.
    9900012    2    1    2    0    0 -0.31362726255E+02 -0.14726691936E+02  0.26136718915E+02  0.47787261191E+02  0.19999955074E+02 0.  0.
         12    1    1    2    0    0  0.31362726255E+02  0.14726691936E+02 -0.26136718915E+02  0.43400738809E+02  0.00000000000E+00 0. -1.
         11    1    3    3    0    0 -0.54410021326E+00  0.12867583654E+01  0.19389984684E+01  0.23898760333E+01  0.51100000000E-03 0. -1.
        -11    1    3    3    0    0 -0.27736659669E+02 -0.11601467678E+02  0.12574895057E+02  0.32589021585E+02  0.51100000000E-03 0.  1.
        -12    1    3    3    0    0 -0.30819663726E+01 -0.44119826238E+01  0.11622825389E+02  0.12808363573E+02  0.00000000000E+00 0.  1.
</event>
<event>
 7    1  0.1634068E-009  0.4778727E+02  0.7816164E-02  0.1312668E+00
        -11   -1    0    0    0    0  0.00000000000E+00  0.00000000000E+00  0.45593999997E+02  0.45594000000E+02  0.51100000000E-03 0.  1.
         11   -1    0    0    0    0 -0.00000000000E+00 -0.00000000000E+00 -0.45593999997E+02  0.45594000000E+02  0.51100000000E-03 0. -1.
    9900012    2    1    2    0    0  0.20254789052E+02 -0.25719382141E+01  0.38298194332E+02  0.47787273799E+02  0.20000012557E+02 0.  0.
         12    1    1    2    0    0 -0.20254789052E+02  0.25719382141E+01 -0.38298194332E+02  0.43400726201E+02  0.00000000000E+00 0. -1.
         11    1    3    3    0    0  0.21176963209E+01 -0.15191384161E+01  0.90733209611E+01  0.94402104192E+01  0.51100000000E-03 0. -1.
        -11    1    3    3    0    0  0.68701410965E+01  0.23865898560E+01  0.24665338553E+02  0.25715240151E+02  0.51100000000E-03 0.  1.
         12    1    3    3    0    0  0.11266951634E+02 -0.34393896540E+01  0.45595348185E+01  0.12631823229E+02  0.00000000000E+00 0. -1.
</event>
<event>
 7    1  0.1634068E-009  0.4778726E+02  0.7816164E-02  0.1312668E+00
        -11   -1    0    0    0    0  0.00000000000E+00  0.00000000000E+00  0.45593999997E+02  0.45594000000E+02  0.51100000000E-03 0.  1.
         11   -1    0    0    0    0 -0.00000000000E+00 -0.00000000000E+00 -0.45593999997E+02  0.45594000000E+02  0.51100000000E-03 0. -1.
    9900012    2    1    2    0    0  0.31789894644E+02  0.28756085888E+02  0.67907420989E+01  0.47787262042E+02  0.19999958954E+02 0.  0.
         12    1    1    2    0    0 -0.31789894644E+02 -0.28756085888E+02 -0.67907420989E+01  0.43400737958E+02  0.00000000000E+00 0. -1.
         11    1    3    3    0    0  0.12828325095E+02  0.60832309387E+01 -0.13910746946E+00  0.14198273646E+02  0.51100000000E-03 0. -1.
        -11    1    3    3    0    0  0.18048018622E+02  0.11013511316E+02  0.37935542409E+01  0.21480676472E+02  0.51100000000E-03 0.  1.
        -12    1    3    3    0    0  0.91355092757E+00  0.11659343633E+02  0.31362953275E+01  0.12108311923E+02  0.00000000000E+00 0.  1.
</event>
<event>
 7    1  0.1634068E-009  0.4778727E+02  0.7816164E-02  0.1312668E+00
        -11   -1    0    0    0    0  0.00000000000E+00  0.00000000000E+00  0.45593999997E+02  0.45594000000E+02  0.51100000000E-03 0.  1.
         11   -1    0    0    0    0 -0.00000000000E+00 -0.00000000000E+00 -0.45593999997E+02  0.45594000000E+02  0.51100000000E-03 0. -1.
    9900012    2    1    2    0    0  0.23841576489E+02 -0.18064478171E+02  0.31446414524E+02  0.47787272730E+02  0.20000007687E+02 0.  0.
         12    1    1    2    0    0 -0.23841576489E+02  0.18064478171E+02 -0.31446414524E+02  0.43400727270E+02  0.00000000000E+00 0. -1.
         11    1    3    3    0    0  0.76516724996E+01 -0.33551507829E+01  0.27772011501E+01  0.88044293004E+01  0.51100000000E-03 0. -1.
        -11    1    3    3    0    0  0.31455196295E+01 -0.12754899064E+02  0.15893065240E+02  0.20619681541E+02  0.51100000000E-03 0.  1.
        -12    1    3    3    0    0  0.13044384360E+02 -0.19544283245E+01  0.12776148134E+02  0.18363161889E+02  0.00000000000E+00 0.  1.
</event>
<event>
 7    1  0.1634068E-009  0.4778727E+02  0.7816164E-02  0.1312668E+00
        -11   -1    0    0    0    0  0.00000000000E+00  0.00000000000E+00  0.45593999997E+02  0.45594000000E+02  0.51100000000E-03 0.  1.
         11   -1    0    0    0    0 -0.00000000000E+00 -0.00000000000E+00 -0.45593999997E+02  0.45594000000E+02  0.51100000000E-03 0. -1.
    9900012    2    1    2    0    0  0.26205728504E+02 -0.18776501113E+02  0.29057294494E+02  0.47787267704E+02  0.19999984771E+02 0.  0.
         12    1    1    2    0    0 -0.26205728504E+02  0.18776501113E+02 -0.29057294494E+02  0.43400732296E+02  0.00000000000E+00 0. -1.
         11    1    3    3    0    0  0.34302671378E+01 -0.85655357660E+00 -0.12361322302E+01  0.37454558892E+01  0.51100000000E-03 0. -1.
        -11    1    3    3    0    0  0.22151465059E+02 -0.13513516616E+02  0.19787052501E+02  0.32631732754E+02  0.51100000000E-03 0.  1.
         12    1    3    3    0    0  0.62399630710E+00 -0.44064309202E+01  0.10506374224E+02  0.11410079061E+02  0.00000000000E+00 0. -1.
</event>
<event>
 7    1  0.1634068E-009  0.4778727E+02  0.7816164E-02  0.1312668E+00
        -11   -1    0    0    0    0  0.00000000000E+00  0.00000000000E+00  0.45593999997E+02  0.45594000000E+02  0.51100000000E-03 0.  1.
         11   -1    0    0    0    0 -0.00000000000E+00 -0.00000000000E+00 -0.45593999997E+02  0.45594000000E+02  0.51100000000E-03 0. -1.
    9900012    2    1    2    0    0  0.19045355548E+02 -0.18432476530E+01  0.38955105672E+02  0.47787269732E+02  0.19999994017E+02 0.  0.
         12    1    1    2    0    0 -0.19045355548E+02  0.18432476530E+01 -0.38955105672E+02  0.43400730268E+02  0.00000000000E+00 0. -1.
         11    1    3    3    0    0  0.58985448895E+01  0.17503415102E+01  0.65276928277E+01  0.89703568005E+01  0.51100000000E-03 0. -1.
        -11    1    3    3    0    0 -0.26074663235E+00 -0.55839041649E+00  0.20808519552E+02  0.20817643355E+02  0.51100000000E-03 0.  1.
        -12    1    3    3    0    0  0.13407557291E+02 -0.30351987467E+01  0.11618893293E+02  0.17999269577E+02  0.00000000000E+00 0.  1.
</event>
<event>
 7    1  0.1634068E-009  0.4778727E+02  0.7816164E-02  0.1312668E+00
        -11   -1    0    0    0    0  0.00000000000E+00  0.00000000000E+00  0.45593999997E+02  0.45594000000E+02  0.51100000000E-03 0. -1.
         11   -1    0    0    0    0 -0.00000000000E+00 -0.00000000000E+00 -0.45593999997E+02  0.45594000000E+02  0.51100000000E-03 0.  1.
    9900012    2    1    2    0    0 -0.77700362398E+01  0.91916527384E+01 -0.41698482699E+02  0.47787269561E+02  0.19999993236E+02 0.  0.
         12    1    1    2    0    0  0.77700362398E+01 -0.91916527384E+01  0.41698482699E+02  0.43400730439E+02  0.00000000000E+00 0. -1.
         11    1    3    3    0    0 -0.59496050826E+01  0.90857978178E+01 -0.13543325425E+02  0.17360045693E+02  0.51100000000E-03 0. -1.
        -11    1    3    3    0    0  0.42424208259E+01  0.13334897443E+01 -0.62858442725E+01  0.76998810277E+01  0.51100000000E-03 0.  1.
        -12    1    3    3    0    0 -0.60628519831E+01 -0.12276348237E+01 -0.21869313001E+02  0.22727342840E+02  0.00000000000E+00 0.  1.
</event>
<event>
 7    1  0.1634068E-009  0.4778727E+02  0.7816164E-02  0.1312668E+00
        -11   -1    0    0    0    0  0.00000000000E+00  0.00000000000E+00  0.45593999997E+02  0.45594000000E+02  0.51100000000E-03 0.  1.
         11   -1    0    0    0    0 -0.00000000000E+00 -0.00000000000E+00 -0.45593999997E+02  0.45594000000E+02  0.51100000000E-03 0. -1.
    9900012    2    1    2    0    0 -0.78624332576E+01 -0.15320959562E+01  0.42655111364E+02  0.47787266133E+02  0.19999977607E+02 0.  0.
         12    1    1    2    0    0  0.78624332576E+01  0.15320959562E+01 -0.42655111364E+02  0.43400733867E+02  0.00000000000E+00 0. -1.
         11    1    3    3    0    0  0.16791051170E+01  0.74759424826E+01  0.18823801622E+02  0.20323499152E+02  0.51100000000E-03 0. -1.
        -11    1    3    3    0    0 -0.26398817386E+01 -0.38619994917E+01  0.11588604201E+02  0.12497190215E+02  0.51100000000E-03 0.  1.
         12    1    3    3    0    0 -0.69016566360E+01 -0.51460389471E+01  0.12242705540E+02  0.14966576767E+02  0.00000000000E+00 0. -1.
</event>
<event>
 7    1  0.1634068E-009  0.4778723E+02  0.7816164E-02  0.1312668E+00
        -11   -1    0    0    0    0  0.00000000000E+00  0.00000000000E+00  0.45593999997E+02  0.45594000000E+02  0.51100000000E-03 0.  1.
         11   -1    0    0    0    0 -0.00000000000E+00 -0.00000000000E+00 -0.45593999997E+02  0.45594000000E+02  0.51100000000E-03 0. -1.
    9900012    2    1    2    0    0 -0.46843936534E+01 -0.19184330440E+01  0.43104554331E+02  0.47787233494E+02  0.19999828791E+02 0.  0.
         12    1    1    2    0    0  0.46843936534E+01  0.19184330440E+01 -0.43104554331E+02  0.43400766506E+02  0.00000000000E+00 0. -1.
         11    1    3    3    0    0  0.57780734763E+01  0.26329196436E+01  0.24668190977E+02  0.25472299568E+02  0.51100000000E-03 0.  1.
        -11    1    3    3    0    0 -0.29342469804E+01 -0.31362990997E+01  0.35451413043E+01  0.55690398197E+01  0.51100000000E-03 0. -1.
         12    1    3    3    0    0 -0.75282201492E+01 -0.14150535879E+01  0.14891222050E+02  0.16745894106E+02  0.00000000000E+00 0. -1.
</event>
<event>
 7    1  0.1634068E-009  0.4778727E+02  0.7816164E-02  0.1312668E+00
        -11   -1    0    0    0    0  0.00000000000E+00  0.00000000000E+00  0.45593999997E+02  0.45594000000E+02  0.51100000000E-03 0.  1.
         11   -1    0    0    0    0 -0.00000000000E+00 -0.00000000000E+00 -0.45593999997E+02  0.45594000000E+02  0.51100000000E-03 0. -1.
    9900012    2    1    2    0    0 -0.11096764495E+02  0.10641187491E+02  0.40586329968E+02  0.47787271507E+02  0.20000002110E+02 0.  0.
         12    1    1    2    0    0  0.11096764495E+02 -0.10641187491E+02 -0.40586329968E+02  0.43400728493E+02  0.00000000000E+00 0. -1.
         11    1    3    3    0    0 -0.85435895561E+01 -0.20791464466E+01  0.59107959983E+01  0.10594964938E+02  0.51100000000E-03 0. -1.
        -11    1    3    3    0    0 -0.19582871184E+01  0.46081291577E+01  0.17247594174E+02  0.17959656117E+02  0.51100000000E-03 0.  1.
         12    1    3    3    0    0 -0.59488782005E+00  0.81122047798E+01  0.17427939795E+02  0.19232650452E+02  0.00000000000E+00 0. -1.
</event>
<event>
 7    1  0.1634068E-009  0.4778727E+02  0.7816164E-02  0.1312668E+00
        -11   -1    0    0    0    0  0.00000000000E+00  0.00000000000E+00  0.45593999997E+02  0.45594000000E+02  0.51100000000E-03 0. -1.
         11   -1    0    0    0    0 -0.00000000000E+00 -0.00000000000E+00 -0.45593999997E+02  0.45594000000E+02  0.51100000000E-03 0.  1.
    9900012    2    1    2    0    0  0.42733429233E+02  0.73544623907E+01 -0.18409844174E+01  0.47787270574E+02  0.19999997854E+02 0.  0.
         12    1    1    2    0    0 -0.42733429233E+02 -0.73544623907E+01  0.18409844174E+01  0.43400729426E+02  0.00000000000E+00 0. -1.
         11    1    3    3    0    0  0.13256195011E+02 -0.17540771919E+01 -0.79904919689E+01  0.15577273675E+02  0.51100000000E-03 0. -1.
        -11    1    3    3    0    0  0.10802064433E+02  0.34580699216E+00  0.37613321021E+01  0.11443417231E+02  0.51100000000E-03 0.  1.
         12    1    3    3    0    0  0.18675169789E+02  0.87627325904E+01  0.23881754494E+01  0.20766579668E+02  0.00000000000E+00 0. -1.
</event>
<event>
 7    1  0.1634068E-009  0.4778727E+02  0.7816164E-02  0.1312668E+00
        -11   -1    0    0    0    0  0.00000000000E+00  0.00000000000E+00  0.45593999997E+02  0.45594000000E+02  0.51100000000E-03 0. -1.
         11   -1    0    0    0    0 -0.00000000000E+00 -0.00000000000E+00 -0.45593999997E+02  0.45594000000E+02  0.51100000000E-03 0.  1.
    9900012    2    1    2    0    0 -0.20164836959E+01  0.33685488235E+02 -0.27291848567E+02  0.47787270487E+02  0.19999997457E+02 0.  0.
         12    1    1    2    0    0  0.20164836959E+01 -0.33685488235E+02  0.27291848567E+02  0.43400729513E+02  0.00000000000E+00 0. -1.
         11    1    3    3    0    0 -0.68936615169E+01  0.69406628249E+01 -0.63608929139E+01  0.11668604393E+02  0.51100000000E-03 0. -1.
        -11    1    3    3    0    0 -0.36694948927E+01  0.83046261671E+01 -0.56956352231E+01  0.10717848170E+02  0.51100000000E-03 0.  1.
        -12    1    3    3    0    0  0.85466727137E+01  0.18440199243E+02 -0.15235320430E+02  0.25400817923E+02  0.00000000000E+00 0.  1.
</event>
<event>
 7    1  0.1634068E-009  0.4778728E+02  0.7816164E-02  0.1312668E+00
        -11   -1    0    0    0    0  0.00000000000E+00  0.00000000000E+00  0.45593999997E+02  0.45594000000E+02  0.51100000000E-03 0.  1.
         11   -1    0    0    0    0 -0.00000000000E+00 -0.00000000000E+00 -0.45593999997E+02  0.45594000000E+02  0.51100000000E-03 0. -1.
    9900012    2    1    2    0    0 -0.34103365951E+02 -0.26810307709E+02  0.13381056985E+01  0.47787277707E+02  0.20000030379E+02 0.  0.
         12    1    1    2    0    0  0.34103365951E+02  0.26810307709E+02 -0.13381056985E+01  0.43400722293E+02  0.00000000000E+00 0. -1.
         11    1    3    3    0    0 -0.91120425712E+01 -0.75237727631E+01 -0.82139648171E+01  0.14391167245E+02  0.51100000000E-03 0. -1.
        -11    1    3    3    0    0 -0.43148449754E+01 -0.49283606525E+01  0.38059187348E+01  0.75757272627E+01  0.51100000000E-03 0.  1.
         12    1    3    3    0    0 -0.20676478405E+02 -0.14358174294E+02  0.57461517808E+01  0.25820383199E+02  0.00000000000E+00 0. -1.
</event>
<event>
 7    1  0.1634068E-009  0.4778727E+02  0.7816164E-02  0.1312668E+00
        -11   -1    0    0    0    0  0.00000000000E+00  0.00000000000E+00  0.45593999997E+02  0.45594000000E+02  0.51100000000E-03 0. -1.
         11   -1    0    0    0    0 -0.00000000000E+00 -0.00000000000E+00 -0.45593999997E+02  0.45594000000E+02  0.51100000000E-03 0.  1.
    9900012    2    1    2    0    0  0.24206649313E+02  0.30456162361E+02 -0.19237559754E+02  0.47787269568E+02  0.19999993267E+02 0.  0.
         12    1    1    2    0    0 -0.24206649313E+02 -0.30456162361E+02  0.19237559754E+02  0.43400730432E+02  0.00000000000E+00 0. -1.
         11    1    3    3    0    0 -0.39863801586E+00  0.72466642634E+01 -0.39022230957E+01  0.82401699353E+01  0.51100000000E-03 0. -1.
        -11    1    3    3    0    0 -0.81692713929E+00  0.41809158264E+01  0.52391026186E-01  0.42603018882E+01  0.51100000000E-03 0.  1.
        -12    1    3    3    0    0  0.25422214468E+02  0.19028582272E+02 -0.15387727685E+02  0.35286797744E+02  0.00000000000E+00 0.  1.
</event>
<event>
 7    1  0.1634068E-009  0.4778726E+02  0.7816164E-02  0.1312668E+00
        -11   -1    0    0    0    0  0.00000000000E+00  0.00000000000E+00  0.45593999997E+02  0.45594000000E+02  0.51100000000E-03 0.  1.
         11   -1    0    0    0    0 -0.00000000000E+00 -0.00000000000E+00 -0.45593999997E+02  0.45594000000E+02  0.51100000000E-03 0. -1.
    9900012    2    1    2    0    0 -0.20039838014E+02 -0.35563207734E+01  0.38332517016E+02  0.47787258234E+02  0.19999941593E+02 0.  0.
         12    1    1    2    0    0  0.20039838014E+02  0.35563207734E+01 -0.38332517016E+02  0.43400741766E+02  0.00000000000E+00 0. -1.
         11    1    3    3    0    0  0.16818396061E+01 -0.30224225979E+01  0.26628356719E+01  0.43651250725E+01  0.51100000000E-03 0. -1.
        -11    1    3    3    0    0 -0.15164353181E+02 -0.24631066392E+01  0.14309286558E+02  0.20994765628E+02  0.51100000000E-03 0.  1.
        -12    1    3    3    0    0 -0.65573244395E+01  0.19292084637E+01  0.21360394786E+02  0.22427367534E+02  0.00000000000E+00 0.  1.
</event>
<event>
 7    1  0.1634068E-009  0.4778727E+02  0.7816164E-02  0.1312668E+00
        -11   -1    0    0    0    0  0.00000000000E+00  0.00000000000E+00  0.45593999997E+02  0.45594000000E+02  0.51100000000E-03 0.  1.
         11   -1    0    0    0    0 -0.00000000000E+00 -0.00000000000E+00 -0.45593999997E+02  0.45594000000E+02  0.51100000000E-03 0. -1.
    9900012    2    1    2    0    0 -0.58195085863E+01  0.63031524637E+01  0.42544413950E+02  0.47787267639E+02  0.19999984472E+02 0.  0.
         12    1    1    2    0    0  0.58195085863E+01 -0.63031524637E+01 -0.42544413950E+02  0.43400732361E+02  0.00000000000E+00 0. -1.
         11    1    3    3    0    0 -0.72746348776E+00 -0.20634183259E+00 -0.14086259820E+01  0.15987518557E+01  0.51100000000E-03 0. -1.
        -11    1    3    3    0    0 -0.79081669521E+01  0.48183000105E+01  0.20349472009E+02  0.22357462532E+02  0.51100000000E-03 0.  1.
        -12    1    3    3    0    0  0.28161218536E+01  0.16911942858E+01  0.23603567922E+02  0.23831053251E+02  0.00000000000E+00 0.  1.
</event>
<event>
 7    1  0.1634068E-009  0.4778727E+02  0.7816164E-02  0.1312668E+00
        -11   -1    0    0    0    0  0.00000000000E+00  0.00000000000E+00  0.45593999997E+02  0.45594000000E+02  0.51100000000E-03 0.  1.
         11   -1    0    0    0    0 -0.00000000000E+00 -0.00000000000E+00 -0.45593999997E+02  0.45594000000E+02  0.51100000000E-03 0. -1.
    9900012    2    1    2    0    0 -0.27353657326E+02 -0.32477510475E+02  0.89784110764E+01  0.47787272803E+02  0.20000008019E+02 0.  0.
         12    1    1    2    0    0  0.27353657326E+02  0.32477510475E+02 -0.89784110764E+01  0.43400727197E+02  0.00000000000E+00 0. -1.
         11    1    3    3    0    0 -0.74028221922E+01 -0.15567266454E+02  0.27731148872E+01  0.17459430910E+02  0.51100000000E-03 0.  1.
        -11    1    3    3    0    0 -0.10384775756E+02 -0.42261399964E+01  0.87710728720E+01  0.14235011288E+02  0.51100000000E-03 0. -1.
         12    1    3    3    0    0 -0.95660593772E+01 -0.12684104025E+02 -0.25657766828E+01  0.16092830606E+02  0.00000000000E+00 0. -1.
</event>
<event>
 7    1  0.1634068E-009  0.4778727E+02  0.7816164E-02  0.1312668E+00
        -11   -1    0    0    0    0  0.00000000000E+00  0.00000000000E+00  0.45593999997E+02  0.45594000000E+02  0.51100000000E-03 0.  1.
         11   -1    0    0    0    0 -0.00000000000E+00 -0.00000000000E+00 -0.45593999997E+02  0.45594000000E+02  0.51100000000E-03 0. -1.
    9900012    2    1    2    0    0 -0.25069334814E+02 -0.26437582270E+02  0.23584019756E+02  0.47787270834E+02  0.19999999042E+02 0.  0.
         12    1    1    2    0    0  0.25069334814E+02  0.26437582270E+02 -0.23584019756E+02  0.43400729166E+02  0.00000000000E+00 0. -1.
         11    1    3    3    0    0 -0.42766274845E+01 -0.97011320888E+01  0.25718393952E+01  0.10909439242E+02  0.51100000000E-03 0. -1.
        -11    1    3    3    0    0 -0.50448578129E+01 -0.67353586559E+01  0.15137772325E+02  0.17319578453E+02  0.51100000000E-03 0.  1.
        -12    1    3    3    0    0 -0.15747849516E+02 -0.10001091525E+02  0.58744080359E+01  0.19558253139E+02  0.00000000000E+00 0.  1.
</event>
<event>
 7    1  0.1634068E-009  0.4778727E+02  0.7816164E-02  0.1312668E+00
        -11   -1    0    0    0    0  0.00000000000E+00  0.00000000000E+00  0.45593999997E+02  0.45594000000E+02  0.51100000000E-03 0.  1.
         11   -1    0    0    0    0 -0.00000000000E+00 -0.00000000000E+00 -0.45593999997E+02  0.45594000000E+02  0.51100000000E-03 0. -1.
    9900012    2    1    2    0    0 -0.41049022422E+01 -0.14973151223E+02  0.40528729629E+02  0.47787269531E+02  0.19999993098E+02 0.  0.
         12    1    1    2    0    0  0.41049022422E+01  0.14973151223E+02 -0.40528729629E+02  0.43400730469E+02  0.00000000000E+00 0. -1.
         11    1    3    3    0    0  0.37342396089E+01 -0.11626144138E+02  0.15486690089E+02  0.19721798679E+02  0.51100000000E-03 0. -1.
        -11    1    3    3    0    0 -0.48194400906E+01 -0.61078936227E+01  0.20629348349E+02  0.22047752286E+02  0.51100000000E-03 0.  1.
         12    1    3    3    0    0 -0.30197017606E+01  0.27608865370E+01  0.44126911904E+01  0.60177185656E+01  0.00000000000E+00 0. -1.
</event>
<event>
 7    1  0.1634068E-009  0.4778728E+02  0.7816164E-02  0.1312668E+00
        -11   -1    0    0    0    0  0.00000000000E+00  0.00000000000E+00  0.45593999997E+02  0.45594000000E+02  0.51100000000E-03 0.  1.
         11   -1    0    0    0    0 -0.00000000000E+00 -0.00000000000E+00 -0.45593999997E+02  0.45594000000E+02  0.51100000000E-03 0. -1.
    9900012    2    1    2    0    0  0.33093278957E+02 -0.21486204454E+02  0.18077611597E+02  0.47787284165E+02  0.20000059821E+02 0.  0.
         12    1    1    2    0    0 -0.33093278957E+02  0.21486204454E+02 -0.18077611597E+02  0.43400715835E+02  0.00000000000E+00 0. -1.
         11    1    3    3    0    0  0.51662655778E+01 -0.95012127358E+01  0.21307746504E+01  0.11022864616E+02  0.51100000000E-03 0. -1.
        -11    1    3    3    0    0  0.31693554738E+01  0.53568494782E+00  0.68513850933E+01  0.75679092516E+01  0.51100000000E-03 0.  1.
         12    1    3    3    0    0  0.24757657905E+02 -0.12520676666E+02  0.90954518532E+01  0.29196510297E+02  0.00000000000E+00 0. -1.
</event>
<event>
 7    1  0.1634068E-009  0.4778732E+02  0.7816164E-02  0.1312668E+00
        -11   -1    0    0    0    0  0.00000000000E+00  0.00000000000E+00  0.45593999997E+02  0.45594000000E+02  0.51100000000E-03 0.  1.
         11   -1    0    0    0    0 -0.00000000000E+00 -0.00000000000E+00 -0.45593999997E+02  0.45594000000E+02  0.51100000000E-03 0. -1.
    9900012    2    1    2    0    0 -0.60704178521E+01  0.14316702401E+02  0.40519147968E+02  0.47787316911E+02  0.20000209122E+02 0.  0.
         12    1    1    2    0    0  0.60704178521E+01 -0.14316702401E+02 -0.40519147968E+02  0.43400683089E+02  0.00000000000E+00 0. -1.
         11    1    3    3    0    0 -0.35410773130E+01  0.56934537514E+01  0.54664468052E+01  0.86508199086E+01  0.51100000000E-03 0. -1.
        -11    1    3    3    0    0 -0.37465818366E+01 -0.33592776870E+01  0.14069951703E+02  0.14942729444E+02  0.51100000000E-03 0.  1.
         12    1    3    3    0    0  0.12172412976E+01  0.11982526336E+02  0.20982749460E+02  0.24193767559E+02  0.00000000000E+00 0. -1.
</event>
<event>
 7    1  0.1634068E-009  0.4778727E+02  0.7816164E-02  0.1312668E+00
        -11   -1    0    0    0    0  0.00000000000E+00  0.00000000000E+00  0.45593999997E+02  0.45594000000E+02  0.51100000000E-03 0.  1.
         11   -1    0    0    0    0 -0.00000000000E+00 -0.00000000000E+00 -0.45593999997E+02  0.45594000000E+02  0.51100000000E-03 0. -1.
    9900012    2    1    2    0    0  0.63178127367E+01  0.73389119968E+00  0.42932156111E+02  0.47787269794E+02  0.19999994297E+02 0.  0.
         12    1    1    2    0    0 -0.63178127367E+01 -0.73389119968E+00 -0.42932156111E+02  0.43400730206E+02  0.00000000000E+00 0. -1.
         11    1    3    3    0    0 -0.22352852839E+01  0.22008542407E+01  0.22604143015E+02  0.22820769956E+02  0.51100000000E-03 0. -1.
        -11    1    3    3    0    0  0.78497129950E+01 -0.15915665835E+00  0.21617928434E+02  0.22999525103E+02  0.51100000000E-03 0.  1.
         12    1    3    3    0    0  0.70338502561E+00 -0.13078063827E+01 -0.12899153372E+01  0.19669747345E+01  0.00000000000E+00 0. -1.
</event>
<event>
 7    1  0.1634068E-009  0.4778728E+02  0.7816164E-02  0.1312668E+00
        -11   -1    0    0    0    0  0.00000000000E+00  0.00000000000E+00  0.45593999997E+02  0.45594000000E+02  0.51100000000E-03 0. -1.
         11   -1    0    0    0    0 -0.00000000000E+00 -0.00000000000E+00 -0.45593999997E+02  0.45594000000E+02  0.51100000000E-03 0.  1.
    9900012    2    1    2    0    0 -0.37852388525E+02 -0.88693886891E+01  0.19291270296E+02  0.47787280163E+02  0.20000041574E+02 0.  0.
         12    1    1    2    0    0  0.37852388525E+02  0.88693886891E+01 -0.19291270296E+02  0.43400719837E+02  0.00000000000E+00 0. -1.
         11    1    3    3    0    0 -0.91389185026E+01 -0.70541517141E+01  0.78491617444E+01  0.13960309028E+02  0.51100000000E-03 0. -1.
        -11    1    3    3    0    0 -0.28267245880E+02 -0.41039140219E+01  0.12605090636E+02  0.31221268554E+02  0.51100000000E-03 0.  1.
         12    1    3    3    0    0 -0.44622414237E+00  0.22886770469E+01 -0.11629820845E+01  0.26057025807E+01  0.00000000000E+00 0. -1.
</event>
<event>
 7    1  0.1634068E-009  0.4778726E+02  0.7816164E-02  0.1312668E+00
        -11   -1    0    0    0    0  0.00000000000E+00  0.00000000000E+00  0.45593999997E+02  0.45594000000E+02  0.51100000000E-03 0.  1.
         11   -1    0    0    0    0 -0.00000000000E+00 -0.00000000000E+00 -0.45593999997E+02  0.45594000000E+02  0.51100000000E-03 0. -1.
    9900012    2    1    2    0    0  0.16380842169E+02  0.30395815399E+02  0.26294231347E+02  0.47787260536E+02  0.19999952086E+02 0.  0.
         12    1    1    2    0    0 -0.16380842169E+02 -0.30395815399E+02 -0.26294231347E+02  0.43400739464E+02  0.00000000000E+00 0. -1.
         11    1    3    3    0    0  0.51230430240E+00  0.61385326151E+01  0.59429175853E+00  0.61884748784E+01  0.51100000000E-03 0. -1.
        -11    1    3    3    0    0  0.14678509880E+02  0.26077905446E+02  0.25665018796E+02  0.39423457418E+02  0.51100000000E-03 0.  1.
        -12    1    3    3    0    0  0.11900279860E+01 -0.18206226622E+01  0.34920792637E-01  0.21753282390E+01  0.00000000000E+00 0.  1.
</event>
<event>
 7    1  0.1634068E-009  0.4778727E+02  0.7816164E-02  0.1312668E+00
        -11   -1    0    0    0    0  0.00000000000E+00  0.00000000000E+00  0.45593999997E+02  0.45594000000E+02  0.51100000000E-03 0.  1.
         11   -1    0    0    0    0 -0.00000000000E+00 -0.00000000000E+00 -0.45593999997E+02  0.45594000000E+02  0.51100000000E-03 0. -1.
    9900012    2    1    2    0    0  0.37960423802E+02 -0.47386159237E+01  0.20498174312E+02  0.47787269520E+02  0.19999993049E+02 0.  0.
         12    1    1    2    0    0 -0.37960423802E+02  0.47386159237E+01 -0.20498174312E+02  0.43400730480E+02  0.00000000000E+00 0. -1.
         11    1    3    3    0    0  0.15241646531E+02  0.28689282263E+01  0.12254166828E+02  0.19766212157E+02  0.51100000000E-03 0.  1.
        -11    1    3    3    0    0  0.24101644900E+01  0.95734105447E+00 -0.24100764643E+01  0.35403197015E+01  0.51100000000E-03 0. -1.
         12    1    3    3    0    0  0.20308612781E+02 -0.85648852044E+01  0.10654083948E+02  0.24480737661E+02  0.00000000000E+00 0. -1.
</event>
<event>
 7    1  0.1634068E-009  0.4778727E+02  0.7816164E-02  0.1312668E+00
        -11   -1    0    0    0    0  0.00000000000E+00  0.00000000000E+00  0.45593999997E+02  0.45594000000E+02  0.51100000000E-03 0.  1.
         11   -1    0    0    0    0 -0.00000000000E+00 -0.00000000000E+00 -0.45593999997E+02  0.45594000000E+02  0.51100000000E-03 0. -1.
    9900012    2    1    2    0    0  0.29735417268E+02 -0.11375734565E+02  0.29496114583E+02  0.47787272443E+02  0.20000006375E+02 0.  0.
         12    1    1    2    0    0 -0.29735417268E+02  0.11375734565E+02 -0.29496114583E+02  0.43400727557E+02  0.00000000000E+00 0. -1.
         11    1    3    3    0    0  0.40544890179E+01  0.34761765696E+01  0.85417812246E+01  0.10073962055E+02  0.51100000000E-03 0. -1.
        -11    1    3    3    0    0  0.47589962286E+01 -0.78669908277E+01  0.47899715897E+01  0.10367324528E+02  0.51100000000E-03 0.  1.
         12    1    3    3    0    0  0.20921932021E+02 -0.69849203067E+01  0.16164361769E+02  0.27345985859E+02  0.00000000000E+00 0. -1.
</event>
<event>
 7    1  0.1634068E-009  0.4778729E+02  0.7816164E-02  0.1312668E+00
        -11   -1    0    0    0    0  0.00000000000E+00  0.00000000000E+00  0.45593999997E+02  0.45594000000E+02  0.51100000000E-03 0.  1.
         11   -1    0    0    0    0 -0.00000000000E+00 -0.00000000000E+00 -0.45593999997E+02  0.45594000000E+02  0.51100000000E-03 0. -1.
    9900012    2    1    2    0    0 -0.39148915289E+01  0.36505635840E+02  0.23143766569E+02  0.47787288546E+02  0.20000079794E+02 0.  0.
         12    1    1    2    0    0  0.39148915289E+01 -0.36505635840E+02 -0.23143766569E+02  0.43400711454E+02  0.00000000000E+00 0. -1.
         11    1    3    3    0    0  0.13889104353E+01 -0.65062853307E+00 -0.44162253613E+00  0.15960640372E+01  0.51100000000E-03 0. -1.
        -11    1    3    3    0    0 -0.31460463288E+01  0.22779807599E+02  0.67887974271E+01  0.23977176909E+02  0.51100000000E-03 0.  1.
        -12    1    3    3    0    0 -0.21577556354E+01  0.14376456774E+02  0.16796591678E+02  0.22214047600E+02  0.00000000000E+00 0.  1.
</event>
<event>
 7    1  0.1634068E-009  0.4778727E+02  0.7816164E-02  0.1312668E+00
        -11   -1    0    0    0    0  0.00000000000E+00  0.00000000000E+00  0.45593999997E+02  0.45594000000E+02  0.51100000000E-03 0.  1.
         11   -1    0    0    0    0 -0.00000000000E+00 -0.00000000000E+00 -0.45593999997E+02  0.45594000000E+02  0.51100000000E-03 0. -1.
    9900012    2    1    2    0    0  0.25762723920E+02 -0.11523811024E+02  0.32971305285E+02  0.47787272628E+02  0.20000007218E+02 0.  0.
         12    1    1    2    0    0 -0.25762723920E+02  0.11523811024E+02 -0.32971305285E+02  0.43400727372E+02  0.00000000000E+00 0. -1.
         11    1    3    3    0    0  0.43363826267E+01 -0.21895388112E+01 -0.15929947418E+01  0.51123308774E+01  0.51100000000E-03 0. -1.
        -11    1    3    3    0    0  0.92119270482E+01  0.63324029930E+00  0.11765117133E+02  0.14955887625E+02  0.51100000000E-03 0.  1.
        -12    1    3    3    0    0  0.12214414245E+02 -0.99675125117E+01  0.22799182893E+02  0.27719054126E+02  0.00000000000E+00 0.  1.
</event>
<event>
 7    1  0.1634068E-009  0.4778727E+02  0.7816164E-02  0.1312668E+00
        -11   -1    0    0    0    0  0.00000000000E+00  0.00000000000E+00  0.45593999997E+02  0.45594000000E+02  0.51100000000E-03 0.  1.
         11   -1    0    0    0    0 -0.00000000000E+00 -0.00000000000E+00 -0.45593999997E+02  0.45594000000E+02  0.51100000000E-03 0. -1.
    9900012    2    1    2    0    0  0.26254531027E+02 -0.33088131361E+02  0.99748877106E+01  0.47787271651E+02  0.20000002764E+02 0.  0.
         12    1    1    2    0    0 -0.26254531027E+02  0.33088131361E+02 -0.99748877106E+01  0.43400728349E+02  0.00000000000E+00 0. -1.
         11    1    3    3    0    0  0.10610908312E+02 -0.24362106196E+02  0.33459120417E+01  0.26782433070E+02  0.51100000000E-03 0. -1.
        -11    1    3    3    0    0  0.13406207468E+02 -0.80147714073E+01  0.19120130538E+01  0.15735906506E+02  0.51100000000E-03 0.  1.
        -12    1    3    3    0    0  0.22374152464E+01 -0.71125375830E+00  0.47169626151E+01  0.52689320745E+01  0.00000000000E+00 0.  1.
</event>
<event>
 7    1  0.1634068E-009  0.4778727E+02  0.7816164E-02  0.1312668E+00
        -11   -1    0    0    0    0  0.00000000000E+00  0.00000000000E+00  0.45593999997E+02  0.45594000000E+02  0.51100000000E-03 0. -1.
         11   -1    0    0    0    0 -0.00000000000E+00 -0.00000000000E+00 -0.45593999997E+02  0.45594000000E+02  0.51100000000E-03 0.  1.
    9900012    2    1    2    0    0  0.44077686340E+01 -0.37195731147E+02 -0.21924242334E+02  0.47787271414E+02  0.20000001684E+02 0.  0.
         12    1    1    2    0    0 -0.44077686340E+01  0.37195731147E+02  0.21924242334E+02  0.43400728586E+02  0.00000000000E+00 0. -1.
         11    1    3    3    0    0  0.30443638207E+01 -0.72340011878E+01 -0.80024329899E+01  0.11208829478E+02  0.51100000000E-03 0. -1.
        -11    1    3    3    0    0 -0.70987587270E+01 -0.13447762029E+02 -0.51602961851E+01  0.16058123677E+02  0.51100000000E-03 0.  1.
        -12    1    3    3    0    0  0.84621635403E+01 -0.16513967930E+02 -0.87615131594E+01  0.20520318259E+02  0.00000000000E+00 0.  1.
</event>
<event>
 7    1  0.1634068E-009  0.4778726E+02  0.7816164E-02  0.1312668E+00
        -11   -1    0    0    0    0  0.00000000000E+00  0.00000000000E+00  0.45593999997E+02  0.45594000000E+02  0.51100000000E-03 0. -1.
         11   -1    0    0    0    0 -0.00000000000E+00 -0.00000000000E+00 -0.45593999997E+02  0.45594000000E+02  0.51100000000E-03 0.  1.
    9900012    2    1    2    0    0 -0.94948240604E+01  0.31796457286E+02 -0.27972452854E+02  0.47787256935E+02  0.19999935670E+02 0.  0.
         12    1    1    2    0    0  0.94948240604E+01 -0.31796457286E+02  0.27972452854E+02  0.43400743065E+02  0.00000000000E+00 0. -1.
         11    1    3    3    0    0  0.30214963119E+01  0.14288109117E+02 -0.69843304234E+01  0.16188278902E+02  0.51100000000E-03 0. -1.
        -11    1    3    3    0    0 -0.46532685266E+01  0.30846335189E+01 -0.90968157150E+00  0.56564470076E+01  0.51100000000E-03 0.  1.
         12    1    3    3    0    0 -0.78630518457E+01  0.14423714651E+02 -0.20078440859E+02  0.25942531025E+02  0.00000000000E+00 0. -1.
</event>
<event>
 7    1  0.1634068E-009  0.4778726E+02  0.7816164E-02  0.1312668E+00
        -11   -1    0    0    0    0  0.00000000000E+00  0.00000000000E+00  0.45593999997E+02  0.45594000000E+02  0.51100000000E-03 0. -1.
         11   -1    0    0    0    0 -0.00000000000E+00 -0.00000000000E+00 -0.45593999997E+02  0.45594000000E+02  0.51100000000E-03 0.  1.
    9900012    2    1    2    0    0 -0.26656360357E+02 -0.22098933208E+02 -0.26166767542E+02  0.47787261296E+02  0.19999955553E+02 0.  0.
         12    1    1    2    0    0  0.26656360357E+02  0.22098933208E+02  0.26166767542E+02  0.43400738704E+02  0.00000000000E+00 0. -1.
         11    1    3    3    0    0 -0.94111042106E+01 -0.47525145801E+01 -0.15826903516E+01  0.10661153142E+02  0.51100000000E-03 0. -1.
        -11    1    3    3    0    0 -0.88090299873E+01 -0.17257860500E+01 -0.13450201160E+02  0.16170505815E+02  0.51100000000E-03 0.  1.
         12    1    3    3    0    0 -0.84362261596E+01 -0.15620632578E+02 -0.11133876031E+02  0.20955602340E+02  0.00000000000E+00 0. -1.
</event>
<event>
 7    1  0.1634068E-009  0.4778727E+02  0.7816164E-02  0.1312668E+00
        -11   -1    0    0    0    0  0.00000000000E+00  0.00000000000E+00  0.45593999997E+02  0.45594000000E+02  0.51100000000E-03 0. -1.
         11   -1    0    0    0    0 -0.00000000000E+00 -0.00000000000E+00 -0.45593999997E+02  0.45594000000E+02  0.51100000000E-03 0.  1.
    9900012    2    1    2    0    0  0.26291715352E+02 -0.34528768490E+02 -0.36445125041E+00  0.47787274495E+02  0.20000015734E+02 0.  0.
         12    1    1    2    0    0 -0.26291715352E+02  0.34528768490E+02  0.36445125041E+00  0.43400725505E+02  0.00000000000E+00 0. -1.
         11    1    3    3    0    0  0.69980274854E+00 -0.47383884977E+01  0.27367662663E+01  0.55165151409E+01  0.51100000000E-03 0. -1.
        -11    1    3    3    0    0 -0.55031158552E+00 -0.82820850324E+01 -0.82867754648E+00  0.83416114788E+01  0.51100000000E-03 0.  1.
        -12    1    3    3    0    0  0.26142224189E+02 -0.21508294960E+02 -0.22725399702E+01  0.33929147876E+02  0.00000000000E+00 0.  1.
</event>
<event>
 7    1  0.1634068E-009  0.4778727E+02  0.7816164E-02  0.1312668E+00
        -11   -1    0    0    0    0  0.00000000000E+00  0.00000000000E+00  0.45593999997E+02  0.45594000000E+02  0.51100000000E-03 0. -1.
         11   -1    0    0    0    0 -0.00000000000E+00 -0.00000000000E+00 -0.45593999997E+02  0.45594000000E+02  0.51100000000E-03 0.  1.
    9900012    2    1    2    0    0  0.42981966530E+02  0.20407131711E+01  0.56576923086E+01  0.47787269139E+02  0.19999991311E+02 0.  0.
         12    1    1    2    0    0 -0.42981966530E+02 -0.20407131711E+01 -0.56576923086E+01  0.43400730861E+02  0.00000000000E+00 0. -1.
         11    1    3    3    0    0  0.26969834859E+01  0.47974758036E+01 -0.42002829522E+00  0.55195940104E+01  0.51100000000E-03 0. -1.
        -11    1    3    3    0    0  0.14824915412E+02  0.18560254104E+01 -0.21989292870E+01  0.15101597186E+02  0.51100000000E-03 0.  1.
        -12    1    3    3    0    0  0.25460067632E+02 -0.46127880429E+01  0.82766498908E+01  0.27166077942E+02  0.00000000000E+00 0.  1.
</event>
<event>
 7    1  0.1634068E-009  0.4778727E+02  0.7816164E-02  0.1312668E+00
        -11   -1    0    0    0    0  0.00000000000E+00  0.00000000000E+00  0.45593999997E+02  0.45594000000E+02  0.51100000000E-03 0. -1.
         11   -1    0    0    0    0 -0.00000000000E+00 -0.00000000000E+00 -0.45593999997E+02  0.45594000000E+02  0.51100000000E-03 0.  1.
    9900012    2    1    2    0    0 -0.36326749460E+02  0.22568570071E+02 -0.73925842011E+01  0.47787269793E+02  0.19999994294E+02 0.  0.
         12    1    1    2    0    0  0.36326749460E+02 -0.22568570071E+02  0.73925842011E+01  0.43400730207E+02  0.00000000000E+00 0. -1.
         11    1    3    3    0    0 -0.65775413342E+01  0.61844371016E+01 -0.89261711531E+01  0.12695977472E+02  0.51100000000E-03 0. -1.
        -11    1    3    3    0    0 -0.22017530839E+01  0.18225103277E+01 -0.23376584262E+01  0.36924121812E+01  0.51100000000E-03 0.  1.
        -12    1    3    3    0    0 -0.27547455041E+02  0.14561622642E+02  0.38712453782E+01  0.31398880139E+02  0.00000000000E+00 0.  1.
</event>
<event>
 7    1  0.1634068E-009  0.4778727E+02  0.7816164E-02  0.1312668E+00
        -11   -1    0    0    0    0  0.00000000000E+00  0.00000000000E+00  0.45593999997E+02  0.45594000000E+02  0.51100000000E-03 0.  1.
         11   -1    0    0    0    0 -0.00000000000E+00 -0.00000000000E+00 -0.45593999997E+02  0.45594000000E+02  0.51100000000E-03 0. -1.
    9900012    2    1    2    0    0 -0.77833174737E+01 -0.30890937807E+02  0.29475298574E+02  0.47787270795E+02  0.19999998864E+02 0.  0.
         12    1    1    2    0    0  0.77833174737E+01  0.30890937807E+02 -0.29475298574E+02  0.43400729205E+02  0.00000000000E+00 0. -1.
         11    1    3    3    0    0 -0.71402126044E+01 -0.21744993869E+02  0.26206068224E+02  0.34793467870E+02  0.51100000000E-03 0.  1.
        -11    1    3    3    0    0 -0.23829761434E+01 -0.37539055407E+01  0.53513534898E+01  0.69575402653E+01  0.51100000000E-03 0. -1.
        -12    1    3    3    0    0  0.17398712740E+01 -0.53920383974E+01 -0.20821231402E+01  0.60362626600E+01  0.00000000000E+00 0.  1.
</event>
<event>
 7    1  0.1634068E-009  0.4778727E+02  0.7816164E-02  0.1312668E+00
        -11   -1    0    0    0    0  0.00000000000E+00  0.00000000000E+00  0.45593999997E+02  0.45594000000E+02  0.51100000000E-03 0.  1.
         11   -1    0    0    0    0 -0.00000000000E+00 -0.00000000000E+00 -0.45593999997E+02  0.45594000000E+02  0.51100000000E-03 0. -1.
    9900012    2    1    2    0    0  0.30416618206E+02 -0.18580478296E+02  0.24763247883E+02  0.47787270945E+02  0.19999999545E+02 0.  0.
         12    1    1    2    0    0 -0.30416618206E+02  0.18580478296E+02 -0.24763247883E+02  0.43400729055E+02  0.00000000000E+00 0. -1.
         11    1    3    3    0    0  0.65632222818E+01  0.14582533894E+01  0.63602631401E+01  0.92550168633E+01  0.51100000000E-03 0. -1.
        -11    1    3    3    0    0  0.16892725781E+02 -0.17252788431E+02  0.19393206575E+02  0.30969652153E+02  0.51100000000E-03 0.  1.
         12    1    3    3    0    0  0.69606701427E+01 -0.27859432548E+01 -0.99022183121E+00  0.75626019285E+01  0.00000000000E+00 0. -1.
</event>
<event>
 7    1  0.1634068E-009  0.4778727E+02  0.7816164E-02  0.1312668E+00
        -11   -1    0    0    0    0  0.00000000000E+00  0.00000000000E+00  0.45593999997E+02  0.45594000000E+02  0.51100000000E-03 0.  1.
         11   -1    0    0    0    0 -0.00000000000E+00 -0.00000000000E+00 -0.45593999997E+02  0.45594000000E+02  0.51100000000E-03 0. -1.
    9900012    2    1    2    0    0 -0.19871133029E+02 -0.55241336343E+01  0.38186983521E+02  0.47787266242E+02  0.19999978105E+02 0.  0.
         12    1    1    2    0    0  0.19871133029E+02  0.55241336343E+01 -0.38186983521E+02  0.43400733758E+02  0.00000000000E+00 0. -1.
         11    1    3    3    0    0  0.19860367223E+01  0.97653830083E+00 -0.33359753611E+00  0.22381368351E+01  0.51100000000E-03 0. -1.
        -11    1    3    3    0    0 -0.76321070171E+01 -0.49428959465E+01  0.92669162518E+01  0.12982950933E+02  0.51100000000E-03 0.  1.
        -12    1    3    3    0    0 -0.14225062734E+02 -0.15577759886E+01  0.29253664806E+02  0.32566178474E+02  0.00000000000E+00 0.  1.
</event>
<event>
 7    1  0.1634068E-009  0.4778727E+02  0.7816164E-02  0.1312668E+00
        -11   -1    0    0    0    0  0.00000000000E+00  0.00000000000E+00  0.45593999997E+02  0.45594000000E+02  0.51100000000E-03 0.  1.
         11   -1    0    0    0    0 -0.00000000000E+00 -0.00000000000E+00 -0.45593999997E+02  0.45594000000E+02  0.51100000000E-03 0. -1.
    9900012    2    1    2    0    0 -0.36003862650E+02 -0.16860082338E+02  0.17409278827E+02  0.47787268538E+02  0.19999988574E+02 0.  0.
         12    1    1    2    0    0  0.36003862650E+02  0.16860082338E+02 -0.17409278827E+02  0.43400731462E+02  0.00000000000E+00 0. -1.
         11    1    3    3    0    0 -0.39556735026E+01  0.42557632511E+01  0.13478554301E+01  0.59645274943E+01  0.51100000000E-03 0. -1.
        -11    1    3    3    0    0 -0.11256694872E+02 -0.82434096293E+01  0.79526489292E+01  0.16059626615E+02  0.51100000000E-03 0.  1.
        -12    1    3    3    0    0 -0.20791494275E+02 -0.12872435960E+02  0.81087744675E+01  0.25763114429E+02  0.00000000000E+00 0.  1.
</event>
<event>
 7    1  0.1634068E-009  0.4778727E+02  0.7816164E-02  0.1312668E+00
        -11   -1    0    0    0    0  0.00000000000E+00  0.00000000000E+00  0.45593999997E+02  0.45594000000E+02  0.51100000000E-03 0.  1.
         11   -1    0    0    0    0 -0.00000000000E+00 -0.00000000000E+00 -0.45593999997E+02  0.45594000000E+02  0.51100000000E-03 0. -1.
    9900012    2    1    2    0    0 -0.18995470518E+02 -0.26780610350E+02  0.28382995477E+02  0.47787269324E+02  0.19999992157E+02 0.  0.
         12    1    1    2    0    0  0.18995470518E+02  0.26780610350E+02 -0.28382995477E+02  0.43400730676E+02  0.00000000000E+00 0. -1.
         11    1    3    3    0    0 -0.62559368396E+01 -0.45169310565E+01 -0.14290317162E+01  0.78473908924E+01  0.51100000000E-03 0. -1.
        -11    1    3    3    0    0 -0.86269879449E+01 -0.83771598651E+01  0.12077529067E+02  0.17043134601E+02  0.51100000000E-03 0.  1.
         12    1    3    3    0    0 -0.41125457338E+01 -0.13886519428E+02  0.17734498126E+02  0.22896743830E+02  0.00000000000E+00 0. -1.
</event>
<event>
 7    1  0.1634068E-009  0.4778727E+02  0.7816164E-02  0.1312668E+00
        -11   -1    0    0    0    0  0.00000000000E+00  0.00000000000E+00  0.45593999997E+02  0.45594000000E+02  0.51100000000E-03 0.  1.
         11   -1    0    0    0    0 -0.00000000000E+00 -0.00000000000E+00 -0.45593999997E+02  0.45594000000E+02  0.51100000000E-03 0. -1.
    9900012    2    1    2    0    0  0.91736538511E+01  0.86737684811E+01  0.41523881729E+02  0.47787274909E+02  0.20000017619E+02 0.  0.
         12    1    1    2    0    0 -0.91736538511E+01 -0.86737684811E+01 -0.41523881729E+02  0.43400725091E+02  0.00000000000E+00 0. -1.
         11    1    3    3    0    0  0.59062258769E+01  0.84779718080E+00  0.18838059104E+01  0.62570751265E+01  0.51100000000E-03 0. -1.
        -11    1    3    3    0    0 -0.24227556549E+01  0.44478955630E+01  0.10630384684E+02  0.11775338581E+02  0.51100000000E-03 0.  1.
        -12    1    3    3    0    0  0.56901836291E+01  0.33780757374E+01  0.29009691134E+02  0.29754861202E+02  0.00000000000E+00 0.  1.
</event>
<event>
 7    1  0.1634068E-009  0.4778727E+02  0.7816164E-02  0.1312668E+00
        -11   -1    0    0    0    0  0.00000000000E+00  0.00000000000E+00  0.45593999997E+02  0.45594000000E+02  0.51100000000E-03 0.  1.
         11   -1    0    0    0    0 -0.00000000000E+00 -0.00000000000E+00 -0.45593999997E+02  0.45594000000E+02  0.51100000000E-03 0. -1.
    9900012    2    1    2    0    0 -0.78083925316E+01  0.29179245285E+02  0.31164461465E+02  0.47787274111E+02  0.20000013981E+02 0.  0.
         12    1    1    2    0    0  0.78083925316E+01 -0.29179245285E+02 -0.31164461465E+02  0.43400725889E+02  0.00000000000E+00 0. -1.
         11    1    3    3    0    0 -0.13431855246E+01  0.45907430565E+01  0.44802341479E+00  0.48041434623E+01  0.51100000000E-03 0. -1.
        -11    1    3    3    0    0 -0.34709853687E+00  0.21176105756E+02  0.28746777327E+02  0.35706093868E+02  0.51100000000E-03 0.  1.
         12    1    3    3    0    0 -0.61181084702E+01  0.34123964725E+01  0.19696607227E+01  0.72770367802E+01  0.00000000000E+00 0. -1.
</event>
<event>
 7    1  0.1634068E-009  0.4778727E+02  0.7816164E-02  0.1312668E+00
        -11   -1    0    0    0    0  0.00000000000E+00  0.00000000000E+00  0.45593999997E+02  0.45594000000E+02  0.51100000000E-03 0. -1.
         11   -1    0    0    0    0 -0.00000000000E+00 -0.00000000000E+00 -0.45593999997E+02  0.45594000000E+02  0.51100000000E-03 0.  1.
    9900012    2    1    2    0    0 -0.18616506392E+02 -0.19357644661E+02  0.34092973579E+02  0.47787267696E+02  0.19999984733E+02 0.  0.
         12    1    1    2    0    0  0.18616506392E+02  0.19357644661E+02 -0.34092973579E+02  0.43400732304E+02  0.00000000000E+00 0. -1.
         11    1    3    3    0    0 -0.38830470241E+00 -0.71149138575E+00 -0.62733958931E+00  0.10249662216E+01  0.51100000000E-03 0.  1.
        -11    1    3    3    0    0 -0.15459140626E+01 -0.60101734775E+01 -0.19578369661E-01  0.62058375013E+01  0.51100000000E-03 0. -1.
        -12    1    3    3    0    0 -0.16682287627E+02 -0.12635979798E+02  0.34739891538E+02  0.40556463973E+02  0.00000000000E+00 0.  1.
</event>
<event>
 7    1  0.1634068E-009  0.4778728E+02  0.7816164E-02  0.1312668E+00
        -11   -1    0    0    0    0  0.00000000000E+00  0.00000000000E+00  0.45593999997E+02  0.45594000000E+02  0.51100000000E-03 0.  1.
         11   -1    0    0    0    0 -0.00000000000E+00 -0.00000000000E+00 -0.45593999997E+02  0.45594000000E+02  0.51100000000E-03 0. -1.
    9900012    2    1    2    0    0 -0.30535073913E+02  0.51688619869E+01  0.30405838346E+02  0.47787275598E+02  0.20000020763E+02 0.  0.
         12    1    1    2    0    0  0.30535073913E+02 -0.51688619869E+01 -0.30405838346E+02  0.43400724402E+02  0.00000000000E+00 0. -1.
         11    1    3    3    0    0 -0.83922845187E+01 -0.53548284999E+01  0.93673062796E+01  0.13669347274E+02  0.51100000000E-03 0. -1.
        -11    1    3    3    0    0 -0.97123496745E+01  0.47724037255E+01  0.16417046506E+02  0.19662781842E+02  0.51100000000E-03 0.  1.
        -12    1    3    3    0    0 -0.12430439719E+02  0.57512867614E+01  0.46214855596E+01  0.14455146482E+02  0.00000000000E+00 0.  1.
</event>
<event>
 7    1  0.1634068E-009  0.4778726E+02  0.7816164E-02  0.1312668E+00
        -11   -1    0    0    0    0  0.00000000000E+00  0.00000000000E+00  0.45593999997E+02  0.45594000000E+02  0.51100000000E-03 0.  1.
         11   -1    0    0    0    0 -0.00000000000E+00 -0.00000000000E+00 -0.45593999997E+02  0.45594000000E+02  0.51100000000E-03 0. -1.
    9900012    2    1    2    0    0 -0.39951015127E+02  0.10518352626E+02  0.13300549533E+02  0.47787263030E+02  0.19999963458E+02 0.  0.
         12    1    1    2    0    0  0.39951015127E+02 -0.10518352626E+02 -0.13300549533E+02  0.43400736970E+02  0.00000000000E+00 0. -1.
         11    1    3    3    0    0 -0.68746949802E+01  0.89156417509E+01  0.33325426235E+01  0.11741206901E+02  0.51100000000E-03 0.  1.
        -11    1    3    3    0    0 -0.56829517157E+01 -0.28247117199E+01 -0.55147627742E+00  0.63701697662E+01  0.51100000000E-03 0. -1.
        -12    1    3    3    0    0 -0.27393368432E+02  0.44274225952E+01  0.10519483187E+02  0.29675886362E+02  0.00000000000E+00 0.  1.
</event>
<event>
 7    1  0.1634068E-009  0.4778727E+02  0.7816164E-02  0.1312668E+00
        -11   -1    0    0    0    0  0.00000000000E+00  0.00000000000E+00  0.45593999997E+02  0.45594000000E+02  0.51100000000E-03 0. -1.
         11   -1    0    0    0    0 -0.00000000000E+00 -0.00000000000E+00 -0.45593999997E+02  0.45594000000E+02  0.51100000000E-03 0.  1.
    9900012    2    1    2    0    0  0.36685810444E+02  0.76006332834E+01 -0.21909018965E+02  0.47787269289E+02  0.19999991998E+02 0.  0.
         12    1    1    2    0    0 -0.36685810444E+02 -0.76006332834E+01  0.21909018965E+02  0.43400730711E+02  0.00000000000E+00 0. -1.
         11    1    3    3    0    0  0.74485499023E+01 -0.20847872932E+01 -0.89571142777E+01  0.11834573509E+02  0.51100000000E-03 0. -1.
        -11    1    3    3    0    0 -0.10336313471E+01  0.13394085089E+01  0.54074170549E+00  0.17761786984E+01  0.51100000000E-03 0.  1.
        -12    1    3    3    0    0  0.30270891888E+02  0.83460120677E+01 -0.13492646393E+02  0.34176517082E+02  0.00000000000E+00 0.  1.
</event>
<event>
 7    1  0.1634068E-009  0.4778727E+02  0.7816164E-02  0.1312668E+00
        -11   -1    0    0    0    0  0.00000000000E+00  0.00000000000E+00  0.45593999997E+02  0.45594000000E+02  0.51100000000E-03 0.  1.
         11   -1    0    0    0    0 -0.00000000000E+00 -0.00000000000E+00 -0.45593999997E+02  0.45594000000E+02  0.51100000000E-03 0. -1.
    9900012    2    1    2    0    0 -0.22072917228E+01  0.36827627731E+02  0.22857757729E+02  0.47787269713E+02  0.19999993929E+02 0.  0.
         12    1    1    2    0    0  0.22072917228E+01 -0.36827627731E+02 -0.22857757729E+02  0.43400730287E+02  0.00000000000E+00 0. -1.
         11    1    3    3    0    0  0.38244517650E+01  0.98356132116E+01  0.17611874061E+01  0.10698948541E+02  0.51100000000E-03 0. -1.
        -11    1    3    3    0    0 -0.12239757058E+01  0.24270822037E+02  0.19960544657E+02  0.31448279161E+02  0.51100000000E-03 0.  1.
        -12    1    3    3    0    0 -0.48077677821E+01  0.27211924821E+01  0.11360256658E+01  0.56400420108E+01  0.00000000000E+00 0.  1.
</event>
<event>
 7    1  0.1634068E-009  0.4778727E+02  0.7816164E-02  0.1312668E+00
        -11   -1    0    0    0    0  0.00000000000E+00  0.00000000000E+00  0.45593999997E+02  0.45594000000E+02  0.51100000000E-03 0. -1.
         11   -1    0    0    0    0 -0.00000000000E+00 -0.00000000000E+00 -0.45593999997E+02  0.45594000000E+02  0.51100000000E-03 0.  1.
    9900012    2    1    2    0    0  0.11053689811E+02 -0.40769692889E+02 -0.99635107076E+01  0.47787268874E+02  0.19999990102E+02 0.  0.
         12    1    1    2    0    0 -0.11053689811E+02  0.40769692889E+02  0.99635107076E+01  0.43400731126E+02  0.00000000000E+00 0. -1.
         11    1    3    3    0    0  0.65212690852E+01 -0.47709545372E+01 -0.19022667077E+01  0.83010587617E+01  0.51100000000E-03 0. -1.
        -11    1    3    3    0    0  0.18464960118E+01 -0.19422971954E+02 -0.11061872459E+02  0.22428250257E+02  0.51100000000E-03 0.  1.
        -12    1    3    3    0    0  0.26859247136E+01 -0.16575766398E+02  0.30006284594E+01  0.17057959855E+02  0.00000000000E+00 0.  1.
</event>
<event>
 7    1  0.1634068E-009  0.4778727E+02  0.7816164E-02  0.1312668E+00
        -11   -1    0    0    0    0  0.00000000000E+00  0.00000000000E+00  0.45593999997E+02  0.45594000000E+02  0.51100000000E-03 0.  1.
         11   -1    0    0    0    0 -0.00000000000E+00 -0.00000000000E+00 -0.45593999997E+02  0.45594000000E+02  0.51100000000E-03 0. -1.
    9900012    2    1    2    0    0  0.38959278713E+02  0.11380322615E+02  0.15371604565E+02  0.47787269965E+02  0.19999995077E+02 0.  0.
         12    1    1    2    0    0 -0.38959278713E+02 -0.11380322615E+02 -0.15371604565E+02  0.43400730035E+02  0.00000000000E+00 0. -1.
         11    1    3    3    0    0  0.19646551772E+02  0.85932662990E+00 -0.94971302686E+00  0.19688255227E+02  0.51100000000E-03 0. -1.
        -11    1    3    3    0    0  0.10939433638E+02  0.36318949611E+01  0.54694853329E+01  0.12758414455E+02  0.51100000000E-03 0.  1.
         12    1    3    3    0    0  0.83732933035E+01  0.68891010237E+01  0.10851832259E+02  0.15340600283E+02  0.00000000000E+00 0. -1.
</event>
<event>
 7    1  0.1634068E-009  0.4778728E+02  0.7816164E-02  0.1312668E+00
        -11   -1    0    0    0    0  0.00000000000E+00  0.00000000000E+00  0.45593999997E+02  0.45594000000E+02  0.51100000000E-03 0.  1.
         11   -1    0    0    0    0 -0.00000000000E+00 -0.00000000000E+00 -0.45593999997E+02  0.45594000000E+02  0.51100000000E-03 0. -1.
    9900012    2    1    2    0    0  0.27264656429E+02 -0.14226983723E+02  0.30624404630E+02  0.47787277483E+02  0.20000029357E+02 0.  0.
         12    1    1    2    0    0 -0.27264656429E+02  0.14226983723E+02 -0.30624404630E+02  0.43400722517E+02  0.00000000000E+00 0. -1.
         11    1    3    3    0    0  0.16685426688E+02 -0.37814328460E+00  0.22423985596E+02  0.27953203508E+02  0.51100000000E-03 0. -1.
        -11    1    3    3    0    0  0.82630004287E+01 -0.84340050363E+01  0.72854856042E+01  0.13874001506E+02  0.51100000000E-03 0.  1.
         12    1    3    3    0    0  0.23162293117E+01 -0.54148354018E+01  0.91493343008E+00  0.59600724689E+01  0.00000000000E+00 0. -1.
</event>
<event>
 7    1  0.1634068E-009  0.4778727E+02  0.7816164E-02  0.1312668E+00
        -11   -1    0    0    0    0  0.00000000000E+00  0.00000000000E+00  0.45593999997E+02  0.45594000000E+02  0.51100000000E-03 0. -1.
         11   -1    0    0    0    0 -0.00000000000E+00 -0.00000000000E+00 -0.45593999997E+02  0.45594000000E+02  0.51100000000E-03 0.  1.
    9900012    2    1    2    0    0  0.33368284848E+02  0.25128059732E+02 -0.11779714284E+02  0.47787268575E+02  0.19999988741E+02 0.  0.
         12    1    1    2    0    0 -0.33368284848E+02 -0.25128059732E+02  0.11779714284E+02  0.43400731425E+02  0.00000000000E+00 0. -1.
         11    1    3    3    0    0 -0.54051063085E+00 -0.26381263934E+00  0.16835994245E+00  0.62457520130E+00  0.51100000000E-03 0. -1.
        -11    1    3    3    0    0  0.32851613889E+02  0.17340545485E+02 -0.12014714977E+02  0.39041982904E+02  0.51100000000E-03 0.  1.
        -12    1    3    3    0    0  0.10571815903E+01  0.80513268866E+01  0.66640750718E-01  0.81207104701E+01  0.00000000000E+00 0.  1.
</event>
<event>
 7    1  0.1634068E-009  0.4778730E+02  0.7816164E-02  0.1312668E+00
        -11   -1    0    0    0    0  0.00000000000E+00  0.00000000000E+00  0.45593999997E+02  0.45594000000E+02  0.51100000000E-03 0.  1.
         11   -1    0    0    0    0 -0.00000000000E+00 -0.00000000000E+00 -0.45593999997E+02  0.45594000000E+02  0.51100000000E-03 0. -1.
    9900012    2    1    2    0    0 -0.23261846200E+02  0.18418051485E+02  0.31674637782E+02  0.47787299685E+02  0.20000130586E+02 0.  0.
         12    1    1    2    0    0  0.23261846200E+02 -0.18418051485E+02 -0.31674637782E+02  0.43400700315E+02  0.00000000000E+00 0. -1.
         11    1    3    3    0    0 -0.76980645996E+01  0.43431105939E+01  0.60115261313E+01  0.10689305632E+02  0.51100000000E-03 0. -1.
        -11    1    3    3    0    0 -0.34729684571E+01  0.77739051670E+01  0.21046309727E+02  0.22703353604E+02  0.51100000000E-03 0.  1.
        -12    1    3    3    0    0 -0.12090813144E+02  0.63010357244E+01  0.46168019235E+01  0.14394640450E+02  0.00000000000E+00 0.  1.
</event>
<event>
 7    1  0.1634068E-009  0.4778728E+02  0.7816164E-02  0.1312668E+00
        -11   -1    0    0    0    0  0.00000000000E+00  0.00000000000E+00  0.45593999997E+02  0.45594000000E+02  0.51100000000E-03 0.  1.
         11   -1    0    0    0    0 -0.00000000000E+00 -0.00000000000E+00 -0.45593999997E+02  0.45594000000E+02  0.51100000000E-03 0. -1.
    9900012    2    1    2    0    0 -0.91838785982E+01 -0.34440920372E+02  0.24760900733E+02  0.47787276189E+02  0.20000023457E+02 0.  0.
         12    1    1    2    0    0  0.91838785982E+01  0.34440920372E+02 -0.24760900733E+02  0.43400723811E+02  0.00000000000E+00 0. -1.
         11    1    3    3    0    0 -0.13690395108E+01 -0.42508729710E+01  0.92023172911E+01  0.10228725922E+02  0.51100000000E-03 0. -1.
        -11    1    3    3    0    0  0.33665883210E+01 -0.11545401189E+02  0.27894319307E+01  0.12345490525E+02  0.51100000000E-03 0.  1.
        -12    1    3    3    0    0 -0.11181427408E+02 -0.18644646212E+02  0.12769151511E+02  0.25213059742E+02  0.00000000000E+00 0.  1.
</event>
<event>
 7    1  0.1634068E-009  0.4778728E+02  0.7816164E-02  0.1312668E+00
        -11   -1    0    0    0    0  0.00000000000E+00  0.00000000000E+00  0.45593999997E+02  0.45594000000E+02  0.51100000000E-03 0.  1.
         11   -1    0    0    0    0 -0.00000000000E+00 -0.00000000000E+00 -0.45593999997E+02  0.45594000000E+02  0.51100000000E-03 0. -1.
    9900012    2    1    2    0    0 -0.23049769182E+02 -0.25236456138E+01  0.36687357238E+02  0.47787276186E+02  0.20000023441E+02 0.  0.
         12    1    1    2    0    0  0.23049769182E+02  0.25236456138E+01 -0.36687357238E+02  0.43400723814E+02  0.00000000000E+00 0. -1.
         11    1    3    3    0    0 -0.35198515813E+01 -0.22439066856E+01  0.49379312138E+00  0.42033682061E+01  0.51100000000E-03 0. -1.
        -11    1    3    3    0    0 -0.19807655850E+02 -0.23116546694E+01  0.36418288460E+02  0.41520822634E+02  0.51100000000E-03 0.  1.
         12    1    3    3    0    0  0.27773824938E+00  0.20319157413E+01 -0.22472434326E+00  0.20630853461E+01  0.00000000000E+00 0. -1.
</event>
<event>
 7    1  0.1634068E-009  0.4778727E+02  0.7816164E-02  0.1312668E+00
        -11   -1    0    0    0    0  0.00000000000E+00  0.00000000000E+00  0.45593999997E+02  0.45594000000E+02  0.51100000000E-03 0. -1.
         11   -1    0    0    0    0 -0.00000000000E+00 -0.00000000000E+00 -0.45593999997E+02  0.45594000000E+02  0.51100000000E-03 0.  1.
    9900012    2    1    2    0    0 -0.40838053962E+02  0.97158711762E+01 -0.11021717654E+02  0.47787273461E+02  0.20000011016E+02 0.  0.
         12    1    1    2    0    0  0.40838053962E+02 -0.97158711762E+01  0.11021717654E+02  0.43400726539E+02  0.00000000000E+00 0. -1.
         11    1    3    3    0    0 -0.19655218616E+02  0.41857541970E+01 -0.42111044839E+01  0.20532451346E+02  0.51100000000E-03 0.  1.
        -11    1    3    3    0    0 -0.35238460863E+01 -0.22735343589E+01 -0.67520096748E+01  0.79483384824E+01  0.51100000000E-03 0. -1.
         12    1    3    3    0    0 -0.17658989260E+02  0.78036513381E+01 -0.58603495640E-01  0.19306483633E+02  0.00000000000E+00 0. -1.
</event>
<event>
 7    1  0.1634068E-009  0.4778727E+02  0.7816164E-02  0.1312668E+00
        -11   -1    0    0    0    0  0.00000000000E+00  0.00000000000E+00  0.45593999997E+02  0.45594000000E+02  0.51100000000E-03 0.  1.
         11   -1    0    0    0    0 -0.00000000000E+00 -0.00000000000E+00 -0.45593999997E+02  0.45594000000E+02  0.51100000000E-03 0. -1.
    9900012    2    1    2    0    0 -0.55361185428E+01 -0.19527336774E+02  0.38362196475E+02  0.47787267191E+02  0.19999982429E+02 0.  0.
         12    1    1    2    0    0  0.55361185428E+01  0.19527336774E+02 -0.38362196475E+02  0.43400732809E+02  0.00000000000E+00 0. -1.
         11    1    3    3    0    0 -0.15948354202E+01  0.31592643435E+01  0.70995817361E+01  0.79327493531E+01  0.51100000000E-03 0. -1.
        -11    1    3    3    0    0 -0.29010542698E+01 -0.95938391472E+01  0.68720282338E+01  0.12152474553E+02  0.51100000000E-03 0.  1.
        -12    1    3    3    0    0 -0.10402288527E+01 -0.13092761970E+02  0.24390586505E+02  0.27702043284E+02  0.00000000000E+00 0.  1.
</event>
<event>
 7    1  0.1634068E-009  0.4778727E+02  0.7816164E-02  0.1312668E+00
        -11   -1    0    0    0    0  0.00000000000E+00  0.00000000000E+00  0.45593999997E+02  0.45594000000E+02  0.51100000000E-03 0. -1.
         11   -1    0    0    0    0 -0.00000000000E+00 -0.00000000000E+00 -0.45593999997E+02  0.45594000000E+02  0.51100000000E-03 0.  1.
    9900012    2    1    2    0    0 -0.91464718516E+00  0.15789791814E+01 -0.43362352467E+02  0.47787269981E+02  0.19999995149E+02 0.  0.
         12    1    1    2    0    0  0.91464718516E+00 -0.15789791814E+01  0.43362352467E+02  0.43400730019E+02  0.00000000000E+00 0. -1.
         11    1    3    3    0    0 -0.92168873075E+01  0.35024578093E+01 -0.21678813589E+02  0.23815733900E+02  0.51100000000E-03 0. -1.
        -11    1    3    3    0    0  0.22345423133E+01 -0.10813690271E+01 -0.13623281399E+02  0.13847611154E+02  0.51100000000E-03 0.  1.
         12    1    3    3    0    0  0.60676978090E+01 -0.84210960077E+00 -0.80602574795E+01  0.10123924926E+02  0.00000000000E+00 0. -1.
</event>
<event>
 7    1  0.1634068E-009  0.4778727E+02  0.7816164E-02  0.1312668E+00
        -11   -1    0    0    0    0  0.00000000000E+00  0.00000000000E+00  0.45593999997E+02  0.45594000000E+02  0.51100000000E-03 0.  1.
         11   -1    0    0    0    0 -0.00000000000E+00 -0.00000000000E+00 -0.45593999997E+02  0.45594000000E+02  0.51100000000E-03 0. -1.
    9900012    2    1    2    0    0 -0.42214644729E+01  0.38819995713E+02  0.18942285678E+02  0.47787274013E+02  0.20000013536E+02 0.  0.
         12    1    1    2    0    0  0.42214644729E+01 -0.38819995713E+02 -0.18942285678E+02  0.43400725987E+02  0.00000000000E+00 0. -1.
         11    1    3    3    0    0 -0.92703821441E+00  0.18971204941E+02  0.87708890758E+01  0.20921149878E+02  0.51100000000E-03 0.  1.
        -11    1    3    3    0    0 -0.81246549289E+00  0.20956968310E+02  0.11413952853E+02  0.23877456751E+02  0.51100000000E-03 0. -1.
         12    1    3    3    0    0 -0.24819607656E+01 -0.11081775375E+01 -0.12425562509E+01  0.29886673842E+01  0.00000000000E+00 0. -1.
</event>
<event>
 7    1  0.1634068E-009  0.4778727E+02  0.7816164E-02  0.1312668E+00
        -11   -1    0    0    0    0  0.00000000000E+00  0.00000000000E+00  0.45593999997E+02  0.45594000000E+02  0.51100000000E-03 0.  1.
         11   -1    0    0    0    0 -0.00000000000E+00 -0.00000000000E+00 -0.45593999997E+02  0.45594000000E+02  0.51100000000E-03 0. -1.
    9900012    2    1    2    0    0  0.42309134431E+02  0.72598521383E+01  0.63918133921E+01  0.47787267428E+02  0.19999983511E+02 0.  0.
         12    1    1    2    0    0 -0.42309134431E+02 -0.72598521383E+01 -0.63918133921E+01  0.43400732572E+02  0.00000000000E+00 0. -1.
         11    1    3    3    0    0  0.12524999739E+02 -0.44757889386E+01  0.37498917910E+00  0.13305973179E+02  0.51100000000E-03 0. -1.
        -11    1    3    3    0    0  0.49901967608E+01  0.35832212425E+00 -0.28981258516E+01  0.57818329420E+01  0.51100000000E-03 0.  1.
        -12    1    3    3    0    0  0.24793937931E+02  0.11377318953E+02  0.89149500646E+01  0.28699461307E+02  0.00000000000E+00 0.  1.
</event>
<event>
 7    1  0.1634068E-009  0.4778727E+02  0.7816164E-02  0.1312668E+00
        -11   -1    0    0    0    0  0.00000000000E+00  0.00000000000E+00  0.45593999997E+02  0.45594000000E+02  0.51100000000E-03 0.  1.
         11   -1    0    0    0    0 -0.00000000000E+00 -0.00000000000E+00 -0.45593999997E+02  0.45594000000E+02  0.51100000000E-03 0. -1.
    9900012    2    1    2    0    0 -0.41359477146E+02  0.12709193547E+02  0.33901553033E+01  0.47787273009E+02  0.20000008957E+02 0.  0.
         12    1    1    2    0    0  0.41359477146E+02 -0.12709193547E+02 -0.33901553033E+01  0.43400726991E+02  0.00000000000E+00 0. -1.
         11    1    3    3    0    0 -0.78174170742E+01  0.45316596830E+01  0.45044784788E+01  0.10096448674E+02  0.51100000000E-03 0. -1.
        -11    1    3    3    0    0 -0.73511272681E+01  0.75597727065E+01  0.34568395229E+01  0.11096800225E+02  0.51100000000E-03 0.  1.
         12    1    3    3    0    0 -0.26190932803E+02  0.61776115710E+00 -0.45711626984E+01  0.26594024110E+02  0.00000000000E+00 0. -1.
</event>
<event>
 7    1  0.1634068E-009  0.4778727E+02  0.7816164E-02  0.1312668E+00
        -11   -1    0    0    0    0  0.00000000000E+00  0.00000000000E+00  0.45593999997E+02  0.45594000000E+02  0.51100000000E-03 0.  1.
         11   -1    0    0    0    0 -0.00000000000E+00 -0.00000000000E+00 -0.45593999997E+02  0.45594000000E+02  0.51100000000E-03 0. -1.
    9900012    2    1    2    0    0 -0.13987073386E+02 -0.13482085039E+02  0.38810032075E+02  0.47787269263E+02  0.19999991876E+02 0.  0.
         12    1    1    2    0    0  0.13987073386E+02  0.13482085039E+02 -0.38810032075E+02  0.43400730737E+02  0.00000000000E+00 0. -1.
         11    1    3    3    0    0 -0.11831182375E+01  0.23541800121E+01  0.20372535895E+01  0.33305156871E+01  0.51100000000E-03 0. -1.
        -11    1    3    3    0    0 -0.15421744730E+02 -0.13886394966E+02  0.26385606324E+02  0.33568771157E+02  0.51100000000E-03 0.  1.
         12    1    3    3    0    0  0.26177895808E+01 -0.19498700850E+01  0.10387172162E+02  0.10887982419E+02  0.00000000000E+00 0. -1.
</event>
<event>
 7    1  0.1634068E-009  0.4778728E+02  0.7816164E-02  0.1312668E+00
        -11   -1    0    0    0    0  0.00000000000E+00  0.00000000000E+00  0.45593999997E+02  0.45594000000E+02  0.51100000000E-03 0.  1.
         11   -1    0    0    0    0 -0.00000000000E+00 -0.00000000000E+00 -0.45593999997E+02  0.45594000000E+02  0.51100000000E-03 0. -1.
    9900012    2    1    2    0    0 -0.79413020339E+01 -0.71615995795E+01  0.42062689854E+02  0.47787278067E+02  0.20000032018E+02 0.  0.
         12    1    1    2    0    0  0.79413020339E+01  0.71615995795E+01 -0.42062689854E+02  0.43400721933E+02  0.00000000000E+00 0. -1.
         11    1    3    3    0    0  0.25949372692E+01 -0.11824643294E+01  0.18319373904E+02  0.18539994116E+02  0.51100000000E-03 0. -1.
        -11    1    3    3    0    0 -0.41358566938E+01  0.34889038535E+01  0.54668780212E+01  0.76918473887E+01  0.51100000000E-03 0.  1.
        -12    1    3    3    0    0 -0.64003826092E+01 -0.94680391037E+01  0.18276437929E+02  0.21555436562E+02  0.00000000000E+00 0.  1.
</event>
<event>
 7    1  0.1634068E-009  0.4778726E+02  0.7816164E-02  0.1312668E+00
        -11   -1    0    0    0    0  0.00000000000E+00  0.00000000000E+00  0.45593999997E+02  0.45594000000E+02  0.51100000000E-03 0.  1.
         11   -1    0    0    0    0 -0.00000000000E+00 -0.00000000000E+00 -0.45593999997E+02  0.45594000000E+02  0.51100000000E-03 0. -1.
    9900012    2    1    2    0    0 -0.41908020962E+02  0.10889350978E+02  0.29603941643E+01  0.47787261305E+02  0.19999955592E+02 0.  0.
         12    1    1    2    0    0  0.41908020962E+02 -0.10889350978E+02 -0.29603941643E+01  0.43400738695E+02  0.00000000000E+00 0. -1.
         11    1    3    3    0    0 -0.14134147568E+02  0.53874383972E+01 -0.50391041640E+00  0.15134482018E+02  0.51100000000E-03 0. -1.
        -11    1    3    3    0    0 -0.20915207403E+02 -0.32285834743E+01  0.39993533675E+01  0.21537513310E+02  0.51100000000E-03 0.  1.
         12    1    3    3    0    0 -0.68586659907E+01  0.87304960547E+01 -0.53504878681E+00  0.11115265977E+02  0.00000000000E+00 0. -1.
</event>
<event>
 7    1  0.1634068E-009  0.4778724E+02  0.7816164E-02  0.1312668E+00
        -11   -1    0    0    0    0  0.00000000000E+00  0.00000000000E+00  0.45593999997E+02  0.45594000000E+02  0.51100000000E-03 0. -1.
         11   -1    0    0    0    0 -0.00000000000E+00 -0.00000000000E+00 -0.45593999997E+02  0.45594000000E+02  0.51100000000E-03 0.  1.
    9900012    2    1    2    0    0 -0.23894429780E+02 -0.32075200572E+02 -0.16848255080E+02  0.47787240036E+02  0.19999858619E+02 0.  0.
         12    1    1    2    0    0  0.23894429780E+02  0.32075200572E+02  0.16848255080E+02  0.43400759964E+02  0.00000000000E+00 0. -1.
         11    1    3    3    0    0  0.19622121161E+00 -0.13148790113E+01 -0.56634848209E+01  0.58174281393E+01  0.51100000000E-03 0. -1.
        -11    1    3    3    0    0 -0.10188839687E+02 -0.18317120077E+02 -0.10137952443E+02  0.23283200426E+02  0.51100000000E-03 0.  1.
         12    1    3    3    0    0 -0.13901811305E+02 -0.12443201483E+02 -0.10468178160E+01  0.18686611471E+02  0.00000000000E+00 0. -1.
</event>
<event>
 7    1  0.1634068E-009  0.4778727E+02  0.7816164E-02  0.1312668E+00
        -11   -1    0    0    0    0  0.00000000000E+00  0.00000000000E+00  0.45593999997E+02  0.45594000000E+02  0.51100000000E-03 0.  1.
         11   -1    0    0    0    0 -0.00000000000E+00 -0.00000000000E+00 -0.45593999997E+02  0.45594000000E+02  0.51100000000E-03 0. -1.
    9900012    2    1    2    0    0  0.25157808498E+01 -0.15028766403E+02  0.40637792070E+02  0.47787272850E+02  0.20000008230E+02 0.  0.
         12    1    1    2    0    0 -0.25157808498E+01  0.15028766403E+02 -0.40637792070E+02  0.43400727150E+02  0.00000000000E+00 0. -1.
         11    1    3    3    0    0  0.43887226766E+01 -0.14928832427E+02  0.16087250825E+02  0.22381478140E+02  0.51100000000E-03 0. -1.
        -11    1    3    3    0    0  0.22994666687E+01 -0.25707226873E+00  0.10266889071E+02  0.10524383334E+02  0.51100000000E-03 0.  1.
        -12    1    3    3    0    0 -0.41724084955E+01  0.15713829262E+00  0.14283652174E+02  0.14881411375E+02  0.00000000000E+00 0.  1.
</event>
<event>
 7    1  0.1634068E-009  0.4778727E+02  0.7816164E-02  0.1312668E+00
        -11   -1    0    0    0    0  0.00000000000E+00  0.00000000000E+00  0.45593999997E+02  0.45594000000E+02  0.51100000000E-03 0. -1.
         11   -1    0    0    0    0 -0.00000000000E+00 -0.00000000000E+00 -0.45593999997E+02  0.45594000000E+02  0.51100000000E-03 0.  1.
    9900012    2    1    2    0    0  0.12642854364E+02  0.32417893341E+02  0.25939574401E+02  0.47787273102E+02  0.20000009382E+02 0.  0.
         12    1    1    2    0    0 -0.12642854364E+02 -0.32417893341E+02 -0.25939574401E+02  0.43400726898E+02  0.00000000000E+00 0. -1.
         11    1    3    3    0    0 -0.20949696566E+01  0.40505573024E+01  0.35920754856E+01  0.58050769915E+01  0.51100000000E-03 0. -1.
        -11    1    3    3    0    0  0.13377362239E+02  0.30002787147E+02  0.22550378504E+02  0.39845208344E+02  0.51100000000E-03 0.  1.
         12    1    3    3    0    0  0.13604617824E+01 -0.16354511080E+01 -0.20287958864E+00  0.21369877668E+01  0.00000000000E+00 0. -1.
</event>
<event>
 7    1  0.1634068E-009  0.4778728E+02  0.7816164E-02  0.1312668E+00
        -11   -1    0    0    0    0  0.00000000000E+00  0.00000000000E+00  0.45593999997E+02  0.45594000000E+02  0.51100000000E-03 0.  1.
         11   -1    0    0    0    0 -0.00000000000E+00 -0.00000000000E+00 -0.45593999997E+02  0.45594000000E+02  0.51100000000E-03 0. -1.
    9900012    2    1    2    0    0  0.33684218537E+02 -0.25817184280E+02  0.90812540359E+01  0.47787276993E+02  0.20000027124E+02 0.  0.
         12    1    1    2    0    0 -0.33684218537E+02  0.25817184280E+02 -0.90812540359E+01  0.43400723007E+02  0.00000000000E+00 0. -1.
         11    1    3    3    0    0  0.94699413937E+00 -0.90326911735E+01  0.43781163491E+01  0.10082371287E+02  0.51100000000E-03 0. -1.
        -11    1    3    3    0    0  0.16058871788E+02 -0.10262887529E+02  0.53181556458E+01  0.19786283210E+02  0.51100000000E-03 0.  1.
         12    1    3    3    0    0  0.16678352609E+02 -0.65216055778E+01 -0.61501795898E+00  0.17918622496E+02  0.00000000000E+00 0. -1.
</event>
<event>
 7    1  0.1634068E-009  0.4778727E+02  0.7816164E-02  0.1312668E+00
        -11   -1    0    0    0    0  0.00000000000E+00  0.00000000000E+00  0.45593999997E+02  0.45594000000E+02  0.51100000000E-03 0.  1.
         11   -1    0    0    0    0 -0.00000000000E+00 -0.00000000000E+00 -0.45593999997E+02  0.45594000000E+02  0.51100000000E-03 0. -1.
    9900012    2    1    2    0    0 -0.19777849120E+02  0.43730276872E+01  0.38384068223E+02  0.47787269818E+02  0.19999994410E+02 0.  0.
         12    1    1    2    0    0  0.19777849120E+02 -0.43730276872E+01 -0.38384068223E+02  0.43400730182E+02  0.00000000000E+00 0. -1.
         11    1    3    3    0    0 -0.63548471679E+01  0.61673275620E+01  0.10570333862E+02  0.13789560181E+02  0.51100000000E-03 0. -1.
        -11    1    3    3    0    0  0.63806349923E+00  0.28166700167E+01  0.11989813132E+02  0.12332735877E+02  0.51100000000E-03 0.  1.
        -12    1    3    3    0    0 -0.14061065451E+02 -0.46109698915E+01  0.15823921230E+02  0.21664973760E+02  0.00000000000E+00 0.  1.
</event>
<event>
 7    1  0.1634068E-009  0.4778727E+02  0.7816164E-02  0.1312668E+00
        -11   -1    0    0    0    0  0.00000000000E+00  0.00000000000E+00  0.45593999997E+02  0.45594000000E+02  0.51100000000E-03 0.  1.
         11   -1    0    0    0    0 -0.00000000000E+00 -0.00000000000E+00 -0.45593999997E+02  0.45594000000E+02  0.51100000000E-03 0. -1.
    9900012    2    1    2    0    0  0.42454973143E+02 -0.75009389868E-01  0.90107214322E+01  0.47787268765E+02  0.19999989609E+02 0.  0.
         12    1    1    2    0    0 -0.42454973143E+02  0.75009389868E-01 -0.90107214322E+01  0.43400731235E+02  0.00000000000E+00 0. -1.
         11    1    3    3    0    0  0.15072380178E+02  0.33710819501E+01 -0.14172145194E+01  0.15509652962E+02  0.51100000000E-03 0. -1.
        -11    1    3    3    0    0  0.21693090338E+02 -0.62107797020E+01  0.33953342249E+01  0.22818681988E+02  0.51100000000E-03 0.  1.
        -12    1    3    3    0    0  0.56895026273E+01  0.27646883620E+01  0.70326017267E+01  0.94589338158E+01  0.00000000000E+00 0.  1.
</event>
<event>
 7    1  0.1634068E-009  0.4778727E+02  0.7816164E-02  0.1312668E+00
        -11   -1    0    0    0    0  0.00000000000E+00  0.00000000000E+00  0.45593999997E+02  0.45594000000E+02  0.51100000000E-03 0.  1.
         11   -1    0    0    0    0 -0.00000000000E+00 -0.00000000000E+00 -0.45593999997E+02  0.45594000000E+02  0.51100000000E-03 0. -1.
    9900012    2    1    2    0    0 -0.20037212651E+02 -0.13889133254E+02  0.35905781239E+02  0.47787273742E+02  0.20000012300E+02 0.  0.
         12    1    1    2    0    0  0.20037212651E+02  0.13889133254E+02 -0.35905781239E+02  0.43400726258E+02  0.00000000000E+00 0. -1.
         11    1    3    3    0    0  0.10783322104E+01  0.10168869757E+01  0.24046522978E+01  0.28247499733E+01  0.51100000000E-03 0. -1.
        -11    1    3    3    0    0 -0.18806364675E+02 -0.79915133503E+01  0.15834732175E+02  0.25851158218E+02  0.51100000000E-03 0.  1.
        -12    1    3    3    0    0 -0.23091801861E+01 -0.69145068792E+01  0.17666396766E+02  0.19111365550E+02  0.00000000000E+00 0.  1.
</event>
<event>
 7    1  0.1634068E-009  0.4778727E+02  0.7816164E-02  0.1312668E+00
        -11   -1    0    0    0    0  0.00000000000E+00  0.00000000000E+00  0.45593999997E+02  0.45594000000E+02  0.51100000000E-03 0. -1.
         11   -1    0    0    0    0 -0.00000000000E+00 -0.00000000000E+00 -0.45593999997E+02  0.45594000000E+02  0.51100000000E-03 0.  1.
    9900012    2    1    2    0    0  0.25310482507E+02  0.32016605671E+02 -0.14762783361E+02  0.47787270328E+02  0.19999996735E+02 0.  0.
         12    1    1    2    0    0 -0.25310482507E+02 -0.32016605671E+02  0.14762783361E+02  0.43400729672E+02  0.00000000000E+00 0. -1.
         11    1    3    3    0    0  0.88190824132E+01  0.99748390927E+01  0.46318236481E+01  0.14097071331E+02  0.51100000000E-03 0. -1.
        -11    1    3    3    0    0  0.20509592042E+01  0.32314426387E+01 -0.24475999288E+01  0.45430607367E+01  0.51100000000E-03 0.  1.
         12    1    3    3    0    0  0.14440440889E+02  0.18810323940E+02 -0.16947007081E+02  0.29147138261E+02  0.00000000000E+00 0. -1.
</event>
<event>
 7    1  0.1634068E-009  0.4778727E+02  0.7816164E-02  0.1312668E+00
        -11   -1    0    0    0    0  0.00000000000E+00  0.00000000000E+00  0.45593999997E+02  0.45594000000E+02  0.51100000000E-03 0.  1.
         11   -1    0    0    0    0 -0.00000000000E+00 -0.00000000000E+00 -0.45593999997E+02  0.45594000000E+02  0.51100000000E-03 0. -1.
    9900012    2    1    2    0    0 -0.33443782579E+02 -0.23836222579E+02  0.14034645197E+02  0.47787269985E+02  0.19999995169E+02 0.  0.
         12    1    1    2    0    0  0.33443782579E+02  0.23836222579E+02 -0.14034645197E+02  0.43400730015E+02  0.00000000000E+00 0. -1.
         11    1    3    3    0    0 -0.26801875136E+01  0.86358845719E-01 -0.26411656639E+01  0.37638569691E+01  0.51100000000E-03 0. -1.
        -11    1    3    3    0    0 -0.74566627016E+01 -0.11629694254E+02  0.93237824821E+01  0.16666869146E+02  0.51100000000E-03 0.  1.
         12    1    3    3    0    0 -0.23306932364E+02 -0.12292887170E+02  0.73520283788E+01  0.27356543870E+02  0.00000000000E+00 0. -1.
</event>
<event>
 7    1  0.1634068E-009  0.4778729E+02  0.7816164E-02  0.1312668E+00
        -11   -1    0    0    0    0  0.00000000000E+00  0.00000000000E+00  0.45593999997E+02  0.45594000000E+02  0.51100000000E-03 0.  1.
         11   -1    0    0    0    0 -0.00000000000E+00 -0.00000000000E+00 -0.45593999997E+02  0.45594000000E+02  0.51100000000E-03 0. -1.
    9900012    2    1    2    0    0 -0.14522333260E+02 -0.30641812491E+02  0.27088795137E+02  0.47787289660E+02  0.20000084875E+02 0.  0.
         12    1    1    2    0    0  0.14522333260E+02  0.30641812491E+02 -0.27088795137E+02  0.43400710340E+02  0.00000000000E+00 0. -1.
         11    1    3    3    0    0 -0.14297868044E+01  0.97943746436E+00  0.25938570211E+01  0.31195644824E+01  0.51100000000E-03 0. -1.
        -11    1    3    3    0    0 -0.15511232703E+02 -0.31239478155E+02  0.22465117555E+02  0.41487164790E+02  0.51100000000E-03 0.  1.
        -12    1    3    3    0    0  0.24186862468E+01 -0.38177180112E+00  0.20298205604E+01  0.31805603871E+01  0.00000000000E+00 0.  1.
</event>
<event>
 7    1  0.1634068E-009  0.4778726E+02  0.7816164E-02  0.1312668E+00
        -11   -1    0    0    0    0  0.00000000000E+00  0.00000000000E+00  0.45593999997E+02  0.45594000000E+02  0.51100000000E-03 0.  1.
         11   -1    0    0    0    0 -0.00000000000E+00 -0.00000000000E+00 -0.45593999997E+02  0.45594000000E+02  0.51100000000E-03 0. -1.
    9900012    2    1    2    0    0 -0.11790906582E+02 -0.92953047376E+01  0.40720950439E+02  0.47787262992E+02  0.19999963287E+02 0.  0.
         12    1    1    2    0    0  0.11790906582E+02  0.92953047376E+01 -0.40720950439E+02  0.43400737008E+02  0.00000000000E+00 0. -1.
         11    1    3    3    0    0 -0.27038569687E+01 -0.77461173233E+01  0.20339928313E+02  0.21932301752E+02  0.51100000000E-03 0.  1.
        -11    1    3    3    0    0 -0.54619999269E+01  0.20841784024E+00  0.21070313697E+02  0.21767751394E+02  0.51100000000E-03 0. -1.
        -12    1    3    3    0    0 -0.36250496863E+01 -0.17576052545E+01 -0.68929157146E+00  0.40872098465E+01  0.00000000000E+00 0.  1.
</event>
<event>
 7    1  0.1634068E-009  0.4778727E+02  0.7816164E-02  0.1312668E+00
        -11   -1    0    0    0    0  0.00000000000E+00  0.00000000000E+00  0.45593999997E+02  0.45594000000E+02  0.51100000000E-03 0. -1.
         11   -1    0    0    0    0 -0.00000000000E+00 -0.00000000000E+00 -0.45593999997E+02  0.45594000000E+02  0.51100000000E-03 0.  1.
    9900012    2    1    2    0    0  0.82656612916E+01 -0.22167339699E+01 -0.42548656982E+02  0.47787271008E+02  0.19999999833E+02 0.  0.
         12    1    1    2    0    0 -0.82656612916E+01  0.22167339699E+01  0.42548656982E+02  0.43400728992E+02  0.00000000000E+00 0. -1.
         11    1    3    3    0    0  0.84930233337E+01 -0.94513759669E+01 -0.23506604625E+02  0.26721160422E+02  0.51100000000E-03 0. -1.
        -11    1    3    3    0    0  0.19752217444E+01  0.35031825894E+01 -0.13157273349E+02  0.13758184162E+02  0.51100000000E-03 0.  1.
         12    1    3    3    0    0 -0.22025837865E+01  0.37314594076E+01 -0.58847790076E+01  0.73079264238E+01  0.00000000000E+00 0. -1.
</event>
<event>
 7    1  0.1634068E-009  0.4778727E+02  0.7816164E-02  0.1312668E+00
        -11   -1    0    0    0    0  0.00000000000E+00  0.00000000000E+00  0.45593999997E+02  0.45594000000E+02  0.51100000000E-03 0.  1.
         11   -1    0    0    0    0 -0.00000000000E+00 -0.00000000000E+00 -0.45593999997E+02  0.45594000000E+02  0.51100000000E-03 0. -1.
    9900012    2    1    2    0    0 -0.27483954118E+02 -0.15434396087E+02  0.29833456048E+02  0.47787269404E+02  0.19999992520E+02 0.  0.
         12    1    1    2    0    0  0.27483954118E+02  0.15434396087E+02 -0.29833456048E+02  0.43400730596E+02  0.00000000000E+00 0. -1.
         11    1    3    3    0    0  0.30993114754E+00 -0.77559835478E+01  0.36308959460E+01  0.85694074324E+01  0.51100000000E-03 0. -1.
        -11    1    3    3    0    0 -0.39632720580E+01 -0.27908158903E+01  0.40624056419E+01  0.63245014507E+01  0.51100000000E-03 0.  1.
         12    1    3    3    0    0 -0.23830613208E+02 -0.48875966489E+01  0.22140154460E+02  0.32893360521E+02  0.00000000000E+00 0. -1.
</event>
<event>
 7    1  0.1821561E-009  0.4778727E+02  0.7816164E-02  0.1312668E+00
        -11   -1    0    0    0    0  0.00000000000E+00  0.00000000000E+00  0.45593999997E+02  0.45594000000E+02  0.51100000000E-03 0.  1.
         11   -1    0    0    0    0 -0.00000000000E+00 -0.00000000000E+00 -0.45593999997E+02  0.45594000000E+02  0.51100000000E-03 0. -1.
    9900012    2    1    2    0    0  0.18616942095E+02 -0.37956219514E+02  0.98162054458E+01  0.47787273945E+02  0.20000013223E+02 0.  0.
         12    1    1    2    0    0 -0.18616942095E+02  0.37956219514E+02 -0.98162054458E+01  0.43400726055E+02  0.00000000000E+00 0. -1.
         11    1    3    3    0    0  0.89505158817E-02 -0.31732186171E+01 -0.36886685879E+01  0.48657653782E+01  0.51100000000E-03 0. -1.
        -11    1    3    3    0    0  0.13398666374E+02 -0.14313912834E+02  0.59483448000E+01  0.20488903517E+02  0.51100000000E-03 0.  1.
        -12    1    3    3    0    0  0.52093252060E+01 -0.20469088063E+02  0.75565292337E+01  0.22432605049E+02  0.00000000000E+00 0.  1.
</event>
<event>
 7    1  0.1634068E-009  0.4778727E+02  0.7816164E-02  0.1312668E+00
        -11   -1    0    0    0    0  0.00000000000E+00  0.00000000000E+00  0.45593999997E+02  0.45594000000E+02  0.51100000000E-03 0.  1.
         11   -1    0    0    0    0 -0.00000000000E+00 -0.00000000000E+00 -0.45593999997E+02  0.45594000000E+02  0.51100000000E-03 0. -1.
    9900012    2    1    2    0    0  0.26640413395E+02 -0.30983379760E+02  0.14626753082E+02  0.47787270134E+02  0.19999995848E+02 0.  0.
         12    1    1    2    0    0 -0.26640413395E+02  0.30983379760E+02 -0.14626753082E+02  0.43400729866E+02  0.00000000000E+00 0. -1.
         11    1    3    3    0    0 -0.29745665196E+01 -0.11416998063E+01  0.16046602629E+01  0.35674163267E+01  0.51100000000E-03 0. -1.
        -11    1    3    3    0    0  0.90108524933E+01 -0.11478748856E+02  0.56900524768E+01  0.15663136194E+02  0.51100000000E-03 0.  1.
         12    1    3    3    0    0  0.20604127422E+02 -0.18362931097E+02  0.73320403420E+01  0.28556717613E+02  0.00000000000E+00 0. -1.
</event>
<event>
 7    1  0.1634068E-009  0.4778728E+02  0.7816164E-02  0.1312668E+00
        -11   -1    0    0    0    0  0.00000000000E+00  0.00000000000E+00  0.45593999997E+02  0.45594000000E+02  0.51100000000E-03 0.  1.
         11   -1    0    0    0    0 -0.00000000000E+00 -0.00000000000E+00 -0.45593999997E+02  0.45594000000E+02  0.51100000000E-03 0. -1.
    9900012    2    1    2    0    0  0.18163433296E+02  0.33731477737E+02 -0.20393621716E+02  0.47787277586E+02  0.20000029824E+02 0.  0.
         12    1    1    2    0    0 -0.18163433296E+02 -0.33731477737E+02  0.20393621716E+02  0.43400722414E+02  0.00000000000E+00 0. -1.
         11    1    3    3    0    0  0.56210221464E+01  0.10470354398E+02  0.22114500946E+00  0.11885836805E+02  0.51100000000E-03 0. -1.
        -11    1    3    3    0    0  0.94020181913E+01  0.73932062562E+01 -0.37535947028E+01  0.12535825392E+02  0.51100000000E-03 0.  1.
         12    1    3    3    0    0  0.31403929586E+01  0.15867917083E+02 -0.16861172023E+02  0.23365615388E+02  0.00000000000E+00 0. -1.
</event>
<event>
 7    1  0.1634068E-009  0.4778727E+02  0.7816164E-02  0.1312668E+00
        -11   -1    0    0    0    0  0.00000000000E+00  0.00000000000E+00  0.45593999997E+02  0.45594000000E+02  0.51100000000E-03 0.  1.
         11   -1    0    0    0    0 -0.00000000000E+00 -0.00000000000E+00 -0.45593999997E+02  0.45594000000E+02  0.51100000000E-03 0. -1.
    9900012    2    1    2    0    0  0.73448770338E+01  0.21300351135E+02  0.37094084620E+02  0.47787270848E+02  0.19999999103E+02 0.  0.
         12    1    1    2    0    0 -0.73448770338E+01 -0.21300351135E+02 -0.37094084620E+02  0.43400729152E+02  0.00000000000E+00 0. -1.
         11    1    3    3    0    0 -0.38148023211E+01  0.38012972123E+01  0.56611101314E+01  0.78134976436E+01  0.51100000000E-03 0. -1.
        -11    1    3    3    0    0  0.64603834625E+01 -0.82499152132E-01  0.92051485489E+01  0.11246249182E+02  0.51100000000E-03 0.  1.
        -12    1    3    3    0    0  0.46992958924E+01  0.17581553075E+02  0.22227825940E+02  0.28727524022E+02  0.00000000000E+00 0.  1.
</event>
<event>
 7    1  0.1634068E-009  0.4778728E+02  0.7816164E-02  0.1312668E+00
        -11   -1    0    0    0    0  0.00000000000E+00  0.00000000000E+00  0.45593999997E+02  0.45594000000E+02  0.51100000000E-03 0.  1.
         11   -1    0    0    0    0 -0.00000000000E+00 -0.00000000000E+00 -0.45593999997E+02  0.45594000000E+02  0.51100000000E-03 0. -1.
    9900012    2    1    2    0    0 -0.40963690108E+02 -0.12856766684E+02  0.63483830827E+01  0.47787281980E+02  0.20000049861E+02 0.  0.
         12    1    1    2    0    0  0.40963690108E+02  0.12856766684E+02 -0.63483830827E+01  0.43400718020E+02  0.00000000000E+00 0. -1.
         11    1    3    3    0    0 -0.99106895399E+01 -0.98899456805E+01  0.35590239707E+01  0.14446433629E+02  0.51100000000E-03 0. -1.
        -11    1    3    3    0    0 -0.13571356050E+02 -0.66903584931E+01  0.31860523171E+01  0.15462649560E+02  0.51100000000E-03 0.  1.
        -12    1    3    3    0    0 -0.17481644519E+02  0.37235374891E+01 -0.39669320502E+00  0.17878198791E+02  0.00000000000E+00 0.  1.
</event>
<event>
 7    1  0.1634068E-009  0.4778727E+02  0.7816164E-02  0.1312668E+00
        -11   -1    0    0    0    0  0.00000000000E+00  0.00000000000E+00  0.45593999997E+02  0.45594000000E+02  0.51100000000E-03 0.  1.
         11   -1    0    0    0    0 -0.00000000000E+00 -0.00000000000E+00 -0.45593999997E+02  0.45594000000E+02  0.51100000000E-03 0. -1.
    9900012    2    1    2    0    0 -0.12603373422E+02 -0.31209377406E+02  0.27399872357E+02  0.47787271148E+02  0.20000000472E+02 0.  0.
         12    1    1    2    0    0  0.12603373422E+02  0.31209377406E+02 -0.27399872357E+02  0.43400728852E+02  0.00000000000E+00 0. -1.
         11    1    3    3    0    0 -0.49663549157E+01 -0.35231760039E+01  0.63126172316E+01  0.87707802889E+01  0.51100000000E-03 0. -1.
        -11    1    3    3    0    0 -0.71280313147E+00 -0.11429366448E+02 -0.68922807673E-01  0.11451779613E+02  0.51100000000E-03 0.  1.
         12    1    3    3    0    0 -0.69242153749E+01 -0.16256834954E+02  0.21156177933E+02  0.27564711246E+02  0.00000000000E+00 0. -1.
</event>
<event>
 7    1  0.1634068E-009  0.4778727E+02  0.7816164E-02  0.1312668E+00
        -11   -1    0    0    0    0  0.00000000000E+00  0.00000000000E+00  0.45593999997E+02  0.45594000000E+02  0.51100000000E-03 0. -1.
         11   -1    0    0    0    0 -0.00000000000E+00 -0.00000000000E+00 -0.45593999997E+02  0.45594000000E+02  0.51100000000E-03 0.  1.
    9900012    2    1    2    0    0 -0.70636549433E+01 -0.64157425686E+01 -0.42338706424E+02  0.47787273791E+02  0.20000012521E+02 0.  0.
         12    1    1    2    0    0  0.70636549433E+01  0.64157425686E+01  0.42338706424E+02  0.43400726209E+02  0.00000000000E+00 0. -1.
         11    1    3    3    0    0 -0.28622889890E+01 -0.50959214228E+01 -0.80052615597E+01  0.99118780413E+01  0.51100000000E-03 0.  1.
        -11    1    3    3    0    0  0.79144677023E+00  0.49577255931E+01 -0.37738815094E+01  0.62807334727E+01  0.51100000000E-03 0. -1.
         12    1    3    3    0    0 -0.49928127245E+01 -0.62775467388E+01 -0.30559563355E+02  0.31594662277E+02  0.00000000000E+00 0. -1.
</event>
<event>
 7    1  0.1634068E-009  0.4778724E+02  0.7816164E-02  0.1312668E+00
        -11   -1    0    0    0    0  0.00000000000E+00  0.00000000000E+00  0.45593999997E+02  0.45594000000E+02  0.51100000000E-03 0.  1.
         11   -1    0    0    0    0 -0.00000000000E+00 -0.00000000000E+00 -0.45593999997E+02  0.45594000000E+02  0.51100000000E-03 0. -1.
    9900012    2    1    2    0    0 -0.16521872833E+01 -0.73926806659E+00  0.43362995309E+02  0.47787244220E+02  0.19999877696E+02 0.  0.
         12    1    1    2    0    0  0.16521872833E+01  0.73926806659E+00 -0.43362995309E+02  0.43400755780E+02  0.00000000000E+00 0. -1.
         11    1    3    3    0    0 -0.11725045846E+01  0.37341164683E+01  0.16252428230E+00  0.39172448485E+01  0.51100000000E-03 0. -1.
        -11    1    3    3    0    0 -0.22957184336E+01  0.39742806975E+00  0.16989900268E+02  0.17148906191E+02  0.51100000000E-03 0.  1.
         12    1    3    3    0    0  0.18160357349E+01 -0.48708126046E+01  0.26210570759E+02  0.26721093180E+02  0.00000000000E+00 0. -1.
</event>
<event>
 7    1  0.1634068E-009  0.4778724E+02  0.7816164E-02  0.1312668E+00
        -11   -1    0    0    0    0  0.00000000000E+00  0.00000000000E+00  0.45593999997E+02  0.45594000000E+02  0.51100000000E-03 0.  1.
         11   -1    0    0    0    0 -0.00000000000E+00 -0.00000000000E+00 -0.45593999997E+02  0.45594000000E+02  0.51100000000E-03 0. -1.
    9900012    2    1    2    0    0  0.19177026135E+02 -0.15302663457E+02  0.35800779734E+02  0.47787243442E+02  0.19999874147E+02 0.  0.
         12    1    1    2    0    0 -0.19177026135E+02  0.15302663457E+02 -0.35800779734E+02  0.43400756558E+02  0.00000000000E+00 0. -1.
         11    1    3    3    0    0 -0.73660918507E-01 -0.16380576094E+01  0.77332621466E+01  0.79051883186E+01  0.51100000000E-03 0. -1.
        -11    1    3    3    0    0  0.11768280790E+02 -0.99786077544E+01  0.27486266390E+02  0.31520784981E+02  0.51100000000E-03 0.  1.
         12    1    3    3    0    0  0.74824062638E+01 -0.36859980932E+01  0.58125119761E+00  0.83612701424E+01  0.00000000000E+00 0. -1.
</event>
<event>
 7    1  0.1634068E-009  0.4778727E+02  0.7816164E-02  0.1312668E+00
        -11   -1    0    0    0    0  0.00000000000E+00  0.00000000000E+00  0.45593999997E+02  0.45594000000E+02  0.51100000000E-03 0.  1.
         11   -1    0    0    0    0 -0.00000000000E+00 -0.00000000000E+00 -0.45593999997E+02  0.45594000000E+02  0.51100000000E-03 0. -1.
    9900012    2    1    2    0    0 -0.17396354432E+01 -0.11391096770E+02  0.41843037946E+02  0.47787271415E+02  0.20000001691E+02 0.  0.
         12    1    1    2    0    0  0.17396354432E+01  0.11391096770E+02 -0.41843037946E+02  0.43400728585E+02  0.00000000000E+00 0. -1.
         11    1    3    3    0    0  0.14616101338E+01 -0.30567135832E+01 -0.86932026008E+00  0.34979308296E+01  0.51100000000E-03 0. -1.
        -11    1    3    3    0    0  0.66574279543E+00  0.12164876305E+00  0.15827388431E+02  0.15841850798E+02  0.51100000000E-03 0.  1.
         12    1    3    3    0    0 -0.38669883725E+01 -0.84560319500E+01  0.26884969776E+02  0.28447489788E+02  0.00000000000E+00 0. -1.
</event>
<event>
 7    1  0.1634068E-009  0.4778727E+02  0.7816164E-02  0.1312668E+00
        -11   -1    0    0    0    0  0.00000000000E+00  0.00000000000E+00  0.45593999997E+02  0.45594000000E+02  0.51100000000E-03 0.  1.
         11   -1    0    0    0    0 -0.00000000000E+00 -0.00000000000E+00 -0.45593999997E+02  0.45594000000E+02  0.51100000000E-03 0. -1.
    9900012    2    1    2    0    0  0.19772543308E+02 -0.36213969463E+02  0.13461733240E+02  0.47787270571E+02  0.19999997841E+02 0.  0.
         12    1    1    2    0    0 -0.19772543308E+02  0.36213969463E+02 -0.13461733240E+02  0.43400729429E+02  0.00000000000E+00 0. -1.
         11    1    3    3    0    0  0.50192644900E+01 -0.37446978324E+01  0.60954748975E+01  0.87390269689E+01  0.51100000000E-03 0. -1.
        -11    1    3    3    0    0  0.15401420971E+02 -0.30489976687E+02  0.10091254771E+02  0.35618476517E+02  0.51100000000E-03 0.  1.
         12    1    3    3    0    0 -0.64814215247E+00 -0.19792949440E+01 -0.27249964280E+01  0.34297670851E+01  0.00000000000E+00 0. -1.
</event>
<event>
 7    1  0.1634068E-009  0.4778731E+02  0.7816164E-02  0.1312668E+00
        -11   -1    0    0    0    0  0.00000000000E+00  0.00000000000E+00  0.45593999997E+02  0.45594000000E+02  0.51100000000E-03 0.  1.
         11   -1    0    0    0    0 -0.00000000000E+00 -0.00000000000E+00 -0.45593999997E+02  0.45594000000E+02  0.51100000000E-03 0. -1.
    9900012    2    1    2    0    0 -0.32365124487E+02  0.17418603643E+02  0.23080530628E+02  0.47787309568E+02  0.20000175643E+02 0.  0.
         12    1    1    2    0    0  0.32365124487E+02 -0.17418603643E+02 -0.23080530628E+02  0.43400690432E+02  0.00000000000E+00 0. -1.
         11    1    3    3    0    0 -0.15265776995E+02  0.13403254444E+02  0.91944466804E+01  0.22298632850E+02  0.51100000000E-03 0.  1.
        -11    1    3    3    0    0 -0.16142644447E+02  0.18065053936E+01  0.15609757280E+02  0.22528048164E+02  0.51100000000E-03 0. -1.
         12    1    3    3    0    0 -0.95670304413E+00  0.22088438061E+01 -0.17236733328E+01  0.29606285536E+01  0.00000000000E+00 0. -1.
</event>
<event>
 7    1  0.1634068E-009  0.4778728E+02  0.7816164E-02  0.1312668E+00
        -11   -1    0    0    0    0  0.00000000000E+00  0.00000000000E+00  0.45593999997E+02  0.45594000000E+02  0.51100000000E-03 0.  1.
         11   -1    0    0    0    0 -0.00000000000E+00 -0.00000000000E+00 -0.45593999997E+02  0.45594000000E+02  0.51100000000E-03 0. -1.
    9900012    2    1    2    0    0  0.74571658115E+01  0.38426449187E+02 -0.18746241493E+02  0.47787275477E+02  0.20000020209E+02 0.  0.
         12    1    1    2    0    0 -0.74571658115E+01 -0.38426449187E+02  0.18746241493E+02  0.43400724523E+02  0.00000000000E+00 0. -1.
         11    1    3    3    0    0  0.86331633932E+01  0.28394849004E+02 -0.13835402721E+02  0.32744729787E+02  0.51100000000E-03 0. -1.
        -11    1    3    3    0    0 -0.67688647918E+00  0.28320117723E+01 -0.69565345708E+01  0.75413420211E+01  0.51100000000E-03 0.  1.
        -12    1    3    3    0    0 -0.49911110252E+00  0.71995884104E+01  0.20456957989E+01  0.75012036684E+01  0.00000000000E+00 0.  1.
</event>
<event>
 7    1  0.1634068E-009  0.4778728E+02  0.7816164E-02  0.1312668E+00
        -11   -1    0    0    0    0  0.00000000000E+00  0.00000000000E+00  0.45593999997E+02  0.45594000000E+02  0.51100000000E-03 0. -1.
         11   -1    0    0    0    0 -0.00000000000E+00 -0.00000000000E+00 -0.45593999997E+02  0.45594000000E+02  0.51100000000E-03 0.  1.
    9900012    2    1    2    0    0 -0.26149749997E+00  0.42555326165E+02  0.85204790321E+01  0.47787277323E+02  0.20000028627E+02 0.  0.
         12    1    1    2    0    0  0.26149749997E+00 -0.42555326165E+02 -0.85204790321E+01  0.43400722677E+02  0.00000000000E+00 0. -1.
         11    1    3    3    0    0  0.84471872158E+01  0.19073310384E+02  0.37774422677E+01  0.21199415351E+02  0.51100000000E-03 0. -1.
        -11    1    3    3    0    0 -0.40813157805E+01  0.13677644578E+02 -0.10196669681E+01  0.14309955300E+02  0.51100000000E-03 0.  1.
        -12    1    3    3    0    0 -0.46273689353E+01  0.98043712031E+01  0.57627037325E+01  0.12277906673E+02  0.00000000000E+00 0.  1.
</event>
<event>
 7    1  0.1634068E-009  0.4778723E+02  0.7816164E-02  0.1312668E+00
        -11   -1    0    0    0    0  0.00000000000E+00  0.00000000000E+00  0.45593999997E+02  0.45594000000E+02  0.51100000000E-03 0.  1.
         11   -1    0    0    0    0 -0.00000000000E+00 -0.00000000000E+00 -0.45593999997E+02  0.45594000000E+02  0.51100000000E-03 0. -1.
    9900012    2    1    2    0    0 -0.38433899680E+02 -0.10375256883E+02  0.17286297781E+02  0.47787231677E+02  0.19999820509E+02 0.  0.
         12    1    1    2    0    0  0.38433899680E+02  0.10375256883E+02 -0.17286297781E+02  0.43400768323E+02  0.00000000000E+00 0. -1.
         11    1    3    3    0    0 -0.76704644488E+01  0.50819947212E+00  0.84477677613E+01  0.11421868147E+02  0.51100000000E-03 0. -1.
        -11    1    3    3    0    0 -0.20203828333E+02 -0.11937060293E+02  0.10347073837E+02  0.25646637694E+02  0.51100000000E-03 0.  1.
         12    1    3    3    0    0 -0.10559606899E+02  0.10536039375E+01 -0.15085438176E+01  0.10718725837E+02  0.00000000000E+00 0. -1.
</event>
<event>
 7    1  0.1634068E-009  0.4778726E+02  0.7816164E-02  0.1312668E+00
        -11   -1    0    0    0    0  0.00000000000E+00  0.00000000000E+00  0.45593999997E+02  0.45594000000E+02  0.51100000000E-03 0. -1.
         11   -1    0    0    0    0 -0.00000000000E+00 -0.00000000000E+00 -0.45593999997E+02  0.45594000000E+02  0.51100000000E-03 0.  1.
    9900012    2    1    2    0    0  0.11112904392E+02 -0.41909351770E+02 -0.19323054122E+01  0.47787260213E+02  0.19999950617E+02 0.  0.
         12    1    1    2    0    0 -0.11112904392E+02  0.41909351770E+02  0.19323054122E+01  0.43400739787E+02  0.00000000000E+00 0. -1.
         11    1    3    3    0    0  0.45252697903E+01 -0.18783897432E+02 -0.67199348431E+01  0.20456548927E+02  0.51100000000E-03 0.  1.
        -11    1    3    3    0    0  0.15659524645E+01 -0.21424158607E+02  0.27762696165E+01  0.21659973509E+02  0.51100000000E-03 0. -1.
         12    1    3    3    0    0  0.50216821369E+01 -0.17012957305E+01  0.20113598144E+01  0.56707377783E+01  0.00000000000E+00 0. -1.
</event>
<event>
 7    1  0.1634068E-009  0.4778728E+02  0.7816164E-02  0.1312668E+00
        -11   -1    0    0    0    0  0.00000000000E+00  0.00000000000E+00  0.45593999997E+02  0.45594000000E+02  0.51100000000E-03 0.  1.
         11   -1    0    0    0    0 -0.00000000000E+00 -0.00000000000E+00 -0.45593999997E+02  0.45594000000E+02  0.51100000000E-03 0. -1.
    9900012    2    1    2    0    0 -0.16746160429E+02  0.31192530342E+02  0.25104069600E+02  0.47787284007E+02  0.20000059099E+02 0.  0.
         12    1    1    2    0    0  0.16746160429E+02 -0.31192530342E+02 -0.25104069600E+02  0.43400715993E+02  0.00000000000E+00 0. -1.
         11    1    3    3    0    0  0.11802373362E+01  0.35347331537E+01 -0.10635655522E+00  0.37280840408E+01  0.51100000000E-03 0. -1.
        -11    1    3    3    0    0 -0.17131642613E+02  0.29485846018E+02  0.24263161832E+02  0.41852231916E+02  0.51100000000E-03 0.  1.
        -12    1    3    3    0    0 -0.79475515241E+00 -0.18280488293E+01  0.94726432341E+00  0.22069680499E+01  0.00000000000E+00 0.  1.
</event>
<event>
 7    1  0.1634068E-009  0.4778727E+02  0.7816164E-02  0.1312668E+00
        -11   -1    0    0    0    0  0.00000000000E+00  0.00000000000E+00  0.45593999997E+02  0.45594000000E+02  0.51100000000E-03 0.  1.
         11   -1    0    0    0    0 -0.00000000000E+00 -0.00000000000E+00 -0.45593999997E+02  0.45594000000E+02  0.51100000000E-03 0. -1.
    9900012    2    1    2    0    0 -0.30150892782E+02 -0.14252466816E+02  0.27774340411E+02  0.47787272688E+02  0.20000007496E+02 0.  0.
         12    1    1    2    0    0  0.30150892782E+02  0.14252466816E+02 -0.27774340411E+02  0.43400727312E+02  0.00000000000E+00 0. -1.
         11    1    3    3    0    0 -0.23465510579E+01 -0.69393023196E+01  0.40506146036E+01  0.83706449858E+01  0.51100000000E-03 0. -1.
        -11    1    3    3    0    0 -0.18405406451E+02 -0.37867742946E+01  0.22482916654E+02  0.29301538999E+02  0.51100000000E-03 0.  1.
         12    1    3    3    0    0 -0.93989352733E+01 -0.35263902020E+01  0.12408091536E+01  0.10115088704E+02  0.00000000000E+00 0. -1.
</event>
<event>
 7    1  0.1634068E-009  0.4778727E+02  0.7816164E-02  0.1312668E+00
        -11   -1    0    0    0    0  0.00000000000E+00  0.00000000000E+00  0.45593999997E+02  0.45594000000E+02  0.51100000000E-03 0. -1.
         11   -1    0    0    0    0 -0.00000000000E+00 -0.00000000000E+00 -0.45593999997E+02  0.45594000000E+02  0.51100000000E-03 0.  1.
    9900012    2    1    2    0    0  0.26542301650E+02  0.27938713107E+02 -0.19963911454E+02  0.47787271579E+02  0.20000002436E+02 0.  0.
         12    1    1    2    0    0 -0.26542301650E+02 -0.27938713107E+02  0.19963911454E+02  0.43400728421E+02  0.00000000000E+00 0. -1.
         11    1    3    3    0    0  0.14643030962E+02  0.77607957369E+01 -0.39314473675E+01  0.17032456807E+02  0.51100000000E-03 0. -1.
        -11    1    3    3    0    0 -0.80052290615E+00  0.57325994577E+01 -0.11642685064E+00  0.57893945226E+01  0.51100000000E-03 0.  1.
        -12    1    3    3    0    0  0.12699793594E+02  0.14445317912E+02 -0.15916037236E+02  0.24965420249E+02  0.00000000000E+00 0.  1.
</event>
<event>
 7    1  0.1634068E-009  0.4778725E+02  0.7816164E-02  0.1312668E+00
        -11   -1    0    0    0    0  0.00000000000E+00  0.00000000000E+00  0.45593999997E+02  0.45594000000E+02  0.51100000000E-03 0.  1.
         11   -1    0    0    0    0 -0.00000000000E+00 -0.00000000000E+00 -0.45593999997E+02  0.45594000000E+02  0.51100000000E-03 0. -1.
    9900012    2    1    2    0    0 -0.19656161855E+02 -0.32248028092E+02  0.21385151009E+02  0.47787254633E+02  0.19999925176E+02 0.  0.
         12    1    1    2    0    0  0.19656161855E+02  0.32248028092E+02 -0.21385151009E+02  0.43400745367E+02  0.00000000000E+00 0. -1.
         11    1    3    3    0    0  0.75876046680E+00 -0.18338343137E+01 -0.61983926468E+00  0.20791504782E+01  0.51100000000E-03 0. -1.
        -11    1    3    3    0    0 -0.19881664423E+02 -0.32393442548E+02  0.21030408824E+02  0.43438390807E+02  0.51100000000E-03 0.  1.
         12    1    3    3    0    0 -0.53325789909E+00  0.19792487700E+01  0.97458144972E+00  0.22697133481E+01  0.00000000000E+00 0. -1.
</event>
<event>
 7    1  0.1634068E-009  0.4778727E+02  0.7816164E-02  0.1312668E+00
        -11   -1    0    0    0    0  0.00000000000E+00  0.00000000000E+00  0.45593999997E+02  0.45594000000E+02  0.51100000000E-03 0.  1.
         11   -1    0    0    0    0 -0.00000000000E+00 -0.00000000000E+00 -0.45593999997E+02  0.45594000000E+02  0.51100000000E-03 0. -1.
    9900012    2    1    2    0    0  0.27198748229E+02 -0.30843610375E+02 -0.13875270917E+02  0.47787270177E+02  0.19999996043E+02 0.  0.
         12    1    1    2    0    0 -0.27198748229E+02  0.30843610375E+02  0.13875270917E+02  0.43400729823E+02  0.00000000000E+00 0. -1.
         11    1    3    3    0    0 -0.18112872104E+01 -0.99754214369E+00  0.21281995084E+01  0.29673363637E+01  0.51100000000E-03 0. -1.
        -11    1    3    3    0    0  0.93154855591E+01 -0.68778143153E+01 -0.51963263927E+01  0.12691903293E+02  0.51100000000E-03 0.  1.
         12    1    3    3    0    0  0.19694549881E+02 -0.22968253916E+02 -0.10807144033E+02  0.32128030520E+02  0.00000000000E+00 0. -1.
</event>
<event>
 7    1  0.1634068E-009  0.4778727E+02  0.7816164E-02  0.1312668E+00
        -11   -1    0    0    0    0  0.00000000000E+00  0.00000000000E+00  0.45593999997E+02  0.45594000000E+02  0.51100000000E-03 0. -1.
         11   -1    0    0    0    0 -0.00000000000E+00 -0.00000000000E+00 -0.45593999997E+02  0.45594000000E+02  0.51100000000E-03 0.  1.
    9900012    2    1    2    0    0  0.49890702247E+01  0.64182049661E+01 -0.42632603158E+02  0.47787273869E+02  0.20000012877E+02 0.  0.
         12    1    1    2    0    0 -0.49890702247E+01 -0.64182049661E+01  0.42632603158E+02  0.43400726131E+02  0.00000000000E+00 0. -1.
         11    1    3    3    0    0  0.14050351891E+01 -0.49485745518E+01 -0.11167479862E+02  0.12295329223E+02  0.51100000000E-03 0. -1.
        -11    1    3    3    0    0  0.30610795222E+01  0.62991267555E+01 -0.51628344637E+01  0.87008083351E+01  0.51100000000E-03 0.  1.
        -12    1    3    3    0    0  0.52295551337E+00  0.50676527625E+01 -0.26302288832E+02  0.26791136311E+02  0.00000000000E+00 0.  1.
</event>
<event>
 7    1  0.1634068E-009  0.4778727E+02  0.7816164E-02  0.1312668E+00
        -11   -1    0    0    0    0  0.00000000000E+00  0.00000000000E+00  0.45593999997E+02  0.45594000000E+02  0.51100000000E-03 0.  1.
         11   -1    0    0    0    0 -0.00000000000E+00 -0.00000000000E+00 -0.45593999997E+02  0.45594000000E+02  0.51100000000E-03 0. -1.
    9900012    2    1    2    0    0  0.28977016968E+02 -0.31971212238E+02  0.46687534879E+01  0.47787272086E+02  0.20000004747E+02 0.  0.
         12    1    1    2    0    0 -0.28977016968E+02  0.31971212238E+02 -0.46687534879E+01  0.43400727914E+02  0.00000000000E+00 0. -1.
         11    1    3    3    0    0  0.13434964047E+02 -0.19825228264E+02 -0.60527580997E+01  0.24701696613E+02  0.51100000000E-03 0. -1.
        -11    1    3    3    0    0  0.10188348363E+02 -0.62016766580E+01  0.38316053491E+01  0.12527746627E+02  0.51100000000E-03 0.  1.
        -12    1    3    3    0    0  0.53537045581E+01 -0.59443073160E+01  0.68899062384E+01  0.10557828846E+02  0.00000000000E+00 0.  1.
</event>
<event>
 7    1  0.1634068E-009  0.4778727E+02  0.7816164E-02  0.1312668E+00
        -11   -1    0    0    0    0  0.00000000000E+00  0.00000000000E+00  0.45593999997E+02  0.45594000000E+02  0.51100000000E-03 0.  1.
         11   -1    0    0    0    0 -0.00000000000E+00 -0.00000000000E+00 -0.45593999997E+02  0.45594000000E+02  0.51100000000E-03 0. -1.
    9900012    2    1    2    0    0  0.29512875059E+02  0.49216209493E+01  0.31438685873E+02  0.47787272858E+02  0.20000008271E+02 0.  0.
         12    1    1    2    0    0 -0.29512875059E+02 -0.49216209493E+01 -0.31438685873E+02  0.43400727142E+02  0.00000000000E+00 0. -1.
         11    1    3    3    0    0  0.19868134962E+01 -0.10291573096E+01 -0.22180782829E+01  0.31506291700E+01  0.51100000000E-03 0. -1.
        -11    1    3    3    0    0  0.80276287087E+01  0.29271436597E+01  0.16091483309E+02  0.18219408005E+02  0.51100000000E-03 0.  1.
        -12    1    3    3    0    0  0.19498432854E+02  0.30236345993E+01  0.17565280846E+02  0.26417235684E+02  0.00000000000E+00 0.  1.
</event>
<event>
 7    1  0.1634068E-009  0.4778727E+02  0.7816164E-02  0.1312668E+00
        -11   -1    0    0    0    0  0.00000000000E+00  0.00000000000E+00  0.45593999997E+02  0.45594000000E+02  0.51100000000E-03 0.  1.
         11   -1    0    0    0    0 -0.00000000000E+00 -0.00000000000E+00 -0.45593999997E+02  0.45594000000E+02  0.51100000000E-03 0. -1.
    9900012    2    1    2    0    0 -0.37187012774E+02  0.21163172782E+02 -0.72711371423E+01  0.47787271474E+02  0.20000001959E+02 0.  0.
         12    1    1    2    0    0  0.37187012774E+02 -0.21163172782E+02  0.72711371423E+01  0.43400728526E+02  0.00000000000E+00 0. -1.
         11    1    3    3    0    0 -0.11838417121E+02  0.90200341075E+01  0.57117422949E+01  0.15941553737E+02  0.51100000000E-03 0. -1.
        -11    1    3    3    0    0 -0.53038396643E+01  0.34691526766E-01 -0.55138519653E+00  0.53325364117E+01  0.51100000000E-03 0.  1.
        -12    1    3    3    0    0 -0.20044755988E+02  0.12108447148E+02 -0.12431494241E+02  0.26513181326E+02  0.00000000000E+00 0.  1.
</event>
<event>
 7    1  0.1634068E-009  0.4778727E+02  0.7816164E-02  0.1312668E+00
        -11   -1    0    0    0    0  0.00000000000E+00  0.00000000000E+00  0.45593999997E+02  0.45594000000E+02  0.51100000000E-03 0.  1.
         11   -1    0    0    0    0 -0.00000000000E+00 -0.00000000000E+00 -0.45593999997E+02  0.45594000000E+02  0.51100000000E-03 0. -1.
    9900012    2    1    2    0    0 -0.27408109418E+02 -0.19353216490E+02  0.27529470947E+02  0.47787271653E+02  0.20000002777E+02 0.  0.
         12    1    1    2    0    0  0.27408109418E+02  0.19353216490E+02 -0.27529470947E+02  0.43400728347E+02  0.00000000000E+00 0. -1.
         11    1    3    3    0    0 -0.30856580458E+00  0.16000304811E+01  0.30558633924E+01  0.34631794251E+01  0.51100000000E-03 0. -1.
        -11    1    3    3    0    0 -0.55631177313E+01 -0.41077599339E+01  0.12893380444E+02  0.14630831491E+02  0.51100000000E-03 0.  1.
        -12    1    3    3    0    0 -0.21536425882E+02 -0.16845487038E+02  0.11580227110E+02  0.29693260738E+02  0.00000000000E+00 0.  1.
</event>
<event>
 7    1  0.1634068E-009  0.4778727E+02  0.7816164E-02  0.1312668E+00
        -11   -1    0    0    0    0  0.00000000000E+00  0.00000000000E+00  0.45593999997E+02  0.45594000000E+02  0.51100000000E-03 0.  1.
         11   -1    0    0    0    0 -0.00000000000E+00 -0.00000000000E+00 -0.45593999997E+02  0.45594000000E+02  0.51100000000E-03 0. -1.
    9900012    2    1    2    0    0  0.41596255803E+02 -0.10181119043E+02  0.70512059240E+01  0.47787272048E+02  0.20000004575E+02 0.  0.
         12    1    1    2    0    0 -0.41596255803E+02  0.10181119043E+02 -0.70512059240E+01  0.43400727952E+02  0.00000000000E+00 0. -1.
         11    1    3    3    0    0  0.86545861084E+01  0.21792160298E+01  0.41982194854E+01  0.98628540656E+01  0.51100000000E-03 0. -1.
        -11    1    3    3    0    0  0.35756008249E+00  0.18004859441E+01 -0.11582152994E+01  0.21704980508E+01  0.51100000000E-03 0.  1.
        -12    1    3    3    0    0  0.32584109612E+02 -0.14160821017E+02  0.40112017381E+01  0.35753919931E+02  0.00000000000E+00 0.  1.
</event>
<event>
 7    1  0.1634068E-009  0.4778727E+02  0.7816164E-02  0.1312668E+00
        -11   -1    0    0    0    0  0.00000000000E+00  0.00000000000E+00  0.45593999997E+02  0.45594000000E+02  0.51100000000E-03 0.  1.
         11   -1    0    0    0    0 -0.00000000000E+00 -0.00000000000E+00 -0.45593999997E+02  0.45594000000E+02  0.51100000000E-03 0. -1.
    9900012    2    1    2    0    0 -0.26214367730E+02  0.33085840221E+02  0.10087480056E+02  0.47787272443E+02  0.20000006376E+02 0.  0.
         12    1    1    2    0    0  0.26214367730E+02 -0.33085840221E+02 -0.10087480056E+02  0.43400727557E+02  0.00000000000E+00 0. -1.
         11    1    3    3    0    0 -0.74396542595E+01  0.49773146181E+01 -0.38850556756E+01  0.97578570482E+01  0.51100000000E-03 0. -1.
        -11    1    3    3    0    0 -0.90736949213E+01  0.18148876608E+02  0.34246513936E+01  0.20577703932E+02  0.51100000000E-03 0.  1.
         12    1    3    3    0    0 -0.97010185495E+01  0.99596489944E+01  0.10547884338E+02  0.17451711463E+02  0.00000000000E+00 0. -1.
</event>
<event>
 7    1  0.1634068E-009  0.4778728E+02  0.7816164E-02  0.1312668E+00
        -11   -1    0    0    0    0  0.00000000000E+00  0.00000000000E+00  0.45593999997E+02  0.45594000000E+02  0.51100000000E-03 0.  1.
         11   -1    0    0    0    0 -0.00000000000E+00 -0.00000000000E+00 -0.45593999997E+02  0.45594000000E+02  0.51100000000E-03 0. -1.
    9900012    2    1    2    0    0  0.26219228357E+02  0.34573669254E+02  0.91453525453E+00  0.47787275167E+02  0.20000018796E+02 0.  0.
         12    1    1    2    0    0 -0.26219228357E+02 -0.34573669254E+02 -0.91453525453E+00  0.43400724833E+02  0.00000000000E+00 0. -1.
         11    1    3    3    0    0  0.31277909106E+01  0.42614450717E+01 -0.34196188508E+01  0.62957750457E+01  0.51100000000E-03 0. -1.
        -11    1    3    3    0    0  0.56826189762E+01  0.18791215938E+02  0.60566867362E+01  0.20544717309E+02  0.51100000000E-03 0.  1.
        -12    1    3    3    0    0  0.17408818470E+02  0.11521008244E+02 -0.17225326309E+01  0.20946782812E+02  0.00000000000E+00 0.  1.
</event>
<event>
 7    1  0.1634068E-009  0.4778728E+02  0.7816164E-02  0.1312668E+00
        -11   -1    0    0    0    0  0.00000000000E+00  0.00000000000E+00  0.45593999997E+02  0.45594000000E+02  0.51100000000E-03 0.  1.
         11   -1    0    0    0    0 -0.00000000000E+00 -0.00000000000E+00 -0.45593999997E+02  0.45594000000E+02  0.51100000000E-03 0. -1.
    9900012    2    1    2    0    0 -0.81647456558E+01  0.14218502304E+02  0.40184499853E+02  0.47787275262E+02  0.20000019229E+02 0.  0.
         12    1    1    2    0    0  0.81647456558E+01 -0.14218502304E+02 -0.40184499853E+02  0.43400724738E+02  0.00000000000E+00 0. -1.
         11    1    3    3    0    0  0.15735199333E+01  0.43971151892E+01  0.17232783429E+02  0.17854394752E+02  0.51100000000E-03 0. -1.
        -11    1    3    3    0    0 -0.85807450099E+01 -0.35134333762E+00  0.13492099832E+02  0.15993416933E+02  0.51100000000E-03 0.  1.
         12    1    3    3    0    0 -0.11575205792E+01  0.10172730453E+02  0.94596165914E+01  0.13939463577E+02  0.00000000000E+00 0. -1.
</event>
<event>
 7    1  0.1634068E-009  0.4778727E+02  0.7816164E-02  0.1312668E+00
        -11   -1    0    0    0    0  0.00000000000E+00  0.00000000000E+00  0.45593999997E+02  0.45594000000E+02  0.51100000000E-03 0.  1.
         11   -1    0    0    0    0 -0.00000000000E+00 -0.00000000000E+00 -0.45593999997E+02  0.45594000000E+02  0.51100000000E-03 0. -1.
    9900012    2    1    2    0    0 -0.11080252045E+02  0.38325865971E+02  0.17087392533E+02  0.47787274530E+02  0.20000015890E+02 0.  0.
         12    1    1    2    0    0  0.11080252045E+02 -0.38325865971E+02 -0.17087392533E+02  0.43400725470E+02  0.00000000000E+00 0. -1.
         11    1    3    3    0    0 -0.41546398747E+01  0.28813126293E+01  0.70459229000E+00  0.51048452977E+01  0.51100000000E-03 0. -1.
        -11    1    3    3    0    0 -0.40997914294E+01  0.36168761896E+02  0.15917081545E+02  0.39728341421E+02  0.51100000000E-03 0.  1.
        -12    1    3    3    0    0 -0.28258207405E+01 -0.72420855511E+00  0.46571869781E+00  0.29540878109E+01  0.00000000000E+00 0.  1.
</event>
<event>
 7    1  0.1887466E-009  0.4778727E+02  0.7816164E-02  0.1312668E+00
        -11   -1    0    0    0    0  0.00000000000E+00  0.00000000000E+00  0.45593999997E+02  0.45594000000E+02  0.51100000000E-03 0. -1.
         11   -1    0    0    0    0 -0.00000000000E+00 -0.00000000000E+00 -0.45593999997E+02  0.45594000000E+02  0.51100000000E-03 0.  1.
    9900012    2    1    2    0    0  0.12386980361E+02  0.22739922514E+02 -0.34829324184E+02  0.47787272109E+02  0.20000004853E+02 0.  0.
         12    1    1    2    0    0 -0.12386980361E+02 -0.22739922514E+02  0.34829324184E+02  0.43400727891E+02  0.00000000000E+00 0. -1.
         11    1    3    3    0    0  0.88884157466E+01  0.10717746257E+02 -0.91195423409E+01  0.16644520783E+02  0.51100000000E-03 0. -1.
        -11    1    3    3    0    0  0.61275597249E+01  0.37235554390E+01 -0.18495771749E+02  0.19836971194E+02  0.51100000000E-03 0.  1.
        -12    1    3    3    0    0 -0.26289951109E+01  0.82986208176E+01 -0.72140100940E+01  0.11305780133E+02  0.00000000000E+00 0.  1.
</event>
<event>
 7    1  0.1634068E-009  0.4778727E+02  0.7816164E-02  0.1312668E+00
        -11   -1    0    0    0    0  0.00000000000E+00  0.00000000000E+00  0.45593999997E+02  0.45594000000E+02  0.51100000000E-03 0.  1.
         11   -1    0    0    0    0 -0.00000000000E+00 -0.00000000000E+00 -0.45593999997E+02  0.45594000000E+02  0.51100000000E-03 0. -1.
    9900012    2    1    2    0    0  0.32694159575E+01  0.39782396300E+02 -0.17038064687E+02  0.47787265164E+02  0.19999973187E+02 0.  0.
         12    1    1    2    0    0 -0.32694159575E+01 -0.39782396300E+02  0.17038064687E+02  0.43400734836E+02  0.00000000000E+00 0. -1.
         11    1    3    3    0    0  0.27764613942E+01  0.11675958182E+01  0.17541092262E+01  0.34855297024E+01  0.51100000000E-03 0. -1.
        -11    1    3    3    0    0  0.19280152404E+01  0.64629845351E+01  0.52650152137E+00  0.67649549874E+01  0.51100000000E-03 0.  1.
         12    1    3    3    0    0 -0.14350606770E+01  0.32151815946E+02 -0.19318675434E+02  0.37536780474E+02  0.00000000000E+00 0. -1.
</event>
<event>
 7    1  0.1634068E-009  0.4778725E+02  0.7816164E-02  0.1312668E+00
        -11   -1    0    0    0    0  0.00000000000E+00  0.00000000000E+00  0.45593999997E+02  0.45594000000E+02  0.51100000000E-03 0. -1.
         11   -1    0    0    0    0 -0.00000000000E+00 -0.00000000000E+00 -0.45593999997E+02  0.45594000000E+02  0.51100000000E-03 0.  1.
    9900012    2    1    2    0    0  0.27242961754E+02  0.18147373071E+02 -0.28497708779E+02  0.47787245166E+02  0.19999882010E+02 0.  0.
         12    1    1    2    0    0 -0.27242961754E+02 -0.18147373071E+02  0.28497708779E+02  0.43400754834E+02  0.00000000000E+00 0. -1.
         11    1    3    3    0    0  0.17112884282E+01 -0.48596968928E+00  0.89017270515E+00  0.19892416468E+01  0.51100000000E-03 0. -1.
        -11    1    3    3    0    0  0.19905043281E+02  0.19909580934E+02 -0.19158207548E+02  0.34053473798E+02  0.51100000000E-03 0.  1.
         12    1    3    3    0    0  0.56266300446E+01 -0.12762381737E+01 -0.10229673936E+02  0.11744529721E+02  0.00000000000E+00 0. -1.
</event>
<event>
 7    1  0.1634068E-009  0.4778727E+02  0.7816164E-02  0.1312668E+00
        -11   -1    0    0    0    0  0.00000000000E+00  0.00000000000E+00  0.45593999997E+02  0.45594000000E+02  0.51100000000E-03 0. -1.
         11   -1    0    0    0    0 -0.00000000000E+00 -0.00000000000E+00 -0.45593999997E+02  0.45594000000E+02  0.51100000000E-03 0.  1.
    9900012    2    1    2    0    0 -0.38563460014E+02  0.17091815961E+02 -0.10215317035E+02  0.47787270476E+02  0.19999997409E+02 0.  0.
         12    1    1    2    0    0  0.38563460014E+02 -0.17091815961E+02  0.10215317035E+02  0.43400729524E+02  0.00000000000E+00 0. -1.
         11    1    3    3    0    0 -0.38831102373E+01  0.38801696171E+01 -0.51545828786E+01  0.75302049299E+01  0.51100000000E-03 0. -1.
        -11    1    3    3    0    0 -0.32991300037E+02  0.90938743495E+01 -0.77073654450E+01  0.35078881271E+02  0.51100000000E-03 0.  1.
        -12    1    3    3    0    0 -0.16890497393E+01  0.41177719940E+01  0.26466312886E+01  0.51781842758E+01  0.00000000000E+00 0.  1.
</event>
<event>
 7    1  0.1634068E-009  0.4778727E+02  0.7816164E-02  0.1312668E+00
        -11   -1    0    0    0    0  0.00000000000E+00  0.00000000000E+00  0.45593999997E+02  0.45594000000E+02  0.51100000000E-03 0.  1.
         11   -1    0    0    0    0 -0.00000000000E+00 -0.00000000000E+00 -0.45593999997E+02  0.45594000000E+02  0.51100000000E-03 0. -1.
    9900012    2    1    2    0    0  0.19087306085E+02  0.19589703581E+02  0.33697796835E+02  0.47787271302E+02  0.20000001173E+02 0.  0.
         12    1    1    2    0    0 -0.19087306085E+02 -0.19589703581E+02 -0.33697796835E+02  0.43400728698E+02  0.00000000000E+00 0. -1.
         11    1    3    3    0    0 -0.11909871387E+01  0.11160180766E+01  0.12400472314E+02  0.12507424218E+02  0.51100000000E-03 0. -1.
        -11    1    3    3    0    0  0.66240074483E+01  0.39619502948E+01  0.31759321302E+01  0.83463207445E+01  0.51100000000E-03 0.  1.
        -12    1    3    3    0    0  0.13654285776E+02  0.14511735210E+02  0.18121392391E+02  0.26933526339E+02  0.00000000000E+00 0.  1.
</event>
<event>
 7    1  0.1634068E-009  0.4778724E+02  0.7816164E-02  0.1312668E+00
        -11   -1    0    0    0    0  0.00000000000E+00  0.00000000000E+00  0.45593999997E+02  0.45594000000E+02  0.51100000000E-03 0. -1.
         11   -1    0    0    0    0 -0.00000000000E+00 -0.00000000000E+00 -0.45593999997E+02  0.45594000000E+02  0.51100000000E-03 0.  1.
    9900012    2    1    2    0    0 -0.25577343534E+02  0.27763173090E+02 -0.21415686412E+02  0.47787240712E+02  0.19999861701E+02 0.  0.
         12    1    1    2    0    0  0.25577343534E+02 -0.27763173090E+02  0.21415686412E+02  0.43400759288E+02  0.00000000000E+00 0. -1.
         11    1    3    3    0    0  0.46412368207E+00  0.53178358950E+01 -0.41897379519E+01  0.67859187857E+01  0.51100000000E-03 0. -1.
        -11    1    3    3    0    0 -0.24221705806E+02  0.22794823292E+02 -0.19108973470E+02  0.38359456049E+02  0.51100000000E-03 0.  1.
        -12    1    3    3    0    0 -0.18197614105E+01 -0.34948609716E+00  0.18830250098E+01  0.26418658768E+01  0.00000000000E+00 0.  1.
</event>
<event>
 7    1  0.1634068E-009  0.4778727E+02  0.7816164E-02  0.1312668E+00
        -11   -1    0    0    0    0  0.00000000000E+00  0.00000000000E+00  0.45593999997E+02  0.45594000000E+02  0.51100000000E-03 0. -1.
         11   -1    0    0    0    0 -0.00000000000E+00 -0.00000000000E+00 -0.45593999997E+02  0.45594000000E+02  0.51100000000E-03 0.  1.
    9900012    2    1    2    0    0  0.38363359963E+02  0.19925307897E+02  0.38545915947E+01  0.47787272371E+02  0.20000006046E+02 0.  0.
         12    1    1    2    0    0 -0.38363359963E+02 -0.19925307897E+02 -0.38545915947E+01  0.43400727629E+02  0.00000000000E+00 0. -1.
         11    1    3    3    0    0  0.53053400458E+01  0.51751654416E+00  0.36148420104E+01  0.64406163833E+01  0.51100000000E-03 0. -1.
        -11    1    3    3    0    0  0.14173498319E+02  0.14643966033E+02 -0.53763568243E+01  0.21076978169E+02  0.51100000000E-03 0.  1.
        -12    1    3    3    0    0  0.18884521598E+02  0.47638253195E+01  0.56161064086E+01  0.20269677818E+02  0.00000000000E+00 0.  1.
</event>
<event>
 7    1  0.1634068E-009  0.4778727E+02  0.7816164E-02  0.1312668E+00
        -11   -1    0    0    0    0  0.00000000000E+00  0.00000000000E+00  0.45593999997E+02  0.45594000000E+02  0.51100000000E-03 0.  1.
         11   -1    0    0    0    0 -0.00000000000E+00 -0.00000000000E+00 -0.45593999997E+02  0.45594000000E+02  0.51100000000E-03 0. -1.
    9900012    2    1    2    0    0  0.18650854589E+02 -0.36767826043E+02  0.13560822846E+02  0.47787270455E+02  0.19999997312E+02 0.  0.
         12    1    1    2    0    0 -0.18650854589E+02  0.36767826043E+02 -0.13560822846E+02  0.43400729545E+02  0.00000000000E+00 0. -1.
         11    1    3    3    0    0  0.46763540014E+01  0.74348931914E-01  0.51914011659E+00  0.47056690526E+01  0.51100000000E-03 0.  1.
        -11    1    3    3    0    0 -0.19705003666E+01 -0.24011431939E+01  0.90589377930E+00  0.32355840482E+01  0.51100000000E-03 0. -1.
        -12    1    3    3    0    0  0.15945000954E+02 -0.34441031781E+02  0.12135788950E+02  0.39846017354E+02  0.00000000000E+00 0.  1.
</event>
<event>
 7    1  0.1634068E-009  0.4778726E+02  0.7816164E-02  0.1312668E+00
        -11   -1    0    0    0    0  0.00000000000E+00  0.00000000000E+00  0.45593999997E+02  0.45594000000E+02  0.51100000000E-03 0. -1.
         11   -1    0    0    0    0 -0.00000000000E+00 -0.00000000000E+00 -0.45593999997E+02  0.45594000000E+02  0.51100000000E-03 0.  1.
    9900012    2    1    2    0    0  0.37063520903E+02  0.19061571457E+02  0.12106859959E+02  0.47787260995E+02  0.19999954181E+02 0.  0.
         12    1    1    2    0    0 -0.37063520903E+02 -0.19061571457E+02 -0.12106859959E+02  0.43400739005E+02  0.00000000000E+00 0. -1.
         11    1    3    3    0    0  0.94173591608E+01  0.57298494085E+01  0.33277992666E+01  0.11514863266E+02  0.51100000000E-03 0. -1.
        -11    1    3    3    0    0  0.19413237113E+02  0.14193909029E+01  0.24980864924E+00  0.19466659969E+02  0.51100000000E-03 0.  1.
         12    1    3    3    0    0  0.82329246293E+01  0.11912331145E+02  0.85292520428E+01  0.16805737761E+02  0.00000000000E+00 0. -1.
</event>
<event>
 7    1  0.1634068E-009  0.4778727E+02  0.7816164E-02  0.1312668E+00
        -11   -1    0    0    0    0  0.00000000000E+00  0.00000000000E+00  0.45593999997E+02  0.45594000000E+02  0.51100000000E-03 0. -1.
         11   -1    0    0    0    0 -0.00000000000E+00 -0.00000000000E+00 -0.45593999997E+02  0.45594000000E+02  0.51100000000E-03 0.  1.
    9900012    2    1    2    0    0 -0.15408714759E+02 -0.25596337477E+02 -0.31480501744E+02  0.47787274513E+02  0.20000015813E+02 0.  0.
         12    1    1    2    0    0  0.15408714759E+02  0.25596337477E+02  0.31480501744E+02  0.43400725487E+02  0.00000000000E+00 0. -1.
         11    1    3    3    0    0 -0.39164536276E+01 -0.28024462790E+01  0.22628329620E+01  0.53209705354E+01  0.51100000000E-03 0. -1.
        -11    1    3    3    0    0 -0.25277138958E+01 -0.60998585742E+01 -0.11358695384E+02  0.13138400712E+02  0.51100000000E-03 0.  1.
         12    1    3    3    0    0 -0.89645472354E+01 -0.16694032624E+02 -0.22384639322E+02  0.29327903266E+02  0.00000000000E+00 0. -1.
</event>
<event>
 7    1  0.1634068E-009  0.4778727E+02  0.7816164E-02  0.1312668E+00
        -11   -1    0    0    0    0  0.00000000000E+00  0.00000000000E+00  0.45593999997E+02  0.45594000000E+02  0.51100000000E-03 0.  1.
         11   -1    0    0    0    0 -0.00000000000E+00 -0.00000000000E+00 -0.45593999997E+02  0.45594000000E+02  0.51100000000E-03 0. -1.
    9900012    2    1    2    0    0 -0.41781100768E+02  0.46551239026E+01 -0.10783916635E+02  0.47787269385E+02  0.19999992433E+02 0.  0.
         12    1    1    2    0    0  0.41781100768E+02 -0.46551239026E+01  0.10783916635E+02  0.43400730615E+02  0.00000000000E+00 0. -1.
         11    1    3    3    0    0 -0.25930811534E+02  0.13713598792E+01 -0.12411591141E+02  0.28780813220E+02  0.51100000000E-03 0. -1.
        -11    1    3    3    0    0 -0.10485076655E+02 -0.16851194248E+01 -0.20584199890E+01  0.10817280298E+02  0.51100000000E-03 0.  1.
        -12    1    3    3    0    0 -0.53652125792E+01  0.49688834482E+01  0.36860944947E+01  0.81891758660E+01  0.00000000000E+00 0.  1.
</event>
<event>
 7    1  0.1634068E-009  0.4778727E+02  0.7816164E-02  0.1312668E+00
        -11   -1    0    0    0    0  0.00000000000E+00  0.00000000000E+00  0.45593999997E+02  0.45594000000E+02  0.51100000000E-03 0.  1.
         11   -1    0    0    0    0 -0.00000000000E+00 -0.00000000000E+00 -0.45593999997E+02  0.45594000000E+02  0.51100000000E-03 0. -1.
    9900012    2    1    2    0    0  0.67311377388E+01 -0.25457486297E+02  0.34499731957E+02  0.47787270410E+02  0.19999997109E+02 0.  0.
         12    1    1    2    0    0 -0.67311377388E+01  0.25457486297E+02 -0.34499731957E+02  0.43400729590E+02  0.00000000000E+00 0. -1.
         11    1    3    3    0    0 -0.44447219982E+01 -0.35262338056E+01  0.62842681494E+01  0.84665166939E+01  0.51100000000E-03 0. -1.
        -11    1    3    3    0    0  0.10023847212E+02 -0.22074814228E+02  0.21187632687E+02  0.32197681831E+02  0.51100000000E-03 0.  1.
        -12    1    3    3    0    0  0.11520125252E+01  0.14356173671E+00  0.70278311202E+01  0.71230718854E+01  0.00000000000E+00 0.  1.
</event>
<event>
 7    1  0.1634068E-009  0.4778727E+02  0.7816164E-02  0.1312668E+00
        -11   -1    0    0    0    0  0.00000000000E+00  0.00000000000E+00  0.45593999997E+02  0.45594000000E+02  0.51100000000E-03 0.  1.
         11   -1    0    0    0    0 -0.00000000000E+00 -0.00000000000E+00 -0.45593999997E+02  0.45594000000E+02  0.51100000000E-03 0. -1.
    9900012    2    1    2    0    0  0.41566090936E+02  0.73100469906E+01  0.10121583798E+02  0.47787272342E+02  0.20000005915E+02 0.  0.
         12    1    1    2    0    0 -0.41566090936E+02 -0.73100469906E+01 -0.10121583798E+02  0.43400727658E+02  0.00000000000E+00 0. -1.
         11    1    3    3    0    0  0.33523855281E+01 -0.29728001575E+01  0.11316604328E+01  0.46213293652E+01  0.51100000000E-03 0. -1.
        -11    1    3    3    0    0  0.14425493937E+02  0.69139372695E+00 -0.31615018068E+01  0.14784045271E+02  0.51100000000E-03 0.  1.
        -12    1    3    3    0    0  0.23788211470E+02  0.95914534212E+01  0.12151425172E+02  0.28381897706E+02  0.00000000000E+00 0.  1.
</event>
<event>
 7    1  0.1634068E-009  0.4778726E+02  0.7816164E-02  0.1312668E+00
        -11   -1    0    0    0    0  0.00000000000E+00  0.00000000000E+00  0.45593999997E+02  0.45594000000E+02  0.51100000000E-03 0.  1.
         11   -1    0    0    0    0 -0.00000000000E+00 -0.00000000000E+00 -0.45593999997E+02  0.45594000000E+02  0.51100000000E-03 0. -1.
    9900012    2    1    2    0    0 -0.30470278399E+02  0.28525509256E+02  0.11894608934E+02  0.47787259617E+02  0.19999947900E+02 0.  0.
         12    1    1    2    0    0  0.30470278399E+02 -0.28525509256E+02 -0.11894608934E+02  0.43400740383E+02  0.00000000000E+00 0. -1.
         11    1    3    3    0    0 -0.42818515575E+01  0.28954093698E+01 -0.48039641475E+01  0.70566082484E+01  0.51100000000E-03 0. -1.
        -11    1    3    3    0    0 -0.70926670392E+01  0.59780519049E+01  0.71542376495E+01  0.11714356445E+02  0.51100000000E-03 0.  1.
        -12    1    3    3    0    0 -0.19095759803E+02  0.19652047981E+02  0.95443354320E+01  0.29016294924E+02  0.00000000000E+00 0.  1.
</event>
<event>
 7    1  0.1634068E-009  0.4778724E+02  0.7816164E-02  0.1312668E+00
        -11   -1    0    0    0    0  0.00000000000E+00  0.00000000000E+00  0.45593999997E+02  0.45594000000E+02  0.51100000000E-03 0.  1.
         11   -1    0    0    0    0 -0.00000000000E+00 -0.00000000000E+00 -0.45593999997E+02  0.45594000000E+02  0.51100000000E-03 0. -1.
    9900012    2    1    2    0    0 -0.40227192988E+02 -0.98633939778E+01  0.12965803564E+02  0.47787243572E+02  0.19999874741E+02 0.  0.
         12    1    1    2    0    0  0.40227192988E+02  0.98633939778E+01 -0.12965803564E+02  0.43400756428E+02  0.00000000000E+00 0. -1.
         11    1    3    3    0    0 -0.47075725543E+01 -0.20690112535E+01  0.26610544099E+01  0.57899272668E+01  0.51100000000E-03 0. -1.
        -11    1    3    3    0    0 -0.12005406296E+01 -0.35808379263E+01  0.60880718611E+01  0.71643783613E+01  0.51100000000E-03 0.  1.
        -12    1    3    3    0    0 -0.34319079805E+02 -0.42135447981E+01  0.42166772926E+01  0.34832937944E+02  0.00000000000E+00 0.  1.
</event>
<event>
 7    1  0.1634068E-009  0.4778727E+02  0.7816164E-02  0.1312668E+00
        -11   -1    0    0    0    0  0.00000000000E+00  0.00000000000E+00  0.45593999997E+02  0.45594000000E+02  0.51100000000E-03 0.  1.
         11   -1    0    0    0    0 -0.00000000000E+00 -0.00000000000E+00 -0.45593999997E+02  0.45594000000E+02  0.51100000000E-03 0. -1.
    9900012    2    1    2    0    0 -0.13161571698E+02 -0.34122032517E+02 -0.23368423406E+02  0.47787270914E+02  0.19999999407E+02 0.  0.
         12    1    1    2    0    0  0.13161571698E+02  0.34122032517E+02  0.23368423406E+02  0.43400729086E+02  0.00000000000E+00 0. -1.
         11    1    3    3    0    0 -0.13899989011E+02 -0.17309004246E+02 -0.11241544181E+02  0.24883400860E+02  0.51100000000E-03 0. -1.
        -11    1    3    3    0    0 -0.16888170790E+01 -0.16883226666E+02 -0.11043815475E+02  0.20245031644E+02  0.51100000000E-03 0.  1.
         12    1    3    3    0    0  0.24272343917E+01  0.70198394801E-01 -0.10830637497E+01  0.26588384104E+01  0.00000000000E+00 0. -1.
</event>
<event>
 7    1  0.1634068E-009  0.4778727E+02  0.7816164E-02  0.1312668E+00
        -11   -1    0    0    0    0  0.00000000000E+00  0.00000000000E+00  0.45593999997E+02  0.45594000000E+02  0.51100000000E-03 0.  1.
         11   -1    0    0    0    0 -0.00000000000E+00 -0.00000000000E+00 -0.45593999997E+02  0.45594000000E+02  0.51100000000E-03 0. -1.
    9900012    2    1    2    0    0  0.45448055606E+01 -0.16145088706E+01  0.43131909110E+02  0.47787268670E+02  0.19999989174E+02 0.  0.
         12    1    1    2    0    0 -0.45448055606E+01  0.16145088706E+01 -0.43131909110E+02  0.43400731330E+02  0.00000000000E+00 0. -1.
         11    1    3    3    0    0  0.53845862644E+01  0.17990523918E+01  0.95344380612E+01  0.11096660225E+02  0.51100000000E-03 0. -1.
        -11    1    3    3    0    0 -0.50379254049E+01 -0.20516245504E+01  0.39652294776E+01  0.67314857760E+01  0.51100000000E-03 0.  1.
        -12    1    3    3    0    0  0.41981447012E+01 -0.13619367120E+01  0.29632241571E+02  0.29959122669E+02  0.00000000000E+00 0.  1.
</event>
<event>
 7    1  0.1634068E-009  0.4778727E+02  0.7816164E-02  0.1312668E+00
        -11   -1    0    0    0    0  0.00000000000E+00  0.00000000000E+00  0.45593999997E+02  0.45594000000E+02  0.51100000000E-03 0.  1.
         11   -1    0    0    0    0 -0.00000000000E+00 -0.00000000000E+00 -0.45593999997E+02  0.45594000000E+02  0.51100000000E-03 0. -1.
    9900012    2    1    2    0    0  0.32159100692E+01  0.21585774320E+01  0.43227556824E+02  0.47787271860E+02  0.20000003717E+02 0.  0.
         12    1    1    2    0    0 -0.32159100692E+01 -0.21585774320E+01 -0.43227556824E+02  0.43400728140E+02  0.00000000000E+00 0. -1.
         11    1    3    3    0    0  0.39068004253E+01  0.21011384416E+01  0.97338082278E+00  0.45415132721E+01  0.51100000000E-03 0. -1.
        -11    1    3    3    0    0  0.36429343877E+00  0.29964944172E+01  0.48579933303E+01  0.57194219953E+01  0.51100000000E-03 0.  1.
        -12    1    3    3    0    0 -0.10551837948E+01 -0.29390554269E+01  0.37396182671E+02  0.37526336592E+02  0.00000000000E+00 0.  1.
</event>
<event>
 7    1  0.1634068E-009  0.4778726E+02  0.7816164E-02  0.1312668E+00
        -11   -1    0    0    0    0  0.00000000000E+00  0.00000000000E+00  0.45593999997E+02  0.45594000000E+02  0.51100000000E-03 0.  1.
         11   -1    0    0    0    0 -0.00000000000E+00 -0.00000000000E+00 -0.45593999997E+02  0.45594000000E+02  0.51100000000E-03 0. -1.
    9900012    2    1    2    0    0 -0.20460289851E+02 -0.22927094905E+02  0.30648806258E+02  0.47787257304E+02  0.19999937351E+02 0.  0.
         12    1    1    2    0    0  0.20460289851E+02  0.22927094905E+02 -0.30648806258E+02  0.43400742696E+02  0.00000000000E+00 0. -1.
         11    1    3    3    0    0 -0.37384253541E+01 -0.11687289231E+02  0.28802463476E+01  0.12604141105E+02  0.51100000000E-03 0. -1.
        -11    1    3    3    0    0 -0.75130047606E+01 -0.60773383375E+00  0.98767009897E+01  0.12424323066E+02  0.51100000000E-03 0.  1.
        -12    1    3    3    0    0 -0.92088597361E+01 -0.10632071840E+02  0.17891858920E+02  0.22758793133E+02  0.00000000000E+00 0.  1.
</event>
<event>
 7    1  0.1634068E-009  0.4778727E+02  0.7816164E-02  0.1312668E+00
        -11   -1    0    0    0    0  0.00000000000E+00  0.00000000000E+00  0.45593999997E+02  0.45594000000E+02  0.51100000000E-03 0.  1.
         11   -1    0    0    0    0 -0.00000000000E+00 -0.00000000000E+00 -0.45593999997E+02  0.45594000000E+02  0.51100000000E-03 0. -1.
    9900012    2    1    2    0    0 -0.34689311803E+02  0.22816348218E+02  0.12636811171E+02  0.47787273095E+02  0.20000009348E+02 0.  0.
         12    1    1    2    0    0  0.34689311803E+02 -0.22816348218E+02 -0.12636811171E+02  0.43400726905E+02  0.00000000000E+00 0. -1.
         11    1    3    3    0    0 -0.23443767856E+02  0.21763241328E+02  0.28858507582E+01  0.32118173349E+02  0.51100000000E-03 0. -1.
        -11    1    3    3    0    0 -0.79917170700E+01  0.23003390409E+01  0.47602888241E+01  0.95822466770E+01  0.51100000000E-03 0.  1.
         12    1    3    3    0    0 -0.32538268766E+01 -0.12472321511E+01  0.49906715885E+01  0.60868530692E+01  0.00000000000E+00 0. -1.
</event>
<event>
 7    1  0.1634068E-009  0.4778727E+02  0.7816164E-02  0.1312668E+00
        -11   -1    0    0    0    0  0.00000000000E+00  0.00000000000E+00  0.45593999997E+02  0.45594000000E+02  0.51100000000E-03 0.  1.
         11   -1    0    0    0    0 -0.00000000000E+00 -0.00000000000E+00 -0.45593999997E+02  0.45594000000E+02  0.51100000000E-03 0. -1.
    9900012    2    1    2    0    0 -0.90685924315E+01  0.34154037509E+02  0.25196940140E+02  0.47787269139E+02  0.19999991311E+02 0.  0.
         12    1    1    2    0    0  0.90685924315E+01 -0.34154037509E+02 -0.25196940140E+02  0.43400730861E+02  0.00000000000E+00 0. -1.
         11    1    3    3    0    0 -0.25170923686E+01 -0.19174559221E+01  0.38762781998E+00  0.31878906495E+01  0.51100000000E-03 0. -1.
        -11    1    3    3    0    0 -0.43811520203E+01  0.14403664205E+02  0.12611978379E+02  0.19639807393E+02  0.51100000000E-03 0.  1.
         12    1    3    3    0    0 -0.21703480426E+01  0.21667829227E+02  0.12197333941E+02  0.24959571096E+02  0.00000000000E+00 0. -1.
</event>
<event>
 7    1  0.1634068E-009  0.4778727E+02  0.7816164E-02  0.1312668E+00
        -11   -1    0    0    0    0  0.00000000000E+00  0.00000000000E+00  0.45593999997E+02  0.45594000000E+02  0.51100000000E-03 0. -1.
         11   -1    0    0    0    0 -0.00000000000E+00 -0.00000000000E+00 -0.45593999997E+02  0.45594000000E+02  0.51100000000E-03 0.  1.
    9900012    2    1    2    0    0 -0.14460408344E+02 -0.35019230635E+02 -0.21170103937E+02  0.47787271614E+02  0.20000002597E+02 0.  0.
         12    1    1    2    0    0  0.14460408344E+02  0.35019230635E+02  0.21170103937E+02  0.43400728386E+02  0.00000000000E+00 0. -1.
         11    1    3    3    0    0 -0.86744503479E+01 -0.11996086554E+02  0.11999700035E+01  0.14852343576E+02  0.51100000000E-03 0. -1.
        -11    1    3    3    0    0 -0.57514712263E+01 -0.14519931329E+02 -0.13445762193E+02  0.20608162176E+02  0.51100000000E-03 0.  1.
         12    1    3    3    0    0 -0.34486769803E-01 -0.85032127524E+01 -0.89243117472E+01  0.12326765862E+02  0.00000000000E+00 0. -1.
</event>
<event>
 7    1  0.1634068E-009  0.4778727E+02  0.7816164E-02  0.1312668E+00
        -11   -1    0    0    0    0  0.00000000000E+00  0.00000000000E+00  0.45593999997E+02  0.45594000000E+02  0.51100000000E-03 0.  1.
         11   -1    0    0    0    0 -0.00000000000E+00 -0.00000000000E+00 -0.45593999997E+02  0.45594000000E+02  0.51100000000E-03 0. -1.
    9900012    2    1    2    0    0  0.18428315408E+02  0.27607921844E+02  0.27961100169E+02  0.47787270974E+02  0.19999999678E+02 0.  0.
         12    1    1    2    0    0 -0.18428315408E+02 -0.27607921844E+02 -0.27961100169E+02  0.43400729026E+02  0.00000000000E+00 0. -1.
         11    1    3    3    0    0  0.42185037190E+01  0.15956945151E+02  0.89355544460E+01  0.18768697496E+02  0.51100000000E-03 0. -1.
        -11    1    3    3    0    0  0.13559940694E+01  0.85153459543E+01  0.64865924376E+01  0.10790074993E+02  0.51100000000E-03 0.  1.
         12    1    3    3    0    0  0.12853817620E+02  0.31356307391E+01  0.12538953285E+02  0.18228498485E+02  0.00000000000E+00 0. -1.
</event>
<event>
 7    1  0.1634068E-009  0.4778727E+02  0.7816164E-02  0.1312668E+00
        -11   -1    0    0    0    0  0.00000000000E+00  0.00000000000E+00  0.45593999997E+02  0.45594000000E+02  0.51100000000E-03 0.  1.
         11   -1    0    0    0    0 -0.00000000000E+00 -0.00000000000E+00 -0.45593999997E+02  0.45594000000E+02  0.51100000000E-03 0. -1.
    9900012    2    1    2    0    0  0.26124699661E+02 -0.28066521341E+02 -0.20332090269E+02  0.47787269047E+02  0.19999990892E+02 0.  0.
         12    1    1    2    0    0 -0.26124699661E+02  0.28066521341E+02  0.20332090269E+02  0.43400730953E+02  0.00000000000E+00 0. -1.
         11    1    3    3    0    0  0.12692406950E+02 -0.20685605384E+02 -0.18238593726E+02  0.30358487539E+02  0.51100000000E-03 0. -1.
        -11    1    3    3    0    0  0.11080618556E+02 -0.51636753605E+01 -0.48786119072E+01  0.13162237850E+02  0.51100000000E-03 0.  1.
         12    1    3    3    0    0  0.23516741557E+01 -0.22172405962E+01  0.27851153642E+01  0.42665436582E+01  0.00000000000E+00 0. -1.
</event>
<event>
 7    1  0.1634068E-009  0.4778727E+02  0.7816164E-02  0.1312668E+00
        -11   -1    0    0    0    0  0.00000000000E+00  0.00000000000E+00  0.45593999997E+02  0.45594000000E+02  0.51100000000E-03 0.  1.
         11   -1    0    0    0    0 -0.00000000000E+00 -0.00000000000E+00 -0.45593999997E+02  0.45594000000E+02  0.51100000000E-03 0. -1.
    9900012    2    1    2    0    0  0.32124824619E+01  0.91484725117E+01  0.42303767752E+02  0.47787270065E+02  0.19999995534E+02 0.  0.
         12    1    1    2    0    0 -0.32124824619E+01 -0.91484725117E+01 -0.42303767752E+02  0.43400729935E+02  0.00000000000E+00 0. -1.
         11    1    3    3    0    0 -0.14391076402E+01 -0.33696136298E+01  0.60825661617E+01  0.71009110814E+01  0.51100000000E-03 0. -1.
        -11    1    3    3    0    0  0.44564179742E+00  0.76519658101E+01  0.32202674101E+02  0.33102317093E+02  0.51100000000E-03 0.  1.
        -12    1    3    3    0    0  0.42059483047E+01  0.48661203314E+01  0.40185274889E+01  0.75840418907E+01  0.00000000000E+00 0.  1.
</event>
<event>
 7    1  0.1634068E-009  0.4778727E+02  0.7816164E-02  0.1312668E+00
        -11   -1    0    0    0    0  0.00000000000E+00  0.00000000000E+00  0.45593999997E+02  0.45594000000E+02  0.51100000000E-03 0.  1.
         11   -1    0    0    0    0 -0.00000000000E+00 -0.00000000000E+00 -0.45593999997E+02  0.45594000000E+02  0.51100000000E-03 0. -1.
    9900012    2    1    2    0    0  0.54580086157E+01  0.38759068301E+02  0.18750140155E+02  0.47787274321E+02  0.20000014938E+02 0.  0.
         12    1    1    2    0    0 -0.54580086157E+01 -0.38759068301E+02 -0.18750140155E+02  0.43400725679E+02  0.00000000000E+00 0. -1.
         11    1    3    3    0    0 -0.91938102029E+00 -0.28291273025E+00 -0.73499002479E+00  0.12105831946E+01  0.51100000000E-03 0. -1.
        -11    1    3    3    0    0  0.20689519581E+01  0.20471460189E+02  0.18199427041E+02  0.27469626669E+02  0.51100000000E-03 0.  1.
         12    1    3    3    0    0  0.43084376780E+01  0.18570520843E+02  0.12857031389E+01  0.19107064457E+02  0.00000000000E+00 0. -1.
</event>
<event>
 7    1  0.1634068E-009  0.4778726E+02  0.7816164E-02  0.1312668E+00
        -11   -1    0    0    0    0  0.00000000000E+00  0.00000000000E+00  0.45593999997E+02  0.45594000000E+02  0.51100000000E-03 0.  1.
         11   -1    0    0    0    0 -0.00000000000E+00 -0.00000000000E+00 -0.45593999997E+02  0.45594000000E+02  0.51100000000E-03 0. -1.
    9900012    2    1    2    0    0 -0.37187221482E+01  0.67389221133E+01  0.42712789122E+02  0.47787258989E+02  0.19999945036E+02 0.  0.
         12    1    1    2    0    0  0.37187221482E+01 -0.67389221133E+01 -0.42712789122E+02  0.43400741011E+02  0.00000000000E+00 0. -1.
         11    1    3    3    0    0 -0.31843673992E+01  0.26961193856E+01  0.28677053496E+02  0.28979003657E+02  0.51100000000E-03 0.  1.
        -11    1    3    3    0    0  0.33776354076E+01 -0.29634777747E+01  0.52037944814E+01  0.68753253548E+01  0.51100000000E-03 0. -1.
        -12    1    3    3    0    0 -0.39119901566E+01  0.70062805024E+01  0.88319411452E+01  0.11932929978E+02  0.00000000000E+00 0.  1.
</event>
<event>
 7    1  0.1634068E-009  0.4778727E+02  0.7816164E-02  0.1312668E+00
        -11   -1    0    0    0    0  0.00000000000E+00  0.00000000000E+00  0.45593999997E+02  0.45594000000E+02  0.51100000000E-03 0.  1.
         11   -1    0    0    0    0 -0.00000000000E+00 -0.00000000000E+00 -0.45593999997E+02  0.45594000000E+02  0.51100000000E-03 0. -1.
    9900012    2    1    2    0    0  0.14464841962E+02 -0.40773864694E+02  0.34472598127E+01  0.47787270798E+02  0.19999998875E+02 0.  0.
         12    1    1    2    0    0 -0.14464841962E+02  0.40773864694E+02 -0.34472598127E+01  0.43400729202E+02  0.00000000000E+00 0. -1.
         11    1    3    3    0    0  0.79727810501E+01 -0.11401598382E+02 -0.52853841691E+01  0.14882774251E+02  0.51100000000E-03 0. -1.
        -11    1    3    3    0    0  0.66807921050E+01 -0.23315418015E+02  0.27841117276E+01  0.24412967430E+02  0.51100000000E-03 0.  1.
         12    1    3    3    0    0 -0.18873119291E+00 -0.60568482974E+01  0.59485322542E+01  0.84915291167E+01  0.00000000000E+00 0. -1.
</event>
<event>
 7    1  0.1634068E-009  0.4778727E+02  0.7816164E-02  0.1312668E+00
        -11   -1    0    0    0    0  0.00000000000E+00  0.00000000000E+00  0.45593999997E+02  0.45594000000E+02  0.51100000000E-03 0.  1.
         11   -1    0    0    0    0 -0.00000000000E+00 -0.00000000000E+00 -0.45593999997E+02  0.45594000000E+02  0.51100000000E-03 0. -1.
    9900012    2    1    2    0    0 -0.93373409539E+01 -0.36060756457E+02  0.22272387512E+02  0.47787270307E+02  0.19999996638E+02 0.  0.
         12    1    1    2    0    0  0.93373409539E+01  0.36060756457E+02 -0.22272387512E+02  0.43400729693E+02  0.00000000000E+00 0. -1.
         11    1    3    3    0    0 -0.42988690402E+01 -0.54986128413E+01  0.75820575243E+01  0.10305465286E+02  0.51100000000E-03 0. -1.
        -11    1    3    3    0    0  0.28890635221E+01 -0.11453646972E+02 -0.48920604107E+00  0.11822522565E+02  0.51100000000E-03 0.  1.
        -12    1    3    3    0    0 -0.79275354358E+01 -0.19108496645E+02  0.15179536029E+02  0.25659282456E+02  0.00000000000E+00 0.  1.
</event>
<event>
 7    1  0.1634068E-009  0.4778726E+02  0.7816164E-02  0.1312668E+00
        -11   -1    0    0    0    0  0.00000000000E+00  0.00000000000E+00  0.45593999997E+02  0.45594000000E+02  0.51100000000E-03 0. -1.
         11   -1    0    0    0    0 -0.00000000000E+00 -0.00000000000E+00 -0.45593999997E+02  0.45594000000E+02  0.51100000000E-03 0.  1.
    9900012    2    1    2    0    0  0.41587524790E+02  0.14127828416E+01 -0.12333128170E+02  0.47787260098E+02  0.19999950093E+02 0.  0.
         12    1    1    2    0    0 -0.41587524790E+02 -0.14127828416E+01  0.12333128170E+02  0.43400739902E+02  0.00000000000E+00 0. -1.
         11    1    3    3    0    0  0.11476373915E+02 -0.20812951993E+01 -0.12925817905E+01  0.11734978308E+02  0.51100000000E-03 0. -1.
        -11    1    3    3    0    0  0.26864074282E+02 -0.18795953350E+01 -0.50992589276E+01  0.27408279908E+02  0.51100000000E-03 0.  1.
         12    1    3    3    0    0  0.32470765936E+01  0.53736733758E+01 -0.59412874524E+01  0.86440018826E+01  0.00000000000E+00 0. -1.
</event>
<event>
 7    1  0.1634068E-009  0.4778727E+02  0.7816164E-02  0.1312668E+00
        -11   -1    0    0    0    0  0.00000000000E+00  0.00000000000E+00  0.45593999997E+02  0.45594000000E+02  0.51100000000E-03 0.  1.
         11   -1    0    0    0    0 -0.00000000000E+00 -0.00000000000E+00 -0.45593999997E+02  0.45594000000E+02  0.51100000000E-03 0. -1.
    9900012    2    1    2    0    0  0.33095840374E+02 -0.27143456601E+02 -0.71778292492E+01  0.47787272828E+02  0.20000008134E+02 0.  0.
         12    1    1    2    0    0 -0.33095840374E+02  0.27143456601E+02  0.71778292492E+01  0.43400727172E+02  0.00000000000E+00 0. -1.
         11    1    3    3    0    0  0.91712715490E+01 -0.19209507819E+02 -0.12288259534E+01  0.21321993949E+02  0.51100000000E-03 0. -1.
        -11    1    3    3    0    0  0.15928966035E+02 -0.52268511590E+01 -0.12671733687E+01  0.16812425779E+02  0.51100000000E-03 0.  1.
        -12    1    3    3    0    0  0.79956027900E+01 -0.27070976235E+01 -0.46818299271E+01  0.96528531008E+01  0.00000000000E+00 0.  1.
</event>
<event>
 7    1  0.1634068E-009  0.4778727E+02  0.7816164E-02  0.1312668E+00
        -11   -1    0    0    0    0  0.00000000000E+00  0.00000000000E+00  0.45593999997E+02  0.45594000000E+02  0.51100000000E-03 0.  1.
         11   -1    0    0    0    0 -0.00000000000E+00 -0.00000000000E+00 -0.45593999997E+02  0.45594000000E+02  0.51100000000E-03 0. -1.
    9900012    2    1    2    0    0 -0.29233492467E+02  0.44799830178E+01  0.31764065349E+02  0.47787272159E+02  0.20000005081E+02 0.  0.
         12    1    1    2    0    0  0.29233492467E+02 -0.44799830178E+01 -0.31764065349E+02  0.43400727841E+02  0.00000000000E+00 0. -1.
         11    1    3    3    0    0 -0.18591586913E+02 -0.44389727743E+00  0.12581072956E+02  0.22452784810E+02  0.51100000000E-03 0. -1.
        -11    1    3    3    0    0 -0.57274012942E+01  0.79306130778E+00  0.17869311450E+02  0.18781489925E+02  0.51100000000E-03 0.  1.
         12    1    3    3    0    0 -0.49145042595E+01  0.41308189874E+01  0.13136809430E+01  0.65529974243E+01  0.00000000000E+00 0. -1.
</event>
<event>
 7    1  0.1634068E-009  0.4778727E+02  0.7816164E-02  0.1312668E+00
        -11   -1    0    0    0    0  0.00000000000E+00  0.00000000000E+00  0.45593999997E+02  0.45594000000E+02  0.51100000000E-03 0. -1.
         11   -1    0    0    0    0 -0.00000000000E+00 -0.00000000000E+00 -0.45593999997E+02  0.45594000000E+02  0.51100000000E-03 0.  1.
    9900012    2    1    2    0    0  0.37752631332E+02 -0.14779585602E+02 -0.15489540754E+02  0.47787271944E+02  0.20000004100E+02 0.  0.
         12    1    1    2    0    0 -0.37752631332E+02  0.14779585602E+02  0.15489540754E+02  0.43400728056E+02  0.00000000000E+00 0. -1.
         11    1    3    3    0    0  0.77689860551E+01 -0.10251134532E+02 -0.65105005643E+01  0.14416293607E+02  0.51100000000E-03 0. -1.
        -11    1    3    3    0    0  0.16574259492E+02 -0.72954077015E+00 -0.10043004989E+02  0.19393304435E+02  0.51100000000E-03 0.  1.
        -12    1    3    3    0    0  0.13409385785E+02 -0.37989102998E+01  0.10639647993E+01  0.13977673902E+02  0.00000000000E+00 0.  1.
</event>
<event>
 7    1  0.1634068E-009  0.4778727E+02  0.7816164E-02  0.1312668E+00
        -11   -1    0    0    0    0  0.00000000000E+00  0.00000000000E+00  0.45593999997E+02  0.45594000000E+02  0.51100000000E-03 0.  1.
         11   -1    0    0    0    0 -0.00000000000E+00 -0.00000000000E+00 -0.45593999997E+02  0.45594000000E+02  0.51100000000E-03 0. -1.
    9900012    2    1    2    0    0 -0.33861939836E+02  0.34457464024E+00  0.27145410842E+02  0.47787273843E+02  0.20000012759E+02 0.  0.
         12    1    1    2    0    0  0.33861939836E+02 -0.34457464024E+00 -0.27145410842E+02  0.43400726157E+02  0.00000000000E+00 0. -1.
         11    1    3    3    0    0 -0.22738836660E+02 -0.13645661820E+01  0.83929603639E+01  0.24276707302E+02  0.51100000000E-03 0. -1.
        -11    1    3    3    0    0  0.14283223434E+01  0.31848328388E+00  0.12293982871E+01  0.19112709719E+01  0.51100000000E-03 0.  1.
        -12    1    3    3    0    0 -0.12551425520E+02  0.13906575384E+01  0.17523052191E+02  0.21599295569E+02  0.00000000000E+00 0.  1.
</event>
<event>
 7    1  0.1634068E-009  0.4778727E+02  0.7816164E-02  0.1312668E+00
        -11   -1    0    0    0    0  0.00000000000E+00  0.00000000000E+00  0.45593999997E+02  0.45594000000E+02  0.51100000000E-03 0. -1.
         11   -1    0    0    0    0 -0.00000000000E+00 -0.00000000000E+00 -0.45593999997E+02  0.45594000000E+02  0.51100000000E-03 0.  1.
    9900012    2    1    2    0    0  0.10245563635E+02  0.22198161597E+02 -0.35859352722E+02  0.47787272700E+02  0.20000007549E+02 0.  0.
         12    1    1    2    0    0 -0.10245563635E+02 -0.22198161597E+02  0.35859352722E+02  0.43400727300E+02  0.00000000000E+00 0. -1.
         11    1    3    3    0    0  0.58292409930E+01  0.11805728377E+01 -0.38897188945E+00  0.59602937991E+01  0.51100000000E-03 0. -1.
        -11    1    3    3    0    0  0.61881071892E-01  0.86655832609E+01 -0.10362268710E+02  0.13508248429E+02  0.51100000000E-03 0.  1.
         12    1    3    3    0    0  0.43544415701E+01  0.12352005499E+02 -0.25108112122E+02  0.28318730472E+02  0.00000000000E+00 0. -1.
</event>
<event>
 7    1  0.1634068E-009  0.4778728E+02  0.7816164E-02  0.1312668E+00
        -11   -1    0    0    0    0  0.00000000000E+00  0.00000000000E+00  0.45593999997E+02  0.45594000000E+02  0.51100000000E-03 0. -1.
         11   -1    0    0    0    0 -0.00000000000E+00 -0.00000000000E+00 -0.45593999997E+02  0.45594000000E+02  0.51100000000E-03 0.  1.
    9900012    2    1    2    0    0 -0.30849712568E+02  0.10174644826E+02 -0.28781846075E+02  0.47787276200E+02  0.20000023507E+02 0.  0.
         12    1    1    2    0    0  0.30849712568E+02 -0.10174644826E+02  0.28781846075E+02  0.43400723800E+02  0.00000000000E+00 0. -1.
         11    1    3    3    0    0 -0.65331505154E+01  0.63209137643E+01 -0.16985248460E+01  0.92477561271E+01  0.51100000000E-03 0. -1.
        -11    1    3    3    0    0 -0.19164089169E+02  0.80090273433E+01 -0.21284383151E+02  0.29739398095E+02  0.51100000000E-03 0.  1.
         12    1    3    3    0    0 -0.51524728831E+01 -0.41552962811E+01 -0.57989380776E+01  0.88001219777E+01  0.00000000000E+00 0. -1.
</event>
<event>
 7    1  0.1634068E-009  0.4778722E+02  0.7816164E-02  0.1312668E+00
        -11   -1    0    0    0    0  0.00000000000E+00  0.00000000000E+00  0.45593999997E+02  0.45594000000E+02  0.51100000000E-03 0.  1.
         11   -1    0    0    0    0 -0.00000000000E+00 -0.00000000000E+00 -0.45593999997E+02  0.45594000000E+02  0.51100000000E-03 0. -1.
    9900012    2    1    2    0    0 -0.19138260254E+02  0.19934895296E+02  0.33465724942E+02  0.47787218879E+02  0.19999762157E+02 0.  0.
         12    1    1    2    0    0  0.19138260254E+02 -0.19934895296E+02 -0.33465724942E+02  0.43400781121E+02  0.00000000000E+00 0. -1.
         11    1    3    3    0    0 -0.78504549993E+01  0.57800927334E+00  0.39206888405E+01  0.87940627506E+01  0.51100000000E-03 0. -1.
        -11    1    3    3    0    0  0.25234221201E+00  0.21817060012E+01  0.10967131054E+02  0.11184877356E+02  0.51100000000E-03 0.  1.
         12    1    3    3    0    0 -0.11540147466E+02  0.17175180021E+02  0.18577905048E+02  0.27808278772E+02  0.00000000000E+00 0. -1.
</event>
<event>
 7    1  0.1634068E-009  0.4778727E+02  0.7816164E-02  0.1312668E+00
        -11   -1    0    0    0    0  0.00000000000E+00  0.00000000000E+00  0.45593999997E+02  0.45594000000E+02  0.51100000000E-03 0.  1.
         11   -1    0    0    0    0 -0.00000000000E+00 -0.00000000000E+00 -0.45593999997E+02  0.45594000000E+02  0.51100000000E-03 0. -1.
    9900012    2    1    2    0    0  0.37039870948E+02 -0.16134068703E+01  0.22562539256E+02  0.47787270752E+02  0.19999998668E+02 0.  0.
         12    1    1    2    0    0 -0.37039870948E+02  0.16134068703E+01 -0.22562539256E+02  0.43400729248E+02  0.00000000000E+00 0. -1.
         11    1    3    3    0    0  0.53155805746E+01  0.39765895260E+01 -0.23527038384E+01  0.70430019676E+01  0.51100000000E-03 0. -1.
        -11    1    3    3    0    0  0.10615507687E+02 -0.16467010560E+01  0.90259016421E+01  0.14030948953E+02  0.51100000000E-03 0.  1.
         12    1    3    3    0    0  0.21108782686E+02 -0.39432953403E+01  0.15889341452E+02  0.26713319831E+02  0.00000000000E+00 0. -1.
</event>
<event>
 7    1  0.1634068E-009  0.4778726E+02  0.7816164E-02  0.1312668E+00
        -11   -1    0    0    0    0  0.00000000000E+00  0.00000000000E+00  0.45593999997E+02  0.45594000000E+02  0.51100000000E-03 0. -1.
         11   -1    0    0    0    0 -0.00000000000E+00 -0.00000000000E+00 -0.45593999997E+02  0.45594000000E+02  0.51100000000E-03 0.  1.
    9900012    2    1    2    0    0 -0.32017399278E+01  0.40583459809E+02 -0.15045123858E+02  0.47787261520E+02  0.19999956576E+02 0.  0.
         12    1    1    2    0    0  0.32017399278E+01 -0.40583459809E+02  0.15045123858E+02  0.43400738480E+02  0.00000000000E+00 0. -1.
         11    1    3    3    0    0 -0.57477103242E+01  0.25101513754E+02 -0.14813369236E+02  0.29707879007E+02  0.51100000000E-03 0. -1.
        -11    1    3    3    0    0 -0.29007439259E+01  0.78969471911E+01 -0.18194085437E+01  0.86073420968E+01  0.51100000000E-03 0.  1.
        -12    1    3    3    0    0  0.54467143223E+01  0.75849988639E+01  0.15876539213E+01  0.94720404163E+01  0.00000000000E+00 0.  1.
</event>
<event>
 7    1  0.1634068E-009  0.4778727E+02  0.7816164E-02  0.1312668E+00
        -11   -1    0    0    0    0  0.00000000000E+00  0.00000000000E+00  0.45593999997E+02  0.45594000000E+02  0.51100000000E-03 0.  1.
         11   -1    0    0    0    0 -0.00000000000E+00 -0.00000000000E+00 -0.45593999997E+02  0.45594000000E+02  0.51100000000E-03 0. -1.
    9900012    2    1    2    0    0  0.35967980391E+02  0.23013255176E+02 -0.77664496027E+01  0.47787271127E+02  0.20000000378E+02 0.  0.
         12    1    1    2    0    0 -0.35967980391E+02 -0.23013255176E+02  0.77664496027E+01  0.43400728873E+02  0.00000000000E+00 0. -1.
         11    1    3    3    0    0 -0.89507280960E+00 -0.79081919736E+00  0.59681845387E+00  0.13351939430E+01  0.51100000000E-03 0. -1.
        -11    1    3    3    0    0  0.16397967589E+02  0.14230717299E+02  0.15757927880E+01  0.21769009602E+02  0.51100000000E-03 0.  1.
        -12    1    3    3    0    0  0.20465085613E+02  0.95733570750E+01 -0.99390608445E+01  0.24683067583E+02  0.00000000000E+00 0.  1.
</event>
<event>
 7    1  0.1634068E-009  0.4778727E+02  0.7816164E-02  0.1312668E+00
        -11   -1    0    0    0    0  0.00000000000E+00  0.00000000000E+00  0.45593999997E+02  0.45594000000E+02  0.51100000000E-03 0.  1.
         11   -1    0    0    0    0 -0.00000000000E+00 -0.00000000000E+00 -0.45593999997E+02  0.45594000000E+02  0.51100000000E-03 0. -1.
    9900012    2    1    2    0    0 -0.35133133582E+02  0.14458429698E+02  0.20981895234E+02  0.47787271985E+02  0.20000004289E+02 0.  0.
         12    1    1    2    0    0  0.35133133582E+02 -0.14458429698E+02 -0.20981895234E+02  0.43400728015E+02  0.00000000000E+00 0. -1.
         11    1    3    3    0    0 -0.17607311277E+02  0.47067292007E+01  0.21432010141E+01  0.18351131328E+02  0.51100000000E-03 0. -1.
        -11    1    3    3    0    0 -0.18245832005E+02  0.69826795480E+01  0.14909425938E+02  0.24575580996E+02  0.51100000000E-03 0.  1.
        -12    1    3    3    0    0  0.72000970042E+00  0.27690209492E+01  0.39292682822E+01  0.48605596611E+01  0.00000000000E+00 0.  1.
</event>
<event>
 7    1  0.1634068E-009  0.4778728E+02  0.7816164E-02  0.1312668E+00
        -11   -1    0    0    0    0  0.00000000000E+00  0.00000000000E+00  0.45593999997E+02  0.45594000000E+02  0.51100000000E-03 0.  1.
         11   -1    0    0    0    0 -0.00000000000E+00 -0.00000000000E+00 -0.45593999997E+02  0.45594000000E+02  0.51100000000E-03 0. -1.
    9900012    2    1    2    0    0  0.83590066312E+01  0.18652210006E+02  0.38286350575E+02  0.47787279150E+02  0.20000036958E+02 0.  0.
         12    1    1    2    0    0 -0.83590066312E+01 -0.18652210006E+02 -0.38286350575E+02  0.43400720850E+02  0.00000000000E+00 0. -1.
         11    1    3    3    0    0  0.38808771678E+01  0.40368725658E+01  0.14568843879E+02  0.15607971038E+02  0.51100000000E-03 0. -1.
        -11    1    3    3    0    0  0.25370670006E+01  0.12775101599E+02  0.25725501760E+02  0.28834725088E+02  0.51100000000E-03 0.  1.
         12    1    3    3    0    0  0.19410624628E+01  0.18402358409E+01 -0.20079950635E+01  0.33445830248E+01  0.00000000000E+00 0. -1.
</event>
<event>
 7    1  0.1634068E-009  0.4778727E+02  0.7816164E-02  0.1312668E+00
        -11   -1    0    0    0    0  0.00000000000E+00  0.00000000000E+00  0.45593999997E+02  0.45594000000E+02  0.51100000000E-03 0.  1.
         11   -1    0    0    0    0 -0.00000000000E+00 -0.00000000000E+00 -0.45593999997E+02  0.45594000000E+02  0.51100000000E-03 0. -1.
    9900012    2    1    2    0    0  0.15495480570E+02 -0.40131910924E+02 -0.57395998351E+01  0.47787271910E+02  0.20000003945E+02 0.  0.
         12    1    1    2    0    0 -0.15495480570E+02  0.40131910924E+02  0.57395998351E+01  0.43400728090E+02  0.00000000000E+00 0. -1.
         11    1    3    3    0    0  0.28360749814E+01 -0.12259908142E+02  0.43651723353E+01  0.13319286720E+02  0.51100000000E-03 0.  1.
        -11    1    3    3    0    0  0.10691561023E+02 -0.91168318159E+01 -0.34298631271E+01  0.14463404191E+02  0.51100000000E-03 0. -1.
         12    1    3    3    0    0  0.19678445657E+01 -0.18755170966E+02 -0.66749090433E+01  0.20004580999E+02  0.00000000000E+00 0. -1.
</event>
<event>
 7    1  0.1634068E-009  0.4778727E+02  0.7816164E-02  0.1312668E+00
        -11   -1    0    0    0    0  0.00000000000E+00  0.00000000000E+00  0.45593999997E+02  0.45594000000E+02  0.51100000000E-03 0.  1.
         11   -1    0    0    0    0 -0.00000000000E+00 -0.00000000000E+00 -0.45593999997E+02  0.45594000000E+02  0.51100000000E-03 0. -1.
    9900012    2    1    2    0    0  0.39774366916E+02  0.14194067541E+02  0.10007569350E+02  0.47787271190E+02  0.20000000663E+02 0.  0.
         12    1    1    2    0    0 -0.39774366916E+02 -0.14194067541E+02 -0.10007569350E+02  0.43400728810E+02  0.00000000000E+00 0. -1.
         11    1    3    3    0    0  0.10269747623E+02  0.69742983326E+00 -0.13113065617E+01  0.10376591433E+02  0.51100000000E-03 0. -1.
        -11    1    3    3    0    0  0.29960641376E+02  0.13250654103E+02  0.13304485988E+02  0.35358580479E+02  0.51100000000E-03 0.  1.
         12    1    3    3    0    0 -0.45602208243E+00  0.24598360448E+00 -0.19856100758E+01  0.20520992779E+01  0.00000000000E+00 0. -1.
</event>
<event>
 7    1  0.1634068E-009  0.4778727E+02  0.7816164E-02  0.1312668E+00
        -11   -1    0    0    0    0  0.00000000000E+00  0.00000000000E+00  0.45593999997E+02  0.45594000000E+02  0.51100000000E-03 0.  1.
         11   -1    0    0    0    0 -0.00000000000E+00 -0.00000000000E+00 -0.45593999997E+02  0.45594000000E+02  0.51100000000E-03 0. -1.
    9900012    2    1    2    0    0  0.17924097361E+02  0.32942197281E+02  0.21844031375E+02  0.47787270344E+02  0.19999996808E+02 0.  0.
         12    1    1    2    0    0 -0.17924097361E+02 -0.32942197281E+02 -0.21844031375E+02  0.43400729656E+02  0.00000000000E+00 0. -1.
         11    1    3    3    0    0  0.50719561650E+01  0.12521901266E+01  0.67691445461E+00  0.52679154220E+01  0.51100000000E-03 0. -1.
        -11    1    3    3    0    0  0.10463543685E+02  0.10575780370E+02  0.12993693243E+02  0.19752694531E+02  0.51100000000E-03 0.  1.
        -12    1    3    3    0    0  0.23885975115E+01  0.21114226784E+02  0.81734236773E+01  0.22766660391E+02  0.00000000000E+00 0.  1.
</event>
<event>
 7    1  0.1634068E-009  0.4778728E+02  0.7816164E-02  0.1312668E+00
        -11   -1    0    0    0    0  0.00000000000E+00  0.00000000000E+00  0.45593999997E+02  0.45594000000E+02  0.51100000000E-03 0. -1.
         11   -1    0    0    0    0 -0.00000000000E+00 -0.00000000000E+00 -0.45593999997E+02  0.45594000000E+02  0.51100000000E-03 0.  1.
    9900012    2    1    2    0    0 -0.12653450826E+01  0.38378820659E+02  0.20225917140E+02  0.47787277685E+02  0.20000030275E+02 0.  0.
         12    1    1    2    0    0  0.12653450826E+01 -0.38378820659E+02 -0.20225917140E+02  0.43400722315E+02  0.00000000000E+00 0. -1.
         11    1    3    3    0    0 -0.45124695732E+01  0.33378482749E+01  0.83709758590E+01  0.10078534112E+02  0.51100000000E-03 0. -1.
        -11    1    3    3    0    0  0.21522327423E+01  0.15705230759E+02  0.19965400569E+01  0.15977251060E+02  0.51100000000E-03 0.  1.
        -12    1    3    3    0    0  0.10948917483E+01  0.19335741625E+02  0.98584012244E+01  0.21731492513E+02  0.00000000000E+00 0.  1.
</event>
<event>
 7    1  0.1634068E-009  0.4778727E+02  0.7816164E-02  0.1312668E+00
        -11   -1    0    0    0    0  0.00000000000E+00  0.00000000000E+00  0.45593999997E+02  0.45594000000E+02  0.51100000000E-03 0.  1.
         11   -1    0    0    0    0 -0.00000000000E+00 -0.00000000000E+00 -0.45593999997E+02  0.45594000000E+02  0.51100000000E-03 0. -1.
    9900012    2    1    2    0    0  0.28776400808E+02 -0.30475742711E+02  0.11259269330E+02  0.47787270938E+02  0.19999999514E+02 0.  0.
         12    1    1    2    0    0 -0.28776400808E+02  0.30475742711E+02 -0.11259269330E+02  0.43400729062E+02  0.00000000000E+00 0. -1.
         11    1    3    3    0    0  0.24805613578E+02 -0.25943851370E+02  0.91230742368E+01  0.37035555520E+02  0.51100000000E-03 0. -1.
        -11    1    3    3    0    0  0.10308488348E+01 -0.60996475284E+01  0.35499447532E+01  0.71323528588E+01  0.51100000000E-03 0.  1.
         12    1    3    3    0    0  0.29399383957E+01  0.15677561873E+01 -0.14137496596E+01  0.36193625590E+01  0.00000000000E+00 0. -1.
</event>
<event>
 7    1  0.1634068E-009  0.4778727E+02  0.7816164E-02  0.1312668E+00
        -11   -1    0    0    0    0  0.00000000000E+00  0.00000000000E+00  0.45593999997E+02  0.45594000000E+02  0.51100000000E-03 0. -1.
         11   -1    0    0    0    0 -0.00000000000E+00 -0.00000000000E+00 -0.45593999997E+02  0.45594000000E+02  0.51100000000E-03 0.  1.
    9900012    2    1    2    0    0 -0.22867676911E+02 -0.28600945604E+02 -0.23295456695E+02  0.47787273746E+02  0.20000012317E+02 0.  0.
         12    1    1    2    0    0  0.22867676911E+02  0.28600945604E+02  0.23295456695E+02  0.43400726254E+02  0.00000000000E+00 0. -1.
         11    1    3    3    0    0 -0.12442290766E+02 -0.10976010023E+02 -0.90095358105E+01  0.18880019367E+02  0.51100000000E-03 0. -1.
        -11    1    3    3    0    0 -0.12709109228E+02 -0.11887835140E+02 -0.14612475448E+02  0.22723699537E+02  0.51100000000E-03 0.  1.
         12    1    3    3    0    0  0.22837230833E+01 -0.57371004419E+01  0.32655456273E+00  0.61835548420E+01  0.00000000000E+00 0. -1.
</event>
<event>
 7    1  0.1703384E-009  0.4778727E+02  0.7816164E-02  0.1312668E+00
        -11   -1    0    0    0    0  0.00000000000E+00  0.00000000000E+00  0.45593999997E+02  0.45594000000E+02  0.51100000000E-03 0.  1.
         11   -1    0    0    0    0 -0.00000000000E+00 -0.00000000000E+00 -0.45593999997E+02  0.45594000000E+02  0.51100000000E-03 0. -1.
    9900012    2    1    2    0    0 -0.50342672540E+01  0.18445476049E+02  0.38962084075E+02  0.47787269258E+02  0.19999991857E+02 0.  0.
         12    1    1    2    0    0  0.50342672540E+01 -0.18445476049E+02 -0.38962084075E+02  0.43400730742E+02  0.00000000000E+00 0. -1.
         11    1    3    3    0    0  0.88533632273E-02  0.57216977336E+01  0.11349312017E+01  0.58331785872E+01  0.51100000000E-03 0. -1.
        -11    1    3    3    0    0  0.23365892453E+01  0.53672926958E+00  0.13909339285E+02  0.14114441088E+02  0.51100000000E-03 0.  1.
        -12    1    3    3    0    0 -0.73797098625E+01  0.12187049046E+02  0.23917813588E+02  0.27839649583E+02  0.00000000000E+00 0.  1.
</event>
<event>
 7    1  0.1634068E-009  0.4778728E+02  0.7816164E-02  0.1312668E+00
        -11   -1    0    0    0    0  0.00000000000E+00  0.00000000000E+00  0.45593999997E+02  0.45594000000E+02  0.51100000000E-03 0. -1.
         11   -1    0    0    0    0 -0.00000000000E+00 -0.00000000000E+00 -0.45593999997E+02  0.45594000000E+02  0.51100000000E-03 0.  1.
    9900012    2    1    2    0    0 -0.94893083016E+01  0.39746385382E+02  0.14621906079E+02  0.47787282721E+02  0.20000053236E+02 0.  0.
         12    1    1    2    0    0  0.94893083016E+01 -0.39746385382E+02 -0.14621906079E+02  0.43400717279E+02  0.00000000000E+00 0. -1.
         11    1    3    3    0    0  0.71782457711E+00 -0.33893149306E+00 -0.10283924158E+01  0.12991296712E+01  0.51100000000E-03 0. -1.
        -11    1    3    3    0    0 -0.61563542764E+01  0.34030460398E+02  0.17796998389E+02  0.38893522402E+02  0.51100000000E-03 0.  1.
        -12    1    3    3    0    0 -0.40507786023E+01  0.60548564769E+01 -0.21466998939E+01  0.75946306477E+01  0.00000000000E+00 0.  1.
</event>
<event>
 7    1  0.1634068E-009  0.4778727E+02  0.7816164E-02  0.1312668E+00
        -11   -1    0    0    0    0  0.00000000000E+00  0.00000000000E+00  0.45593999997E+02  0.45594000000E+02  0.51100000000E-03 0.  1.
         11   -1    0    0    0    0 -0.00000000000E+00 -0.00000000000E+00 -0.45593999997E+02  0.45594000000E+02  0.51100000000E-03 0. -1.
    9900012    2    1    2    0    0  0.38379860871E+02 -0.19747046618E+02 -0.45457238321E+01  0.47787272175E+02  0.20000005153E+02 0.  0.
         12    1    1    2    0    0 -0.38379860871E+02  0.19747046618E+02  0.45457238321E+01  0.43400727825E+02  0.00000000000E+00 0. -1.
         11    1    3    3    0    0  0.16102554184E+02 -0.43766297653E+01  0.25067745819E+01  0.16873975773E+02  0.51100000000E-03 0.  1.
        -11    1    3    3    0    0  0.17224634217E+02 -0.11731227959E+02  0.84385192362E+00  0.20857176695E+02  0.51100000000E-03 0. -1.
         12    1    3    3    0    0  0.50526724707E+01 -0.36391888933E+01 -0.78963503376E+01  0.10056119706E+02  0.00000000000E+00 0. -1.
</event>
<event>
 7    1  0.1634068E-009  0.4778727E+02  0.7816164E-02  0.1312668E+00
        -11   -1    0    0    0    0  0.00000000000E+00  0.00000000000E+00  0.45593999997E+02  0.45594000000E+02  0.51100000000E-03 0.  1.
         11   -1    0    0    0    0 -0.00000000000E+00 -0.00000000000E+00 -0.45593999997E+02  0.45594000000E+02  0.51100000000E-03 0. -1.
    9900012    2    1    2    0    0 -0.31395064295E+01  0.10255500736E+02 -0.42054625259E+02  0.47787270724E+02  0.19999998540E+02 0.  0.
         12    1    1    2    0    0  0.31395064295E+01 -0.10255500736E+02  0.42054625259E+02  0.43400729276E+02  0.00000000000E+00 0. -1.
         11    1    3    3    0    0 -0.12223925890E+01  0.54805121110E+01 -0.28112489376E+02  0.28667792308E+02  0.51100000000E-03 0. -1.
        -11    1    3    3    0    0 -0.56681787547E+01 -0.13694551423E+01 -0.71005456318E+01  0.91881122279E+01  0.51100000000E-03 0.  1.
        -12    1    3    3    0    0  0.37510649141E+01  0.61444437672E+01 -0.68415902515E+01  0.99313661884E+01  0.00000000000E+00 0.  1.
</event>
<event>
 7    1  0.1634068E-009  0.4778727E+02  0.7816164E-02  0.1312668E+00
        -11   -1    0    0    0    0  0.00000000000E+00  0.00000000000E+00  0.45593999997E+02  0.45594000000E+02  0.51100000000E-03 0.  1.
         11   -1    0    0    0    0 -0.00000000000E+00 -0.00000000000E+00 -0.45593999997E+02  0.45594000000E+02  0.51100000000E-03 0. -1.
    9900012    2    1    2    0    0  0.26784643762E+02  0.13108750028E+01  0.34124593971E+02  0.47787269034E+02  0.19999990831E+02 0.  0.
         12    1    1    2    0    0 -0.26784643762E+02 -0.13108750028E+01 -0.34124593971E+02  0.43400730966E+02  0.00000000000E+00 0. -1.
         11    1    3    3    0    0  0.15950170732E+02  0.21712783967E+01  0.15206072350E+02  0.22143780907E+02  0.51100000000E-03 0. -1.
        -11    1    3    3    0    0  0.83462487703E+01 -0.65055753785E+01  0.14920096511E+02  0.18291846809E+02  0.51100000000E-03 0.  1.
         12    1    3    3    0    0  0.24882242598E+01  0.56451719846E+01  0.39984251099E+01  0.73516413176E+01  0.00000000000E+00 0. -1.
</event>
<event>
 7    1  0.1634068E-009  0.4778726E+02  0.7816164E-02  0.1312668E+00
        -11   -1    0    0    0    0  0.00000000000E+00  0.00000000000E+00  0.45593999997E+02  0.45594000000E+02  0.51100000000E-03 0.  1.
         11   -1    0    0    0    0 -0.00000000000E+00 -0.00000000000E+00 -0.45593999997E+02  0.45594000000E+02  0.51100000000E-03 0. -1.
    9900012    2    1    2    0    0 -0.29803894787E+01  0.12631334307E+02  0.41414858763E+02  0.47787264359E+02  0.19999969518E+02 0.  0.
         12    1    1    2    0    0  0.29803894787E+01 -0.12631334307E+02 -0.41414858763E+02  0.43400735641E+02  0.00000000000E+00 0. -1.
         11    1    3    3    0    0  0.62534209819E+01  0.87322457591E+01  0.12458264704E+02  0.16448882931E+02  0.51100000000E-03 0. -1.
        -11    1    3    3    0    0 -0.36276798358E+01  0.49168474670E+01  0.17641054420E+02  0.18669286310E+02  0.51100000000E-03 0.  1.
         12    1    3    3    0    0 -0.56061306248E+01 -0.10177589187E+01  0.11315539638E+02  0.12669095118E+02  0.00000000000E+00 0. -1.
</event>
<event>
 7    1  0.1634068E-009  0.4778730E+02  0.7816164E-02  0.1312668E+00
        -11   -1    0    0    0    0  0.00000000000E+00  0.00000000000E+00  0.45593999997E+02  0.45594000000E+02  0.51100000000E-03 0. -1.
         11   -1    0    0    0    0 -0.00000000000E+00 -0.00000000000E+00 -0.45593999997E+02  0.45594000000E+02  0.51100000000E-03 0.  1.
    9900012    2    1    2    0    0  0.21243477076E+02  0.36477006472E+02 -0.10087788767E+02  0.47787299526E+02  0.20000129856E+02 0.  0.
         12    1    1    2    0    0 -0.21243477076E+02 -0.36477006472E+02  0.10087788767E+02  0.43400700474E+02  0.00000000000E+00 0. -1.
         11    1    3    3    0    0  0.82815388541E+01  0.35642009139E+01 -0.36271006477E+01  0.97181929038E+01  0.51100000000E-03 0. -1.
        -11    1    3    3    0    0  0.15473727395E+02  0.28398950608E+02 -0.52623390852E+01  0.32766276078E+02  0.51100000000E-03 0.  1.
         12    1    3    3    0    0 -0.25117891731E+01  0.45138549504E+01 -0.11983490341E+01  0.53028305433E+01  0.00000000000E+00 0. -1.
</event>
<event>
 7    1  0.1634068E-009  0.4778727E+02  0.7816164E-02  0.1312668E+00
        -11   -1    0    0    0    0  0.00000000000E+00  0.00000000000E+00  0.45593999997E+02  0.45594000000E+02  0.51100000000E-03 0.  1.
         11   -1    0    0    0    0 -0.00000000000E+00 -0.00000000000E+00 -0.45593999997E+02  0.45594000000E+02  0.51100000000E-03 0. -1.
    9900012    2    1    2    0    0 -0.41679617701E+02 -0.11561415352E+02  0.35730404737E+01  0.47787268729E+02  0.19999989444E+02 0.  0.
         12    1    1    2    0    0  0.41679617701E+02  0.11561415352E+02 -0.35730404737E+01  0.43400731271E+02  0.00000000000E+00 0. -1.
         11    1    3    3    0    0 -0.17425743134E+02 -0.10381107618E+02  0.60745681375E+01  0.21173669910E+02  0.51100000000E-03 0. -1.
        -11    1    3    3    0    0 -0.22956346203E+02 -0.25398050418E+01  0.46591718968E+00  0.23101115119E+02  0.51100000000E-03 0.  1.
         12    1    3    3    0    0 -0.12975283633E+01  0.13594973078E+01 -0.29674448534E+01  0.35124836999E+01  0.00000000000E+00 0. -1.
</event>
<event>
 7    1  0.1634068E-009  0.4778727E+02  0.7816164E-02  0.1312668E+00
        -11   -1    0    0    0    0  0.00000000000E+00  0.00000000000E+00  0.45593999997E+02  0.45594000000E+02  0.51100000000E-03 0. -1.
         11   -1    0    0    0    0 -0.00000000000E+00 -0.00000000000E+00 -0.45593999997E+02  0.45594000000E+02  0.51100000000E-03 0.  1.
    9900012    2    1    2    0    0 -0.31829588664E+02  0.13647911102E+02 -0.26157890871E+02  0.47787269052E+02  0.19999990918E+02 0.  0.
         12    1    1    2    0    0  0.31829588664E+02 -0.13647911102E+02  0.26157890871E+02  0.43400730948E+02  0.00000000000E+00 0. -1.
         11    1    3    3    0    0 -0.18956511703E+02  0.14476305793E+02 -0.17159343540E+02  0.29382917424E+02  0.51100000000E-03 0. -1.
        -11    1    3    3    0    0 -0.10028258012E+02  0.32923907944E+01 -0.38844520683E+01  0.11246989110E+02  0.51100000000E-03 0.  1.
         12    1    3    3    0    0 -0.28448189481E+01 -0.41207854852E+01 -0.51140952634E+01  0.71573625188E+01  0.00000000000E+00 0. -1.
</event>
<event>
 7    1  0.1634068E-009  0.4778727E+02  0.7816164E-02  0.1312668E+00
        -11   -1    0    0    0    0  0.00000000000E+00  0.00000000000E+00  0.45593999997E+02  0.45594000000E+02  0.51100000000E-03 0.  1.
         11   -1    0    0    0    0 -0.00000000000E+00 -0.00000000000E+00 -0.45593999997E+02  0.45594000000E+02  0.51100000000E-03 0. -1.
    9900012    2    1    2    0    0 -0.20557562015E+02  0.34115774836E+02 -0.17237272487E+02  0.47787274067E+02  0.20000013783E+02 0.  0.
         12    1    1    2    0    0  0.20557562015E+02 -0.34115774836E+02  0.17237272487E+02  0.43400725933E+02  0.00000000000E+00 0. -1.
         11    1    3    3    0    0 -0.42799911026E+00  0.17510854471E+01 -0.63246470895E+01  0.65765222229E+01  0.51100000000E-03 0. -1.
        -11    1    3    3    0    0 -0.13385557506E+02  0.11041771499E+02 -0.54730214387E+01  0.18194719880E+02  0.51100000000E-03 0.  1.
        -12    1    3    3    0    0 -0.67440053991E+01  0.21322917890E+02 -0.54396039592E+01  0.23016031965E+02  0.00000000000E+00 0.  1.
</event>
<event>
 7    1  0.1634068E-009  0.4778727E+02  0.7816164E-02  0.1312668E+00
        -11   -1    0    0    0    0  0.00000000000E+00  0.00000000000E+00  0.45593999997E+02  0.45594000000E+02  0.51100000000E-03 0. -1.
         11   -1    0    0    0    0 -0.00000000000E+00 -0.00000000000E+00 -0.45593999997E+02  0.45594000000E+02  0.51100000000E-03 0.  1.
    9900012    2    1    2    0    0  0.25862331059E+01 -0.48164064638E+01 -0.43055045431E+02  0.47787270628E+02  0.19999998103E+02 0.  0.
         12    1    1    2    0    0 -0.25862331059E+01  0.48164064638E+01  0.43055045431E+02  0.43400729372E+02  0.00000000000E+00 0. -1.
         11    1    3    3    0    0  0.20645339506E+01 -0.30459233925E+01 -0.11485798939E+00  0.36814592711E+01  0.51100000000E-03 0. -1.
        -11    1    3    3    0    0 -0.22883775606E+01 -0.51676849811E+01 -0.25200987907E+02  0.25826951653E+02  0.51100000000E-03 0.  1.
        -12    1    3    3    0    0  0.28100767159E+01  0.33972019098E+01 -0.17739199535E+02  0.18278859705E+02  0.00000000000E+00 0.  1.
</event>
<event>
 7    1  0.1634068E-009  0.4778727E+02  0.7816164E-02  0.1312668E+00
        -11   -1    0    0    0    0  0.00000000000E+00  0.00000000000E+00  0.45593999997E+02  0.45594000000E+02  0.51100000000E-03 0. -1.
         11   -1    0    0    0    0 -0.00000000000E+00 -0.00000000000E+00 -0.45593999997E+02  0.45594000000E+02  0.51100000000E-03 0.  1.
    9900012    2    1    2    0    0  0.31783078691E+02  0.65764793124E+00 -0.29547027438E+02  0.47787269335E+02  0.19999992204E+02 0.  0.
         12    1    1    2    0    0 -0.31783078691E+02 -0.65764793124E+00  0.29547027438E+02  0.43400730665E+02  0.00000000000E+00 0. -1.
         11    1    3    3    0    0  0.38367443372E+01 -0.24679356024E+01 -0.19831268826E+01  0.49743447548E+01  0.51100000000E-03 0. -1.
        -11    1    3    3    0    0  0.23848084456E+02 -0.30130942411E+01 -0.25722060047E+02  0.35205599590E+02  0.51100000000E-03 0.  1.
         12    1    3    3    0    0  0.40982498974E+01  0.61386777748E+01 -0.18418405083E+01  0.76073249899E+01  0.00000000000E+00 0. -1.
</event>
<event>
 7    1  0.1634068E-009  0.4778727E+02  0.7816164E-02  0.1312668E+00
        -11   -1    0    0    0    0  0.00000000000E+00  0.00000000000E+00  0.45593999997E+02  0.45594000000E+02  0.51100000000E-03 0.  1.
         11   -1    0    0    0    0 -0.00000000000E+00 -0.00000000000E+00 -0.45593999997E+02  0.45594000000E+02  0.51100000000E-03 0. -1.
    9900012    2    1    2    0    0 -0.50714523915E+01 -0.96351762698E+01  0.42012701093E+02  0.47787270694E+02  0.19999998403E+02 0.  0.
         12    1    1    2    0    0  0.50714523915E+01  0.96351762698E+01 -0.42012701093E+02  0.43400729306E+02  0.00000000000E+00 0. -1.
         11    1    3    3    0    0 -0.89662013533E+01 -0.10544570147E+02  0.18328790871E+02  0.22967918960E+02  0.51100000000E-03 0. -1.
        -11    1    3    3    0    0 -0.10379692323E+01 -0.13978366669E+01  0.87982824739E+01  0.89688963773E+01  0.51100000000E-03 0.  1.
        -12    1    3    3    0    0  0.49327181941E+01  0.23072305437E+01  0.14885627748E+02  0.15850455357E+02  0.00000000000E+00 0.  1.
</event>
<event>
 7    1  0.1634068E-009  0.4778727E+02  0.7816164E-02  0.1312668E+00
        -11   -1    0    0    0    0  0.00000000000E+00  0.00000000000E+00  0.45593999997E+02  0.45594000000E+02  0.51100000000E-03 0.  1.
         11   -1    0    0    0    0 -0.00000000000E+00 -0.00000000000E+00 -0.45593999997E+02  0.45594000000E+02  0.51100000000E-03 0. -1.
    9900012    2    1    2    0    0 -0.16351258374E+02 -0.24407758602E+02  0.31945592139E+02  0.47787272039E+02  0.20000004537E+02 0.  0.
         12    1    1    2    0    0  0.16351258374E+02  0.24407758602E+02 -0.31945592139E+02  0.43400727961E+02  0.00000000000E+00 0. -1.
         11    1    3    3    0    0  0.25015916471E+01 -0.55834442696E+00  0.53709999996E+01  0.59512478124E+01  0.51100000000E-03 0. -1.
        -11    1    3    3    0    0 -0.81367896435E+01 -0.54138090861E+01  0.34100723266E+01  0.10351099848E+02  0.51100000000E-03 0.  1.
         12    1    3    3    0    0 -0.10716060378E+02 -0.18435605089E+02  0.23164519813E+02  0.31484924379E+02  0.00000000000E+00 0. -1.
</event>
<event>
 7    1  0.1634068E-009  0.4778727E+02  0.7816164E-02  0.1312668E+00
        -11   -1    0    0    0    0  0.00000000000E+00  0.00000000000E+00  0.45593999997E+02  0.45594000000E+02  0.51100000000E-03 0. -1.
         11   -1    0    0    0    0 -0.00000000000E+00 -0.00000000000E+00 -0.45593999997E+02  0.45594000000E+02  0.51100000000E-03 0.  1.
    9900012    2    1    2    0    0 -0.21839431168E+02  0.17667283474E+02 -0.33083674162E+02  0.47787272412E+02  0.20000006237E+02 0.  0.
         12    1    1    2    0    0  0.21839431168E+02 -0.17667283474E+02  0.33083674162E+02  0.43400727588E+02  0.00000000000E+00 0. -1.
         11    1    3    3    0    0 -0.30153829718E+01  0.52966638632E+01 -0.15034937458E+02  0.16223332801E+02  0.51100000000E-03 0. -1.
        -11    1    3    3    0    0 -0.97866808650E+01  0.13594233904E+02 -0.11030927089E+02  0.20056511923E+02  0.51100000000E-03 0.  1.
         12    1    3    3    0    0 -0.90373673310E+01 -0.12236142939E+01 -0.70178096147E+01  0.11507427688E+02  0.00000000000E+00 0. -1.
</event>
<event>
 7    1  0.1634068E-009  0.4778728E+02  0.7816164E-02  0.1312668E+00
        -11   -1    0    0    0    0  0.00000000000E+00  0.00000000000E+00  0.45593999997E+02  0.45594000000E+02  0.51100000000E-03 0.  1.
         11   -1    0    0    0    0 -0.00000000000E+00 -0.00000000000E+00 -0.45593999997E+02  0.45594000000E+02  0.51100000000E-03 0. -1.
    9900012    2    1    2    0    0  0.16775773395E+02 -0.27333142251E+01  0.39934003862E+02  0.47787282908E+02  0.20000054092E+02 0.  0.
         12    1    1    2    0    0 -0.16775773395E+02  0.27333142251E+01 -0.39934003862E+02  0.43400717092E+02  0.00000000000E+00 0. -1.
         11    1    3    3    0    0  0.39997324921E+00 -0.22696469657E+01  0.82399705102E+01  0.85561901697E+01  0.51100000000E-03 0. -1.
        -11    1    3    3    0    0  0.10069875864E+02 -0.79688734564E+01  0.21814251282E+02  0.25313374002E+02  0.51100000000E-03 0.  1.
         12    1    3    3    0    0  0.63059242819E+01  0.75052061969E+01  0.98797820690E+01  0.13917718737E+02  0.00000000000E+00 0. -1.
</event>
<event>
 7    1  0.1634068E-009  0.4778727E+02  0.7816164E-02  0.1312668E+00
        -11   -1    0    0    0    0  0.00000000000E+00  0.00000000000E+00  0.45593999997E+02  0.45594000000E+02  0.51100000000E-03 0. -1.
         11   -1    0    0    0    0 -0.00000000000E+00 -0.00000000000E+00 -0.45593999997E+02  0.45594000000E+02  0.51100000000E-03 0.  1.
    9900012    2    1    2    0    0 -0.22449261033E+02  0.15278040302E+02  0.33856095297E+02  0.47787273910E+02  0.20000013064E+02 0.  0.
         12    1    1    2    0    0  0.22449261033E+02 -0.15278040302E+02 -0.33856095297E+02  0.43400726090E+02  0.00000000000E+00 0. -1.
         11    1    3    3    0    0 -0.97873184788E+01  0.10157108429E+02  0.65771197435E+01  0.15563320951E+02  0.51100000000E-03 0.  1.
        -11    1    3    3    0    0 -0.13100209584E+02  0.27932414988E+01  0.16828981848E+02  0.21508889314E+02  0.51100000000E-03 0. -1.
         12    1    3    3    0    0  0.43826702984E+00  0.23276903738E+01  0.10449993705E+02  0.10715063644E+02  0.00000000000E+00 0. -1.
</event>
<event>
 7    1  0.1634068E-009  0.4778727E+02  0.7816164E-02  0.1312668E+00
        -11   -1    0    0    0    0  0.00000000000E+00  0.00000000000E+00  0.45593999997E+02  0.45594000000E+02  0.51100000000E-03 0. -1.
         11   -1    0    0    0    0 -0.00000000000E+00 -0.00000000000E+00 -0.45593999997E+02  0.45594000000E+02  0.51100000000E-03 0.  1.
    9900012    2    1    2    0    0  0.37273112586E+01  0.39340632485E+02 -0.17945626603E+02  0.47787265815E+02  0.19999976159E+02 0.  0.
         12    1    1    2    0    0 -0.37273112586E+01 -0.39340632485E+02  0.17945626603E+02  0.43400734185E+02  0.00000000000E+00 0. -1.
         11    1    3    3    0    0 -0.26038707378E+01  0.65962467923E+01 -0.10095592260E+02  0.12337406450E+02  0.51100000000E-03 0. -1.
        -11    1    3    3    0    0  0.98788069082E+00  0.12748590172E+02  0.12349946714E+01  0.12846309655E+02  0.51100000000E-03 0.  1.
        -12    1    3    3    0    0  0.53433013055E+01  0.19995795521E+02 -0.90850290151E+01  0.22603549711E+02  0.00000000000E+00 0.  1.
</event>
<event>
 7    1  0.1634068E-009  0.4778727E+02  0.7816164E-02  0.1312668E+00
        -11   -1    0    0    0    0  0.00000000000E+00  0.00000000000E+00  0.45593999997E+02  0.45594000000E+02  0.51100000000E-03 0.  1.
         11   -1    0    0    0    0 -0.00000000000E+00 -0.00000000000E+00 -0.45593999997E+02  0.45594000000E+02  0.51100000000E-03 0. -1.
    9900012    2    1    2    0    0 -0.70101429810E+01  0.34004678129E+02  0.26041563885E+02  0.47787270872E+02  0.19999999214E+02 0.  0.
         12    1    1    2    0    0  0.70101429810E+01 -0.34004678129E+02 -0.26041563885E+02  0.43400729128E+02  0.00000000000E+00 0. -1.
         11    1    3    3    0    0 -0.11210979126E+01  0.49303716968E-01 -0.18574992054E+01  0.21701601197E+01  0.51100000000E-03 0. -1.
        -11    1    3    3    0    0 -0.52971535273E+01  0.11501884028E+02  0.15310501491E+02  0.19868684603E+02  0.51100000000E-03 0.  1.
        -12    1    3    3    0    0 -0.59189154116E+00  0.22453490384E+02  0.12588561599E+02  0.25748426149E+02  0.00000000000E+00 0.  1.
</event>
<event>
 7    1  0.1634068E-009  0.4778727E+02  0.7816164E-02  0.1312668E+00
        -11   -1    0    0    0    0  0.00000000000E+00  0.00000000000E+00  0.45593999997E+02  0.45594000000E+02  0.51100000000E-03 0.  1.
         11   -1    0    0    0    0 -0.00000000000E+00 -0.00000000000E+00 -0.45593999997E+02  0.45594000000E+02  0.51100000000E-03 0. -1.
    9900012    2    1    2    0    0 -0.72102731323E+01 -0.39611062240E+02  0.16204899592E+02  0.47787273495E+02  0.20000011171E+02 0.  0.
         12    1    1    2    0    0  0.72102731323E+01  0.39611062240E+02 -0.16204899592E+02  0.43400726505E+02  0.00000000000E+00 0. -1.
         11    1    3    3    0    0  0.43767474949E+00 -0.71141300353E+01  0.39234844678E+01  0.81361007845E+01  0.51100000000E-03 0.  1.
        -11    1    3    3    0    0  0.51574525337E+01 -0.14143919893E+02  0.26435906574E+01  0.15285233344E+02  0.51100000000E-03 0. -1.
         12    1    3    3    0    0 -0.12805400415E+02 -0.18353012312E+02  0.96378244664E+01  0.24365939366E+02  0.00000000000E+00 0. -1.
</event>
<event>
 7    1  0.1634068E-009  0.4778726E+02  0.7816164E-02  0.1312668E+00
        -11   -1    0    0    0    0  0.00000000000E+00  0.00000000000E+00  0.45593999997E+02  0.45594000000E+02  0.51100000000E-03 0.  1.
         11   -1    0    0    0    0 -0.00000000000E+00 -0.00000000000E+00 -0.45593999997E+02  0.45594000000E+02  0.51100000000E-03 0. -1.
    9900012    2    1    2    0    0 -0.31836293065E+02  0.29483753998E+02  0.88476678602E+00  0.47787261317E+02  0.19999955650E+02 0.  0.
         12    1    1    2    0    0  0.31836293065E+02 -0.29483753998E+02 -0.88476678602E+00  0.43400738683E+02  0.00000000000E+00 0. -1.
         11    1    3    3    0    0 -0.45008227884E+01  0.51779445079E+01 -0.58551314439E+01  0.90194833326E+01  0.51100000000E-03 0. -1.
        -11    1    3    3    0    0  0.69060028185E-01  0.29354373071E+01  0.23071170427E+01  0.37342135425E+01  0.51100000000E-03 0.  1.
         12    1    3    3    0    0 -0.27404530305E+02  0.21370372183E+02  0.44327811872E+01  0.35033564442E+02  0.00000000000E+00 0. -1.
</event>
<event>
 7    1  0.1634068E-009  0.4778727E+02  0.7816164E-02  0.1312668E+00
        -11   -1    0    0    0    0  0.00000000000E+00  0.00000000000E+00  0.45593999997E+02  0.45594000000E+02  0.51100000000E-03 0. -1.
         11   -1    0    0    0    0 -0.00000000000E+00 -0.00000000000E+00 -0.45593999997E+02  0.45594000000E+02  0.51100000000E-03 0.  1.
    9900012    2    1    2    0    0  0.49015320485E+01  0.45816789812E+01 -0.42878979149E+02  0.47787266693E+02  0.19999980160E+02 0.  0.
         12    1    1    2    0    0 -0.49015320485E+01 -0.45816789812E+01  0.42878979149E+02  0.43400733307E+02  0.00000000000E+00 0. -1.
         11    1    3    3    0    0  0.20150245070E+01 -0.45896066283E+01 -0.50166957716E+01  0.70916887617E+01  0.51100000000E-03 0. -1.
        -11    1    3    3    0    0 -0.84501575545E+00 -0.43982327183E+00  0.42594414524E+00  0.10435156028E+01  0.51100000000E-03 0.  1.
        -12    1    3    3    0    0  0.37315232969E+01  0.96111088813E+01 -0.38288227523E+02  0.39652062328E+02  0.00000000000E+00 0.  1.
</event>
<event>
 7    1  0.1634068E-009  0.4778728E+02  0.7816164E-02  0.1312668E+00
        -11   -1    0    0    0    0  0.00000000000E+00  0.00000000000E+00  0.45593999997E+02  0.45594000000E+02  0.51100000000E-03 0.  1.
         11   -1    0    0    0    0 -0.00000000000E+00 -0.00000000000E+00 -0.45593999997E+02  0.45594000000E+02  0.51100000000E-03 0. -1.
    9900012    2    1    2    0    0 -0.17937683969E+02  0.36890009036E+02  0.14177080178E+02  0.47787275637E+02  0.20000020939E+02 0.  0.
         12    1    1    2    0    0  0.17937683969E+02 -0.36890009036E+02 -0.14177080178E+02  0.43400724363E+02  0.00000000000E+00 0. -1.
         11    1    3    3    0    0 -0.13603516650E+02  0.24976903686E+02  0.51026520011E+00  0.28445768645E+02  0.51100000000E-03 0. -1.
        -11    1    3    3    0    0  0.11522195754E+01  0.17867316623E+01  0.27168278772E+01  0.34498078147E+01  0.51100000000E-03 0.  1.
        -12    1    3    3    0    0 -0.54863868945E+01  0.10126373687E+02  0.10949987101E+02  0.15891699177E+02  0.00000000000E+00 0.  1.
</event>
<event>
 7    1  0.1634068E-009  0.4778727E+02  0.7816164E-02  0.1312668E+00
        -11   -1    0    0    0    0  0.00000000000E+00  0.00000000000E+00  0.45593999997E+02  0.45594000000E+02  0.51100000000E-03 0.  1.
         11   -1    0    0    0    0 -0.00000000000E+00 -0.00000000000E+00 -0.45593999997E+02  0.45594000000E+02  0.51100000000E-03 0. -1.
    9900012    2    1    2    0    0  0.13532476378E+01  0.19668620728E+01  0.43335013856E+02  0.47787271303E+02  0.20000001177E+02 0.  0.
         12    1    1    2    0    0 -0.13532476378E+01 -0.19668620728E+01 -0.43335013856E+02  0.43400728697E+02  0.00000000000E+00 0. -1.
         11    1    3    3    0    0  0.47024348626E+01  0.44927116423E+01  0.21043518124E+02  0.22025598898E+02  0.51100000000E-03 0. -1.
        -11    1    3    3    0    0 -0.55527809749E+01  0.38365349867E-01  0.21610851921E+02  0.22312861078E+02  0.51100000000E-03 0.  1.
        -12    1    3    3    0    0  0.22035937501E+01 -0.25642149194E+01  0.68064381064E+00  0.34488113264E+01  0.00000000000E+00 0.  1.
</event>
<event>
 7    1  0.1634068E-009  0.4778727E+02  0.7816164E-02  0.1312668E+00
        -11   -1    0    0    0    0  0.00000000000E+00  0.00000000000E+00  0.45593999997E+02  0.45594000000E+02  0.51100000000E-03 0.  1.
         11   -1    0    0    0    0 -0.00000000000E+00 -0.00000000000E+00 -0.45593999997E+02  0.45594000000E+02  0.51100000000E-03 0. -1.
    9900012    2    1    2    0    0 -0.17922417972E+02 -0.35942429653E+02  0.16448472732E+02  0.47787267626E+02  0.19999984416E+02 0.  0.
         12    1    1    2    0    0  0.17922417972E+02  0.35942429653E+02 -0.16448472732E+02  0.43400732374E+02  0.00000000000E+00 0. -1.
         11    1    3    3    0    0 -0.80641348580E+01 -0.75590937488E+01  0.78935105384E+01  0.13582256005E+02  0.51100000000E-03 0. -1.
        -11    1    3    3    0    0 -0.81641658092E+01 -0.27111502957E+02  0.11514162159E+02  0.30565718156E+02  0.51100000000E-03 0.  1.
         12    1    3    3    0    0 -0.16941173052E+01 -0.12718329475E+01 -0.29591999651E+01  0.36392934648E+01  0.00000000000E+00 0. -1.
</event>
<event>
 7    1  0.1634068E-009  0.4778727E+02  0.7816164E-02  0.1312668E+00
        -11   -1    0    0    0    0  0.00000000000E+00  0.00000000000E+00  0.45593999997E+02  0.45594000000E+02  0.51100000000E-03 0.  1.
         11   -1    0    0    0    0 -0.00000000000E+00 -0.00000000000E+00 -0.45593999997E+02  0.45594000000E+02  0.51100000000E-03 0. -1.
    9900012    2    1    2    0    0  0.30766607320E+02 -0.19623527757E+02  0.23493743641E+02  0.47787274685E+02  0.20000016599E+02 0.  0.
         12    1    1    2    0    0 -0.30766607320E+02  0.19623527757E+02 -0.23493743641E+02  0.43400725315E+02  0.00000000000E+00 0. -1.
         11    1    3    3    0    0  0.11123220930E+02 -0.21890200983E+01  0.38828684884E+01  0.11983093124E+02  0.51100000000E-03 0. -1.
        -11    1    3    3    0    0  0.20351870324E+02 -0.10491838749E+02  0.13894321697E+02  0.26783007331E+02  0.51100000000E-03 0.  1.
         12    1    3    3    0    0 -0.70848393479E+00 -0.69426689093E+01  0.57165534563E+01  0.90211742301E+01  0.00000000000E+00 0. -1.
</event>
<event>
 7    1  0.1634068E-009  0.4778727E+02  0.7816164E-02  0.1312668E+00
        -11   -1    0    0    0    0  0.00000000000E+00  0.00000000000E+00  0.45593999997E+02  0.45594000000E+02  0.51100000000E-03 0.  1.
         11   -1    0    0    0    0 -0.00000000000E+00 -0.00000000000E+00 -0.45593999997E+02  0.45594000000E+02  0.51100000000E-03 0. -1.
    9900012    2    1    2    0    0 -0.18656896483E+00  0.22582930614E+02  0.37062112803E+02  0.47787265346E+02  0.19999974018E+02 0.  0.
         12    1    1    2    0    0  0.18656896483E+00 -0.22582930614E+02 -0.37062112803E+02  0.43400734654E+02  0.00000000000E+00 0. -1.
         11    1    3    3    0    0  0.43214274714E+01  0.19144541359E+02  0.19532279337E+02  0.27689314466E+02  0.51100000000E-03 0. -1.
        -11    1    3    3    0    0 -0.17639552881E+01  0.21942254928E+00 -0.27400716307E+00  0.17985451621E+01  0.51100000000E-03 0.  1.
        -12    1    3    3    0    0 -0.27440411482E+01  0.32189667059E+01  0.17803840629E+02  0.18299405718E+02  0.00000000000E+00 0.  1.
</event>
<event>
 7    1  0.1634068E-009  0.4778728E+02  0.7816164E-02  0.1312668E+00
        -11   -1    0    0    0    0  0.00000000000E+00  0.00000000000E+00  0.45593999997E+02  0.45594000000E+02  0.51100000000E-03 0.  1.
         11   -1    0    0    0    0 -0.00000000000E+00 -0.00000000000E+00 -0.45593999997E+02  0.45594000000E+02  0.51100000000E-03 0. -1.
    9900012    2    1    2    0    0  0.15472617885E+02  0.25655847476E+02  0.31400608659E+02  0.47787278370E+02  0.20000033398E+02 0.  0.
         12    1    1    2    0    0 -0.15472617885E+02 -0.25655847476E+02 -0.31400608659E+02  0.43400721630E+02  0.00000000000E+00 0. -1.
         11    1    3    3    0    0 -0.14649739692E+01  0.12582019527E+02  0.88174257440E+01  0.15433740996E+02  0.51100000000E-03 0. -1.
        -11    1    3    3    0    0  0.10047663465E+02  0.12625456327E+02  0.14209631694E+02  0.21500495848E+02  0.51100000000E-03 0.  1.
         12    1    3    3    0    0  0.68899283888E+01  0.44837162152E+00  0.83735512203E+01  0.10853041525E+02  0.00000000000E+00 0. -1.
</event>
<event>
 7    1  0.1634068E-009  0.4778726E+02  0.7816164E-02  0.1312668E+00
        -11   -1    0    0    0    0  0.00000000000E+00  0.00000000000E+00  0.45593999997E+02  0.45594000000E+02  0.51100000000E-03 0.  1.
         11   -1    0    0    0    0 -0.00000000000E+00 -0.00000000000E+00 -0.45593999997E+02  0.45594000000E+02  0.51100000000E-03 0. -1.
    9900012    2    1    2    0    0  0.33774878866E+01 -0.19658372313E+02  0.38545620214E+02  0.47787264245E+02  0.19999968996E+02 0.  0.
         12    1    1    2    0    0 -0.33774878866E+01  0.19658372313E+02 -0.38545620214E+02  0.43400735755E+02  0.00000000000E+00 0. -1.
         11    1    3    3    0    0  0.68392381882E+01 -0.16605703081E+02  0.16249839489E+02  0.24219451635E+02  0.51100000000E-03 0. -1.
        -11    1    3    3    0    0 -0.28564632272E+01 -0.47514520689E+01  0.13592141982E+02  0.14679305257E+02  0.51100000000E-03 0.  1.
         12    1    3    3    0    0 -0.60528707445E+00  0.16987828374E+01  0.87036387434E+01  0.88885073520E+01  0.00000000000E+00 0. -1.
</event>
<event>
 7    1  0.1634068E-009  0.4778726E+02  0.7816164E-02  0.1312668E+00
        -11   -1    0    0    0    0  0.00000000000E+00  0.00000000000E+00  0.45593999997E+02  0.45594000000E+02  0.51100000000E-03 0.  1.
         11   -1    0    0    0    0 -0.00000000000E+00 -0.00000000000E+00 -0.45593999997E+02  0.45594000000E+02  0.51100000000E-03 0. -1.
    9900012    2    1    2    0    0  0.40324815889E+02 -0.28923828886E+01  0.15785029524E+02  0.47787264841E+02  0.19999971715E+02 0.  0.
         12    1    1    2    0    0 -0.40324815889E+02  0.28923828886E+01 -0.15785029524E+02  0.43400735159E+02  0.00000000000E+00 0. -1.
         11    1    3    3    0    0  0.94291354415E+00  0.12023628448E+01  0.32141318944E+01  0.35588490356E+01  0.51100000000E-03 0. -1.
        -11    1    3    3    0    0  0.26539660807E+02 -0.98099791242E+01  0.94349511389E+01  0.29826290239E+02  0.51100000000E-03 0.  1.
         12    1    3    3    0    0  0.12842241538E+02  0.57152333907E+01  0.31359464908E+01  0.14402125566E+02  0.00000000000E+00 0. -1.
</event>
<event>
 7    1  0.1634068E-009  0.4778727E+02  0.7816164E-02  0.1312668E+00
        -11   -1    0    0    0    0  0.00000000000E+00  0.00000000000E+00  0.45593999997E+02  0.45594000000E+02  0.51100000000E-03 0.  1.
         11   -1    0    0    0    0 -0.00000000000E+00 -0.00000000000E+00 -0.45593999997E+02  0.45594000000E+02  0.51100000000E-03 0. -1.
    9900012    2    1    2    0    0  0.29733153921E+02 -0.10421919016E+02  0.29848732764E+02  0.47787266301E+02  0.19999978371E+02 0.  0.
         12    1    1    2    0    0 -0.29733153921E+02  0.10421919016E+02 -0.29848732764E+02  0.43400733699E+02  0.00000000000E+00 0. -1.
         11    1    3    3    0    0  0.53823558556E+00  0.17586267689E+01 -0.14772496071E+00  0.18450714303E+01  0.51100000000E-03 0. -1.
        -11    1    3    3    0    0  0.22704026304E+02 -0.94567196389E+01  0.30140065237E+02  0.38901489553E+02  0.51100000000E-03 0.  1.
         12    1    3    3    0    0  0.64908920316E+01 -0.27238261461E+01 -0.14360751275E+00  0.70407053168E+01  0.00000000000E+00 0. -1.
</event>
<event>
 7    1  0.1634068E-009  0.4778727E+02  0.7816164E-02  0.1312668E+00
        -11   -1    0    0    0    0  0.00000000000E+00  0.00000000000E+00  0.45593999997E+02  0.45594000000E+02  0.51100000000E-03 0.  1.
         11   -1    0    0    0    0 -0.00000000000E+00 -0.00000000000E+00 -0.45593999997E+02  0.45594000000E+02  0.51100000000E-03 0. -1.
    9900012    2    1    2    0    0 -0.24340675202E+02  0.16216361841E+02  0.32065316593E+02  0.47787269720E+02  0.19999993960E+02 0.  0.
         12    1    1    2    0    0  0.24340675202E+02 -0.16216361841E+02 -0.32065316593E+02  0.43400730280E+02  0.00000000000E+00 0. -1.
         11    1    3    3    0    0  0.31190176112E+01  0.56049980919E+00  0.82396848334E+00  0.32743480599E+01  0.51100000000E-03 0. -1.
        -11    1    3    3    0    0 -0.88426018512E+01  0.55044296981E+01  0.11868776370E+02  0.15791079969E+02  0.51100000000E-03 0.  1.
         12    1    3    3    0    0 -0.18617090962E+02  0.10151432333E+02  0.19372571739E+02  0.28721841691E+02  0.00000000000E+00 0. -1.
</event>
<event>
 7    1  0.1634068E-009  0.4778727E+02  0.7816164E-02  0.1312668E+00
        -11   -1    0    0    0    0  0.00000000000E+00  0.00000000000E+00  0.45593999997E+02  0.45594000000E+02  0.51100000000E-03 0.  1.
         11   -1    0    0    0    0 -0.00000000000E+00 -0.00000000000E+00 -0.45593999997E+02  0.45594000000E+02  0.51100000000E-03 0. -1.
    9900012    2    1    2    0    0 -0.15320627337E+02  0.29697685632E+02  0.27693843265E+02  0.47787272948E+02  0.20000008679E+02 0.  0.
         12    1    1    2    0    0  0.15320627337E+02 -0.29697685632E+02 -0.27693843265E+02  0.43400727052E+02  0.00000000000E+00 0. -1.
         11    1    3    3    0    0 -0.24637572333E+01  0.12786656774E+02  0.14863388092E+02  0.19760794443E+02  0.51100000000E-03 0. -1.
        -11    1    3    3    0    0 -0.10054097348E+02  0.44605046005E+01  0.10190400262E+02  0.14994173286E+02  0.51100000000E-03 0.  1.
         12    1    3    3    0    0 -0.28027727556E+01  0.12450524257E+02  0.26400549105E+01  0.13032305219E+02  0.00000000000E+00 0. -1.
</event>
<event>
 7    1  0.1634068E-009  0.4778728E+02  0.7816164E-02  0.1312668E+00
        -11   -1    0    0    0    0  0.00000000000E+00  0.00000000000E+00  0.45593999997E+02  0.45594000000E+02  0.51100000000E-03 0.  1.
         11   -1    0    0    0    0 -0.00000000000E+00 -0.00000000000E+00 -0.45593999997E+02  0.45594000000E+02  0.51100000000E-03 0. -1.
    9900012    2    1    2    0    0  0.38758670579E+02 -0.19415946315E+02 -0.20997353630E+01  0.47787281055E+02  0.20000045642E+02 0.  0.
         12    1    1    2    0    0 -0.38758670579E+02  0.19415946315E+02  0.20997353630E+01  0.43400718945E+02  0.00000000000E+00 0. -1.
         11    1    3    3    0    0  0.38199198589E+01 -0.37837798401E+01 -0.59148067454E+01  0.79933545338E+01  0.51100000000E-03 0. -1.
        -11    1    3    3    0    0  0.22752833548E+02 -0.87750474031E+01 -0.23761999694E+01  0.24501820707E+02  0.51100000000E-03 0.  1.
         12    1    3    3    0    0  0.12185917172E+02 -0.68571190717E+01  0.61912713518E+01  0.15292105814E+02  0.00000000000E+00 0. -1.
</event>
<event>
 7    1  0.1917383E-009  0.4778727E+02  0.7816164E-02  0.1312668E+00
        -11   -1    0    0    0    0  0.00000000000E+00  0.00000000000E+00  0.45593999997E+02  0.45594000000E+02  0.51100000000E-03 0.  1.
         11   -1    0    0    0    0 -0.00000000000E+00 -0.00000000000E+00 -0.45593999997E+02  0.45594000000E+02  0.51100000000E-03 0. -1.
    9900012    2    1    2    0    0 -0.29070625942E+02  0.16273569894E+02  0.27815335001E+02  0.47787271539E+02  0.20000002253E+02 0.  0.
         12    1    1    2    0    0  0.29070625942E+02 -0.16273569894E+02 -0.27815335001E+02  0.43400728461E+02  0.00000000000E+00 0. -1.
         11    1    3    3    0    0  0.93035761873E+00 -0.16501329673E+01  0.43680573765E+00  0.19440431122E+01  0.51100000000E-03 0. -1.
        -11    1    3    3    0    0 -0.11471388844E+02  0.12281809159E+02  0.86551345330E+01  0.18903622729E+02  0.51100000000E-03 0.  1.
        -12    1    3    3    0    0 -0.18529594717E+02  0.56418937022E+01  0.18723394730E+02  0.26939605698E+02  0.00000000000E+00 0.  1.
</event>
<event>
 7    1  0.1634068E-009  0.4778723E+02  0.7816164E-02  0.1312668E+00
        -11   -1    0    0    0    0  0.00000000000E+00  0.00000000000E+00  0.45593999997E+02  0.45594000000E+02  0.51100000000E-03 0. -1.
         11   -1    0    0    0    0 -0.00000000000E+00 -0.00000000000E+00 -0.45593999997E+02  0.45594000000E+02  0.51100000000E-03 0.  1.
    9900012    2    1    2    0    0  0.45195833193E+01 -0.22196864589E+02 -0.37020256464E+02  0.47787230196E+02  0.19999813754E+02 0.  0.
         12    1    1    2    0    0 -0.45195833193E+01  0.22196864589E+02  0.37020256464E+02  0.43400769804E+02  0.00000000000E+00 0. -1.
         11    1    3    3    0    0  0.50652386146E+01 -0.24124942532E+01 -0.18228871264E+02  0.19072716601E+02  0.51100000000E-03 0. -1.
        -11    1    3    3    0    0 -0.24422816026E+01 -0.10191625243E+02 -0.14840774571E+02  0.18168174225E+02  0.51100000000E-03 0.  1.
        -12    1    3    3    0    0  0.18966263074E+01 -0.95927450926E+01 -0.39506106287E+01  0.10546339370E+02  0.00000000000E+00 0.  1.
</event>
<event>
 7    1  0.1634068E-009  0.4778727E+02  0.7816164E-02  0.1312668E+00
        -11   -1    0    0    0    0  0.00000000000E+00  0.00000000000E+00  0.45593999997E+02  0.45594000000E+02  0.51100000000E-03 0.  1.
         11   -1    0    0    0    0 -0.00000000000E+00 -0.00000000000E+00 -0.45593999997E+02  0.45594000000E+02  0.51100000000E-03 0. -1.
    9900012    2    1    2    0    0 -0.26672783828E+02 -0.13197474896E+02 -0.31591339343E+02  0.47787268874E+02  0.19999990105E+02 0.  0.
         12    1    1    2    0    0  0.26672783828E+02  0.13197474896E+02  0.31591339343E+02  0.43400731126E+02  0.00000000000E+00 0. -1.
         11    1    3    3    0    0 -0.70321901512E+01 -0.24158640957E+01 -0.17434223843E+01  0.76372520923E+01  0.51100000000E-03 0. -1.
        -11    1    3    3    0    0 -0.85360895398E+01 -0.11397008723E+02 -0.10004495701E+02  0.17402487379E+02  0.51100000000E-03 0.  1.
         12    1    3    3    0    0 -0.11104504137E+02  0.61539792276E+00 -0.19843421258E+02  0.22747529403E+02  0.00000000000E+00 0. -1.
</event>
<event>
 7    1  0.1634068E-009  0.4778728E+02  0.7816164E-02  0.1312668E+00
        -11   -1    0    0    0    0  0.00000000000E+00  0.00000000000E+00  0.45593999997E+02  0.45594000000E+02  0.51100000000E-03 0.  1.
         11   -1    0    0    0    0 -0.00000000000E+00 -0.00000000000E+00 -0.45593999997E+02  0.45594000000E+02  0.51100000000E-03 0. -1.
    9900012    2    1    2    0    0 -0.43358304165E+01 -0.23360687824E+02  0.36319439334E+02  0.47787276105E+02  0.20000023075E+02 0.  0.
         12    1    1    2    0    0  0.43358304165E+01  0.23360687824E+02 -0.36319439334E+02  0.43400723895E+02  0.00000000000E+00 0. -1.
         11    1    3    3    0    0 -0.36960050129E+01 -0.13197663974E+01  0.14849012144E+01  0.41960896411E+01  0.51100000000E-03 0. -1.
        -11    1    3    3    0    0 -0.19290050380E+01 -0.10448681291E+02  0.53764938252E+01  0.11908093352E+02  0.51100000000E-03 0.  1.
         12    1    3    3    0    0  0.12891796343E+01 -0.11592240135E+02  0.29458044295E+02  0.31683093112E+02  0.00000000000E+00 0. -1.
</event>
<event>
 7    1  0.1634068E-009  0.4778727E+02  0.7816164E-02  0.1312668E+00
        -11   -1    0    0    0    0  0.00000000000E+00  0.00000000000E+00  0.45593999997E+02  0.45594000000E+02  0.51100000000E-03 0. -1.
         11   -1    0    0    0    0 -0.00000000000E+00 -0.00000000000E+00 -0.45593999997E+02  0.45594000000E+02  0.51100000000E-03 0.  1.
    9900012    2    1    2    0    0  0.30658279514E+02 -0.24798520350E+01 -0.30619330160E+02  0.47787272491E+02  0.20000006594E+02 0.  0.
         12    1    1    2    0    0 -0.30658279514E+02  0.24798520350E+01  0.30619330160E+02  0.43400727509E+02  0.00000000000E+00 0. -1.
         11    1    3    3    0    0  0.37814214194E+01 -0.24020889738E+01 -0.11907351388E+02  0.12722193078E+02  0.51100000000E-03 0. -1.
        -11    1    3    3    0    0  0.68062161172E+01 -0.22090630171E+01  0.53494902055E+00  0.71757026111E+01  0.51100000000E-03 0.  1.
        -12    1    3    3    0    0  0.20070641978E+02  0.21312999558E+01 -0.19246927793E+02  0.27889376801E+02  0.00000000000E+00 0.  1.
</event>
<event>
 7    1  0.2403428E-009  0.4778727E+02  0.7816164E-02  0.1312668E+00
        -11   -1    0    0    0    0  0.00000000000E+00  0.00000000000E+00  0.45593999997E+02  0.45594000000E+02  0.51100000000E-03 0.  1.
         11   -1    0    0    0    0 -0.00000000000E+00 -0.00000000000E+00 -0.45593999997E+02  0.45594000000E+02  0.51100000000E-03 0. -1.
    9900012    2    1    2    0    0  0.16873353940E+01 -0.37576400936E+02  0.21651566139E+02  0.47787270464E+02  0.19999997352E+02 0.  0.
         12    1    1    2    0    0 -0.16873353940E+01  0.37576400936E+02 -0.21651566139E+02  0.43400729536E+02  0.00000000000E+00 0. -1.
         11    1    3    3    0    0 -0.48590622973E+01 -0.27327079611E+01  0.33292577606E+01  0.64932377677E+01  0.51100000000E-03 0. -1.
        -11    1    3    3    0    0  0.26876181625E+01 -0.14253086708E+02  0.18040629762E+01  0.14616032826E+02  0.51100000000E-03 0.  1.
        -12    1    3    3    0    0  0.38587795289E+01 -0.20590606267E+02  0.16518245402E+02  0.26677999870E+02  0.00000000000E+00 0.  1.
</event>
<event>
 7    1  0.1634068E-009  0.4778727E+02  0.7816164E-02  0.1312668E+00
        -11   -1    0    0    0    0  0.00000000000E+00  0.00000000000E+00  0.45593999997E+02  0.45594000000E+02  0.51100000000E-03 0.  1.
         11   -1    0    0    0    0 -0.00000000000E+00 -0.00000000000E+00 -0.45593999997E+02  0.45594000000E+02  0.51100000000E-03 0. -1.
    9900012    2    1    2    0    0 -0.29107277379E+02 -0.25362145020E+01  0.32092943849E+02  0.47787273908E+02  0.20000013057E+02 0.  0.
         12    1    1    2    0    0  0.29107277379E+02  0.25362145020E+01 -0.32092943849E+02  0.43400726092E+02  0.00000000000E+00 0. -1.
         11    1    3    3    0    0 -0.81977023116E+00  0.41476607392E+01  0.16805936803E+01  0.45496712209E+01  0.51100000000E-03 0. -1.
        -11    1    3    3    0    0 -0.15546540782E+02 -0.15501393870E+01  0.22477949727E+02  0.27374369154E+02  0.51100000000E-03 0.  1.
        -12    1    3    3    0    0 -0.12740966366E+02 -0.51337358541E+01  0.79344004413E+01  0.15863233533E+02  0.00000000000E+00 0.  1.
</event>
<event>
 7    1  0.1634068E-009  0.4778727E+02  0.7816164E-02  0.1312668E+00
        -11   -1    0    0    0    0  0.00000000000E+00  0.00000000000E+00  0.45593999997E+02  0.45594000000E+02  0.51100000000E-03 0. -1.
         11   -1    0    0    0    0 -0.00000000000E+00 -0.00000000000E+00 -0.45593999997E+02  0.45594000000E+02  0.51100000000E-03 0.  1.
    9900012    2    1    2    0    0  0.43297892313E+02  0.18929687715E+01 -0.23091769443E+01  0.47787272959E+02  0.20000008729E+02 0.  0.
         12    1    1    2    0    0 -0.43297892313E+02 -0.18929687715E+01  0.23091769443E+01  0.43400727041E+02  0.00000000000E+00 0. -1.
         11    1    3    3    0    0  0.19594502984E+02  0.22937715585E+01  0.58053063606E+01  0.20564715348E+02  0.51100000000E-03 0. -1.
        -11    1    3    3    0    0  0.11903617262E+02 -0.51126760414E+01 -0.19525664808E+01  0.13101453215E+02  0.51100000000E-03 0.  1.
        -12    1    3    3    0    0  0.11799772067E+02  0.47118732544E+01 -0.61619168241E+01  0.14121104396E+02  0.00000000000E+00 0.  1.
</event>
<event>
 7    1  0.1634068E-009  0.4778727E+02  0.7816164E-02  0.1312668E+00
        -11   -1    0    0    0    0  0.00000000000E+00  0.00000000000E+00  0.45593999997E+02  0.45594000000E+02  0.51100000000E-03 0.  1.
         11   -1    0    0    0    0 -0.00000000000E+00 -0.00000000000E+00 -0.45593999997E+02  0.45594000000E+02  0.51100000000E-03 0. -1.
    9900012    2    1    2    0    0 -0.39926881023E+02 -0.16841749418E+02  0.24130733464E+01  0.47787271036E+02  0.19999999960E+02 0.  0.
         12    1    1    2    0    0  0.39926881023E+02  0.16841749418E+02 -0.24130733464E+01  0.43400728964E+02  0.00000000000E+00 0. -1.
         11    1    3    3    0    0 -0.15962557852E+02  0.20693278776E+01 -0.34911871577E+01  0.16470390374E+02  0.51100000000E-03 0. -1.
        -11    1    3    3    0    0 -0.16838602852E+02 -0.11435275491E+02  0.49316512238E+01  0.20943382143E+02  0.51100000000E-03 0.  1.
        -12    1    3    3    0    0 -0.71257203188E+01 -0.74758018053E+01  0.97260928033E+00  0.10373498518E+02  0.00000000000E+00 0.  1.
</event>
<event>
 7    1  0.1634068E-009  0.4778727E+02  0.7816164E-02  0.1312668E+00
        -11   -1    0    0    0    0  0.00000000000E+00  0.00000000000E+00  0.45593999997E+02  0.45594000000E+02  0.51100000000E-03 0. -1.
         11   -1    0    0    0    0 -0.00000000000E+00 -0.00000000000E+00 -0.45593999997E+02  0.45594000000E+02  0.51100000000E-03 0.  1.
    9900012    2    1    2    0    0 -0.24472237473E+02  0.31233904586E+02 -0.17583401711E+02  0.47787271684E+02  0.20000002916E+02 0.  0.
         12    1    1    2    0    0  0.24472237473E+02 -0.31233904586E+02  0.17583401711E+02  0.43400728316E+02  0.00000000000E+00 0. -1.
         11    1    3    3    0    0  0.23368014003E+01  0.48899918435E+01  0.13145531632E+01  0.55768011704E+01  0.51100000000E-03 0. -1.
        -11    1    3    3    0    0 -0.10504583189E+02  0.82054878059E+01 -0.74153856131E+01  0.15253335443E+02  0.51100000000E-03 0.  1.
        -12    1    3    3    0    0 -0.16304455685E+02  0.18138424937E+02 -0.11482569261E+02  0.26957135070E+02  0.00000000000E+00 0.  1.
</event>
<event>
 7    1  0.1634068E-009  0.4778726E+02  0.7816164E-02  0.1312668E+00
        -11   -1    0    0    0    0  0.00000000000E+00  0.00000000000E+00  0.45593999997E+02  0.45594000000E+02  0.51100000000E-03 0. -1.
         11   -1    0    0    0    0 -0.00000000000E+00 -0.00000000000E+00 -0.45593999997E+02  0.45594000000E+02  0.51100000000E-03 0.  1.
    9900012    2    1    2    0    0 -0.24814114949E+02  0.30470920362E+02  0.18422992137E+02  0.47787263512E+02  0.19999965657E+02 0.  0.
         12    1    1    2    0    0  0.24814114949E+02 -0.30470920362E+02 -0.18422992137E+02  0.43400736488E+02  0.00000000000E+00 0. -1.
         11    1    3    3    0    0 -0.49242311707E+01 -0.16881998969E+01  0.23167583572E+01  0.56978452999E+01  0.51100000000E-03 0. -1.
        -11    1    3    3    0    0 -0.52499450243E+01  0.48502758667E+01 -0.43867658122E-01  0.71476585938E+01  0.51100000000E-03 0.  1.
        -12    1    3    3    0    0 -0.14639938754E+02  0.27308844393E+02  0.16150101438E+02  0.34941759618E+02  0.00000000000E+00 0.  1.
</event>
<event>
 7    1  0.1634068E-009  0.4778727E+02  0.7816164E-02  0.1312668E+00
        -11   -1    0    0    0    0  0.00000000000E+00  0.00000000000E+00  0.45593999997E+02  0.45594000000E+02  0.51100000000E-03 0.  1.
         11   -1    0    0    0    0 -0.00000000000E+00 -0.00000000000E+00 -0.45593999997E+02  0.45594000000E+02  0.51100000000E-03 0. -1.
    9900012    2    1    2    0    0 -0.36049496906E+02  0.24112110474E+02  0.16320027378E+01  0.47787268075E+02  0.19999986461E+02 0.  0.
         12    1    1    2    0    0  0.36049496906E+02 -0.24112110474E+02 -0.16320027378E+01  0.43400731925E+02  0.00000000000E+00 0. -1.
         11    1    3    3    0    0 -0.16762675985E+01  0.83275321161E+01 -0.19070193953E+01  0.87059972113E+01  0.51100000000E-03 0. -1.
        -11    1    3    3    0    0 -0.19410632262E+02  0.13820086767E+02  0.19824361078E+01  0.23910196491E+02  0.51100000000E-03 0.  1.
         12    1    3    3    0    0 -0.14962597046E+02  0.19644915909E+01  0.15565860253E+01  0.15171074373E+02  0.00000000000E+00 0. -1.
</event>
<event>
 7    1  0.1634068E-009  0.4778727E+02  0.7816164E-02  0.1312668E+00
        -11   -1    0    0    0    0  0.00000000000E+00  0.00000000000E+00  0.45593999997E+02  0.45594000000E+02  0.51100000000E-03 0. -1.
         11   -1    0    0    0    0 -0.00000000000E+00 -0.00000000000E+00 -0.45593999997E+02  0.45594000000E+02  0.51100000000E-03 0.  1.
    9900012    2    1    2    0    0 -0.33218379327E+01  0.14658858407E+02 -0.40714941486E+02  0.47787271927E+02  0.20000004023E+02 0.  0.
         12    1    1    2    0    0  0.33218379327E+01 -0.14658858407E+02  0.40714941486E+02  0.43400728073E+02  0.00000000000E+00 0. -1.
         11    1    3    3    0    0 -0.49250662079E+01  0.88041756558E+01 -0.20496445004E+02  0.22844562684E+02  0.51100000000E-03 0. -1.
        -11    1    3    3    0    0 -0.17746584986E+01 -0.34930107863E+01 -0.97480896697E+01  0.10505988274E+02  0.51100000000E-03 0.  1.
         12    1    3    3    0    0  0.33778867738E+01  0.93476935377E+01 -0.10470406812E+02  0.14436720969E+02  0.00000000000E+00 0. -1.
</event>
<event>
 7    1  0.1634068E-009  0.4778727E+02  0.7816164E-02  0.1312668E+00
        -11   -1    0    0    0    0  0.00000000000E+00  0.00000000000E+00  0.45593999997E+02  0.45594000000E+02  0.51100000000E-03 0. -1.
         11   -1    0    0    0    0 -0.00000000000E+00 -0.00000000000E+00 -0.45593999997E+02  0.45594000000E+02  0.51100000000E-03 0.  1.
    9900012    2    1    2    0    0  0.13344178906E+02 -0.30965146772E+02 -0.27326101823E+02  0.47787271134E+02  0.20000000406E+02 0.  0.
         12    1    1    2    0    0 -0.13344178906E+02  0.30965146772E+02  0.27326101823E+02  0.43400728866E+02  0.00000000000E+00 0. -1.
         11    1    3    3    0    0 -0.13140617699E+01  0.25228202002E-01 -0.28418525822E+01  0.31310575143E+01  0.51100000000E-03 0.  1.
        -11    1    3    3    0    0  0.90014265147E+01 -0.29996368918E+02 -0.22565730000E+02  0.38600777172E+02  0.51100000000E-03 0. -1.
         12    1    3    3    0    0  0.56568141609E+01 -0.99400605592E+00 -0.19185192412E+01  0.60554364475E+01  0.00000000000E+00 0. -1.
</event>
<event>
 7    1  0.1634068E-009  0.4778727E+02  0.7816164E-02  0.1312668E+00
        -11   -1    0    0    0    0  0.00000000000E+00  0.00000000000E+00  0.45593999997E+02  0.45594000000E+02  0.51100000000E-03 0.  1.
         11   -1    0    0    0    0 -0.00000000000E+00 -0.00000000000E+00 -0.45593999997E+02  0.45594000000E+02  0.51100000000E-03 0. -1.
    9900012    2    1    2    0    0 -0.71809063902E+01  0.19857382522E+02  0.37917572090E+02  0.47787270393E+02  0.19999997029E+02 0.  0.
         12    1    1    2    0    0  0.71809063902E+01 -0.19857382522E+02 -0.37917572090E+02  0.43400729607E+02  0.00000000000E+00 0. -1.
         11    1    3    3    0    0 -0.25719862080E+01 -0.91666704037E+00  0.13516378781E+00  0.27337997417E+01  0.51100000000E-03 0. -1.
        -11    1    3    3    0    0 -0.63033408102E+01  0.21076746478E+02  0.30721969489E+02  0.37786250900E+02  0.51100000000E-03 0.  1.
         12    1    3    3    0    0  0.16944206280E+01 -0.30269691552E+00  0.70604388130E+01  0.72672197517E+01  0.00000000000E+00 0. -1.
</event>
<event>
 7    1  0.1634068E-009  0.4778727E+02  0.7816164E-02  0.1312668E+00
        -11   -1    0    0    0    0  0.00000000000E+00  0.00000000000E+00  0.45593999997E+02  0.45594000000E+02  0.51100000000E-03 0.  1.
         11   -1    0    0    0    0 -0.00000000000E+00 -0.00000000000E+00 -0.45593999997E+02  0.45594000000E+02  0.51100000000E-03 0. -1.
    9900012    2    1    2    0    0 -0.12983471769E+02 -0.24415483317E+02  0.33450517948E+02  0.47787268258E+02  0.19999987296E+02 0.  0.
         12    1    1    2    0    0  0.12983471769E+02  0.24415483317E+02 -0.33450517948E+02  0.43400731742E+02  0.00000000000E+00 0. -1.
         11    1    3    3    0    0  0.46819538348E+01 -0.37181472707E+01  0.42394697596E+01  0.73292847497E+01  0.51100000000E-03 0. -1.
        -11    1    3    3    0    0 -0.77198337744E+01 -0.44526780238E+01  0.84096746316E+01  0.12253358836E+02  0.51100000000E-03 0.  1.
        -12    1    3    3    0    0 -0.99455918292E+01 -0.16244658022E+02  0.20801373557E+02  0.28204624673E+02  0.00000000000E+00 0.  1.
</event>
<event>
 7    1  0.1634068E-009  0.4778727E+02  0.7816164E-02  0.1312668E+00
        -11   -1    0    0    0    0  0.00000000000E+00  0.00000000000E+00  0.45593999997E+02  0.45594000000E+02  0.51100000000E-03 0.  1.
         11   -1    0    0    0    0 -0.00000000000E+00 -0.00000000000E+00 -0.45593999997E+02  0.45594000000E+02  0.51100000000E-03 0. -1.
    9900012    2    1    2    0    0  0.16111619916E+02  0.25757915928E+02  0.30993038455E+02  0.47787274638E+02  0.20000016385E+02 0.  0.
         12    1    1    2    0    0 -0.16111619916E+02 -0.25757915928E+02 -0.30993038455E+02  0.43400725362E+02  0.00000000000E+00 0. -1.
         11    1    3    3    0    0  0.33308474500E+01  0.10963027517E+02  0.20517241920E+02  0.23499781559E+02  0.51100000000E-03 0.  1.
        -11    1    3    3    0    0  0.92973181287E+01  0.14560273517E+02  0.11372624981E+02  0.20682801756E+02  0.51100000000E-03 0. -1.
         12    1    3    3    0    0  0.34834543375E+01  0.23461489404E+00 -0.89682844581E+00  0.36046913226E+01  0.00000000000E+00 0. -1.
</event>
<event>
 7    1  0.1634068E-009  0.4778727E+02  0.7816164E-02  0.1312668E+00
        -11   -1    0    0    0    0  0.00000000000E+00  0.00000000000E+00  0.45593999997E+02  0.45594000000E+02  0.51100000000E-03 0.  1.
         11   -1    0    0    0    0 -0.00000000000E+00 -0.00000000000E+00 -0.45593999997E+02  0.45594000000E+02  0.51100000000E-03 0. -1.
    9900012    2    1    2    0    0  0.30427265209E+02  0.53417968667E+01  0.30483931760E+02  0.47787270082E+02  0.19999995611E+02 0.  0.
         12    1    1    2    0    0 -0.30427265209E+02 -0.53417968667E+01 -0.30483931760E+02  0.43400729918E+02  0.00000000000E+00 0. -1.
         11    1    3    3    0    0  0.11543917326E+02  0.91360307438E+01  0.13454017057E+02  0.19943411449E+02  0.51100000000E-03 0. -1.
        -11    1    3    3    0    0  0.17836814949E+02 -0.17804547525E+01  0.17974981400E+02  0.25385467166E+02  0.51100000000E-03 0.  1.
        -12    1    3    3    0    0  0.10465329338E+01 -0.20137791245E+01 -0.94506669671E+00  0.24583914670E+01  0.00000000000E+00 0.  1.
</event>
<event>
 7    1  0.1634068E-009  0.4778727E+02  0.7816164E-02  0.1312668E+00
        -11   -1    0    0    0    0  0.00000000000E+00  0.00000000000E+00  0.45593999997E+02  0.45594000000E+02  0.51100000000E-03 0.  1.
         11   -1    0    0    0    0 -0.00000000000E+00 -0.00000000000E+00 -0.45593999997E+02  0.45594000000E+02  0.51100000000E-03 0. -1.
    9900012    2    1    2    0    0  0.38236255099E+02  0.20427092752E+02 -0.20846957813E+01  0.47787270987E+02  0.19999999740E+02 0.  0.
         12    1    1    2    0    0 -0.38236255099E+02 -0.20427092752E+02  0.20846957813E+01  0.43400729013E+02  0.00000000000E+00 0. -1.
         11    1    3    3    0    0  0.25070282032E+01 -0.22545455915E+01  0.12308306934E+01  0.35893050432E+01  0.51100000000E-03 0. -1.
        -11    1    3    3    0    0  0.17837666714E+02  0.16779813979E+02 -0.58764792821E+01  0.25184866884E+02  0.51100000000E-03 0.  1.
        -12    1    3    3    0    0  0.17891560182E+02  0.59018243646E+01  0.25609528074E+01  0.19013099060E+02  0.00000000000E+00 0.  1.
</event>
<event>
 7    1  0.1634068E-009  0.4778727E+02  0.7816164E-02  0.1312668E+00
        -11   -1    0    0    0    0  0.00000000000E+00  0.00000000000E+00  0.45593999997E+02  0.45594000000E+02  0.51100000000E-03 0.  1.
         11   -1    0    0    0    0 -0.00000000000E+00 -0.00000000000E+00 -0.45593999997E+02  0.45594000000E+02  0.51100000000E-03 0. -1.
    9900012    2    1    2    0    0 -0.17600919298E+02  0.14103228913E+02  0.37080049599E+02  0.47787268391E+02  0.19999987903E+02 0.  0.
         12    1    1    2    0    0  0.17600919298E+02 -0.14103228913E+02 -0.37080049599E+02  0.43400731609E+02  0.00000000000E+00 0. -1.
         11    1    3    3    0    0 -0.52435865211E+01 -0.94803027564E+00  0.14751718193E+02  0.15684615103E+02  0.51100000000E-03 0. -1.
        -11    1    3    3    0    0 -0.19392444346E+01  0.20131654194E+01  0.12340450842E+02  0.12653072008E+02  0.51100000000E-03 0.  1.
         12    1    3    3    0    0 -0.10418088343E+02  0.13038093770E+02  0.99878805635E+01  0.19449581281E+02  0.00000000000E+00 0. -1.
</event>
<event>
 7    1  0.1634068E-009  0.4778724E+02  0.7816164E-02  0.1312668E+00
        -11   -1    0    0    0    0  0.00000000000E+00  0.00000000000E+00  0.45593999997E+02  0.45594000000E+02  0.51100000000E-03 0.  1.
         11   -1    0    0    0    0 -0.00000000000E+00 -0.00000000000E+00 -0.45593999997E+02  0.45594000000E+02  0.51100000000E-03 0. -1.
    9900012    2    1    2    0    0 -0.16936763351E+02  0.39759861922E+02  0.39906244467E+01  0.47787243598E+02  0.19999874858E+02 0.  0.
         12    1    1    2    0    0  0.16936763351E+02 -0.39759861922E+02 -0.39906244467E+01  0.43400756402E+02  0.00000000000E+00 0. -1.
         11    1    3    3    0    0  0.33796547080E+01  0.19441733450E+01 -0.20865330627E+01  0.44221597012E+01  0.51100000000E-03 0. -1.
        -11    1    3    3    0    0 -0.72963969716E+01  0.12702898439E+02  0.21773080868E+01  0.14810189340E+02  0.51100000000E-03 0.  1.
         12    1    3    3    0    0 -0.13020021087E+02  0.25112790137E+02  0.38998494226E+01  0.28554894556E+02  0.00000000000E+00 0. -1.
</event>
<event>
 7    1  0.1634068E-009  0.4778727E+02  0.7816164E-02  0.1312668E+00
        -11   -1    0    0    0    0  0.00000000000E+00  0.00000000000E+00  0.45593999997E+02  0.45594000000E+02  0.51100000000E-03 0.  1.
         11   -1    0    0    0    0 -0.00000000000E+00 -0.00000000000E+00 -0.45593999997E+02  0.45594000000E+02  0.51100000000E-03 0. -1.
    9900012    2    1    2    0    0 -0.29891756860E+02 -0.26294720959E+01  0.31355891304E+02  0.47787272227E+02  0.20000005393E+02 0.  0.
         12    1    1    2    0    0  0.29891756860E+02  0.26294720959E+01 -0.31355891304E+02  0.43400727773E+02  0.00000000000E+00 0. -1.
         11    1    3    3    0    0 -0.16134461509E+02 -0.72683901675E+00  0.21367399101E+02  0.26784601691E+02  0.51100000000E-03 0.  1.
        -11    1    3    3    0    0  0.20826067845E+00  0.33563881132E+01  0.73065510367E+00  0.34413036509E+01  0.51100000000E-03 0. -1.
         12    1    3    3    0    0 -0.13965556030E+02 -0.52590211923E+01  0.92578370999E+01  0.17561366886E+02  0.00000000000E+00 0. -1.
</event>
<event>
 7    1  0.1634068E-009  0.4778728E+02  0.7816164E-02  0.1312668E+00
        -11   -1    0    0    0    0  0.00000000000E+00  0.00000000000E+00  0.45593999997E+02  0.45594000000E+02  0.51100000000E-03 0. -1.
         11   -1    0    0    0    0 -0.00000000000E+00 -0.00000000000E+00 -0.45593999997E+02  0.45594000000E+02  0.51100000000E-03 0.  1.
    9900012    2    1    2    0    0 -0.42660081383E+02  0.73058961836E+01 -0.32193394509E+01  0.47787276398E+02  0.20000024409E+02 0.  0.
         12    1    1    2    0    0  0.42660081383E+02 -0.73058961836E+01  0.32193394509E+01  0.43400723602E+02  0.00000000000E+00 0. -1.
         11    1    3    3    0    0 -0.28717012111E+01 -0.16140683952E+01  0.22083834459E+01  0.39659604556E+01  0.51100000000E-03 0. -1.
        -11    1    3    3    0    0 -0.30996964255E+02  0.94014459222E+01  0.17836651821E+01  0.32440413687E+02  0.51100000000E-03 0.  1.
         12    1    3    3    0    0 -0.87914159171E+01 -0.48148134335E+00 -0.72113880789E+01  0.11380902255E+02  0.00000000000E+00 0. -1.
</event>
<event>
 7    1  0.1634068E-009  0.4778727E+02  0.7816164E-02  0.1312668E+00
        -11   -1    0    0    0    0  0.00000000000E+00  0.00000000000E+00  0.45593999997E+02  0.45594000000E+02  0.51100000000E-03 0. -1.
         11   -1    0    0    0    0 -0.00000000000E+00 -0.00000000000E+00 -0.45593999997E+02  0.45594000000E+02  0.51100000000E-03 0.  1.
    9900012    2    1    2    0    0  0.21602066252E+02  0.25704457641E+02 -0.27500084568E+02  0.47787273506E+02  0.20000011222E+02 0.  0.
         12    1    1    2    0    0 -0.21602066252E+02 -0.25704457641E+02  0.27500084568E+02  0.43400726494E+02  0.00000000000E+00 0. -1.
         11    1    3    3    0    0  0.10563474103E+02  0.97113940625E+01 -0.48328002170E+01  0.15141139916E+02  0.51100000000E-03 0. -1.
        -11    1    3    3    0    0  0.12430759939E+02  0.11896547396E+02 -0.11567819023E+02  0.20733211758E+02  0.51100000000E-03 0.  1.
         12    1    3    3    0    0 -0.13921677900E+01  0.40965161829E+01 -0.11099465328E+02  0.11912921831E+02  0.00000000000E+00 0. -1.
</event>
<event>
 7    1  0.1634068E-009  0.4778727E+02  0.7816164E-02  0.1312668E+00
        -11   -1    0    0    0    0  0.00000000000E+00  0.00000000000E+00  0.45593999997E+02  0.45594000000E+02  0.51100000000E-03 0.  1.
         11   -1    0    0    0    0 -0.00000000000E+00 -0.00000000000E+00 -0.45593999997E+02  0.45594000000E+02  0.51100000000E-03 0. -1.
    9900012    2    1    2    0    0 -0.13371294542E+02  0.93510477852E+01  0.40216783835E+02  0.47787270577E+02  0.19999997868E+02 0.  0.
         12    1    1    2    0    0  0.13371294542E+02 -0.93510477852E+01 -0.40216783835E+02  0.43400729423E+02  0.00000000000E+00 0. -1.
         11    1    3    3    0    0 -0.24469913732E+01  0.65631347895E+01  0.14590537263E+02  0.16184754646E+02  0.51100000000E-03 0. -1.
        -11    1    3    3    0    0 -0.90751709775E+00 -0.35410976020E-01  0.19510234349E+02  0.19531361597E+02  0.51100000000E-03 0.  1.
         12    1    3    3    0    0 -0.10016786071E+02  0.28233239718E+01  0.61160122223E+01  0.12071154334E+02  0.00000000000E+00 0. -1.
</event>
<event>
 7    1  0.1634068E-009  0.4778727E+02  0.7816164E-02  0.1312668E+00
        -11   -1    0    0    0    0  0.00000000000E+00  0.00000000000E+00  0.45593999997E+02  0.45594000000E+02  0.51100000000E-03 0. -1.
         11   -1    0    0    0    0 -0.00000000000E+00 -0.00000000000E+00 -0.45593999997E+02  0.45594000000E+02  0.51100000000E-03 0.  1.
    9900012    2    1    2    0    0  0.26705469265E+02  0.16394976869E+02 -0.30027416690E+02  0.47787272953E+02  0.20000008700E+02 0.  0.
         12    1    1    2    0    0 -0.26705469265E+02 -0.16394976869E+02  0.30027416690E+02  0.43400727047E+02  0.00000000000E+00 0. -1.
         11    1    3    3    0    0  0.99137728106E+01  0.99471530667E+01 -0.84187942561E+01  0.16373907367E+02  0.51100000000E-03 0. -1.
        -11    1    3    3    0    0  0.60160040930E+01  0.88997257066E+01 -0.15280630405E+02  0.18678733596E+02  0.51100000000E-03 0.  1.
         12    1    3    3    0    0  0.10775692361E+02 -0.24519019040E+01 -0.63279920282E+01  0.12734631990E+02  0.00000000000E+00 0. -1.
</event>
<event>
 7    1  0.1634068E-009  0.4778727E+02  0.7816164E-02  0.1312668E+00
        -11   -1    0    0    0    0  0.00000000000E+00  0.00000000000E+00  0.45593999997E+02  0.45594000000E+02  0.51100000000E-03 0. -1.
         11   -1    0    0    0    0 -0.00000000000E+00 -0.00000000000E+00 -0.45593999997E+02  0.45594000000E+02  0.51100000000E-03 0.  1.
    9900012    2    1    2    0    0  0.26369406897E+02  0.33447020130E+02 -0.83411314749E+01  0.47787271320E+02  0.20000001256E+02 0.  0.
         12    1    1    2    0    0 -0.26369406897E+02 -0.33447020130E+02  0.83411314749E+01  0.43400728680E+02  0.00000000000E+00 0. -1.
         11    1    3    3    0    0  0.13740017755E+02  0.18807478890E+02 -0.31826301040E+01  0.23508264180E+02  0.51100000000E-03 0. -1.
        -11    1    3    3    0    0  0.52080419010E+00  0.69552184608E+01  0.32066595560E+01  0.76765204755E+01  0.51100000000E-03 0.  1.
         12    1    3    3    0    0  0.12108584952E+02  0.76843227784E+01 -0.83651609269E+01  0.16602486664E+02  0.00000000000E+00 0. -1.
</event>
<event>
 7    1  0.1634068E-009  0.4778727E+02  0.7816164E-02  0.1312668E+00
        -11   -1    0    0    0    0  0.00000000000E+00  0.00000000000E+00  0.45593999997E+02  0.45594000000E+02  0.51100000000E-03 0.  1.
         11   -1    0    0    0    0 -0.00000000000E+00 -0.00000000000E+00 -0.45593999997E+02  0.45594000000E+02  0.51100000000E-03 0. -1.
    9900012    2    1    2    0    0  0.40603863390E+02  0.11343374637E+02  0.10309111651E+02  0.47787266672E+02  0.19999980064E+02 0.  0.
         12    1    1    2    0    0 -0.40603863390E+02 -0.11343374637E+02 -0.10309111651E+02  0.43400733328E+02  0.00000000000E+00 0. -1.
         11    1    3    3    0    0  0.17418810452E+02  0.48539301573E+01  0.11778158426E+02  0.21580097583E+02  0.51100000000E-03 0. -1.
        -11    1    3    3    0    0  0.59948953719E+01 -0.27090059297E+01 -0.13222530183E+01  0.67101294289E+01  0.51100000000E-03 0.  1.
         12    1    3    3    0    0  0.17190157566E+02  0.91984504098E+01 -0.14679375650E+00  0.19497039660E+02  0.00000000000E+00 0. -1.
</event>
<event>
 7    1  0.1634068E-009  0.4778728E+02  0.7816164E-02  0.1312668E+00
        -11   -1    0    0    0    0  0.00000000000E+00  0.00000000000E+00  0.45593999997E+02  0.45594000000E+02  0.51100000000E-03 0.  1.
         11   -1    0    0    0    0 -0.00000000000E+00 -0.00000000000E+00 -0.45593999997E+02  0.45594000000E+02  0.51100000000E-03 0. -1.
    9900012    2    1    2    0    0 -0.28424948388E+02  0.12729882857E+01  0.32772307614E+02  0.47787281845E+02  0.20000049243E+02 0.  0.
         12    1    1    2    0    0  0.28424948388E+02 -0.12729882857E+01 -0.32772307614E+02  0.43400718155E+02  0.00000000000E+00 0. -1.
         11    1    3    3    0    0 -0.83185550878E+00  0.35731110950E+01 -0.10986768947E+00  0.36703102941E+01  0.51100000000E-03 0. -1.
        -11    1    3    3    0    0 -0.62397906469E+01  0.33917953112E+01  0.10387588441E+02  0.12583372228E+02  0.51100000000E-03 0.  1.
        -12    1    3    3    0    0 -0.21353302232E+02 -0.56919181204E+01  0.22494586862E+02  0.31533599322E+02  0.00000000000E+00 0.  1.
</event>
<event>
 7    1  0.1634068E-009  0.4778727E+02  0.7816164E-02  0.1312668E+00
        -11   -1    0    0    0    0  0.00000000000E+00  0.00000000000E+00  0.45593999997E+02  0.45594000000E+02  0.51100000000E-03 0. -1.
         11   -1    0    0    0    0 -0.00000000000E+00 -0.00000000000E+00 -0.45593999997E+02  0.45594000000E+02  0.51100000000E-03 0.  1.
    9900012    2    1    2    0    0 -0.34810145203E+02  0.25558431690E+01  0.25794276710E+02  0.47787271270E+02  0.20000001027E+02 0.  0.
         12    1    1    2    0    0  0.34810145203E+02 -0.25558431690E+01 -0.25794276710E+02  0.43400728730E+02  0.00000000000E+00 0. -1.
         11    1    3    3    0    0 -0.14800969604E+01 -0.49762290271E+00  0.83443272865E+01  0.84891762669E+01  0.51100000000E-03 0. -1.
        -11    1    3    3    0    0 -0.63187555804E+01 -0.32986334980E+01  0.58568697202E+01  0.92255394541E+01  0.51100000000E-03 0.  1.
        -12    1    3    3    0    0 -0.27011292662E+02  0.63520995697E+01  0.11593079703E+02  0.30072555549E+02  0.00000000000E+00 0.  1.
</event>
<event>
 7    1  0.1634068E-009  0.4778727E+02  0.7816164E-02  0.1312668E+00
        -11   -1    0    0    0    0  0.00000000000E+00  0.00000000000E+00  0.45593999997E+02  0.45594000000E+02  0.51100000000E-03 0.  1.
         11   -1    0    0    0    0 -0.00000000000E+00 -0.00000000000E+00 -0.45593999997E+02  0.45594000000E+02  0.51100000000E-03 0. -1.
    9900012    2    1    2    0    0 -0.14474059526E+02  0.31812480156E+02  0.25731129159E+02  0.47787270736E+02  0.19999998594E+02 0.  0.
         12    1    1    2    0    0  0.14474059526E+02 -0.31812480156E+02 -0.25731129159E+02  0.43400729264E+02  0.00000000000E+00 0. -1.
         11    1    3    3    0    0 -0.53853705656E+01  0.51713162703E+01  0.13844960476E+02  0.15729833405E+02  0.51100000000E-03 0.  1.
        -11    1    3    3    0    0 -0.65465738147E+01  0.19552167773E+02  0.13100947945E+02  0.24429075518E+02  0.51100000000E-03 0. -1.
         12    1    3    3    0    0 -0.25421151461E+01  0.70889961129E+01 -0.12147792624E+01  0.76283618137E+01  0.00000000000E+00 0. -1.
</event>
<event>
 7    1  0.1634068E-009  0.4778727E+02  0.7816164E-02  0.1312668E+00
        -11   -1    0    0    0    0  0.00000000000E+00  0.00000000000E+00  0.45593999997E+02  0.45594000000E+02  0.51100000000E-03 0. -1.
         11   -1    0    0    0    0 -0.00000000000E+00 -0.00000000000E+00 -0.45593999997E+02  0.45594000000E+02  0.51100000000E-03 0.  1.
    9900012    2    1    2    0    0 -0.29334540747E+02 -0.11703365239E+02 -0.29768094942E+02  0.47787268264E+02  0.19999987322E+02 0.  0.
         12    1    1    2    0    0  0.29334540747E+02  0.11703365239E+02  0.29768094942E+02  0.43400731736E+02  0.00000000000E+00 0. -1.
         11    1    3    3    0    0 -0.13996562808E+02 -0.69963467804E+01 -0.79779724826E+01  0.17564187539E+02  0.51100000000E-03 0. -1.
        -11    1    3    3    0    0 -0.12472714253E+02 -0.57410442738E+01 -0.23127515761E+02  0.26896285538E+02  0.51100000000E-03 0.  1.
         12    1    3    3    0    0 -0.28652636859E+01  0.10340258157E+01  0.13373933011E+01  0.33267951874E+01  0.00000000000E+00 0. -1.
</event>
<event>
 7    1  0.1634068E-009  0.4778728E+02  0.7816164E-02  0.1312668E+00
        -11   -1    0    0    0    0  0.00000000000E+00  0.00000000000E+00  0.45593999997E+02  0.45594000000E+02  0.51100000000E-03 0.  1.
         11   -1    0    0    0    0 -0.00000000000E+00 -0.00000000000E+00 -0.45593999997E+02  0.45594000000E+02  0.51100000000E-03 0. -1.
    9900012    2    1    2    0    0 -0.16332764666E+01  0.10320916297E+02  0.42124031364E+02  0.47787275080E+02  0.20000018399E+02 0.  0.
         12    1    1    2    0    0  0.16332764666E+01 -0.10320916297E+02 -0.42124031364E+02  0.43400724920E+02  0.00000000000E+00 0. -1.
         11    1    3    3    0    0 -0.25741853517E+01 -0.23058787905E+01  0.30989325867E+01  0.46418628437E+01  0.51100000000E-03 0. -1.
        -11    1    3    3    0    0  0.29244165231E+01  0.43952520387E+01  0.31110277149E+02  0.31555028078E+02  0.51100000000E-03 0.  1.
         12    1    3    3    0    0 -0.19835076381E+01  0.82315430486E+01  0.79148216286E+01  0.11590384158E+02  0.00000000000E+00 0. -1.
</event>
<event>
 7    1  0.1634068E-009  0.4778727E+02  0.7816164E-02  0.1312668E+00
        -11   -1    0    0    0    0  0.00000000000E+00  0.00000000000E+00  0.45593999997E+02  0.45594000000E+02  0.51100000000E-03 0.  1.
         11   -1    0    0    0    0 -0.00000000000E+00 -0.00000000000E+00 -0.45593999997E+02  0.45594000000E+02  0.51100000000E-03 0. -1.
    9900012    2    1    2    0    0 -0.13939152203E-01  0.25434543846E+02  0.35166844016E+02  0.47787272667E+02  0.20000007399E+02 0.  0.
         12    1    1    2    0    0  0.13939152203E-01 -0.25434543846E+02 -0.35166844016E+02  0.43400727333E+02  0.00000000000E+00 0. -1.
         11    1    3    3    0    0 -0.64986807108E+01  0.14415575648E+02  0.13210953148E+02  0.20605119645E+02  0.51100000000E-03 0. -1.
        -11    1    3    3    0    0  0.28249709394E+01  0.11704279358E+02  0.18672541299E+02  0.22217885023E+02  0.51100000000E-03 0.  1.
        -12    1    3    3    0    0  0.36597706192E+01 -0.68531115976E+00  0.32833495694E+01  0.49642679990E+01  0.00000000000E+00 0.  1.
</event>
<event>
 7    1  0.1634068E-009  0.4778727E+02  0.7816164E-02  0.1312668E+00
        -11   -1    0    0    0    0  0.00000000000E+00  0.00000000000E+00  0.45593999997E+02  0.45594000000E+02  0.51100000000E-03 0.  1.
         11   -1    0    0    0    0 -0.00000000000E+00 -0.00000000000E+00 -0.45593999997E+02  0.45594000000E+02  0.51100000000E-03 0. -1.
    9900012    2    1    2    0    0 -0.36612000055E+02  0.10692417559E+02  0.20708867862E+02  0.47787267870E+02  0.19999985526E+02 0.  0.
         12    1    1    2    0    0  0.36612000055E+02 -0.10692417559E+02 -0.20708867862E+02  0.43400732130E+02  0.00000000000E+00 0. -1.
         11    1    3    3    0    0 -0.65224371980E-01  0.34144450738E+01 -0.33054653940E+00  0.34310276385E+01  0.51100000000E-03 0. -1.
        -11    1    3    3    0    0 -0.15373906217E+02 -0.15597476415E+01  0.45721994568E+01  0.16115049277E+02  0.51100000000E-03 0.  1.
         12    1    3    3    0    0 -0.21172869466E+02  0.88377201266E+01  0.16467214944E+02  0.28241190954E+02  0.00000000000E+00 0. -1.
</event>
<event>
 7    1  0.1634068E-009  0.4778727E+02  0.7816164E-02  0.1312668E+00
        -11   -1    0    0    0    0  0.00000000000E+00  0.00000000000E+00  0.45593999997E+02  0.45594000000E+02  0.51100000000E-03 0.  1.
         11   -1    0    0    0    0 -0.00000000000E+00 -0.00000000000E+00 -0.45593999997E+02  0.45594000000E+02  0.51100000000E-03 0. -1.
    9900012    2    1    2    0    0  0.78963408206E+00 -0.35328738893E+02 -0.25196822936E+02  0.47787271898E+02  0.20000003892E+02 0.  0.
         12    1    1    2    0    0 -0.78963408206E+00  0.35328738893E+02  0.25196822936E+02  0.43400728102E+02  0.00000000000E+00 0. -1.
         11    1    3    3    0    0  0.81755137317E+01 -0.99379421391E+01 -0.36702079162E+01  0.13381784079E+02  0.51100000000E-03 0. -1.
        -11    1    3    3    0    0 -0.11500274440E+01 -0.11876865092E+02 -0.10296267256E+02  0.15760571284E+02  0.51100000000E-03 0.  1.
         12    1    3    3    0    0 -0.62358522056E+01 -0.13513931662E+02 -0.11230347764E+02  0.18644916535E+02  0.00000000000E+00 0. -1.
</event>
<event>
 7    1  0.1634068E-009  0.4778728E+02  0.7816164E-02  0.1312668E+00
        -11   -1    0    0    0    0  0.00000000000E+00  0.00000000000E+00  0.45593999997E+02  0.45594000000E+02  0.51100000000E-03 0.  1.
         11   -1    0    0    0    0 -0.00000000000E+00 -0.00000000000E+00 -0.45593999997E+02  0.45594000000E+02  0.51100000000E-03 0. -1.
    9900012    2    1    2    0    0  0.42940608468E+02 -0.10609268015E+01  0.62129937106E+01  0.47787277516E+02  0.20000029508E+02 0.  0.
         12    1    1    2    0    0 -0.42940608468E+02  0.10609268015E+01 -0.62129937106E+01  0.43400722484E+02  0.00000000000E+00 0. -1.
         11    1    3    3    0    0  0.10843304344E+02  0.83443554606E+01  0.29981975235E+01  0.14006952052E+02  0.51100000000E-03 0. -1.
        -11    1    3    3    0    0  0.64267674389E+01 -0.32630118564E+01  0.12167973544E+01  0.73096636141E+01  0.51100000000E-03 0.  1.
         12    1    3    3    0    0  0.25670536685E+02 -0.61422704056E+01  0.19979988327E+01  0.26470661850E+02  0.00000000000E+00 0. -1.
</event>
<event>
 7    1  0.1634068E-009  0.4778727E+02  0.7816164E-02  0.1312668E+00
        -11   -1    0    0    0    0  0.00000000000E+00  0.00000000000E+00  0.45593999997E+02  0.45594000000E+02  0.51100000000E-03 0. -1.
         11   -1    0    0    0    0 -0.00000000000E+00 -0.00000000000E+00 -0.45593999997E+02  0.45594000000E+02  0.51100000000E-03 0.  1.
    9900012    2    1    2    0    0 -0.41016784151E+02  0.25318914799E+01 -0.13958365997E+02  0.47787273763E+02  0.20000012395E+02 0.  0.
         12    1    1    2    0    0  0.41016784151E+02 -0.25318914799E+01  0.13958365997E+02  0.43400726237E+02  0.00000000000E+00 0. -1.
         11    1    3    3    0    0 -0.14153677671E+02  0.58516553698E+01 -0.11181633146E+01  0.15356391231E+02  0.51100000000E-03 0. -1.
        -11    1    3    3    0    0 -0.37178374828E+01  0.44914887979E+00 -0.74961832421E+01  0.83795473461E+01  0.51100000000E-03 0.  1.
         12    1    3    3    0    0 -0.23145268997E+02 -0.37689127697E+01 -0.53440194407E+01  0.24051335186E+02  0.00000000000E+00 0. -1.
</event>
<event>
 7    1  0.1634068E-009  0.4778727E+02  0.7816164E-02  0.1312668E+00
        -11   -1    0    0    0    0  0.00000000000E+00  0.00000000000E+00  0.45593999997E+02  0.45594000000E+02  0.51100000000E-03 0.  1.
         11   -1    0    0    0    0 -0.00000000000E+00 -0.00000000000E+00 -0.45593999997E+02  0.45594000000E+02  0.51100000000E-03 0. -1.
    9900012    2    1    2    0    0  0.85324377293E+01  0.31108559305E+02  0.29035813380E+02  0.47787269427E+02  0.19999992627E+02 0.  0.
         12    1    1    2    0    0 -0.85324377293E+01 -0.31108559305E+02 -0.29035813380E+02  0.43400730573E+02  0.00000000000E+00 0. -1.
         11    1    3    3    0    0 -0.20050104180E+00  0.13847297246E+02  0.55196694819E+01  0.14908205564E+02  0.51100000000E-03 0. -1.
        -11    1    3    3    0    0  0.52440962287E+01  0.34873663443E+00  0.29593321657E+01  0.60315677584E+01  0.51100000000E-03 0.  1.
         12    1    3    3    0    0  0.34888425423E+01  0.16912525425E+02  0.20556811732E+02  0.26847496105E+02  0.00000000000E+00 0. -1.
</event>
<event>
 7    1  0.1907125E-009  0.4778727E+02  0.7816164E-02  0.1312668E+00
        -11   -1    0    0    0    0  0.00000000000E+00  0.00000000000E+00  0.45593999997E+02  0.45594000000E+02  0.51100000000E-03 0. -1.
         11   -1    0    0    0    0 -0.00000000000E+00 -0.00000000000E+00 -0.45593999997E+02  0.45594000000E+02  0.51100000000E-03 0.  1.
    9900012    2    1    2    0    0 -0.22535681124E+02 -0.19475796947E+01 -0.37040157946E+02  0.47787270847E+02  0.19999999099E+02 0.  0.
         12    1    1    2    0    0  0.22535681124E+02  0.19475796947E+01  0.37040157946E+02  0.43400729153E+02  0.00000000000E+00 0. -1.
         11    1    3    3    0    0  0.27130741397E+01  0.24140201063E+01 -0.19511755816E+01  0.41225417854E+01  0.51100000000E-03 0. -1.
        -11    1    3    3    0    0 -0.92264486254E+01  0.46984058640E+00 -0.13187211173E+02  0.16101262161E+02  0.51100000000E-03 0.  1.
         12    1    3    3    0    0 -0.16022306638E+02 -0.48314403875E+01 -0.21901771191E+02  0.27563466900E+02  0.00000000000E+00 0. -1.
</event>
<event>
 7    1  0.1634068E-009  0.4778728E+02  0.7816164E-02  0.1312668E+00
        -11   -1    0    0    0    0  0.00000000000E+00  0.00000000000E+00  0.45593999997E+02  0.45594000000E+02  0.51100000000E-03 0.  1.
         11   -1    0    0    0    0 -0.00000000000E+00 -0.00000000000E+00 -0.45593999997E+02  0.45594000000E+02  0.51100000000E-03 0. -1.
    9900012    2    1    2    0    0  0.30375004877E+02 -0.16881745932E+01  0.30953704645E+02  0.47787277817E+02  0.20000030880E+02 0.  0.
         12    1    1    2    0    0 -0.30375004877E+02  0.16881745932E+01 -0.30953704645E+02  0.43400722183E+02  0.00000000000E+00 0. -1.
         11    1    3    3    0    0  0.65993004255E+01  0.29116032204E+00 -0.30264182461E+00  0.66126494520E+01  0.51100000000E-03 0. -1.
        -11    1    3    3    0    0  0.12212970619E+02 -0.55617705058E+01  0.22632150903E+02  0.26311674163E+02  0.51100000000E-03 0.  1.
        -12    1    3    3    0    0  0.11562733833E+02  0.35824355905E+01  0.86241955661E+01  0.14862954202E+02  0.00000000000E+00 0.  1.
</event>
<event>
 7    1  0.2271273E-009  0.4778726E+02  0.7816164E-02  0.1312668E+00
        -11   -1    0    0    0    0  0.00000000000E+00  0.00000000000E+00  0.45593999997E+02  0.45594000000E+02  0.51100000000E-03 0.  1.
         11   -1    0    0    0    0 -0.00000000000E+00 -0.00000000000E+00 -0.45593999997E+02  0.45594000000E+02  0.51100000000E-03 0. -1.
    9900012    2    1    2    0    0 -0.24832024969E+01 -0.35874761741E+02  0.24299368560E+02  0.47787261101E+02  0.19999954663E+02 0.  0.
         12    1    1    2    0    0  0.24832024969E+01  0.35874761741E+02 -0.24299368560E+02  0.43400738899E+02  0.00000000000E+00 0. -1.
         11    1    3    3    0    0 -0.22591878099E+01  0.41487502523E+00 -0.11741955126E+01  0.25796872310E+01  0.51100000000E-03 0. -1.
        -11    1    3    3    0    0 -0.38212126797E+00 -0.12678399833E+02  0.14207554903E+02  0.19045798895E+02  0.51100000000E-03 0.  1.
        -12    1    3    3    0    0  0.15810658097E+00 -0.23611236933E+02  0.11266009169E+02  0.26161774974E+02  0.00000000000E+00 0.  1.
</event>
<event>
 7    1  0.1634068E-009  0.4778726E+02  0.7816164E-02  0.1312668E+00
        -11   -1    0    0    0    0  0.00000000000E+00  0.00000000000E+00  0.45593999997E+02  0.45594000000E+02  0.51100000000E-03 0.  1.
         11   -1    0    0    0    0 -0.00000000000E+00 -0.00000000000E+00 -0.45593999997E+02  0.45594000000E+02  0.51100000000E-03 0. -1.
    9900012    2    1    2    0    0 -0.25658293386E+02 -0.16123104046E+02  0.31069622390E+02  0.47787263382E+02  0.19999965062E+02 0.  0.
         12    1    1    2    0    0  0.25658293386E+02  0.16123104046E+02 -0.31069622390E+02  0.43400736618E+02  0.00000000000E+00 0. -1.
         11    1    3    3    0    0 -0.74972727270E+01 -0.48726415945E+01  0.18410074274E+02  0.20466620861E+02  0.51100000000E-03 0. -1.
        -11    1    3    3    0    0 -0.15292793494E+02 -0.37293191323E+01  0.10708419736E+02  0.19038056822E+02  0.51100000000E-03 0.  1.
         12    1    3    3    0    0 -0.28682271654E+01 -0.75211433192E+01  0.19511283794E+01  0.82825856985E+01  0.00000000000E+00 0. -1.
</event>
<event>
 7    1  0.1634068E-009  0.4778728E+02  0.7816164E-02  0.1312668E+00
        -11   -1    0    0    0    0  0.00000000000E+00  0.00000000000E+00  0.45593999997E+02  0.45594000000E+02  0.51100000000E-03 0.  1.
         11   -1    0    0    0    0 -0.00000000000E+00 -0.00000000000E+00 -0.45593999997E+02  0.45594000000E+02  0.51100000000E-03 0. -1.
    9900012    2    1    2    0    0  0.31327710946E+02 -0.29389321698E+02  0.62020156453E+01  0.47787277644E+02  0.20000030088E+02 0.  0.
         12    1    1    2    0    0 -0.31327710946E+02  0.29389321698E+02 -0.62020156453E+01  0.43400722356E+02  0.00000000000E+00 0. -1.
         11    1    3    3    0    0  0.22243882195E+02 -0.23815685982E+02  0.39192252955E+00  0.32590348226E+02  0.51100000000E-03 0.  1.
        -11    1    3    3    0    0 -0.17326568639E+01 -0.14077889812E+01  0.26624925384E-02  0.22324822449E+01  0.51100000000E-03 0. -1.
        -12    1    3    3    0    0  0.10816485614E+02 -0.41658467347E+01  0.58074306233E+01  0.12964447173E+02  0.00000000000E+00 0.  1.
</event>
<event>
 7    1  0.1634068E-009  0.4778727E+02  0.7816164E-02  0.1312668E+00
        -11   -1    0    0    0    0  0.00000000000E+00  0.00000000000E+00  0.45593999997E+02  0.45594000000E+02  0.51100000000E-03 0. -1.
         11   -1    0    0    0    0 -0.00000000000E+00 -0.00000000000E+00 -0.45593999997E+02  0.45594000000E+02  0.51100000000E-03 0.  1.
    9900012    2    1    2    0    0 -0.21241604134E+02  0.35267437847E+02  0.13734091215E+02  0.47787272126E+02  0.20000004930E+02 0.  0.
         12    1    1    2    0    0  0.21241604134E+02 -0.35267437847E+02 -0.13734091215E+02  0.43400727874E+02  0.00000000000E+00 0. -1.
         11    1    3    3    0    0 -0.10875849394E+02  0.13646397845E+02  0.18743185116E+01  0.17550536867E+02  0.51100000000E-03 0. -1.
        -11    1    3    3    0    0 -0.37235375027E+01  0.20728631369E+02  0.97727499961E+01  0.23217397200E+02  0.51100000000E-03 0.  1.
         12    1    3    3    0    0 -0.66422172382E+01  0.89240863291E+00  0.20870227075E+01  0.70193380592E+01  0.00000000000E+00 0. -1.
</event>
<event>
 7    1  0.1634068E-009  0.4778728E+02  0.7816164E-02  0.1312668E+00
        -11   -1    0    0    0    0  0.00000000000E+00  0.00000000000E+00  0.45593999997E+02  0.45594000000E+02  0.51100000000E-03 0.  1.
         11   -1    0    0    0    0 -0.00000000000E+00 -0.00000000000E+00 -0.45593999997E+02  0.45594000000E+02  0.51100000000E-03 0. -1.
    9900012    2    1    2    0    0 -0.40622049702E+02 -0.51556612438E+01  0.14383688331E+02  0.47787282784E+02  0.20000053525E+02 0.  0.
         12    1    1    2    0    0  0.40622049702E+02  0.51556612438E+01 -0.14383688331E+02  0.43400717216E+02  0.00000000000E+00 0. -1.
         11    1    3    3    0    0 -0.14021287473E+02 -0.67817450537E+01  0.56995819489E+00  0.15585679998E+02  0.51100000000E-03 0.  1.
        -11    1    3    3    0    0 -0.24350155382E+02 -0.24065995749E+01  0.11512293672E+02  0.27041721367E+02  0.51100000000E-03 0. -1.
         12    1    3    3    0    0 -0.22506068463E+01  0.40326833848E+01  0.23014364646E+01  0.51598814191E+01  0.00000000000E+00 0. -1.
</event>
<event>
 7    1  0.1634068E-009  0.4778728E+02  0.7816164E-02  0.1312668E+00
        -11   -1    0    0    0    0  0.00000000000E+00  0.00000000000E+00  0.45593999997E+02  0.45594000000E+02  0.51100000000E-03 0. -1.
         11   -1    0    0    0    0 -0.00000000000E+00 -0.00000000000E+00 -0.45593999997E+02  0.45594000000E+02  0.51100000000E-03 0.  1.
    9900012    2    1    2    0    0 -0.41219336018E+02 -0.90888382745E+01  0.10098587145E+02  0.47787284508E+02  0.20000061384E+02 0.  0.
         12    1    1    2    0    0  0.41219336018E+02  0.90888382745E+01 -0.10098587145E+02  0.43400715492E+02  0.00000000000E+00 0. -1.
         11    1    3    3    0    0 -0.22804539323E+02 -0.64495336511E+01  0.14185079550E+02  0.27619919988E+02  0.51100000000E-03 0. -1.
        -11    1    3    3    0    0 -0.98895879794E+01  0.17291334294E+01 -0.93525280884E+00  0.10083082410E+02  0.51100000000E-03 0.  1.
        -12    1    3    3    0    0 -0.85252087156E+01 -0.43684380527E+01 -0.31512395961E+01  0.10084282109E+02  0.00000000000E+00 0.  1.
</event>
<event>
 7    1  0.1634068E-009  0.4778727E+02  0.7816164E-02  0.1312668E+00
        -11   -1    0    0    0    0  0.00000000000E+00  0.00000000000E+00  0.45593999997E+02  0.45594000000E+02  0.51100000000E-03 0. -1.
         11   -1    0    0    0    0 -0.00000000000E+00 -0.00000000000E+00 -0.45593999997E+02  0.45594000000E+02  0.51100000000E-03 0.  1.
    9900012    2    1    2    0    0  0.11127728945E+02 -0.17443529637E+01 -0.41913655849E+02  0.47787266534E+02  0.19999979437E+02 0.  0.
         12    1    1    2    0    0 -0.11127728945E+02  0.17443529637E+01  0.41913655849E+02  0.43400733466E+02  0.00000000000E+00 0. -1.
         11    1    3    3    0    0  0.18545217782E+01  0.38322520452E+00 -0.22280657605E+02  0.22360988712E+02  0.51100000000E-03 0. -1.
        -11    1    3    3    0    0  0.11701948373E+02  0.13566962600E+01 -0.12937372249E+02  0.17497194673E+02  0.51100000000E-03 0.  1.
         12    1    3    3    0    0 -0.24287412056E+01 -0.34842744282E+01 -0.66956259943E+01  0.79290831494E+01  0.00000000000E+00 0. -1.
</event>
<event>
 7    1  0.1634068E-009  0.4778727E+02  0.7816164E-02  0.1312668E+00
        -11   -1    0    0    0    0  0.00000000000E+00  0.00000000000E+00  0.45593999997E+02  0.45594000000E+02  0.51100000000E-03 0.  1.
         11   -1    0    0    0    0 -0.00000000000E+00 -0.00000000000E+00 -0.45593999997E+02  0.45594000000E+02  0.51100000000E-03 0. -1.
    9900012    2    1    2    0    0  0.30807526654E+02 -0.49616502299E+01  0.30164578197E+02  0.47787269023E+02  0.19999990783E+02 0.  0.
         12    1    1    2    0    0 -0.30807526654E+02  0.49616502299E+01 -0.30164578197E+02  0.43400730977E+02  0.00000000000E+00 0. -1.
         11    1    3    3    0    0  0.13401077672E+02 -0.68354358184E+01  0.10455205850E+02  0.18320027162E+02  0.51100000000E-03 0. -1.
        -11    1    3    3    0    0  0.16261938752E+02 -0.25427788150E+01  0.18469301182E+02  0.24739269643E+02  0.51100000000E-03 0.  1.
         12    1    3    3    0    0  0.11445102305E+01  0.44165644034E+01  0.12400711657E+01  0.47279722179E+01  0.00000000000E+00 0. -1.
</event>
<event>
 7    1  0.1634068E-009  0.4778725E+02  0.7816164E-02  0.1312668E+00
        -11   -1    0    0    0    0  0.00000000000E+00  0.00000000000E+00  0.45593999997E+02  0.45594000000E+02  0.51100000000E-03 0. -1.
         11   -1    0    0    0    0 -0.00000000000E+00 -0.00000000000E+00 -0.45593999997E+02  0.45594000000E+02  0.51100000000E-03 0.  1.
    9900012    2    1    2    0    0  0.35308855381E+02 -0.77721117070E+01 -0.24010497284E+02  0.47787251521E+02  0.19999910985E+02 0.  0.
         12    1    1    2    0    0 -0.35308855381E+02  0.77721117070E+01  0.24010497284E+02  0.43400748479E+02  0.00000000000E+00 0. -1.
         11    1    3    3    0    0  0.23471282325E+02 -0.77675534071E+00 -0.10671260211E+02  0.25794965354E+02  0.51100000000E-03 0. -1.
        -11    1    3    3    0    0  0.95063828790E+01 -0.75693751437E+01 -0.47056630315E+01  0.13031117386E+02  0.51100000000E-03 0.  1.
         12    1    3    3    0    0  0.23311901773E+01  0.57401877748E+00 -0.86335740412E+01  0.89611687811E+01  0.00000000000E+00 0. -1.
</event>
<event>
 7    1  0.1634068E-009  0.4778727E+02  0.7816164E-02  0.1312668E+00
        -11   -1    0    0    0    0  0.00000000000E+00  0.00000000000E+00  0.45593999997E+02  0.45594000000E+02  0.51100000000E-03 0. -1.
         11   -1    0    0    0    0 -0.00000000000E+00 -0.00000000000E+00 -0.45593999997E+02  0.45594000000E+02  0.51100000000E-03 0.  1.
    9900012    2    1    2    0    0 -0.33907890033E+02 -0.33882107927E+01 -0.26877472124E+02  0.47787268593E+02  0.19999988822E+02 0.  0.
         12    1    1    2    0    0  0.33907890033E+02  0.33882107927E+01  0.26877472124E+02  0.43400731407E+02  0.00000000000E+00 0. -1.
         11    1    3    3    0    0 -0.28033428744E+01 -0.37218240912E+01 -0.86341009894E+01  0.98111368349E+01  0.51100000000E-03 0. -1.
        -11    1    3    3    0    0 -0.24461968099E+02 -0.32794713770E+01 -0.17745522583E+02  0.30398131321E+02  0.51100000000E-03 0.  1.
         12    1    3    3    0    0 -0.66425790601E+01  0.36130846755E+01 -0.49784855153E+00  0.75780004369E+01  0.00000000000E+00 0. -1.
</event>
<event>
 7    1  0.1634068E-009  0.4778727E+02  0.7816164E-02  0.1312668E+00
        -11   -1    0    0    0    0  0.00000000000E+00  0.00000000000E+00  0.45593999997E+02  0.45594000000E+02  0.51100000000E-03 0.  1.
         11   -1    0    0    0    0 -0.00000000000E+00 -0.00000000000E+00 -0.45593999997E+02  0.45594000000E+02  0.51100000000E-03 0. -1.
    9900012    2    1    2    0    0  0.22412332768E+02  0.10000776597E+02  0.35795187609E+02  0.47787266728E+02  0.19999980319E+02 0.  0.
         12    1    1    2    0    0 -0.22412332768E+02 -0.10000776597E+02 -0.35795187609E+02  0.43400733272E+02  0.00000000000E+00 0. -1.
         11    1    3    3    0    0  0.71108669043E+01  0.49834457963E+01  0.12313396494E+01  0.87701401202E+01  0.51100000000E-03 0. -1.
        -11    1    3    3    0    0  0.11887771270E+02 -0.10588730317E+00  0.21266411195E+02  0.24363714070E+02  0.51100000000E-03 0.  1.
        -12    1    3    3    0    0  0.34136945937E+01  0.51232181034E+01  0.13297436764E+02  0.14653412538E+02  0.00000000000E+00 0.  1.
</event>
<event>
 7    1  0.1634068E-009  0.4778733E+02  0.7816164E-02  0.1312668E+00
        -11   -1    0    0    0    0  0.00000000000E+00  0.00000000000E+00  0.45593999997E+02  0.45594000000E+02  0.51100000000E-03 0.  1.
         11   -1    0    0    0    0 -0.00000000000E+00 -0.00000000000E+00 -0.45593999997E+02  0.45594000000E+02  0.51100000000E-03 0. -1.
    9900012    2    1    2    0    0 -0.16385502890E+02 -0.39541704158E+02  0.71824295131E+01  0.47787327581E+02  0.20000257772E+02 0.  0.
         12    1    1    2    0    0  0.16385502890E+02  0.39541704158E+02 -0.71824295131E+01  0.43400672419E+02  0.00000000000E+00 0. -1.
         11    1    3    3    0    0  0.97053382474E+00 -0.12600500256E+02  0.14883983451E+01  0.12725166895E+02  0.51100000000E-03 0. -1.
        -11    1    3    3    0    0 -0.68976100867E+01 -0.80438928067E+01 -0.40807719050E+01  0.11354908014E+02  0.51100000000E-03 0.  1.
         12    1    3    3    0    0 -0.10458426628E+02 -0.18897311096E+02  0.97748030731E+01  0.23707252673E+02  0.00000000000E+00 0. -1.
</event>
<event>
 7    1  0.1634068E-009  0.4778727E+02  0.7816164E-02  0.1312668E+00
        -11   -1    0    0    0    0  0.00000000000E+00  0.00000000000E+00  0.45593999997E+02  0.45594000000E+02  0.51100000000E-03 0. -1.
         11   -1    0    0    0    0 -0.00000000000E+00 -0.00000000000E+00 -0.45593999997E+02  0.45594000000E+02  0.51100000000E-03 0.  1.
    9900012    2    1    2    0    0 -0.17657630978E+02  0.68812773013E+01 -0.39044583157E+02  0.47787269788E+02  0.19999994272E+02 0.  0.
         12    1    1    2    0    0  0.17657630978E+02 -0.68812773013E+01  0.39044583157E+02  0.43400730212E+02  0.00000000000E+00 0. -1.
         11    1    3    3    0    0 -0.14994571557E+02  0.30280456566E+01 -0.39636084960E+02  0.42485591298E+02  0.51100000000E-03 0. -1.
        -11    1    3    3    0    0 -0.59396021670E+00  0.47730625342E+00 -0.79992829358E+00  0.11047603969E+01  0.51100000000E-03 0.  1.
         12    1    3    3    0    0 -0.20690992045E+01  0.33759253913E+01  0.13914300974E+01  0.41969180933E+01  0.00000000000E+00 0. -1.
</event>
<event>
 7    1  0.1634068E-009  0.4778722E+02  0.7816164E-02  0.1312668E+00
        -11   -1    0    0    0    0  0.00000000000E+00  0.00000000000E+00  0.45593999997E+02  0.45594000000E+02  0.51100000000E-03 0.  1.
         11   -1    0    0    0    0 -0.00000000000E+00 -0.00000000000E+00 -0.45593999997E+02  0.45594000000E+02  0.51100000000E-03 0. -1.
    9900012    2    1    2    0    0 -0.30235203445E+02 -0.16445047139E+02  0.26439000307E+02  0.47787218441E+02  0.19999760158E+02 0.  0.
         12    1    1    2    0    0  0.30235203445E+02  0.16445047139E+02 -0.26439000307E+02  0.43400781559E+02  0.00000000000E+00 0. -1.
         11    1    3    3    0    0  0.78966874974E+00 -0.96486682793E-01 -0.12773606030E+01  0.15048377938E+01  0.51100000000E-03 0. -1.
        -11    1    3    3    0    0 -0.18499663709E+02 -0.49069645992E+01  0.94216485672E+01  0.21332681991E+02  0.51100000000E-03 0.  1.
         12    1    3    3    0    0 -0.12525208485E+02 -0.11441595857E+02  0.18294712342E+02  0.24949698656E+02  0.00000000000E+00 0. -1.
</event>
<event>
 7    1  0.1634068E-009  0.4778727E+02  0.7816164E-02  0.1312668E+00
        -11   -1    0    0    0    0  0.00000000000E+00  0.00000000000E+00  0.45593999997E+02  0.45594000000E+02  0.51100000000E-03 0.  1.
         11   -1    0    0    0    0 -0.00000000000E+00 -0.00000000000E+00 -0.45593999997E+02  0.45594000000E+02  0.51100000000E-03 0. -1.
    9900012    2    1    2    0    0 -0.35685246660E+02  0.89865205380E+00  0.24685601435E+02  0.47787270480E+02  0.19999997425E+02 0.  0.
         12    1    1    2    0    0  0.35685246660E+02 -0.89865205380E+00 -0.24685601435E+02  0.43400729520E+02  0.00000000000E+00 0. -1.
         11    1    3    3    0    0 -0.19621923486E+02 -0.44205811242E+00  0.17881699758E+02  0.26551280255E+02  0.51100000000E-03 0.  1.
        -11    1    3    3    0    0 -0.17582605627E+02  0.22637910028E+01  0.44347211555E+01  0.18274012212E+02  0.51100000000E-03 0. -1.
         12    1    3    3    0    0  0.15192824535E+01 -0.92308083657E+00  0.23691805215E+01  0.29619780127E+01  0.00000000000E+00 0. -1.
</event>
<event>
 7    1  0.1634068E-009  0.4778725E+02  0.7816164E-02  0.1312668E+00
        -11   -1    0    0    0    0  0.00000000000E+00  0.00000000000E+00  0.45593999997E+02  0.45594000000E+02  0.51100000000E-03 0.  1.
         11   -1    0    0    0    0 -0.00000000000E+00 -0.00000000000E+00 -0.45593999997E+02  0.45594000000E+02  0.51100000000E-03 0. -1.
    9900012    2    1    2    0    0 -0.24795815139E+02  0.34129635386E+02  0.10196109855E+02  0.47787249821E+02  0.19999903231E+02 0.  0.
         12    1    1    2    0    0  0.24795815139E+02 -0.34129635386E+02 -0.10196109855E+02  0.43400750179E+02  0.00000000000E+00 0. -1.
         11    1    3    3    0    0 -0.49136355422E+01  0.58441464895E+01 -0.21620911979E+01  0.79355214725E+01  0.51100000000E-03 0. -1.
        -11    1    3    3    0    0 -0.29187892745E+01  0.65627517471E+01  0.98301111138E+01  0.12174568826E+02  0.51100000000E-03 0.  1.
        -12    1    3    3    0    0 -0.16963390322E+02  0.21722737149E+02  0.25280899387E+01  0.27677159522E+02  0.00000000000E+00 0.  1.
</event>
<event>
 7    1  0.1634068E-009  0.4778727E+02  0.7816164E-02  0.1312668E+00
        -11   -1    0    0    0    0  0.00000000000E+00  0.00000000000E+00  0.45593999997E+02  0.45594000000E+02  0.51100000000E-03 0.  1.
         11   -1    0    0    0    0 -0.00000000000E+00 -0.00000000000E+00 -0.45593999997E+02  0.45594000000E+02  0.51100000000E-03 0. -1.
    9900012    2    1    2    0    0 -0.22219278839E+02  0.12255874332E+02  0.35209661605E+02  0.47787273300E+02  0.20000010285E+02 0.  0.
         12    1    1    2    0    0  0.22219278839E+02 -0.12255874332E+02 -0.35209661605E+02  0.43400726700E+02  0.00000000000E+00 0. -1.
         11    1    3    3    0    0 -0.10485645840E+02  0.65233315395E+00  0.92830328809E+01  0.14019593680E+02  0.51100000000E-03 0. -1.
        -11    1    3    3    0    0 -0.55425705749E+01  0.47674556593E+01  0.22934546231E+02  0.24071604290E+02  0.51100000000E-03 0.  1.
        -12    1    3    3    0    0 -0.61910624238E+01  0.68360855186E+01  0.29920824931E+01  0.96960753297E+01  0.00000000000E+00 0.  1.
</event>
<event>
 7    1  0.1634068E-009  0.4778727E+02  0.7816164E-02  0.1312668E+00
        -11   -1    0    0    0    0  0.00000000000E+00  0.00000000000E+00  0.45593999997E+02  0.45594000000E+02  0.51100000000E-03 0. -1.
         11   -1    0    0    0    0 -0.00000000000E+00 -0.00000000000E+00 -0.45593999997E+02  0.45594000000E+02  0.51100000000E-03 0.  1.
    9900012    2    1    2    0    0 -0.24748281091E+02 -0.34371808340E+02 -0.94723215552E+01  0.47787268426E+02  0.19999988061E+02 0.  0.
         12    1    1    2    0    0  0.24748281091E+02  0.34371808340E+02  0.94723215552E+01  0.43400731574E+02  0.00000000000E+00 0. -1.
         11    1    3    3    0    0 -0.46980458953E+00 -0.40126203934E-01 -0.31721064984E+01  0.32069590523E+01  0.51100000000E-03 0. -1.
        -11    1    3    3    0    0 -0.12427454467E+02 -0.10788542276E+02  0.28047827134E+01  0.16694342614E+02  0.51100000000E-03 0.  1.
        -12    1    3    3    0    0 -0.11851022034E+02 -0.23543139860E+02 -0.91049977701E+01  0.27885966760E+02  0.00000000000E+00 0.  1.
</event>
<event>
 7    1  0.1634068E-009  0.4778727E+02  0.7816164E-02  0.1312668E+00
        -11   -1    0    0    0    0  0.00000000000E+00  0.00000000000E+00  0.45593999997E+02  0.45594000000E+02  0.51100000000E-03 0.  1.
         11   -1    0    0    0    0 -0.00000000000E+00 -0.00000000000E+00 -0.45593999997E+02  0.45594000000E+02  0.51100000000E-03 0. -1.
    9900012    2    1    2    0    0 -0.13655255198E+02 -0.36044342805E+02 -0.19949003423E+02  0.47787269817E+02  0.19999994406E+02 0.  0.
         12    1    1    2    0    0  0.13655255198E+02  0.36044342805E+02  0.19949003423E+02  0.43400730183E+02  0.00000000000E+00 0. -1.
         11    1    3    3    0    0  0.84144532513E+00 -0.13044998658E+00  0.14034680511E+01  0.16415755437E+01  0.51100000000E-03 0. -1.
        -11    1    3    3    0    0 -0.80871900070E+01 -0.30794696488E+02 -0.12858465541E+02  0.34337386481E+02  0.51100000000E-03 0.  1.
         12    1    3    3    0    0 -0.64095105165E+01 -0.51191963307E+01 -0.84940059336E+01  0.11808307793E+02  0.00000000000E+00 0. -1.
</event>
<event>
 7    1  0.1634068E-009  0.4778727E+02  0.7816164E-02  0.1312668E+00
        -11   -1    0    0    0    0  0.00000000000E+00  0.00000000000E+00  0.45593999997E+02  0.45594000000E+02  0.51100000000E-03 0.  1.
         11   -1    0    0    0    0 -0.00000000000E+00 -0.00000000000E+00 -0.45593999997E+02  0.45594000000E+02  0.51100000000E-03 0. -1.
    9900012    2    1    2    0    0  0.16000026585E+02  0.29745355544E+02  0.27255023263E+02  0.47787270510E+02  0.19999997565E+02 0.  0.
         12    1    1    2    0    0 -0.16000026585E+02 -0.29745355544E+02 -0.27255023263E+02  0.43400729490E+02  0.00000000000E+00 0. -1.
         11    1    3    3    0    0 -0.35028161225E+00  0.46470607705E+01  0.78166319124E-01  0.46608991887E+01  0.51100000000E-03 0. -1.
        -11    1    3    3    0    0  0.34251093646E+01  0.11470551192E+02  0.26966850888E+01  0.12270983234E+02  0.51100000000E-03 0.  1.
        -12    1    3    3    0    0  0.12925198833E+02  0.13627743582E+02  0.24480171855E+02  0.30855388088E+02  0.00000000000E+00 0.  1.
</event>
<event>
 7    1  0.1634068E-009  0.4778726E+02  0.7816164E-02  0.1312668E+00
        -11   -1    0    0    0    0  0.00000000000E+00  0.00000000000E+00  0.45593999997E+02  0.45594000000E+02  0.51100000000E-03 0.  1.
         11   -1    0    0    0    0 -0.00000000000E+00 -0.00000000000E+00 -0.45593999997E+02  0.45594000000E+02  0.51100000000E-03 0. -1.
    9900012    2    1    2    0    0  0.10860365236E+02 -0.15858566476E+02  0.38912495834E+02  0.47787262728E+02  0.19999962081E+02 0.  0.
         12    1    1    2    0    0 -0.10860365236E+02  0.15858566476E+02 -0.38912495834E+02  0.43400737272E+02  0.00000000000E+00 0. -1.
         11    1    3    3    0    0  0.95779523684E+01 -0.17767010833E+02  0.22422214882E+02  0.30168850923E+02  0.51100000000E-03 0.  1.
        -11    1    3    3    0    0  0.34707600436E+01  0.60108342825E+00  0.77288466484E+01  0.84936769037E+01  0.51100000000E-03 0. -1.
         12    1    3    3    0    0 -0.21883471758E+01  0.13073609290E+01  0.87614343038E+01  0.91247349014E+01  0.00000000000E+00 0. -1.
</event>
<event>
 7    1  0.1634068E-009  0.4778727E+02  0.7816164E-02  0.1312668E+00
        -11   -1    0    0    0    0  0.00000000000E+00  0.00000000000E+00  0.45593999997E+02  0.45594000000E+02  0.51100000000E-03 0.  1.
         11   -1    0    0    0    0 -0.00000000000E+00 -0.00000000000E+00 -0.45593999997E+02  0.45594000000E+02  0.51100000000E-03 0. -1.
    9900012    2    1    2    0    0  0.26135419351E+02  0.25751090296E+01  0.34553322192E+02  0.47787269526E+02  0.19999993077E+02 0.  0.
         12    1    1    2    0    0 -0.26135419351E+02 -0.25751090296E+01 -0.34553322192E+02  0.43400730474E+02  0.00000000000E+00 0. -1.
         11    1    3    3    0    0  0.13948374491E+02  0.69899722005E+00  0.86352925149E+01  0.16419927684E+02  0.51100000000E-03 0. -1.
        -11    1    3    3    0    0  0.14117433316E+00 -0.36397123202E+01  0.23622477079E+01  0.43413880800E+01  0.51100000000E-03 0.  1.
        -12    1    3    3    0    0  0.12045870526E+02  0.55158241298E+01  0.23555781969E+02  0.27025953762E+02  0.00000000000E+00 0.  1.
</event>
<event>
 7    1  0.1634068E-009  0.4778727E+02  0.7816164E-02  0.1312668E+00
        -11   -1    0    0    0    0  0.00000000000E+00  0.00000000000E+00  0.45593999997E+02  0.45594000000E+02  0.51100000000E-03 0.  1.
         11   -1    0    0    0    0 -0.00000000000E+00 -0.00000000000E+00 -0.45593999997E+02  0.45594000000E+02  0.51100000000E-03 0. -1.
    9900012    2    1    2    0    0  0.10181330906E+02 -0.11956767788E+02  0.40459847891E+02  0.47787273205E+02  0.20000009850E+02 0.  0.
         12    1    1    2    0    0 -0.10181330906E+02  0.11956767788E+02 -0.40459847891E+02  0.43400726795E+02  0.00000000000E+00 0. -1.
         11    1    3    3    0    0 -0.72151756594E+00  0.31172049030E+01  0.22720324015E+01  0.39242433028E+01  0.51100000000E-03 0. -1.
        -11    1    3    3    0    0  0.30619230218E+01 -0.85417599679E+01  0.83612983774E+01  0.12338895686E+02  0.51100000000E-03 0.  1.
        -12    1    3    3    0    0  0.78409254501E+01 -0.65322127235E+01  0.29826517113E+02  0.31524134216E+02  0.00000000000E+00 0.  1.
</event>
<event>
 7    1  0.1634068E-009  0.4778728E+02  0.7816164E-02  0.1312668E+00
        -11   -1    0    0    0    0  0.00000000000E+00  0.00000000000E+00  0.45593999997E+02  0.45594000000E+02  0.51100000000E-03 0.  1.
         11   -1    0    0    0    0 -0.00000000000E+00 -0.00000000000E+00 -0.45593999997E+02  0.45594000000E+02  0.51100000000E-03 0. -1.
    9900012    2    1    2    0    0  0.27665385715E+02  0.23357475934E+02  0.23930684852E+02  0.47787275050E+02  0.20000018261E+02 0.  0.
         12    1    1    2    0    0 -0.27665385715E+02 -0.23357475934E+02 -0.23930684852E+02  0.43400724950E+02  0.00000000000E+00 0. -1.
         11    1    3    3    0    0  0.20184439371E+02  0.15311409477E+02  0.12920789539E+02  0.28439368057E+02  0.51100000000E-03 0. -1.
        -11    1    3    3    0    0  0.77635342575E+01  0.61425972965E+01  0.13156497117E+02  0.16465035147E+02  0.51100000000E-03 0.  1.
        -12    1    3    3    0    0 -0.28258791366E+00  0.19034691605E+01 -0.21466018049E+01  0.28828718464E+01  0.00000000000E+00 0.  1.
</event>
<event>
 7    1  0.1634068E-009  0.4778726E+02  0.7816164E-02  0.1312668E+00
        -11   -1    0    0    0    0  0.00000000000E+00  0.00000000000E+00  0.45593999997E+02  0.45594000000E+02  0.51100000000E-03 0.  1.
         11   -1    0    0    0    0 -0.00000000000E+00 -0.00000000000E+00 -0.45593999997E+02  0.45594000000E+02  0.51100000000E-03 0. -1.
    9900012    2    1    2    0    0 -0.33399612851E+02 -0.27001032171E+02  0.62477686560E+01  0.47787257033E+02  0.19999936117E+02 0.  0.
         12    1    1    2    0    0  0.33399612851E+02  0.27001032171E+02 -0.62477686560E+01  0.43400742967E+02  0.00000000000E+00 0. -1.
         11    1    3    3    0    0 -0.29111544132E+02 -0.13998173733E+02  0.31164488334E+01  0.32452166695E+02  0.51100000000E-03 0. -1.
        -11    1    3    3    0    0 -0.58624524777E+01 -0.98425648335E+01  0.27669001928E+01  0.11785591563E+02  0.51100000000E-03 0.  1.
         12    1    3    3    0    0  0.15743837588E+01 -0.31602936044E+01  0.36441962981E+00  0.35494987748E+01  0.00000000000E+00 0. -1.
</event>
<event>
 7    1  0.1634068E-009  0.4778727E+02  0.7816164E-02  0.1312668E+00
        -11   -1    0    0    0    0  0.00000000000E+00  0.00000000000E+00  0.45593999997E+02  0.45594000000E+02  0.51100000000E-03 0.  1.
         11   -1    0    0    0    0 -0.00000000000E+00 -0.00000000000E+00 -0.45593999997E+02  0.45594000000E+02  0.51100000000E-03 0. -1.
    9900012    2    1    2    0    0 -0.11926198503E+02  0.62532530902E+01  0.41258768234E+02  0.47787270270E+02  0.19999996468E+02 0.  0.
         12    1    1    2    0    0  0.11926198503E+02 -0.62532530902E+01 -0.41258768234E+02  0.43400729730E+02  0.00000000000E+00 0. -1.
         11    1    3    3    0    0 -0.25022825423E+00 -0.44909341197E+00  0.11344332274E+02  0.11355975259E+02  0.51100000000E-03 0. -1.
        -11    1    3    3    0    0 -0.76475590458E+01  0.61314306439E+01  0.46638303318E+01  0.10854994921E+02  0.51100000000E-03 0.  1.
        -12    1    3    3    0    0 -0.40284112030E+01  0.57091585820E+00  0.25250605628E+02  0.25576300090E+02  0.00000000000E+00 0.  1.
</event>
<event>
 7    1  0.1634068E-009  0.4778727E+02  0.7816164E-02  0.1312668E+00
        -11   -1    0    0    0    0  0.00000000000E+00  0.00000000000E+00  0.45593999997E+02  0.45594000000E+02  0.51100000000E-03 0. -1.
         11   -1    0    0    0    0 -0.00000000000E+00 -0.00000000000E+00 -0.45593999997E+02  0.45594000000E+02  0.51100000000E-03 0.  1.
    9900012    2    1    2    0    0 -0.77069954636E+01 -0.40777066387E+02 -0.12706544708E+02  0.47787271889E+02  0.20000003849E+02 0.  0.
         12    1    1    2    0    0  0.77069954636E+01  0.40777066387E+02  0.12706544708E+02  0.43400728111E+02  0.00000000000E+00 0. -1.
         11    1    3    3    0    0 -0.46326574525E+01 -0.14628060270E+02 -0.26517628698E+01  0.15571560902E+02  0.51100000000E-03 0. -1.
        -11    1    3    3    0    0 -0.77844742571E+01 -0.23813358168E+02 -0.99508350491E+01  0.26957247359E+02  0.51100000000E-03 0.  1.
         12    1    3    3    0    0  0.47101362460E+01 -0.23356479480E+01 -0.10394678881E+00  0.52584636281E+01  0.00000000000E+00 0. -1.
</event>
<event>
 7    1  0.1634068E-009  0.4778727E+02  0.7816164E-02  0.1312668E+00
        -11   -1    0    0    0    0  0.00000000000E+00  0.00000000000E+00  0.45593999997E+02  0.45594000000E+02  0.51100000000E-03 0.  1.
         11   -1    0    0    0    0 -0.00000000000E+00 -0.00000000000E+00 -0.45593999997E+02  0.45594000000E+02  0.51100000000E-03 0. -1.
    9900012    2    1    2    0    0 -0.54353363677E+00 -0.38893900705E+02  0.19250780187E+02  0.47787268686E+02  0.19999989245E+02 0.  0.
         12    1    1    2    0    0  0.54353363677E+00  0.38893900705E+02 -0.19250780187E+02  0.43400731314E+02  0.00000000000E+00 0. -1.
         11    1    3    3    0    0  0.24657122636E+00 -0.43159689582E+01  0.90528728648E+01  0.10032093141E+02  0.51100000000E-03 0. -1.
        -11    1    3    3    0    0 -0.54385329961E+01 -0.24600279814E+02  0.86591792767E+01  0.26640810687E+02  0.51100000000E-03 0.  1.
         12    1    3    3    0    0  0.46484281330E+01 -0.99776519327E+01  0.15387280451E+01  0.11114364858E+02  0.00000000000E+00 0. -1.
</event>
<event>
 7    1  0.1634068E-009  0.4778727E+02  0.7816164E-02  0.1312668E+00
        -11   -1    0    0    0    0  0.00000000000E+00  0.00000000000E+00  0.45593999997E+02  0.45594000000E+02  0.51100000000E-03 0.  1.
         11   -1    0    0    0    0 -0.00000000000E+00 -0.00000000000E+00 -0.45593999997E+02  0.45594000000E+02  0.51100000000E-03 0. -1.
    9900012    2    1    2    0    0  0.24684196310E+02  0.33789071819E+02 -0.11515737397E+02  0.47787272705E+02  0.20000007573E+02 0.  0.
         12    1    1    2    0    0 -0.24684196310E+02 -0.33789071819E+02  0.11515737397E+02  0.43400727295E+02  0.00000000000E+00 0. -1.
         11    1    3    3    0    0  0.33584284355E+01  0.81561508346E+00  0.19657267893E+01  0.39759717796E+01  0.51100000000E-03 0. -1.
        -11    1    3    3    0    0  0.22995082829E+02  0.27070256039E+02 -0.10878156788E+02  0.37147098025E+02  0.51100000000E-03 0.  1.
         12    1    3    3    0    0 -0.16693149545E+01  0.59032006971E+01 -0.26033073985E+01  0.66642029005E+01  0.00000000000E+00 0. -1.
</event>
<event>
 7    1  0.1634068E-009  0.4778727E+02  0.7816164E-02  0.1312668E+00
        -11   -1    0    0    0    0  0.00000000000E+00  0.00000000000E+00  0.45593999997E+02  0.45594000000E+02  0.51100000000E-03 0.  1.
         11   -1    0    0    0    0 -0.00000000000E+00 -0.00000000000E+00 -0.45593999997E+02  0.45594000000E+02  0.51100000000E-03 0. -1.
    9900012    2    1    2    0    0 -0.95327965845E+01  0.27356190401E+02  0.32316991572E+02  0.47787270649E+02  0.19999998198E+02 0.  0.
         12    1    1    2    0    0  0.95327965845E+01 -0.27356190401E+02 -0.32316991572E+02  0.43400729351E+02  0.00000000000E+00 0. -1.
         11    1    3    3    0    0 -0.21386702971E+01  0.14287959194E+02  0.69602490743E+01  0.16036357317E+02  0.51100000000E-03 0. -1.
        -11    1    3    3    0    0  0.21250858214E+01  0.79775821665E+01  0.12227795069E+02  0.14753873372E+02  0.51100000000E-03 0.  1.
        -12    1    3    3    0    0 -0.95192121088E+01  0.50906490403E+01  0.13128947429E+02  0.16997039960E+02  0.00000000000E+00 0.  1.
</event>
<event>
 7    1  0.1634068E-009  0.4778727E+02  0.7816164E-02  0.1312668E+00
        -11   -1    0    0    0    0  0.00000000000E+00  0.00000000000E+00  0.45593999997E+02  0.45594000000E+02  0.51100000000E-03 0.  1.
         11   -1    0    0    0    0 -0.00000000000E+00 -0.00000000000E+00 -0.45593999997E+02  0.45594000000E+02  0.51100000000E-03 0. -1.
    9900012    2    1    2    0    0 -0.37241202594E+02  0.10837275409E+02  0.19474849811E+02  0.47787268623E+02  0.19999988959E+02 0.  0.
         12    1    1    2    0    0  0.37241202594E+02 -0.10837275409E+02 -0.19474849811E+02  0.43400731377E+02  0.00000000000E+00 0. -1.
         11    1    3    3    0    0 -0.18347542169E+02  0.14733918375E+02  0.13293075782E+02  0.27026404095E+02  0.51100000000E-03 0.  1.
        -11    1    3    3    0    0 -0.83221001889E+01  0.94511667375E-01  0.11890750728E+01  0.84071507539E+01  0.51100000000E-03 0. -1.
        -12    1    3    3    0    0 -0.10571560236E+02 -0.39911546338E+01  0.49926989565E+01  0.12353713774E+02  0.00000000000E+00 0.  1.
</event>
<event>
 7    1  0.1634068E-009  0.4778727E+02  0.7816164E-02  0.1312668E+00
        -11   -1    0    0    0    0  0.00000000000E+00  0.00000000000E+00  0.45593999997E+02  0.45594000000E+02  0.51100000000E-03 0. -1.
         11   -1    0    0    0    0 -0.00000000000E+00 -0.00000000000E+00 -0.45593999997E+02  0.45594000000E+02  0.51100000000E-03 0.  1.
    9900012    2    1    2    0    0 -0.19817841796E+02 -0.10983971634E+02 -0.37016602553E+02  0.47787270158E+02  0.19999995957E+02 0.  0.
         12    1    1    2    0    0  0.19817841796E+02  0.10983971634E+02  0.37016602553E+02  0.43400729842E+02  0.00000000000E+00 0. -1.
         11    1    3    3    0    0 -0.27003566833E+00 -0.24999552734E+01 -0.15738363733E+00  0.25194176910E+01  0.51100000000E-03 0. -1.
        -11    1    3    3    0    0 -0.10845743004E+02 -0.12605181404E+02 -0.22456615292E+02  0.27943162136E+02  0.51100000000E-03 0.  1.
        -12    1    3    3    0    0 -0.87020631234E+01  0.41211650431E+01 -0.14402603623E+02  0.17324690330E+02  0.00000000000E+00 0.  1.
</event>
<event>
 7    1  0.1634068E-009  0.4778727E+02  0.7816164E-02  0.1312668E+00
        -11   -1    0    0    0    0  0.00000000000E+00  0.00000000000E+00  0.45593999997E+02  0.45594000000E+02  0.51100000000E-03 0. -1.
         11   -1    0    0    0    0 -0.00000000000E+00 -0.00000000000E+00 -0.45593999997E+02  0.45594000000E+02  0.51100000000E-03 0.  1.
    9900012    2    1    2    0    0  0.44846493834E+01  0.18479051489E+02 -0.39013279633E+02  0.47787269457E+02  0.19999992760E+02 0.  0.
         12    1    1    2    0    0 -0.44846493834E+01 -0.18479051489E+02  0.39013279633E+02  0.43400730543E+02  0.00000000000E+00 0. -1.
         11    1    3    3    0    0 -0.36908283259E+01  0.29925536943E+01 -0.14841047861E+01  0.49779673183E+01  0.51100000000E-03 0. -1.
        -11    1    3    3    0    0  0.47061952382E+01  0.11489644295E+02 -0.14089832460E+02  0.18779871636E+02  0.51100000000E-03 0.  1.
        -12    1    3    3    0    0  0.34692824711E+01  0.39968534989E+01 -0.23439342386E+02  0.24029430502E+02  0.00000000000E+00 0.  1.
</event>
<event>
 7    1  0.1634068E-009  0.4778728E+02  0.7816164E-02  0.1312668E+00
        -11   -1    0    0    0    0  0.00000000000E+00  0.00000000000E+00  0.45593999997E+02  0.45594000000E+02  0.51100000000E-03 0.  1.
         11   -1    0    0    0    0 -0.00000000000E+00 -0.00000000000E+00 -0.45593999997E+02  0.45594000000E+02  0.51100000000E-03 0. -1.
    9900012    2    1    2    0    0 -0.19008996642E+02 -0.25761414772E+02  0.29302396792E+02  0.47787275327E+02  0.20000019525E+02 0.  0.
         12    1    1    2    0    0  0.19008996642E+02  0.25761414772E+02 -0.29302396792E+02  0.43400724673E+02  0.00000000000E+00 0. -1.
         11    1    3    3    0    0 -0.82534789760E+01 -0.19871790705E+02  0.16704509801E+02  0.27240569542E+02  0.51100000000E-03 0. -1.
        -11    1    3    3    0    0 -0.57221186225E+01 -0.25140030774E+01  0.13049878084E+02  0.14469352829E+02  0.51100000000E-03 0.  1.
         12    1    3    3    0    0 -0.50333990439E+01 -0.33756209899E+01 -0.45199109367E+00  0.60773529560E+01  0.00000000000E+00 0. -1.
</event>
<event>
 7    1  0.1634068E-009  0.4778728E+02  0.7816164E-02  0.1312668E+00
        -11   -1    0    0    0    0  0.00000000000E+00  0.00000000000E+00  0.45593999997E+02  0.45594000000E+02  0.51100000000E-03 0. -1.
         11   -1    0    0    0    0 -0.00000000000E+00 -0.00000000000E+00 -0.45593999997E+02  0.45594000000E+02  0.51100000000E-03 0.  1.
    9900012    2    1    2    0    0  0.11097343088E+02  0.40591822032E+02 -0.10619595013E+02  0.47787276069E+02  0.20000022910E+02 0.  0.
         12    1    1    2    0    0 -0.11097343088E+02 -0.40591822032E+02  0.10619595013E+02  0.43400723931E+02  0.00000000000E+00 0. -1.
         11    1    3    3    0    0  0.47677281917E+01  0.24620415807E+01 -0.21841503589E+01  0.57933922624E+01  0.51100000000E-03 0. -1.
        -11    1    3    3    0    0 -0.45249073376E+01  0.96102470822E+01 -0.20976592465E+01  0.10827363944E+02  0.51100000000E-03 0.  1.
         12    1    3    3    0    0  0.10854522234E+02  0.28519533369E+02 -0.63377854080E+01  0.31166519863E+02  0.00000000000E+00 0. -1.
</event>
<event>
 7    1  0.1634068E-009  0.4778727E+02  0.7816164E-02  0.1312668E+00
        -11   -1    0    0    0    0  0.00000000000E+00  0.00000000000E+00  0.45593999997E+02  0.45594000000E+02  0.51100000000E-03 0.  1.
         11   -1    0    0    0    0 -0.00000000000E+00 -0.00000000000E+00 -0.45593999997E+02  0.45594000000E+02  0.51100000000E-03 0. -1.
    9900012    2    1    2    0    0  0.31780724280E+02  0.16631825533E+02  0.24433401991E+02  0.47787272020E+02  0.20000004447E+02 0.  0.
         12    1    1    2    0    0 -0.31780724280E+02 -0.16631825533E+02 -0.24433401991E+02  0.43400727980E+02  0.00000000000E+00 0. -1.
         11    1    3    3    0    0  0.18395355574E+02  0.12073224938E+02  0.17278106752E+02  0.27976505148E+02  0.51100000000E-03 0. -1.
        -11    1    3    3    0    0  0.14963600836E+02  0.32352423573E+01  0.83411026095E+01  0.17434165770E+02  0.51100000000E-03 0.  1.
         12    1    3    3    0    0 -0.15782321295E+01  0.13233582373E+01 -0.11858073701E+01  0.23766011020E+01  0.00000000000E+00 0. -1.
</event>
<event>
 7    1  0.1634068E-009  0.4778728E+02  0.7816164E-02  0.1312668E+00
        -11   -1    0    0    0    0  0.00000000000E+00  0.00000000000E+00  0.45593999997E+02  0.45594000000E+02  0.51100000000E-03 0.  1.
         11   -1    0    0    0    0 -0.00000000000E+00 -0.00000000000E+00 -0.45593999997E+02  0.45594000000E+02  0.51100000000E-03 0. -1.
    9900012    2    1    2    0    0 -0.58690431684E+01  0.32097854567E+02  0.28616511919E+02  0.47787277771E+02  0.20000030671E+02 0.  0.
         12    1    1    2    0    0  0.58690431684E+01 -0.32097854567E+02 -0.28616511919E+02  0.43400722229E+02  0.00000000000E+00 0. -1.
         11    1    3    3    0    0  0.20866857570E+01  0.52036778224E+01  0.41258263736E+01  0.69609599808E+01  0.51100000000E-03 0. -1.
        -11    1    3    3    0    0  0.26870070476E+01  0.18578659375E+02  0.11104915181E+02  0.21810679322E+02  0.51100000000E-03 0.  1.
        -12    1    3    3    0    0 -0.10642735973E+02  0.83155173705E+01  0.13385770364E+02  0.19015638469E+02  0.00000000000E+00 0.  1.
</event>
<event>
 7    1  0.1634068E-009  0.4778727E+02  0.7816164E-02  0.1312668E+00
        -11   -1    0    0    0    0  0.00000000000E+00  0.00000000000E+00  0.45593999997E+02  0.45594000000E+02  0.51100000000E-03 0.  1.
         11   -1    0    0    0    0 -0.00000000000E+00 -0.00000000000E+00 -0.45593999997E+02  0.45594000000E+02  0.51100000000E-03 0. -1.
    9900012    2    1    2    0    0  0.31847466631E+02  0.27785950333E+02 -0.98642268299E+01  0.47787272614E+02  0.20000007154E+02 0.  0.
         12    1    1    2    0    0 -0.31847466631E+02 -0.27785950333E+02  0.98642268299E+01  0.43400727386E+02  0.00000000000E+00 0. -1.
         11    1    3    3    0    0  0.11015482721E+02  0.12561997090E+02  0.36685919859E+01  0.17105648128E+02  0.51100000000E-03 0.  1.
        -11    1    3    3    0    0  0.25050933699E+01  0.63982477394E+01 -0.55399431084E+01  0.88263263497E+01  0.51100000000E-03 0. -1.
         12    1    3    3    0    0  0.18326890541E+02  0.88257055029E+01 -0.79928757074E+01  0.21855298136E+02  0.00000000000E+00 0. -1.
</event>
<event>
 7    1  0.1634068E-009  0.4778729E+02  0.7816164E-02  0.1312668E+00
        -11   -1    0    0    0    0  0.00000000000E+00  0.00000000000E+00  0.45593999997E+02  0.45594000000E+02  0.51100000000E-03 0. -1.
         11   -1    0    0    0    0 -0.00000000000E+00 -0.00000000000E+00 -0.45593999997E+02  0.45594000000E+02  0.51100000000E-03 0.  1.
    9900012    2    1    2    0    0  0.29616176505E+02  0.30868297774E+02 -0.73247641939E+01  0.47787287002E+02  0.20000072757E+02 0.  0.
         12    1    1    2    0    0 -0.29616176505E+02 -0.30868297774E+02  0.73247641939E+01  0.43400712998E+02  0.00000000000E+00 0. -1.
         11    1    3    3    0    0  0.13201622288E+02  0.19820742149E+02  0.43143275732E+01  0.24202439403E+02  0.51100000000E-03 0. -1.
        -11    1    3    3    0    0  0.10591074534E+02  0.74321999646E+01 -0.45280836393E+01  0.13708099715E+02  0.51100000000E-03 0.  1.
        -12    1    3    3    0    0  0.58234796837E+01  0.36153556601E+01 -0.71110081277E+01  0.98767478842E+01  0.00000000000E+00 0.  1.
</event>
<event>
 7    1  0.1634068E-009  0.4778727E+02  0.7816164E-02  0.1312668E+00
        -11   -1    0    0    0    0  0.00000000000E+00  0.00000000000E+00  0.45593999997E+02  0.45594000000E+02  0.51100000000E-03 0.  1.
         11   -1    0    0    0    0 -0.00000000000E+00 -0.00000000000E+00 -0.45593999997E+02  0.45594000000E+02  0.51100000000E-03 0. -1.
    9900012    2    1    2    0    0 -0.26927027407E+02  0.28424746189E+02  0.18724107499E+02  0.47787271867E+02  0.20000003749E+02 0.  0.
         12    1    1    2    0    0  0.26927027407E+02 -0.28424746189E+02 -0.18724107499E+02  0.43400728133E+02  0.00000000000E+00 0. -1.
         11    1    3    3    0    0 -0.16592842445E+02  0.74451378798E+01  0.52231959710E+01  0.18921793649E+02  0.51100000000E-03 0. -1.
        -11    1    3    3    0    0 -0.46268739139E+00  0.19471029010E+01  0.57150591667E+01  0.60553439926E+01  0.51100000000E-03 0.  1.
        -12    1    3    3    0    0 -0.98714975699E+01  0.19032505408E+02  0.77858523615E+01  0.22810134225E+02  0.00000000000E+00 0.  1.
</event>
<event>
 7    1  0.1634068E-009  0.4778727E+02  0.7816164E-02  0.1312668E+00
        -11   -1    0    0    0    0  0.00000000000E+00  0.00000000000E+00  0.45593999997E+02  0.45594000000E+02  0.51100000000E-03 0.  1.
         11   -1    0    0    0    0 -0.00000000000E+00 -0.00000000000E+00 -0.45593999997E+02  0.45594000000E+02  0.51100000000E-03 0. -1.
    9900012    2    1    2    0    0 -0.42115499584E+02 -0.30232301646E+01 -0.10038341894E+02  0.47787268050E+02  0.19999986348E+02 0.  0.
         12    1    1    2    0    0  0.42115499584E+02  0.30232301646E+01  0.10038341894E+02  0.43400731950E+02  0.00000000000E+00 0. -1.
         11    1    3    3    0    0 -0.26037696558E+01  0.58767519564E+00 -0.68058879690E+01  0.73106148759E+01  0.51100000000E-03 0. -1.
        -11    1    3    3    0    0 -0.47148464533E+01  0.37452409438E+00 -0.27044263511E+01  0.54482995077E+01  0.51100000000E-03 0.  1.
        -12    1    3    3    0    0 -0.34796883474E+02 -0.39854294547E+01 -0.52802757341E+00  0.35028353667E+02  0.00000000000E+00 0.  1.
</event>
<event>
 7    1  0.1634068E-009  0.4778728E+02  0.7816164E-02  0.1312668E+00
        -11   -1    0    0    0    0  0.00000000000E+00  0.00000000000E+00  0.45593999997E+02  0.45594000000E+02  0.51100000000E-03 0.  1.
         11   -1    0    0    0    0 -0.00000000000E+00 -0.00000000000E+00 -0.45593999997E+02  0.45594000000E+02  0.51100000000E-03 0. -1.
    9900012    2    1    2    0    0  0.24747904520E+02 -0.26735455449E+02  0.23587696295E+02  0.47787276818E+02  0.20000026325E+02 0.  0.
         12    1    1    2    0    0 -0.24747904520E+02  0.26735455449E+02 -0.23587696295E+02  0.43400723182E+02  0.00000000000E+00 0. -1.
         11    1    3    3    0    0  0.99266546705E+01 -0.15137244269E+02  0.11991135001E+02  0.21713174708E+02  0.51100000000E-03 0. -1.
        -11    1    3    3    0    0  0.11437911692E+02 -0.36873511777E+01  0.12599596568E+02  0.17411841273E+02  0.51100000000E-03 0.  1.
         12    1    3    3    0    0  0.33833381568E+01 -0.79108600020E+01 -0.10030352733E+01  0.86622608373E+01  0.00000000000E+00 0. -1.
</event>
<event>
 7    1  0.1634068E-009  0.4778727E+02  0.7816164E-02  0.1312668E+00
        -11   -1    0    0    0    0  0.00000000000E+00  0.00000000000E+00  0.45593999997E+02  0.45594000000E+02  0.51100000000E-03 0.  1.
         11   -1    0    0    0    0 -0.00000000000E+00 -0.00000000000E+00 -0.45593999997E+02  0.45594000000E+02  0.51100000000E-03 0. -1.
    9900012    2    1    2    0    0 -0.44428721025E+01  0.31565598396E+02  0.29453304377E+02  0.47787271281E+02  0.20000001078E+02 0.  0.
         12    1    1    2    0    0  0.44428721025E+01 -0.31565598396E+02 -0.29453304377E+02  0.43400728719E+02  0.00000000000E+00 0. -1.
         11    1    3    3    0    0 -0.24685172526E+01 -0.11204883772E+01  0.18690443542E+01  0.32927797814E+01  0.51100000000E-03 0. -1.
        -11    1    3    3    0    0 -0.20290033151E+01  0.17656253266E+02  0.72168519438E+01  0.19181842614E+02  0.51100000000E-03 0.  1.
         12    1    3    3    0    0  0.54648465122E-01  0.15029833507E+02  0.20367408079E+02  0.25312648885E+02  0.00000000000E+00 0. -1.
</event>
<event>
 7    1  0.1634068E-009  0.4778727E+02  0.7816164E-02  0.1312668E+00
        -11   -1    0    0    0    0  0.00000000000E+00  0.00000000000E+00  0.45593999997E+02  0.45594000000E+02  0.51100000000E-03 0. -1.
         11   -1    0    0    0    0 -0.00000000000E+00 -0.00000000000E+00 -0.45593999997E+02  0.45594000000E+02  0.51100000000E-03 0.  1.
    9900012    2    1    2    0    0 -0.23885523288E+01  0.43229393636E+02 -0.30228527676E+01  0.47787270799E+02  0.19999998880E+02 0.  0.
         12    1    1    2    0    0  0.23885523288E+01 -0.43229393636E+02  0.30228527676E+01  0.43400729201E+02  0.00000000000E+00 0. -1.
         11    1    3    3    0    0  0.14658480975E+00 -0.49296506934E+00 -0.17542138666E+01  0.18280503869E+01  0.51100000000E-03 0. -1.
        -11    1    3    3    0    0  0.19710632982E+01  0.16381022729E+02 -0.65472184644E+01  0.17750748323E+02  0.51100000000E-03 0.  1.
        -12    1    3    3    0    0 -0.45062004368E+01  0.27341335976E+02  0.52785795635E+01  0.28208472088E+02  0.00000000000E+00 0.  1.
</event>
<event>
 7    1  0.1634068E-009  0.4778727E+02  0.7816164E-02  0.1312668E+00
        -11   -1    0    0    0    0  0.00000000000E+00  0.00000000000E+00  0.45593999997E+02  0.45594000000E+02  0.51100000000E-03 0.  1.
         11   -1    0    0    0    0 -0.00000000000E+00 -0.00000000000E+00 -0.45593999997E+02  0.45594000000E+02  0.51100000000E-03 0. -1.
    9900012    2    1    2    0    0 -0.70219923390E+01 -0.39786774510E+02  0.15853312067E+02  0.47787270676E+02  0.19999998321E+02 0.  0.
         12    1    1    2    0    0  0.70219923390E+01  0.39786774510E+02 -0.15853312067E+02  0.43400729324E+02  0.00000000000E+00 0. -1.
         11    1    3    3    0    0  0.13403787514E+01 -0.64819160806E+01  0.76282984607E+01  0.10099643011E+02  0.51100000000E-03 0. -1.
        -11    1    3    3    0    0 -0.31551400340E+01 -0.29589581425E+02  0.40082533710E+01  0.30026060895E+02  0.51100000000E-03 0.  1.
        -12    1    3    3    0    0 -0.52072310564E+01 -0.37152770046E+01  0.42167602352E+01  0.76615667704E+01  0.00000000000E+00 0.  1.
</event>
<event>
 7    1  0.1634068E-009  0.4778728E+02  0.7816164E-02  0.1312668E+00
        -11   -1    0    0    0    0  0.00000000000E+00  0.00000000000E+00  0.45593999997E+02  0.45594000000E+02  0.51100000000E-03 0. -1.
         11   -1    0    0    0    0 -0.00000000000E+00 -0.00000000000E+00 -0.45593999997E+02  0.45594000000E+02  0.51100000000E-03 0.  1.
    9900012    2    1    2    0    0 -0.59313487963E+00  0.43119193519E+02  0.48995754963E+01  0.47787279975E+02  0.20000040717E+02 0.  0.
         12    1    1    2    0    0  0.59313487963E+00 -0.43119193519E+02 -0.48995754963E+01  0.43400720025E+02  0.00000000000E+00 0. -1.
         11    1    3    3    0    0 -0.19709640290E+01  0.17775625399E+02 -0.18116510987E+01  0.17976085155E+02  0.51100000000E-03 0. -1.
        -11    1    3    3    0    0 -0.24331071445E+01  0.19526145726E+02 -0.64532458469E+00  0.19687732764E+02  0.51100000000E-03 0.  1.
         12    1    3    3    0    0  0.38109362939E+01  0.58174223929E+01  0.73565511796E+01  0.10123462056E+02  0.00000000000E+00 0. -1.
</event>
<event>
 7    1  0.1634068E-009  0.4778727E+02  0.7816164E-02  0.1312668E+00
        -11   -1    0    0    0    0  0.00000000000E+00  0.00000000000E+00  0.45593999997E+02  0.45594000000E+02  0.51100000000E-03 0.  1.
         11   -1    0    0    0    0 -0.00000000000E+00 -0.00000000000E+00 -0.45593999997E+02  0.45594000000E+02  0.51100000000E-03 0. -1.
    9900012    2    1    2    0    0  0.17543445394E+02  0.38794975729E+02 -0.84142934605E+01  0.47787274746E+02  0.20000016878E+02 0.  0.
         12    1    1    2    0    0 -0.17543445394E+02 -0.38794975729E+02  0.84142934605E+01  0.43400725254E+02  0.00000000000E+00 0. -1.
         11    1    3    3    0    0  0.96869929730E+01  0.10600414463E+02 -0.96336729216E+00  0.14392174834E+02  0.51100000000E-03 0. -1.
        -11    1    3    3    0    0  0.87832751348E+01  0.17828575435E+02  0.11294177596E+01  0.19906772940E+02  0.51100000000E-03 0.  1.
         12    1    3    3    0    0 -0.92682271421E+00  0.10365985831E+02 -0.85803439279E+01  0.13488326973E+02  0.00000000000E+00 0. -1.
</event>
<event>
 7    1  0.1634068E-009  0.4778727E+02  0.7816164E-02  0.1312668E+00
        -11   -1    0    0    0    0  0.00000000000E+00  0.00000000000E+00  0.45593999997E+02  0.45594000000E+02  0.51100000000E-03 0.  1.
         11   -1    0    0    0    0 -0.00000000000E+00 -0.00000000000E+00 -0.45593999997E+02  0.45594000000E+02  0.51100000000E-03 0. -1.
    9900012    2    1    2    0    0 -0.31713481317E+02 -0.27962459056E+02  0.97969028744E+01  0.47787270517E+02  0.19999997594E+02 0.  0.
         12    1    1    2    0    0  0.31713481317E+02  0.27962459056E+02 -0.97969028744E+01  0.43400729483E+02  0.00000000000E+00 0. -1.
         11    1    3    3    0    0 -0.10483378928E+02 -0.13714620528E+02  0.24178596629E+01  0.17430952228E+02  0.51100000000E-03 0. -1.
        -11    1    3    3    0    0 -0.17043909011E+02 -0.81026086054E+01  0.11252878127E+02  0.21972127048E+02  0.51100000000E-03 0.  1.
        -12    1    3    3    0    0 -0.41861933788E+01 -0.61452299229E+01 -0.38738349159E+01  0.83841912410E+01  0.00000000000E+00 0.  1.
</event>
<event>
 7    1  0.1634068E-009  0.4778724E+02  0.7816164E-02  0.1312668E+00
        -11   -1    0    0    0    0  0.00000000000E+00  0.00000000000E+00  0.45593999997E+02  0.45594000000E+02  0.51100000000E-03 0.  1.
         11   -1    0    0    0    0 -0.00000000000E+00 -0.00000000000E+00 -0.45593999997E+02  0.45594000000E+02  0.51100000000E-03 0. -1.
    9900012    2    1    2    0    0  0.37531132202E+02  0.62853136836E+01  0.20869465306E+02  0.47787243847E+02  0.19999875996E+02 0.  0.
         12    1    1    2    0    0 -0.37531132202E+02 -0.62853136836E+01 -0.20869465306E+02  0.43400756153E+02  0.00000000000E+00 0. -1.
         11    1    3    3    0    0  0.16162608905E+02  0.96392072377E+01  0.16917974339E+02  0.25305376875E+02  0.51100000000E-03 0. -1.
        -11    1    3    3    0    0  0.96351572727E+01 -0.19464085941E+01  0.41321757506E+01  0.10663003272E+02  0.51100000000E-03 0.  1.
        -12    1    3    3    0    0  0.11733366024E+02 -0.14074849600E+01 -0.18068478317E+00  0.11818863700E+02  0.00000000000E+00 0.  1.
</event>
<event>
 7    1  0.1634068E-009  0.4778727E+02  0.7816164E-02  0.1312668E+00
        -11   -1    0    0    0    0  0.00000000000E+00  0.00000000000E+00  0.45593999997E+02  0.45594000000E+02  0.51100000000E-03 0.  1.
         11   -1    0    0    0    0 -0.00000000000E+00 -0.00000000000E+00 -0.45593999997E+02  0.45594000000E+02  0.51100000000E-03 0. -1.
    9900012    2    1    2    0    0 -0.32774602025E+02 -0.60277686559E+01  0.27804940733E+02  0.47787271181E+02  0.20000000624E+02 0.  0.
         12    1    1    2    0    0  0.32774602025E+02  0.60277686559E+01 -0.27804940733E+02  0.43400728819E+02  0.00000000000E+00 0. -1.
         11    1    3    3    0    0 -0.15286477173E+01  0.21515845906E+01 -0.10033875791E-01  0.26393523891E+01  0.51100000000E-03 0. -1.
        -11    1    3    3    0    0 -0.26232556519E+02 -0.94833663160E+00  0.23963752058E+02  0.35543041187E+02  0.51100000000E-03 0.  1.
         12    1    3    3    0    0 -0.50133977887E+01 -0.72310166150E+01  0.38512225501E+01  0.96048776049E+01  0.00000000000E+00 0. -1.
</event>
<event>
 7    1  0.1634068E-009  0.4778727E+02  0.7816164E-02  0.1312668E+00
        -11   -1    0    0    0    0  0.00000000000E+00  0.00000000000E+00  0.45593999997E+02  0.45594000000E+02  0.51100000000E-03 0. -1.
         11   -1    0    0    0    0 -0.00000000000E+00 -0.00000000000E+00 -0.45593999997E+02  0.45594000000E+02  0.51100000000E-03 0.  1.
    9900012    2    1    2    0    0 -0.13949802313E+02 -0.41930981301E+01 -0.40883301473E+02  0.47787269640E+02  0.19999993596E+02 0.  0.
         12    1    1    2    0    0  0.13949802313E+02  0.41930981301E+01  0.40883301473E+02  0.43400730360E+02  0.00000000000E+00 0. -1.
         11    1    3    3    0    0 -0.32204739370E+01 -0.16542953892E+01 -0.20138318903E+02  0.20461183595E+02  0.51100000000E-03 0. -1.
        -11    1    3    3    0    0 -0.12730213672E+02  0.18461863979E+01 -0.16346882813E+02  0.20801137525E+02  0.51100000000E-03 0.  1.
        -12    1    3    3    0    0  0.20008852964E+01 -0.43849891388E+01 -0.43980997561E+01  0.65249485194E+01  0.00000000000E+00 0.  1.
</event>
<event>
 7    1  0.1634068E-009  0.4778727E+02  0.7816164E-02  0.1312668E+00
        -11   -1    0    0    0    0  0.00000000000E+00  0.00000000000E+00  0.45593999997E+02  0.45594000000E+02  0.51100000000E-03 0.  1.
         11   -1    0    0    0    0 -0.00000000000E+00 -0.00000000000E+00 -0.45593999997E+02  0.45594000000E+02  0.51100000000E-03 0. -1.
    9900012    2    1    2    0    0 -0.35831727473E+02  0.13335127591E+02  0.20539839631E+02  0.47787270356E+02  0.19999996862E+02 0.  0.
         12    1    1    2    0    0  0.35831727473E+02 -0.13335127591E+02 -0.20539839631E+02  0.43400729644E+02  0.00000000000E+00 0. -1.
         11    1    3    3    0    0 -0.55680318722E+01 -0.28650355479E+01  0.19760981765E+00  0.62650185571E+01  0.51100000000E-03 0. -1.
        -11    1    3    3    0    0 -0.97974139979E+01  0.11438365386E+02  0.68088578264E+01  0.16528341384E+02  0.51100000000E-03 0.  1.
        -12    1    3    3    0    0 -0.20466281603E+02  0.47617977527E+01  0.13533371987E+02  0.24993910415E+02  0.00000000000E+00 0.  1.
</event>
<event>
 7    1  0.1634068E-009  0.4778727E+02  0.7816164E-02  0.1312668E+00
        -11   -1    0    0    0    0  0.00000000000E+00  0.00000000000E+00  0.45593999997E+02  0.45594000000E+02  0.51100000000E-03 0. -1.
         11   -1    0    0    0    0 -0.00000000000E+00 -0.00000000000E+00 -0.45593999997E+02  0.45594000000E+02  0.51100000000E-03 0.  1.
    9900012    2    1    2    0    0  0.22026256560E+02  0.25380645791E+02 -0.27464340000E+02  0.47787272696E+02  0.20000007532E+02 0.  0.
         12    1    1    2    0    0 -0.22026256560E+02 -0.25380645791E+02  0.27464340000E+02  0.43400727304E+02  0.00000000000E+00 0. -1.
         11    1    3    3    0    0  0.33226051890E+01  0.34767126183E+01 -0.44510548895E+01  0.65527952633E+01  0.51100000000E-03 0. -1.
        -11    1    3    3    0    0  0.17869568304E+02  0.83387253003E+01 -0.18147088173E+02  0.26798742889E+02  0.51100000000E-03 0.  1.
         12    1    3    3    0    0  0.83408306704E+00  0.13565207873E+02 -0.48661969376E+01  0.14435734544E+02  0.00000000000E+00 0. -1.
</event>
<event>
 7    1  0.1634068E-009  0.4778724E+02  0.7816164E-02  0.1312668E+00
        -11   -1    0    0    0    0  0.00000000000E+00  0.00000000000E+00  0.45593999997E+02  0.45594000000E+02  0.51100000000E-03 0.  1.
         11   -1    0    0    0    0 -0.00000000000E+00 -0.00000000000E+00 -0.45593999997E+02  0.45594000000E+02  0.51100000000E-03 0. -1.
    9900012    2    1    2    0    0 -0.12127577438E+02 -0.35723045019E+02  0.21457206817E+02  0.47787241892E+02  0.19999867083E+02 0.  0.
         12    1    1    2    0    0  0.12127577438E+02  0.35723045019E+02 -0.21457206817E+02  0.43400758108E+02  0.00000000000E+00 0. -1.
         11    1    3    3    0    0 -0.11090401161E+02 -0.20644126183E+02  0.11382717636E+02  0.26052700529E+02  0.51100000000E-03 0. -1.
        -11    1    3    3    0    0 -0.36032313119E+01 -0.11655980612E+02  0.11937088904E+02  0.17068662856E+02  0.51100000000E-03 0.  1.
         12    1    3    3    0    0  0.25660550350E+01 -0.34229382231E+01 -0.18625997231E+01  0.46658785079E+01  0.00000000000E+00 0. -1.
</event>
<event>
 7    1  0.1634068E-009  0.4778727E+02  0.7816164E-02  0.1312668E+00
        -11   -1    0    0    0    0  0.00000000000E+00  0.00000000000E+00  0.45593999997E+02  0.45594000000E+02  0.51100000000E-03 0. -1.
         11   -1    0    0    0    0 -0.00000000000E+00 -0.00000000000E+00 -0.45593999997E+02  0.45594000000E+02  0.51100000000E-03 0.  1.
    9900012    2    1    2    0    0 -0.36038894369E+02  0.68616521714E+01 -0.23189195164E+02  0.47787274773E+02  0.20000017002E+02 0.  0.
         12    1    1    2    0    0  0.36038894369E+02 -0.68616521714E+01  0.23189195164E+02  0.43400725227E+02  0.00000000000E+00 0. -1.
         11    1    3    3    0    0 -0.22689209534E+01  0.58215448999E+01 -0.21788830507E+00  0.62518687518E+01  0.51100000000E-03 0. -1.
        -11    1    3    3    0    0 -0.15509471020E+02  0.11767510330E+01 -0.62090843514E+01  0.16747571856E+02  0.51100000000E-03 0.  1.
        -12    1    3    3    0    0 -0.18260502395E+02 -0.13664376151E+00 -0.16762222508E+02  0.24787834166E+02  0.00000000000E+00 0.  1.
</event>
<event>
 7    1  0.1634068E-009  0.4778727E+02  0.7816164E-02  0.1312668E+00
        -11   -1    0    0    0    0  0.00000000000E+00  0.00000000000E+00  0.45593999997E+02  0.45594000000E+02  0.51100000000E-03 0. -1.
         11   -1    0    0    0    0 -0.00000000000E+00 -0.00000000000E+00 -0.45593999997E+02  0.45594000000E+02  0.51100000000E-03 0.  1.
    9900012    2    1    2    0    0 -0.35045840628E+02  0.23920360954E+02  0.91229741726E+01  0.47787271075E+02  0.20000000140E+02 0.  0.
         12    1    1    2    0    0  0.35045840628E+02 -0.23920360954E+02 -0.91229741726E+01  0.43400728925E+02  0.00000000000E+00 0. -1.
         11    1    3    3    0    0 -0.83661519483E+00 -0.61270621795E+00  0.26644327091E+01  0.28591145161E+01  0.51100000000E-03 0. -1.
        -11    1    3    3    0    0 -0.17468974006E+02  0.19627901054E+02  0.78643608238E+01  0.27427499413E+02  0.51100000000E-03 0.  1.
         12    1    3    3    0    0 -0.16740251427E+02  0.49051661171E+01 -0.14058193602E+01  0.17500657146E+02  0.00000000000E+00 0. -1.
</event>
<event>
 7    1  0.1634068E-009  0.4778727E+02  0.7816164E-02  0.1312668E+00
        -11   -1    0    0    0    0  0.00000000000E+00  0.00000000000E+00  0.45593999997E+02  0.45594000000E+02  0.51100000000E-03 0.  1.
         11   -1    0    0    0    0 -0.00000000000E+00 -0.00000000000E+00 -0.45593999997E+02  0.45594000000E+02  0.51100000000E-03 0. -1.
    9900012    2    1    2    0    0 -0.40000252516E+02  0.67232426730E+01  0.15440232422E+02  0.47787274538E+02  0.20000015928E+02 0.  0.
         12    1    1    2    0    0  0.40000252516E+02 -0.67232426730E+01 -0.15440232422E+02  0.43400725462E+02  0.00000000000E+00 0. -1.
         11    1    3    3    0    0 -0.48499154708E+01 -0.10119822511E+01  0.67173612602E+01  0.83467796612E+01  0.51100000000E-03 0. -1.
        -11    1    3    3    0    0 -0.19606539616E+02 -0.23141395749E+01  0.24352666613E+01  0.19892263864E+02  0.51100000000E-03 0.  1.
         12    1    3    3    0    0 -0.15543797430E+02  0.10049364499E+02  0.62876045004E+01  0.19548231013E+02  0.00000000000E+00 0. -1.
</event>
<event>
 7    1  0.1634068E-009  0.4778727E+02  0.7816164E-02  0.1312668E+00
        -11   -1    0    0    0    0  0.00000000000E+00  0.00000000000E+00  0.45593999997E+02  0.45594000000E+02  0.51100000000E-03 0.  1.
         11   -1    0    0    0    0 -0.00000000000E+00 -0.00000000000E+00 -0.45593999997E+02  0.45594000000E+02  0.51100000000E-03 0. -1.
    9900012    2    1    2    0    0 -0.29506479481E+02 -0.11601933691E+02  0.29637573365E+02  0.47787274756E+02  0.20000016924E+02 0.  0.
         12    1    1    2    0    0  0.29506479481E+02  0.11601933691E+02 -0.29637573365E+02  0.43400725244E+02  0.00000000000E+00 0. -1.
         11    1    3    3    0    0 -0.13238640469E+02  0.14183752224E+01  0.52733163940E+01  0.14320658357E+02  0.51100000000E-03 0. -1.
        -11    1    3    3    0    0 -0.13270512158E+02 -0.49901612291E+01  0.17241046059E+02  0.22321780204E+02  0.51100000000E-03 0.  1.
        -12    1    3    3    0    0 -0.29973268537E+01 -0.80301476843E+01  0.71232109122E+01  0.11144836194E+02  0.00000000000E+00 0.  1.
</event>
<event>
 7    1  0.1634068E-009  0.4778726E+02  0.7816164E-02  0.1312668E+00
        -11   -1    0    0    0    0  0.00000000000E+00  0.00000000000E+00  0.45593999997E+02  0.45594000000E+02  0.51100000000E-03 0.  1.
         11   -1    0    0    0    0 -0.00000000000E+00 -0.00000000000E+00 -0.45593999997E+02  0.45594000000E+02  0.51100000000E-03 0. -1.
    9900012    2    1    2    0    0 -0.46534800188E+01 -0.92107474107E+01  0.42156036315E+02  0.47787261044E+02  0.19999954403E+02 0.  0.
         12    1    1    2    0    0  0.46534800188E+01  0.92107474107E+01 -0.42156036315E+02  0.43400738956E+02  0.00000000000E+00 0. -1.
         11    1    3    3    0    0  0.11675176337E+01 -0.11638048451E+02  0.12147625041E+02  0.16863334888E+02  0.51100000000E-03 0. -1.
        -11    1    3    3    0    0 -0.24099505017E+00  0.12444192067E+01  0.11148483684E+02  0.11220309554E+02  0.51100000000E-03 0.  1.
        -12    1    3    3    0    0 -0.55800026023E+01  0.11828818330E+01  0.18859927590E+02  0.19703616602E+02  0.00000000000E+00 0.  1.
</event>
<event>
 7    1  0.1634068E-009  0.4778727E+02  0.7816164E-02  0.1312668E+00
        -11   -1    0    0    0    0  0.00000000000E+00  0.00000000000E+00  0.45593999997E+02  0.45594000000E+02  0.51100000000E-03 0.  1.
         11   -1    0    0    0    0 -0.00000000000E+00 -0.00000000000E+00 -0.45593999997E+02  0.45594000000E+02  0.51100000000E-03 0. -1.
    9900012    2    1    2    0    0  0.31756193592E+02 -0.17101603608E+02  0.24139237096E+02  0.47787269073E+02  0.19999991011E+02 0.  0.
         12    1    1    2    0    0 -0.31756193592E+02  0.17101603608E+02 -0.24139237096E+02  0.43400730927E+02  0.00000000000E+00 0. -1.
         11    1    3    3    0    0  0.20750914126E+01  0.21835964771E+01 -0.14421101627E+01  0.33397275230E+01  0.51100000000E-03 0. -1.
        -11    1    3    3    0    0  0.82630123784E+01 -0.44900939078E+01  0.11486958781E+02  0.14845488849E+02  0.51100000000E-03 0.  1.
        -12    1    3    3    0    0  0.21418089801E+02 -0.14795106177E+02  0.14094388477E+02  0.29602052701E+02  0.00000000000E+00 0.  1.
</event>
<event>
 7    1  0.1634068E-009  0.4778727E+02  0.7816164E-02  0.1312668E+00
        -11   -1    0    0    0    0  0.00000000000E+00  0.00000000000E+00  0.45593999997E+02  0.45594000000E+02  0.51100000000E-03 0. -1.
         11   -1    0    0    0    0 -0.00000000000E+00 -0.00000000000E+00 -0.45593999997E+02  0.45594000000E+02  0.51100000000E-03 0.  1.
    9900012    2    1    2    0    0 -0.19088470764E+02 -0.33278631945E+02 -0.20292516435E+02  0.47787270933E+02  0.19999999493E+02 0.  0.
         12    1    1    2    0    0  0.19088470764E+02  0.33278631945E+02  0.20292516435E+02  0.43400729067E+02  0.00000000000E+00 0. -1.
         11    1    3    3    0    0 -0.82875495442E+00 -0.97748360739E+01  0.12723941103E+01  0.98920797651E+01  0.51100000000E-03 0. -1.
        -11    1    3    3    0    0 -0.60502827011E+01 -0.19113553567E+01 -0.47939624126E+01  0.79524383642E+01  0.51100000000E-03 0.  1.
        -12    1    3    3    0    0 -0.12209433108E+02 -0.21592440515E+02 -0.16770948133E+02  0.29942752804E+02  0.00000000000E+00 0.  1.
</event>
<event>
 7    1  0.2327740E-009  0.4778727E+02  0.7816164E-02  0.1312668E+00
        -11   -1    0    0    0    0  0.00000000000E+00  0.00000000000E+00  0.45593999997E+02  0.45594000000E+02  0.51100000000E-03 0.  1.
         11   -1    0    0    0    0 -0.00000000000E+00 -0.00000000000E+00 -0.45593999997E+02  0.45594000000E+02  0.51100000000E-03 0. -1.
    9900012    2    1    2    0    0 -0.13960786265E+02  0.29361044753E+02  0.28751501503E+02  0.47787270274E+02  0.19999996486E+02 0.  0.
         12    1    1    2    0    0  0.13960786265E+02 -0.29361044753E+02 -0.28751501503E+02  0.43400729726E+02  0.00000000000E+00 0. -1.
         11    1    3    3    0    0 -0.47343941468E+01  0.71275525654E+01  0.77698093472E+00  0.85918678495E+01  0.51100000000E-03 0. -1.
        -11    1    3    3    0    0 -0.12116580371E+02  0.13587963381E+02  0.20409066114E+02  0.27349117877E+02  0.51100000000E-03 0.  1.
        -12    1    3    3    0    0  0.28901882531E+01  0.86455288066E+01  0.75654544537E+01  0.11846284547E+02  0.00000000000E+00 0.  1.
</event>
<event>
 7    1  0.1634068E-009  0.4778727E+02  0.7816164E-02  0.1312668E+00
        -11   -1    0    0    0    0  0.00000000000E+00  0.00000000000E+00  0.45593999997E+02  0.45594000000E+02  0.51100000000E-03 0.  1.
         11   -1    0    0    0    0 -0.00000000000E+00 -0.00000000000E+00 -0.45593999997E+02  0.45594000000E+02  0.51100000000E-03 0. -1.
    9900012    2    1    2    0    0 -0.85369809180E+01 -0.34095408176E+02  0.25460686073E+02  0.47787269163E+02  0.19999991424E+02 0.  0.
         12    1    1    2    0    0  0.85369809180E+01  0.34095408176E+02 -0.25460686073E+02  0.43400730837E+02  0.00000000000E+00 0. -1.
         11    1    3    3    0    0 -0.85910694370E+01 -0.10189198281E+02  0.15330788726E+02  0.20314017793E+02  0.51100000000E-03 0. -1.
        -11    1    3    3    0    0 -0.10329338893E+01  0.43068954035E+00  0.84643102285E+00  0.14031719914E+01  0.51100000000E-03 0.  1.
        -12    1    3    3    0    0  0.10870224084E+01 -0.24336899435E+02  0.92834663235E+01  0.26070079379E+02  0.00000000000E+00 0.  1.
</event>
<event>
 7    1  0.1634068E-009  0.4778728E+02  0.7816164E-02  0.1312668E+00
        -11   -1    0    0    0    0  0.00000000000E+00  0.00000000000E+00  0.45593999997E+02  0.45594000000E+02  0.51100000000E-03 0.  1.
         11   -1    0    0    0    0 -0.00000000000E+00 -0.00000000000E+00 -0.45593999997E+02  0.45594000000E+02  0.51100000000E-03 0. -1.
    9900012    2    1    2    0    0 -0.22100424900E+02 -0.74074112547E+01  0.36610439205E+02  0.47787276722E+02  0.20000025886E+02 0.  0.
         12    1    1    2    0    0  0.22100424900E+02  0.74074112547E+01 -0.36610439205E+02  0.43400723278E+02  0.00000000000E+00 0. -1.
         11    1    3    3    0    0 -0.13877774689E+01  0.47813144633E+01  0.73092343994E+01  0.88437436681E+01  0.51100000000E-03 0. -1.
        -11    1    3    3    0    0 -0.12054058534E+02 -0.84831514100E+01  0.23918916381E+02  0.28095884861E+02  0.51100000000E-03 0.  1.
        -12    1    3    3    0    0 -0.86585888971E+01 -0.37055743080E+01  0.53822884242E+01  0.10847648193E+02  0.00000000000E+00 0.  1.
</event>
<event>
 7    1  0.1634068E-009  0.4778727E+02  0.7816164E-02  0.1312668E+00
        -11   -1    0    0    0    0  0.00000000000E+00  0.00000000000E+00  0.45593999997E+02  0.45594000000E+02  0.51100000000E-03 0. -1.
         11   -1    0    0    0    0 -0.00000000000E+00 -0.00000000000E+00 -0.45593999997E+02  0.45594000000E+02  0.51100000000E-03 0.  1.
    9900012    2    1    2    0    0  0.25240548015E+02 -0.28943192213E+02 -0.20219544488E+02  0.47787267070E+02  0.19999981879E+02 0.  0.
         12    1    1    2    0    0 -0.25240548015E+02  0.28943192213E+02  0.20219544488E+02  0.43400732930E+02  0.00000000000E+00 0. -1.
         11    1    3    3    0    0  0.13770500042E+02 -0.13517264060E+02 -0.36395280262E+01  0.19636426956E+02  0.51100000000E-03 0. -1.
        -11    1    3    3    0    0  0.79879437245E+01 -0.17273329413E+01 -0.88287761824E+01  0.12030719562E+02  0.51100000000E-03 0.  1.
         12    1    3    3    0    0  0.34821042488E+01 -0.13698595211E+02 -0.77512402796E+01  0.16120120552E+02  0.00000000000E+00 0. -1.
</event>
<event>
 7    1  0.1634068E-009  0.4778727E+02  0.7816164E-02  0.1312668E+00
        -11   -1    0    0    0    0  0.00000000000E+00  0.00000000000E+00  0.45593999997E+02  0.45594000000E+02  0.51100000000E-03 0. -1.
         11   -1    0    0    0    0 -0.00000000000E+00 -0.00000000000E+00 -0.45593999997E+02  0.45594000000E+02  0.51100000000E-03 0.  1.
    9900012    2    1    2    0    0  0.32901011203E+02 -0.28050270045E+02 -0.37854022668E+01  0.47787268922E+02  0.19999990323E+02 0.  0.
         12    1    1    2    0    0 -0.32901011203E+02  0.28050270045E+02  0.37854022668E+01  0.43400731078E+02  0.00000000000E+00 0. -1.
         11    1    3    3    0    0  0.13946958601E+02 -0.99355629072E+01  0.28284558109E+01  0.17356071763E+02  0.51100000000E-03 0. -1.
        -11    1    3    3    0    0  0.85019323890E+01 -0.14022434273E+00 -0.42460667801E+01  0.95042937968E+01  0.51100000000E-03 0.  1.
         12    1    3    3    0    0  0.10452120212E+02 -0.17974482795E+02 -0.23677912976E+01  0.20926903362E+02  0.00000000000E+00 0. -1.
</event>
<event>
 7    1  0.1634068E-009  0.4778729E+02  0.7816164E-02  0.1312668E+00
        -11   -1    0    0    0    0  0.00000000000E+00  0.00000000000E+00  0.45593999997E+02  0.45594000000E+02  0.51100000000E-03 0. -1.
         11   -1    0    0    0    0 -0.00000000000E+00 -0.00000000000E+00 -0.45593999997E+02  0.45594000000E+02  0.51100000000E-03 0.  1.
    9900012    2    1    2    0    0  0.38761240141E+02  0.16637324787E+02 -0.10217030240E+02  0.47787285487E+02  0.20000065847E+02 0.  0.
         12    1    1    2    0    0 -0.38761240141E+02 -0.16637324787E+02  0.10217030240E+02  0.43400714513E+02  0.00000000000E+00 0. -1.
         11    1    3    3    0    0  0.14083773816E+02 -0.91061923635E+00  0.57488436265E+00  0.14124886002E+02  0.51100000000E-03 0. -1.
        -11    1    3    3    0    0  0.35927202369E+01  0.79332490079E+01 -0.31642164806E+01  0.92658698847E+01  0.51100000000E-03 0.  1.
        -12    1    3    3    0    0  0.21084746089E+02  0.96146950159E+01 -0.76276981219E+01  0.24396529600E+02  0.00000000000E+00 0.  1.
</event>
<event>
 7    1  0.1634068E-009  0.4778727E+02  0.7816164E-02  0.1312668E+00
        -11   -1    0    0    0    0  0.00000000000E+00  0.00000000000E+00  0.45593999997E+02  0.45594000000E+02  0.51100000000E-03 0.  1.
         11   -1    0    0    0    0 -0.00000000000E+00 -0.00000000000E+00 -0.45593999997E+02  0.45594000000E+02  0.51100000000E-03 0. -1.
    9900012    2    1    2    0    0 -0.34222161269E+02  0.10052630195E+02  0.24726744929E+02  0.47787267165E+02  0.19999982313E+02 0.  0.
         12    1    1    2    0    0  0.34222161269E+02 -0.10052630195E+02 -0.24726744929E+02  0.43400732835E+02  0.00000000000E+00 0. -1.
         11    1    3    3    0    0  0.69317609123E+00  0.19285427659E+01  0.68495203666E+01  0.71495244462E+01  0.51100000000E-03 0. -1.
        -11    1    3    3    0    0 -0.11421114487E+02  0.40683612737E+01  0.28472492663E+01  0.12453925013E+02  0.51100000000E-03 0.  1.
         12    1    3    3    0    0 -0.23494222873E+02  0.40557261554E+01  0.15029975297E+02  0.28183817706E+02  0.00000000000E+00 0. -1.
</event>
<event>
 7    1  0.1634068E-009  0.4778727E+02  0.7816164E-02  0.1312668E+00
        -11   -1    0    0    0    0  0.00000000000E+00  0.00000000000E+00  0.45593999997E+02  0.45594000000E+02  0.51100000000E-03 0.  1.
         11   -1    0    0    0    0 -0.00000000000E+00 -0.00000000000E+00 -0.45593999997E+02  0.45594000000E+02  0.51100000000E-03 0. -1.
    9900012    2    1    2    0    0 -0.33087795748E+02 -0.11807079811E+02  0.25483602720E+02  0.47787269952E+02  0.19999995019E+02 0.  0.
         12    1    1    2    0    0  0.33087795748E+02  0.11807079811E+02 -0.25483602720E+02  0.43400730048E+02  0.00000000000E+00 0. -1.
         11    1    3    3    0    0 -0.37238068499E+01  0.19374431995E+01 -0.72839730547E+00  0.42603974583E+01  0.51100000000E-03 0. -1.
        -11    1    3    3    0    0 -0.70009884872E+01 -0.95462835925E+01  0.10972346428E+02  0.16141182008E+02  0.51100000000E-03 0.  1.
         12    1    3    3    0    0 -0.22363000411E+02 -0.41982394182E+01  0.15239653597E+02  0.27385690485E+02  0.00000000000E+00 0. -1.
</event>
<event>
 7    1  0.1634068E-009  0.4778724E+02  0.7816164E-02  0.1312668E+00
        -11   -1    0    0    0    0  0.00000000000E+00  0.00000000000E+00  0.45593999997E+02  0.45594000000E+02  0.51100000000E-03 0. -1.
         11   -1    0    0    0    0 -0.00000000000E+00 -0.00000000000E+00 -0.45593999997E+02  0.45594000000E+02  0.51100000000E-03 0.  1.
    9900012    2    1    2    0    0  0.73642532960E+00  0.27736143272E+02 -0.33373498405E+02  0.47787235472E+02  0.19999837811E+02 0.  0.
         12    1    1    2    0    0 -0.73642532960E+00 -0.27736143272E+02  0.33373498405E+02  0.43400764528E+02  0.00000000000E+00 0. -1.
         11    1    3    3    0    0  0.88462496006E+00  0.10749110705E+02 -0.80339514407E+01  0.13448803601E+02  0.51100000000E-03 0.  1.
        -11    1    3    3    0    0 -0.23066159893E+01 -0.13511996985E+01  0.35565822457E+00  0.26967964293E+01  0.51100000000E-03 0. -1.
        -12    1    3    3    0    0  0.21584163588E+01  0.18338232265E+02 -0.25695205189E+02  0.31641635442E+02  0.00000000000E+00 0.  1.
</event>
<event>
 7    1  0.1634068E-009  0.4778727E+02  0.7816164E-02  0.1312668E+00
        -11   -1    0    0    0    0  0.00000000000E+00  0.00000000000E+00  0.45593999997E+02  0.45594000000E+02  0.51100000000E-03 0. -1.
         11   -1    0    0    0    0 -0.00000000000E+00 -0.00000000000E+00 -0.45593999997E+02  0.45594000000E+02  0.51100000000E-03 0.  1.
    9900012    2    1    2    0    0  0.42144452138E+02 -0.10028368230E+02  0.26268818260E+01  0.47787268168E+02  0.19999986886E+02 0.  0.
         12    1    1    2    0    0 -0.42144452138E+02  0.10028368230E+02 -0.26268818260E+01  0.43400731832E+02  0.00000000000E+00 0. -1.
         11    1    3    3    0    0  0.21580324574E+02 -0.53717752967E+01  0.25824668799E+01  0.22388289662E+02  0.51100000000E-03 0. -1.
        -11    1    3    3    0    0  0.16769740062E+02 -0.31719442263E+01  0.60792254851E+01  0.18117461044E+02  0.51100000000E-03 0.  1.
         12    1    3    3    0    0  0.37943875025E+01 -0.14846487074E+01 -0.60348105390E+01  0.72815174617E+01  0.00000000000E+00 0. -1.
</event>
<event>
 7    1  0.1634068E-009  0.4778727E+02  0.7816164E-02  0.1312668E+00
        -11   -1    0    0    0    0  0.00000000000E+00  0.00000000000E+00  0.45593999997E+02  0.45594000000E+02  0.51100000000E-03 0.  1.
         11   -1    0    0    0    0 -0.00000000000E+00 -0.00000000000E+00 -0.45593999997E+02  0.45594000000E+02  0.51100000000E-03 0. -1.
    9900012    2    1    2    0    0 -0.24238287412E+02 -0.23277333426E+02  0.27464419103E+02  0.47787272532E+02  0.20000006782E+02 0.  0.
         12    1    1    2    0    0  0.24238287412E+02  0.23277333426E+02 -0.27464419103E+02  0.43400727468E+02  0.00000000000E+00 0. -1.
         11    1    3    3    0    0 -0.12145465322E+02 -0.88433465467E+01  0.12239666408E+02  0.19378507168E+02  0.51100000000E-03 0. -1.
        -11    1    3    3    0    0 -0.14637430225E+01 -0.76229650306E+00 -0.29026155254E+01  0.33389843881E+01  0.51100000000E-03 0.  1.
        -12    1    3    3    0    0 -0.10629079068E+02 -0.13671690376E+02  0.18127368221E+02  0.25069780976E+02  0.00000000000E+00 0.  1.
</event>
<event>
 7    1  0.1634068E-009  0.4778727E+02  0.7816164E-02  0.1312668E+00
        -11   -1    0    0    0    0  0.00000000000E+00  0.00000000000E+00  0.45593999997E+02  0.45594000000E+02  0.51100000000E-03 0. -1.
         11   -1    0    0    0    0 -0.00000000000E+00 -0.00000000000E+00 -0.45593999997E+02  0.45594000000E+02  0.51100000000E-03 0.  1.
    9900012    2    1    2    0    0 -0.10245733395E+02  0.42910164899E+01 -0.41955158736E+02  0.47787271666E+02  0.20000002835E+02 0.  0.
         12    1    1    2    0    0  0.10245733395E+02 -0.42910164899E+01  0.41955158736E+02  0.43400728334E+02  0.00000000000E+00 0. -1.
         11    1    3    3    0    0  0.32738528948E+01  0.22534802397E+01 -0.20912190627E+01  0.44910448001E+01  0.51100000000E-03 0. -1.
        -11    1    3    3    0    0 -0.78556487472E+01  0.47913672597E+01 -0.14588555923E+02  0.17248025441E+02  0.51100000000E-03 0.  1.
         12    1    3    3    0    0 -0.56639375423E+01 -0.27538310095E+01 -0.25275383751E+02  0.26048201425E+02  0.00000000000E+00 0. -1.
</event>
<event>
 7    1  0.1634068E-009  0.4778727E+02  0.7816164E-02  0.1312668E+00
        -11   -1    0    0    0    0  0.00000000000E+00  0.00000000000E+00  0.45593999997E+02  0.45594000000E+02  0.51100000000E-03 0.  1.
         11   -1    0    0    0    0 -0.00000000000E+00 -0.00000000000E+00 -0.45593999997E+02  0.45594000000E+02  0.51100000000E-03 0. -1.
    9900012    2    1    2    0    0  0.37134049879E+02  0.22430007673E+02 -0.12572055487E+01  0.47787268781E+02  0.19999989679E+02 0.  0.
         12    1    1    2    0    0 -0.37134049879E+02 -0.22430007673E+02  0.12572055487E+01  0.43400731219E+02  0.00000000000E+00 0. -1.
         11    1    3    3    0    0  0.24275378183E+02  0.42775590761E+01  0.49058030977E+00  0.24654252511E+02  0.51100000000E-03 0.  1.
        -11    1    3    3    0    0 -0.39069732984E+00  0.18142037543E+01 -0.94464206315E+00  0.20823853040E+01  0.51100000000E-03 0. -1.
         12    1    3    3    0    0  0.13249369026E+02  0.16338244842E+02 -0.80314379532E+00  0.21050630966E+02  0.00000000000E+00 0. -1.
</event>
<event>
 7    1  0.1634068E-009  0.4778727E+02  0.7816164E-02  0.1312668E+00
        -11   -1    0    0    0    0  0.00000000000E+00  0.00000000000E+00  0.45593999997E+02  0.45594000000E+02  0.51100000000E-03 0. -1.
         11   -1    0    0    0    0 -0.00000000000E+00 -0.00000000000E+00 -0.45593999997E+02  0.45594000000E+02  0.51100000000E-03 0.  1.
    9900012    2    1    2    0    0 -0.39312049820E+02 -0.16187173321E+02 -0.87270653718E+01  0.47787268310E+02  0.19999987534E+02 0.  0.
         12    1    1    2    0    0  0.39312049820E+02  0.16187173321E+02  0.87270653718E+01  0.43400731690E+02  0.00000000000E+00 0. -1.
         11    1    3    3    0    0 -0.34323048142E+02 -0.11474371006E+02 -0.86344047888E+01  0.37205991050E+02  0.51100000000E-03 0. -1.
        -11    1    3    3    0    0 -0.14236849351E+01  0.15681127634E+01 -0.22039992574E+01  0.30567089199E+01  0.51100000000E-03 0.  1.
         12    1    3    3    0    0 -0.35653167434E+01 -0.62809150786E+01  0.21113386744E+01  0.75245683400E+01  0.00000000000E+00 0. -1.
</event>
<event>
 7    1  0.1634068E-009  0.4778728E+02  0.7816164E-02  0.1312668E+00
        -11   -1    0    0    0    0  0.00000000000E+00  0.00000000000E+00  0.45593999997E+02  0.45594000000E+02  0.51100000000E-03 0.  1.
         11   -1    0    0    0    0 -0.00000000000E+00 -0.00000000000E+00 -0.45593999997E+02  0.45594000000E+02  0.51100000000E-03 0. -1.
    9900012    2    1    2    0    0 -0.81135755879E+01  0.16913542922E+02  0.39137255422E+02  0.47787276447E+02  0.20000024632E+02 0.  0.
         12    1    1    2    0    0  0.81135755879E+01 -0.16913542922E+02 -0.39137255422E+02  0.43400723553E+02  0.00000000000E+00 0. -1.
         11    1    3    3    0    0  0.47809408224E+01  0.75960578012E+01  0.75728406140E+01  0.11743313182E+02  0.51100000000E-03 0. -1.
        -11    1    3    3    0    0 -0.27854069555E+01  0.26266986628E+01  0.15222088855E+02  0.15696178743E+02  0.51100000000E-03 0.  1.
         12    1    3    3    0    0 -0.10109109455E+02  0.66907864577E+01  0.16342325953E+02  0.20347784522E+02  0.00000000000E+00 0. -1.
</event>
<event>
 7    1  0.1634068E-009  0.4778726E+02  0.7816164E-02  0.1312668E+00
        -11   -1    0    0    0    0  0.00000000000E+00  0.00000000000E+00  0.45593999997E+02  0.45594000000E+02  0.51100000000E-03 0.  1.
         11   -1    0    0    0    0 -0.00000000000E+00 -0.00000000000E+00 -0.45593999997E+02  0.45594000000E+02  0.51100000000E-03 0. -1.
    9900012    2    1    2    0    0  0.65061383001E+01  0.29565221463E+02  0.31099717261E+02  0.47787256118E+02  0.19999931945E+02 0.  0.
         12    1    1    2    0    0 -0.65061383001E+01 -0.29565221463E+02 -0.31099717261E+02  0.43400743882E+02  0.00000000000E+00 0. -1.
         11    1    3    3    0    0 -0.26432036504E+01  0.11966904024E+02  0.80516426156E+01  0.14663637561E+02  0.51100000000E-03 0. -1.
        -11    1    3    3    0    0  0.10281122933E+02  0.12725365999E+02  0.22868557653E+02  0.28117740983E+02  0.51100000000E-03 0.  1.
         12    1    3    3    0    0 -0.11317809825E+01  0.48729514413E+01  0.17951699230E+00  0.50058775746E+01  0.00000000000E+00 0. -1.
</event>
<event>
 7    1  0.1634068E-009  0.4778727E+02  0.7816164E-02  0.1312668E+00
        -11   -1    0    0    0    0  0.00000000000E+00  0.00000000000E+00  0.45593999997E+02  0.45594000000E+02  0.51100000000E-03 0. -1.
         11   -1    0    0    0    0 -0.00000000000E+00 -0.00000000000E+00 -0.45593999997E+02  0.45594000000E+02  0.51100000000E-03 0.  1.
    9900012    2    1    2    0    0  0.11758478834E+02  0.41466453884E+02  0.50886939377E+01  0.47787269267E+02  0.19999991894E+02 0.  0.
         12    1    1    2    0    0 -0.11758478834E+02 -0.41466453884E+02 -0.50886939377E+01  0.43400730733E+02  0.00000000000E+00 0. -1.
         11    1    3    3    0    0 -0.30443602482E+01  0.14073301539E+02  0.15712787747E+01  0.14484297110E+02  0.51100000000E-03 0. -1.
        -11    1    3    3    0    0 -0.15593110220E+01  0.58494783401E+01  0.96387195563E+00  0.61299997653E+01  0.51100000000E-03 0.  1.
        -12    1    3    3    0    0  0.16362150104E+02  0.21543674005E+02  0.25535432074E+01  0.27172972391E+02  0.00000000000E+00 0.  1.
</event>
<event>
 7    1  0.1634068E-009  0.4778728E+02  0.7816164E-02  0.1312668E+00
        -11   -1    0    0    0    0  0.00000000000E+00  0.00000000000E+00  0.45593999997E+02  0.45594000000E+02  0.51100000000E-03 0.  1.
         11   -1    0    0    0    0 -0.00000000000E+00 -0.00000000000E+00 -0.45593999997E+02  0.45594000000E+02  0.51100000000E-03 0. -1.
    9900012    2    1    2    0    0  0.25469001057E+02  0.22826483950E+02  0.26718981840E+02  0.47787281401E+02  0.20000047219E+02 0.  0.
         12    1    1    2    0    0 -0.25469001057E+02 -0.22826483950E+02 -0.26718981840E+02  0.43400718599E+02  0.00000000000E+00 0. -1.
         11    1    3    3    0    0  0.98232522520E+01  0.40142943233E+01  0.38169355331E+01  0.11277403994E+02  0.51100000000E-03 0. -1.
        -11    1    3    3    0    0 -0.43936598499E+00  0.86041313656E+01  0.34433287460E+01  0.92779648706E+01  0.51100000000E-03 0.  1.
        -12    1    3    3    0    0  0.16085114790E+02  0.10208058261E+02  0.19458717560E+02  0.27231912536E+02  0.00000000000E+00 0.  1.
</event>
<event>
 7    1  0.1634068E-009  0.4778727E+02  0.7816164E-02  0.1312668E+00
        -11   -1    0    0    0    0  0.00000000000E+00  0.00000000000E+00  0.45593999997E+02  0.45594000000E+02  0.51100000000E-03 0.  1.
         11   -1    0    0    0    0 -0.00000000000E+00 -0.00000000000E+00 -0.45593999997E+02  0.45594000000E+02  0.51100000000E-03 0. -1.
    9900012    2    1    2    0    0  0.11690573385E+02 -0.27309493140E+02  0.31640877104E+02  0.47787273905E+02  0.20000013045E+02 0.  0.
         12    1    1    2    0    0 -0.11690573385E+02  0.27309493140E+02 -0.31640877104E+02  0.43400726095E+02  0.00000000000E+00 0. -1.
         11    1    3    3    0    0 -0.71787486650E+00 -0.46664890512E+01 -0.43253458417E-01  0.47215818866E+01  0.51100000000E-03 0. -1.
        -11    1    3    3    0    0 -0.20034409907E+01 -0.62510643127E+01  0.35659199707E+01  0.74702989460E+01  0.51100000000E-03 0.  1.
        -12    1    3    3    0    0  0.14411889242E+02 -0.16391939776E+02  0.28118210591E+02  0.35595393073E+02  0.00000000000E+00 0.  1.
</event>
<event>
 7    1  0.1634068E-009  0.4778726E+02  0.7816164E-02  0.1312668E+00
        -11   -1    0    0    0    0  0.00000000000E+00  0.00000000000E+00  0.45593999997E+02  0.45594000000E+02  0.51100000000E-03 0.  1.
         11   -1    0    0    0    0 -0.00000000000E+00 -0.00000000000E+00 -0.45593999997E+02  0.45594000000E+02  0.51100000000E-03 0. -1.
    9900012    2    1    2    0    0  0.13241820531E+02  0.17619757234E+02  0.37387468638E+02  0.47787257297E+02  0.19999937322E+02 0.  0.
         12    1    1    2    0    0 -0.13241820531E+02 -0.17619757234E+02 -0.37387468638E+02  0.43400742703E+02  0.00000000000E+00 0. -1.
         11    1    3    3    0    0  0.35495672011E+01  0.13362664774E+02  0.32315094836E+02  0.35148621476E+02  0.51100000000E-03 0. -1.
        -11    1    3    3    0    0  0.52727719144E+00  0.25916745376E+00  0.21390100965E+01  0.22182320572E+01  0.51100000000E-03 0.  1.
        -12    1    3    3    0    0  0.91649761386E+01  0.39979250057E+01  0.29333637063E+01  0.10420403764E+02  0.00000000000E+00 0.  1.
</event>
<event>
 7    1  0.1634068E-009  0.4778727E+02  0.7816164E-02  0.1312668E+00
        -11   -1    0    0    0    0  0.00000000000E+00  0.00000000000E+00  0.45593999997E+02  0.45594000000E+02  0.51100000000E-03 0.  1.
         11   -1    0    0    0    0 -0.00000000000E+00 -0.00000000000E+00 -0.45593999997E+02  0.45594000000E+02  0.51100000000E-03 0. -1.
    9900012    2    1    2    0    0 -0.33583197678E+01  0.90420283566E+01  0.42315324482E+02  0.47787271037E+02  0.19999999967E+02 0.  0.
         12    1    1    2    0    0  0.33583197678E+01 -0.90420283566E+01 -0.42315324482E+02  0.43400728963E+02  0.00000000000E+00 0. -1.
         11    1    3    3    0    0 -0.40357724097E+01 -0.69468078664E+00  0.74960089636E+01  0.85416737810E+01  0.51100000000E-03 0. -1.
        -11    1    3    3    0    0 -0.43085359676E+01  0.10588177290E+02  0.30576933287E+02  0.32643863588E+02  0.51100000000E-03 0.  1.
         12    1    3    3    0    0  0.49859886095E+01 -0.85146814660E+00  0.42423822321E+01  0.66017336679E+01  0.00000000000E+00 0. -1.
</event>
<event>
 7    1  0.1634068E-009  0.4778724E+02  0.7816164E-02  0.1312668E+00
        -11   -1    0    0    0    0  0.00000000000E+00  0.00000000000E+00  0.45593999997E+02  0.45594000000E+02  0.51100000000E-03 0.  1.
         11   -1    0    0    0    0 -0.00000000000E+00 -0.00000000000E+00 -0.45593999997E+02  0.45594000000E+02  0.51100000000E-03 0. -1.
    9900012    2    1    2    0    0 -0.39291198554E+02 -0.57972641447E+01  0.17499134833E+02  0.47787236466E+02  0.19999842345E+02 0.  0.
         12    1    1    2    0    0  0.39291198554E+02  0.57972641447E+01 -0.17499134833E+02  0.43400763534E+02  0.00000000000E+00 0. -1.
         11    1    3    3    0    0 -0.13515807442E+02 -0.21465365880E+01  0.12062563836E+02  0.18242535917E+02  0.51100000000E-03 0.  1.
        -11    1    3    3    0    0 -0.20063258703E+02 -0.82159153969E+01  0.33261509532E+01  0.21933966719E+02  0.51100000000E-03 0. -1.
        -12    1    3    3    0    0 -0.57121324088E+01  0.45651878402E+01  0.21104200435E+01  0.76107338301E+01  0.00000000000E+00 0.  1.
</event>
<event>
 7    1  0.1634068E-009  0.4778727E+02  0.7816164E-02  0.1312668E+00
        -11   -1    0    0    0    0  0.00000000000E+00  0.00000000000E+00  0.45593999997E+02  0.45594000000E+02  0.51100000000E-03 0.  1.
         11   -1    0    0    0    0 -0.00000000000E+00 -0.00000000000E+00 -0.45593999997E+02  0.45594000000E+02  0.51100000000E-03 0. -1.
    9900012    2    1    2    0    0  0.24966308807E+02  0.22665864116E+02  0.27323345797E+02  0.47787271928E+02  0.20000004030E+02 0.  0.
         12    1    1    2    0    0 -0.24966308807E+02 -0.22665864116E+02 -0.27323345797E+02  0.43400728072E+02  0.00000000000E+00 0. -1.
         11    1    3    3    0    0  0.16216418451E+01  0.53573113436E+00  0.69887539114E+01  0.71944014078E+01  0.51100000000E-03 0. -1.
        -11    1    3    3    0    0  0.76573381862E+01  0.15517549267E+02  0.59284732744E+01  0.18291417632E+02  0.51100000000E-03 0.  1.
        -12    1    3    3    0    0  0.15687328776E+02  0.66125837150E+01  0.14406118612E+02  0.22301452889E+02  0.00000000000E+00 0.  1.
</event>
<event>
 7    1  0.1634068E-009  0.4778727E+02  0.7816164E-02  0.1312668E+00
        -11   -1    0    0    0    0  0.00000000000E+00  0.00000000000E+00  0.45593999997E+02  0.45594000000E+02  0.51100000000E-03 0.  1.
         11   -1    0    0    0    0 -0.00000000000E+00 -0.00000000000E+00 -0.45593999997E+02  0.45594000000E+02  0.51100000000E-03 0. -1.
    9900012    2    1    2    0    0 -0.73689453767E+01 -0.45932423772E+01  0.42523218595E+02  0.47787270154E+02  0.19999995938E+02 0.  0.
         12    1    1    2    0    0  0.73689453767E+01  0.45932423772E+01 -0.42523218595E+02  0.43400729846E+02  0.00000000000E+00 0. -1.
         11    1    3    3    0    0 -0.47163327322E+00  0.48471112805E+01  0.22459336344E+02  0.22981268785E+02  0.51100000000E-03 0. -1.
        -11    1    3    3    0    0  0.17804844687E+01 -0.24820128914E+00  0.38290567171E+01  0.42300596245E+01  0.51100000000E-03 0.  1.
        -12    1    3    3    0    0 -0.86777965721E+01 -0.91921523685E+01  0.16234825534E+02  0.20575941744E+02  0.00000000000E+00 0.  1.
</event>
<event>
 7    1  0.1634068E-009  0.4778726E+02  0.7816164E-02  0.1312668E+00
        -11   -1    0    0    0    0  0.00000000000E+00  0.00000000000E+00  0.45593999997E+02  0.45594000000E+02  0.51100000000E-03 0.  1.
         11   -1    0    0    0    0 -0.00000000000E+00 -0.00000000000E+00 -0.45593999997E+02  0.45594000000E+02  0.51100000000E-03 0. -1.
    9900012    2    1    2    0    0  0.80197998209E+01  0.34629246945E+02  0.24902246697E+02  0.47787264710E+02  0.19999971119E+02 0.  0.
         12    1    1    2    0    0 -0.80197998209E+01 -0.34629246945E+02 -0.24902246697E+02  0.43400735290E+02  0.00000000000E+00 0. -1.
         11    1    3    3    0    0 -0.57896454543E+01  0.80069601858E+01  0.51634147063E+01  0.11148643756E+02  0.51100000000E-03 0. -1.
        -11    1    3    3    0    0  0.44715201730E+00  0.41050819220E+01  0.53619542359E+01  0.67677319688E+01  0.51100000000E-03 0.  1.
        -12    1    3    3    0    0  0.13362293258E+02  0.22517204837E+02  0.14376877755E+02  0.29870888985E+02  0.00000000000E+00 0.  1.
</event>
<event>
 7    1  0.1634068E-009  0.4778727E+02  0.7816164E-02  0.1312668E+00
        -11   -1    0    0    0    0  0.00000000000E+00  0.00000000000E+00  0.45593999997E+02  0.45594000000E+02  0.51100000000E-03 0.  1.
         11   -1    0    0    0    0 -0.00000000000E+00 -0.00000000000E+00 -0.45593999997E+02  0.45594000000E+02  0.51100000000E-03 0. -1.
    9900012    2    1    2    0    0  0.86820315515E+01 -0.25417979655E+02  0.34090647348E+02  0.47787267308E+02  0.19999982963E+02 0.  0.
         12    1    1    2    0    0 -0.86820315515E+01  0.25417979655E+02 -0.34090647348E+02  0.43400732692E+02  0.00000000000E+00 0. -1.
         11    1    3    3    0    0  0.23989833214E+01 -0.69072691347E-01  0.14338247907E+01  0.27956655387E+01  0.51100000000E-03 0. -1.
        -11    1    3    3    0    0  0.61083098915E+01 -0.13092403327E+02  0.59848847722E+01  0.15637817003E+02  0.51100000000E-03 0.  1.
         12    1    3    3    0    0  0.17473833862E+00 -0.12256503636E+02  0.26671937786E+02  0.29353784766E+02  0.00000000000E+00 0. -1.
</event>
<event>
 7    1  0.2138285E-009  0.4778727E+02  0.7816164E-02  0.1312668E+00
        -11   -1    0    0    0    0  0.00000000000E+00  0.00000000000E+00  0.45593999997E+02  0.45594000000E+02  0.51100000000E-03 0. -1.
         11   -1    0    0    0    0 -0.00000000000E+00 -0.00000000000E+00 -0.45593999997E+02  0.45594000000E+02  0.51100000000E-03 0.  1.
    9900012    2    1    2    0    0 -0.15222494998E+02 -0.38101070844E+02 -0.14149462824E+02  0.47787271301E+02  0.20000001169E+02 0.  0.
         12    1    1    2    0    0  0.15222494998E+02  0.38101070844E+02  0.14149462824E+02  0.43400728699E+02  0.00000000000E+00 0. -1.
         11    1    3    3    0    0  0.29918496250E+01 -0.11842392695E+01 -0.28559899290E+01  0.43023558153E+01  0.51100000000E-03 0. -1.
        -11    1    3    3    0    0 -0.66136756706E+01 -0.17834851780E+02 -0.89770974347E+01  0.21033566567E+02  0.51100000000E-03 0.  1.
        -12    1    3    3    0    0 -0.11600668953E+02 -0.19081979794E+02 -0.23163754606E+01  0.22451348919E+02  0.00000000000E+00 0.  1.
</event>
<event>
 7    1  0.1634068E-009  0.4778727E+02  0.7816164E-02  0.1312668E+00
        -11   -1    0    0    0    0  0.00000000000E+00  0.00000000000E+00  0.45593999997E+02  0.45594000000E+02  0.51100000000E-03 0. -1.
         11   -1    0    0    0    0 -0.00000000000E+00 -0.00000000000E+00 -0.45593999997E+02  0.45594000000E+02  0.51100000000E-03 0.  1.
    9900012    2    1    2    0    0 -0.22924341450E+02  0.35849978236E+02  0.85367919269E+01  0.47787272047E+02  0.20000004570E+02 0.  0.
         12    1    1    2    0    0  0.22924341450E+02 -0.35849978236E+02 -0.85367919269E+01  0.43400727953E+02  0.00000000000E+00 0. -1.
         11    1    3    3    0    0 -0.83650094744E+01  0.23457945170E+01 -0.60923939355E+00  0.87090360157E+01  0.51100000000E-03 0. -1.
        -11    1    3    3    0    0 -0.13987326532E+02  0.20881227541E+02  0.80686516470E+01  0.26396479060E+02  0.51100000000E-03 0.  1.
         12    1    3    3    0    0 -0.57200544407E+00  0.12622956178E+02  0.10773796735E+01  0.12681756971E+02  0.00000000000E+00 0. -1.
</event>
<event>
 7    1  0.1634068E-009  0.4778727E+02  0.7816164E-02  0.1312668E+00
        -11   -1    0    0    0    0  0.00000000000E+00  0.00000000000E+00  0.45593999997E+02  0.45594000000E+02  0.51100000000E-03 0. -1.
         11   -1    0    0    0    0 -0.00000000000E+00 -0.00000000000E+00 -0.45593999997E+02  0.45594000000E+02  0.51100000000E-03 0.  1.
    9900012    2    1    2    0    0  0.46649788105E+01 -0.20389891351E+02 -0.38027799423E+02  0.47787271601E+02  0.20000002536E+02 0.  0.
         12    1    1    2    0    0 -0.46649788105E+01  0.20389891351E+02  0.38027799423E+02  0.43400728399E+02  0.00000000000E+00 0. -1.
         11    1    3    3    0    0  0.44236425441E+01 -0.50355181159E+01 -0.21046638169E+01  0.70252876166E+01  0.51100000000E-03 0. -1.
        -11    1    3    3    0    0  0.54832772090E+01 -0.87335453744E+01 -0.24276866718E+02  0.26376265878E+02  0.51100000000E-03 0.  1.
         12    1    3    3    0    0 -0.52419409426E+01 -0.66208278605E+01 -0.11646268888E+02  0.14385718106E+02  0.00000000000E+00 0. -1.
</event>
<event>
 7    1  0.1634068E-009  0.4778727E+02  0.7816164E-02  0.1312668E+00
        -11   -1    0    0    0    0  0.00000000000E+00  0.00000000000E+00  0.45593999997E+02  0.45594000000E+02  0.51100000000E-03 0. -1.
         11   -1    0    0    0    0 -0.00000000000E+00 -0.00000000000E+00 -0.45593999997E+02  0.45594000000E+02  0.51100000000E-03 0.  1.
    9900012    2    1    2    0    0  0.28451900304E+02  0.23599412034E+02 -0.22741598913E+02  0.47787271891E+02  0.20000003859E+02 0.  0.
         12    1    1    2    0    0 -0.28451900304E+02 -0.23599412034E+02  0.22741598913E+02  0.43400728109E+02  0.00000000000E+00 0. -1.
         11    1    3    3    0    0  0.75206095600E+01  0.56649871058E+01  0.27981360021E+00  0.94196572642E+01  0.51100000000E-03 0. -1.
        -11    1    3    3    0    0  0.22345129030E+02  0.16879233582E+02 -0.18628868218E+02  0.33634031115E+02  0.51100000000E-03 0.  1.
        -12    1    3    3    0    0 -0.14138382859E+01  0.10551913462E+01 -0.43925442954E+01  0.47335835118E+01  0.00000000000E+00 0.  1.
</event>
<event>
 7    1  0.1634068E-009  0.4778727E+02  0.7816164E-02  0.1312668E+00
        -11   -1    0    0    0    0  0.00000000000E+00  0.00000000000E+00  0.45593999997E+02  0.45594000000E+02  0.51100000000E-03 0. -1.
         11   -1    0    0    0    0 -0.00000000000E+00 -0.00000000000E+00 -0.45593999997E+02  0.45594000000E+02  0.51100000000E-03 0.  1.
    9900012    2    1    2    0    0 -0.18324815143E+02 -0.37939922863E+02 -0.10410898391E+02  0.47787269566E+02  0.19999993259E+02 0.  0.
         12    1    1    2    0    0  0.18324815143E+02  0.37939922863E+02  0.10410898391E+02  0.43400730434E+02  0.00000000000E+00 0. -1.
         11    1    3    3    0    0  0.33616503092E+01 -0.11256732580E+01 -0.22004100361E+01  0.41724857906E+01  0.51100000000E-03 0.  1.
        -11    1    3    3    0    0 -0.13987244421E+02 -0.21075886219E+02 -0.54944203064E+01  0.25884834193E+02  0.51100000000E-03 0. -1.
        -12    1    3    3    0    0 -0.76992210317E+01 -0.15738363386E+02 -0.27160680482E+01  0.17729949583E+02  0.00000000000E+00 0.  1.
</event>
<event>
 7    1  0.1634068E-009  0.4778727E+02  0.7816164E-02  0.1312668E+00
        -11   -1    0    0    0    0  0.00000000000E+00  0.00000000000E+00  0.45593999997E+02  0.45594000000E+02  0.51100000000E-03 0.  1.
         11   -1    0    0    0    0 -0.00000000000E+00 -0.00000000000E+00 -0.45593999997E+02  0.45594000000E+02  0.51100000000E-03 0. -1.
    9900012    2    1    2    0    0 -0.43165137946E+01  0.23813491725E+02  0.36026504281E+02  0.47787266248E+02  0.19999978131E+02 0.  0.
         12    1    1    2    0    0  0.43165137946E+01 -0.23813491725E+02 -0.36026504281E+02  0.43400733752E+02  0.00000000000E+00 0. -1.
         11    1    3    3    0    0 -0.52250470484E+01  0.22618220237E+02  0.17735108498E+02  0.29213337315E+02  0.51100000000E-03 0. -1.
        -11    1    3    3    0    0 -0.87407211529E+00 -0.24354729644E+00  0.63855588107E+01  0.64497037865E+01  0.51100000000E-03 0.  1.
        -12    1    3    3    0    0  0.17826053690E+01  0.14388187843E+01  0.11905836972E+02  0.12124225146E+02  0.00000000000E+00 0.  1.
</event>
<event>
 7    1  0.1634068E-009  0.4778727E+02  0.7816164E-02  0.1312668E+00
        -11   -1    0    0    0    0  0.00000000000E+00  0.00000000000E+00  0.45593999997E+02  0.45594000000E+02  0.51100000000E-03 0.  1.
         11   -1    0    0    0    0 -0.00000000000E+00 -0.00000000000E+00 -0.45593999997E+02  0.45594000000E+02  0.51100000000E-03 0. -1.
    9900012    2    1    2    0    0  0.10975528340E+02  0.17005632419E+02  0.38392309633E+02  0.47787271950E+02  0.20000004130E+02 0.  0.
         12    1    1    2    0    0 -0.10975528340E+02 -0.17005632419E+02 -0.38392309633E+02  0.43400728050E+02  0.00000000000E+00 0. -1.
         11    1    3    3    0    0  0.16981346745E+01  0.84043901801E+01  0.15845390479E+02  0.18016487875E+02  0.51100000000E-03 0. -1.
        -11    1    3    3    0    0  0.13280608217E+02  0.67190697010E+01  0.15830101663E+02  0.21728151582E+02  0.51100000000E-03 0.  1.
         12    1    3    3    0    0 -0.40032145514E+01  0.18821725383E+01  0.67168174915E+01  0.80426324933E+01  0.00000000000E+00 0. -1.
</event>
<event>
 7    1  0.1634068E-009  0.4778727E+02  0.7816164E-02  0.1312668E+00
        -11   -1    0    0    0    0  0.00000000000E+00  0.00000000000E+00  0.45593999997E+02  0.45594000000E+02  0.51100000000E-03 0. -1.
         11   -1    0    0    0    0 -0.00000000000E+00 -0.00000000000E+00 -0.45593999997E+02  0.45594000000E+02  0.51100000000E-03 0.  1.
    9900012    2    1    2    0    0  0.18367229883E+02  0.18696039999E+02 -0.34593731218E+02  0.47787270919E+02  0.19999999426E+02 0.  0.
         12    1    1    2    0    0 -0.18367229883E+02 -0.18696039999E+02  0.34593731218E+02  0.43400729081E+02  0.00000000000E+00 0. -1.
         11    1    3    3    0    0  0.20332503328E+02  0.11890342673E+02 -0.24474447889E+02  0.33967477684E+02  0.51100000000E-03 0.  1.
        -11    1    3    3    0    0 -0.20941359746E+00  0.31456083857E+01 -0.26687820896E+00  0.31638474063E+01  0.51100000000E-03 0. -1.
         12    1    3    3    0    0 -0.17558598471E+01  0.36600889399E+01 -0.98524051198E+01  0.10655945828E+02  0.00000000000E+00 0. -1.
</event>
<event>
 7    1  0.1634068E-009  0.4778727E+02  0.7816164E-02  0.1312668E+00
        -11   -1    0    0    0    0  0.00000000000E+00  0.00000000000E+00  0.45593999997E+02  0.45594000000E+02  0.51100000000E-03 0. -1.
         11   -1    0    0    0    0 -0.00000000000E+00 -0.00000000000E+00 -0.45593999997E+02  0.45594000000E+02  0.51100000000E-03 0.  1.
    9900012    2    1    2    0    0 -0.33080218310E+02  0.27377028275E+02  0.63103685757E+01  0.47787271064E+02  0.20000000088E+02 0.  0.
         12    1    1    2    0    0  0.33080218310E+02 -0.27377028275E+02 -0.63103685757E+01  0.43400728936E+02  0.00000000000E+00 0. -1.
         11    1    3    3    0    0  0.10757341818E+01  0.30103267195E+01  0.47229096773E+01  0.57030822429E+01  0.51100000000E-03 0. -1.
        -11    1    3    3    0    0 -0.11121893256E+02  0.82257561308E+01  0.18504523634E+01  0.13956494822E+02  0.51100000000E-03 0.  1.
         12    1    3    3    0    0 -0.23034059237E+02  0.16140945425E+02 -0.26299346499E+00  0.28127693999E+02  0.00000000000E+00 0. -1.
</event>
<event>
 7    1  0.1634068E-009  0.4778727E+02  0.7816164E-02  0.1312668E+00
        -11   -1    0    0    0    0  0.00000000000E+00  0.00000000000E+00  0.45593999997E+02  0.45594000000E+02  0.51100000000E-03 0. -1.
         11   -1    0    0    0    0 -0.00000000000E+00 -0.00000000000E+00 -0.45593999997E+02  0.45594000000E+02  0.51100000000E-03 0.  1.
    9900012    2    1    2    0    0  0.41752007848E+02  0.80456814435E+01  0.86982934713E+01  0.47787268917E+02  0.19999990301E+02 0.  0.
         12    1    1    2    0    0 -0.41752007848E+02 -0.80456814435E+01 -0.86982934713E+01  0.43400731083E+02  0.00000000000E+00 0. -1.
         11    1    3    3    0    0  0.36308669679E+02  0.29090219183E+01  0.13290507039E+01  0.36449256212E+02  0.51100000000E-03 0. -1.
        -11    1    3    3    0    0  0.11284283320E+01  0.31259307951E+00 -0.38962605516E+00  0.12340476724E+01  0.51100000000E-03 0.  1.
         12    1    3    3    0    0  0.43149098364E+01  0.48240664457E+01  0.77588688226E+01  0.10103965032E+02  0.00000000000E+00 0. -1.
</event>
<event>
 7    1  0.1634068E-009  0.4778727E+02  0.7816164E-02  0.1312668E+00
        -11   -1    0    0    0    0  0.00000000000E+00  0.00000000000E+00  0.45593999997E+02  0.45594000000E+02  0.51100000000E-03 0.  1.
         11   -1    0    0    0    0 -0.00000000000E+00 -0.00000000000E+00 -0.45593999997E+02  0.45594000000E+02  0.51100000000E-03 0. -1.
    9900012    2    1    2    0    0 -0.94763266200E+01 -0.12334402653E+01  0.42335574213E+02  0.47787274372E+02  0.20000015171E+02 0.  0.
         12    1    1    2    0    0  0.94763266200E+01  0.12334402653E+01 -0.42335574213E+02  0.43400725628E+02  0.00000000000E+00 0. -1.
         11    1    3    3    0    0  0.21345629707E+01  0.23728969115E+01  0.13091459962E+02  0.13474914583E+02  0.51100000000E-03 0. -1.
        -11    1    3    3    0    0 -0.64383606021E+01 -0.69202908399E+01  0.25310358404E+02  0.27017719285E+02  0.51100000000E-03 0.  1.
        -12    1    3    3    0    0 -0.51725289886E+01  0.33139536631E+01  0.39337558476E+01  0.72946405044E+01  0.00000000000E+00 0.  1.
</event>
<event>
 7    1  0.1634068E-009  0.4778727E+02  0.7816164E-02  0.1312668E+00
        -11   -1    0    0    0    0  0.00000000000E+00  0.00000000000E+00  0.45593999997E+02  0.45594000000E+02  0.51100000000E-03 0.  1.
         11   -1    0    0    0    0 -0.00000000000E+00 -0.00000000000E+00 -0.45593999997E+02  0.45594000000E+02  0.51100000000E-03 0. -1.
    9900012    2    1    2    0    0 -0.32145577108E+02  0.28629094092E+02  0.55371849836E+01  0.47787267590E+02  0.19999984251E+02 0.  0.
         12    1    1    2    0    0  0.32145577108E+02 -0.28629094092E+02 -0.55371849836E+01  0.43400732410E+02  0.00000000000E+00 0. -1.
         11    1    3    3    0    0 -0.16800468985E+01  0.23526805942E+01  0.32242092567E+01  0.43304952548E+01  0.51100000000E-03 0. -1.
        -11    1    3    3    0    0 -0.30213028493E+02  0.18143072365E+02  0.14189631896E+01  0.35270548938E+02  0.51100000000E-03 0.  1.
         12    1    3    3    0    0 -0.25250171663E+00  0.81333411329E+01  0.89401253725E+00  0.81862233978E+01  0.00000000000E+00 0. -1.
</event>
<event>
 7    1  0.1634068E-009  0.4778726E+02  0.7816164E-02  0.1312668E+00
        -11   -1    0    0    0    0  0.00000000000E+00  0.00000000000E+00  0.45593999997E+02  0.45594000000E+02  0.51100000000E-03 0. -1.
         11   -1    0    0    0    0 -0.00000000000E+00 -0.00000000000E+00 -0.45593999997E+02  0.45594000000E+02  0.51100000000E-03 0.  1.
    9900012    2    1    2    0    0 -0.34411186197E+02 -0.26209836405E+02 -0.35410005880E+01  0.47787263313E+02  0.19999964748E+02 0.  0.
         12    1    1    2    0    0  0.34411186197E+02  0.26209836405E+02  0.35410005880E+01  0.43400736687E+02  0.00000000000E+00 0. -1.
         11    1    3    3    0    0 -0.13074401849E+02 -0.12132534088E+02  0.66498797954E+01  0.19035736620E+02  0.51100000000E-03 0. -1.
        -11    1    3    3    0    0 -0.25439995745E+01 -0.29752389176E+00 -0.38088362446E+01  0.45899551306E+01  0.51100000000E-03 0.  1.
        -12    1    3    3    0    0 -0.18792784773E+02 -0.13779778426E+02 -0.63820441387E+01  0.24161571563E+02  0.00000000000E+00 0.  1.
</event>
<event>
 7    1  0.1634068E-009  0.4778727E+02  0.7816164E-02  0.1312668E+00
        -11   -1    0    0    0    0  0.00000000000E+00  0.00000000000E+00  0.45593999997E+02  0.45594000000E+02  0.51100000000E-03 0. -1.
         11   -1    0    0    0    0 -0.00000000000E+00 -0.00000000000E+00 -0.45593999997E+02  0.45594000000E+02  0.51100000000E-03 0.  1.
    9900012    2    1    2    0    0 -0.24140361937E+02 -0.32166250365E+02 -0.16315594757E+02  0.47787269946E+02  0.19999994992E+02 0.  0.
         12    1    1    2    0    0  0.24140361937E+02  0.32166250365E+02  0.16315594757E+02  0.43400730054E+02  0.00000000000E+00 0. -1.
         11    1    3    3    0    0 -0.17050427688E+02 -0.25392353041E+02 -0.89876460847E+01  0.31878934419E+02  0.51100000000E-03 0. -1.
        -11    1    3    3    0    0  0.40074703785E+00 -0.36070468456E+01  0.14805659407E+01  0.39196250970E+01  0.51100000000E-03 0.  1.
        -12    1    3    3    0    0 -0.74906812867E+01 -0.31668504780E+01 -0.88085146125E+01  0.11988710430E+02  0.00000000000E+00 0.  1.
</event>
<event>
 7    1  0.1634068E-009  0.4778726E+02  0.7816164E-02  0.1312668E+00
        -11   -1    0    0    0    0  0.00000000000E+00  0.00000000000E+00  0.45593999997E+02  0.45594000000E+02  0.51100000000E-03 0. -1.
         11   -1    0    0    0    0 -0.00000000000E+00 -0.00000000000E+00 -0.45593999997E+02  0.45594000000E+02  0.51100000000E-03 0.  1.
    9900012    2    1    2    0    0 -0.23751688914E+02  0.25097761140E+02 -0.26259926419E+02  0.47787261803E+02  0.19999957865E+02 0.  0.
         12    1    1    2    0    0  0.23751688914E+02 -0.25097761140E+02  0.26259926419E+02  0.43400738197E+02  0.00000000000E+00 0. -1.
         11    1    3    3    0    0  0.11468423899E+00  0.43030232530E+01 -0.49569104663E+01  0.65650684096E+01  0.51100000000E-03 0. -1.
        -11    1    3    3    0    0 -0.23271721602E+02  0.19182751741E+02 -0.13168779853E+02  0.32908475408E+02  0.51100000000E-03 0.  1.
        -12    1    3    3    0    0 -0.59465155158E+00  0.16119861467E+01 -0.81342360999E+01  0.83137179850E+01  0.00000000000E+00 0.  1.
</event>
<event>
 7    1  0.1634068E-009  0.4778728E+02  0.7816164E-02  0.1312668E+00
        -11   -1    0    0    0    0  0.00000000000E+00  0.00000000000E+00  0.45593999997E+02  0.45594000000E+02  0.51100000000E-03 0. -1.
         11   -1    0    0    0    0 -0.00000000000E+00 -0.00000000000E+00 -0.45593999997E+02  0.45594000000E+02  0.51100000000E-03 0.  1.
    9900012    2    1    2    0    0 -0.40034888931E+02  0.78087322072E+01  0.14827461519E+02  0.47787282892E+02  0.20000054016E+02 0.  0.
         12    1    1    2    0    0  0.40034888931E+02 -0.78087322072E+01 -0.14827461519E+02  0.43400717108E+02  0.00000000000E+00 0. -1.
         11    1    3    3    0    0 -0.10980568561E+02  0.13119377331E-01  0.86822323147E+01  0.13998364771E+02  0.51100000000E-03 0. -1.
        -11    1    3    3    0    0 -0.10926705014E+02 -0.23065645903E+01 -0.22687478901E+01  0.11395628106E+02  0.51100000000E-03 0.  1.
         12    1    3    3    0    0 -0.18127615356E+02  0.10102177420E+02  0.84139770944E+01  0.22393290014E+02  0.00000000000E+00 0. -1.
</event>
<event>
 7    1  0.1634068E-009  0.4778727E+02  0.7816164E-02  0.1312668E+00
        -11   -1    0    0    0    0  0.00000000000E+00  0.00000000000E+00  0.45593999997E+02  0.45594000000E+02  0.51100000000E-03 0.  1.
         11   -1    0    0    0    0 -0.00000000000E+00 -0.00000000000E+00 -0.45593999997E+02  0.45594000000E+02  0.51100000000E-03 0. -1.
    9900012    2    1    2    0    0  0.15762278180E+02  0.36442135794E+02  0.17525546342E+02  0.47787269024E+02  0.19999990790E+02 0.  0.
         12    1    1    2    0    0 -0.15762278180E+02 -0.36442135794E+02 -0.17525546342E+02  0.43400730976E+02  0.00000000000E+00 0. -1.
         11    1    3    3    0    0  0.47543722784E+01  0.12916628626E+02  0.14290527972E+01  0.13837830140E+02  0.51100000000E-03 0.  1.
        -11    1    3    3    0    0  0.11133813038E+02  0.17178594429E+02  0.18065911975E+02  0.27302803429E+02  0.51100000000E-03 0. -1.
         12    1    3    3    0    0 -0.12590713724E+00  0.63469127383E+01 -0.19694184303E+01  0.66466354548E+01  0.00000000000E+00 0. -1.
</event>
<event>
 7    1  0.1634068E-009  0.4778721E+02  0.7816164E-02  0.1312668E+00
        -11   -1    0    0    0    0  0.00000000000E+00  0.00000000000E+00  0.45593999997E+02  0.45594000000E+02  0.51100000000E-03 0.  1.
         11   -1    0    0    0    0 -0.00000000000E+00 -0.00000000000E+00 -0.45593999997E+02  0.45594000000E+02  0.51100000000E-03 0. -1.
    9900012    2    1    2    0    0 -0.24783663997E+02 -0.20399562888E+02  0.29210553211E+02  0.47787209846E+02  0.19999720968E+02 0.  0.
         12    1    1    2    0    0  0.24783663997E+02  0.20399562888E+02 -0.29210553211E+02  0.43400790154E+02  0.00000000000E+00 0. -1.
         11    1    3    3    0    0 -0.61715406399E+01  0.10143770501E+01  0.41557231552E+01  0.75091217778E+01  0.51100000000E-03 0. -1.
        -11    1    3    3    0    0 -0.80000681967E+01 -0.21146901606E+01  0.22523921292E+01  0.85759125574E+01  0.51100000000E-03 0.  1.
        -12    1    3    3    0    0 -0.10612055160E+02 -0.19299249778E+02  0.22802437927E+02  0.31702175510E+02  0.00000000000E+00 0.  1.
</event>
<event>
 7    1  0.1634068E-009  0.4778727E+02  0.7816164E-02  0.1312668E+00
        -11   -1    0    0    0    0  0.00000000000E+00  0.00000000000E+00  0.45593999997E+02  0.45594000000E+02  0.51100000000E-03 0.  1.
         11   -1    0    0    0    0 -0.00000000000E+00 -0.00000000000E+00 -0.45593999997E+02  0.45594000000E+02  0.51100000000E-03 0. -1.
    9900012    2    1    2    0    0  0.12954062397E+02  0.21535441657E+01  0.41366382855E+02  0.47787272869E+02  0.20000008317E+02 0.  0.
         12    1    1    2    0    0 -0.12954062397E+02 -0.21535441657E+01 -0.41366382855E+02  0.43400727131E+02  0.00000000000E+00 0. -1.
         11    1    3    3    0    0  0.10180707587E+02  0.45994283874E+01  0.17014357983E+02  0.20354113253E+02  0.51100000000E-03 0.  1.
        -11    1    3    3    0    0  0.15070362073E+01  0.39991476363E+01  0.33564625724E+01  0.54341679408E+01  0.51100000000E-03 0. -1.
         12    1    3    3    0    0  0.12663186019E+01 -0.64450318580E+01  0.20995562299E+02  0.21998991675E+02  0.00000000000E+00 0. -1.
</event>
<event>
 7    1  0.1634068E-009  0.4778726E+02  0.7816164E-02  0.1312668E+00
        -11   -1    0    0    0    0  0.00000000000E+00  0.00000000000E+00  0.45593999997E+02  0.45594000000E+02  0.51100000000E-03 0. -1.
         11   -1    0    0    0    0 -0.00000000000E+00 -0.00000000000E+00 -0.45593999997E+02  0.45594000000E+02  0.51100000000E-03 0.  1.
    9900012    2    1    2    0    0  0.38616767706E+02  0.13946732972E+02 -0.14066193777E+02  0.47787263646E+02  0.19999966269E+02 0.  0.
         12    1    1    2    0    0 -0.38616767706E+02 -0.13946732972E+02  0.14066193777E+02  0.43400736354E+02  0.00000000000E+00 0. -1.
         11    1    3    3    0    0  0.22830467268E+01 -0.48043729565E+00  0.29906128319E+00  0.23521395078E+01  0.51100000000E-03 0. -1.
        -11    1    3    3    0    0  0.36037028384E+02  0.12746601722E+02 -0.82750717449E+01  0.39110357744E+02  0.51100000000E-03 0.  1.
         12    1    3    3    0    0  0.29669259571E+00  0.16805685456E+01 -0.60901833156E+01  0.63247663949E+01  0.00000000000E+00 0. -1.
</event>
<event>
 7    1  0.1673451E-009  0.4778725E+02  0.7816164E-02  0.1312668E+00
        -11   -1    0    0    0    0  0.00000000000E+00  0.00000000000E+00  0.45593999997E+02  0.45594000000E+02  0.51100000000E-03 0. -1.
         11   -1    0    0    0    0 -0.00000000000E+00 -0.00000000000E+00 -0.45593999997E+02  0.45594000000E+02  0.51100000000E-03 0.  1.
    9900012    2    1    2    0    0  0.35582917104E+02 -0.24407597108E+02  0.46637427716E+01  0.47787247899E+02  0.19999894473E+02 0.  0.
         12    1    1    2    0    0 -0.35582917104E+02  0.24407597108E+02 -0.46637427716E+01  0.43400752101E+02  0.00000000000E+00 0. -1.
         11    1    3    3    0    0  0.14440488431E+02 -0.89758217733E+01  0.79279742249E+01  0.18760220100E+02  0.51100000000E-03 0. -1.
        -11    1    3    3    0    0  0.22113844174E+02 -0.16126430615E+02 -0.22526499582E+01  0.27461942769E+02  0.51100000000E-03 0.  1.
         12    1    3    3    0    0 -0.97141550057E+00  0.69465527996E+00 -0.10115814951E+01  0.15650850309E+01  0.00000000000E+00 0. -1.
</event>
<event>
 7    1  0.1634068E-009  0.4778725E+02  0.7816164E-02  0.1312668E+00
        -11   -1    0    0    0    0  0.00000000000E+00  0.00000000000E+00  0.45593999997E+02  0.45594000000E+02  0.51100000000E-03 0. -1.
         11   -1    0    0    0    0 -0.00000000000E+00 -0.00000000000E+00 -0.45593999997E+02  0.45594000000E+02  0.51100000000E-03 0.  1.
    9900012    2    1    2    0    0 -0.14559835105E+02  0.29718654987E+02 -0.28079132621E+02  0.47787251835E+02  0.19999912415E+02 0.  0.
         12    1    1    2    0    0  0.14559835105E+02 -0.29718654987E+02  0.28079132621E+02  0.43400748165E+02  0.00000000000E+00 0. -1.
         11    1    3    3    0    0 -0.36320562786E+01  0.35550771209E+01 -0.92196106144E+01  0.10527660058E+02  0.51100000000E-03 0. -1.
        -11    1    3    3    0    0  0.72576306885E+00  0.65680835089E+01  0.14058197373E+01  0.67559442276E+01  0.51100000000E-03 0.  1.
        -12    1    3    3    0    0 -0.11653541895E+02  0.19595494357E+02 -0.20265341744E+02  0.30503647550E+02  0.00000000000E+00 0.  1.
</event>
<event>
 7    1  0.1634068E-009  0.4778728E+02  0.7816164E-02  0.1312668E+00
        -11   -1    0    0    0    0  0.00000000000E+00  0.00000000000E+00  0.45593999997E+02  0.45594000000E+02  0.51100000000E-03 0.  1.
         11   -1    0    0    0    0 -0.00000000000E+00 -0.00000000000E+00 -0.45593999997E+02  0.45594000000E+02  0.51100000000E-03 0. -1.
    9900012    2    1    2    0    0  0.99551130008E+01 -0.42058860854E+02  0.39458992092E+01  0.47787283742E+02  0.20000057892E+02 0.  0.
         12    1    1    2    0    0 -0.99551130008E+01  0.42058860854E+02 -0.39458992092E+01  0.43400716258E+02  0.00000000000E+00 0. -1.
         11    1    3    3    0    0 -0.21737907167E+01 -0.28711057571E+02  0.99012041504E+00  0.28810250461E+02  0.51100000000E-03 0. -1.
        -11    1    3    3    0    0  0.11445236423E+01 -0.29581947583E+01  0.21581519975E+01  0.38364659390E+01  0.51100000000E-03 0.  1.
        -12    1    3    3    0    0  0.10984380075E+02 -0.10389608524E+02  0.79762679669E+00  0.15140567342E+02  0.00000000000E+00 0.  1.
</event>
<event>
 7    1  0.1634068E-009  0.4778727E+02  0.7816164E-02  0.1312668E+00
        -11   -1    0    0    0    0  0.00000000000E+00  0.00000000000E+00  0.45593999997E+02  0.45594000000E+02  0.51100000000E-03 0.  1.
         11   -1    0    0    0    0 -0.00000000000E+00 -0.00000000000E+00 -0.45593999997E+02  0.45594000000E+02  0.51100000000E-03 0. -1.
    9900012    2    1    2    0    0 -0.17414292461E+02 -0.72881175387E+01  0.39080034842E+02  0.47787270025E+02  0.19999995350E+02 0.  0.
         12    1    1    2    0    0  0.17414292461E+02  0.72881175387E+01 -0.39080034842E+02  0.43400729975E+02  0.00000000000E+00 0. -1.
         11    1    3    3    0    0 -0.63179636408E+01 -0.25676834652E+01  0.24230824814E+02  0.25172257236E+02  0.51100000000E-03 0. -1.
        -11    1    3    3    0    0 -0.56868116961E+01 -0.86149358893E+01  0.80195670352E+01  0.13071740639E+02  0.51100000000E-03 0.  1.
         12    1    3    3    0    0 -0.54095171240E+01  0.38945018158E+01  0.68296429925E+01  0.95432721492E+01  0.00000000000E+00 0. -1.
</event>
<event>
 7    1  0.1634068E-009  0.4778727E+02  0.7816164E-02  0.1312668E+00
        -11   -1    0    0    0    0  0.00000000000E+00  0.00000000000E+00  0.45593999997E+02  0.45594000000E+02  0.51100000000E-03 0.  1.
         11   -1    0    0    0    0 -0.00000000000E+00 -0.00000000000E+00 -0.45593999997E+02  0.45594000000E+02  0.51100000000E-03 0. -1.
    9900012    2    1    2    0    0  0.21970005189E+02  0.99927664632E+01  0.36070580381E+02  0.47787270990E+02  0.19999999751E+02 0.  0.
         12    1    1    2    0    0 -0.21970005189E+02 -0.99927664632E+01 -0.36070580381E+02  0.43400729010E+02  0.00000000000E+00 0. -1.
         11    1    3    3    0    0  0.39918491015E+01 -0.13992863125E+01  0.34155134515E+01  0.54367815693E+01  0.51100000000E-03 0. -1.
        -11    1    3    3    0    0  0.14972203020E+02  0.15649264515E+02  0.27674444436E+02  0.35141730439E+02  0.51100000000E-03 0.  1.
        -12    1    3    3    0    0  0.30059530670E+01 -0.42572117390E+01  0.49806224936E+01  0.72087589816E+01  0.00000000000E+00 0.  1.
</event>
<event>
 7    1  0.1634068E-009  0.4778727E+02  0.7816164E-02  0.1312668E+00
        -11   -1    0    0    0    0  0.00000000000E+00  0.00000000000E+00  0.45593999997E+02  0.45594000000E+02  0.51100000000E-03 0.  1.
         11   -1    0    0    0    0 -0.00000000000E+00 -0.00000000000E+00 -0.45593999997E+02  0.45594000000E+02  0.51100000000E-03 0. -1.
    9900012    2    1    2    0    0  0.14877462191E+02 -0.51802988170E+01  0.40440683753E+02  0.47787270980E+02  0.19999999707E+02 0.  0.
         12    1    1    2    0    0 -0.14877462191E+02  0.51802988170E+01 -0.40440683753E+02  0.43400729020E+02  0.00000000000E+00 0. -1.
         11    1    3    3    0    0  0.57815196484E+01 -0.23406156795E+01  0.21764561882E+01  0.66061647727E+01  0.51100000000E-03 0. -1.
        -11    1    3    3    0    0  0.53231102555E+00 -0.53073786875E+00 -0.81458406520E+00  0.11084156141E+01  0.51100000000E-03 0.  1.
        -12    1    3    3    0    0  0.85636315167E+01 -0.23089452688E+01  0.39078811630E+02  0.40072690593E+02  0.00000000000E+00 0.  1.
</event>
<event>
 7    1  0.1634068E-009  0.4778727E+02  0.7816164E-02  0.1312668E+00
        -11   -1    0    0    0    0  0.00000000000E+00  0.00000000000E+00  0.45593999997E+02  0.45594000000E+02  0.51100000000E-03 0.  1.
         11   -1    0    0    0    0 -0.00000000000E+00 -0.00000000000E+00 -0.45593999997E+02  0.45594000000E+02  0.51100000000E-03 0. -1.
    9900012    2    1    2    0    0  0.30806736889E+02 -0.18907096128E+02 -0.24022705010E+02  0.47787266392E+02  0.19999978787E+02 0.  0.
         12    1    1    2    0    0 -0.30806736889E+02  0.18907096128E+02  0.24022705010E+02  0.43400733608E+02  0.00000000000E+00 0. -1.
         11    1    3    3    0    0  0.11805637776E+02 -0.87137929559E+01 -0.19520220531E+02  0.24420120409E+02  0.51100000000E-03 0. -1.
        -11    1    3    3    0    0  0.17309100236E+02 -0.11073574879E+02 -0.54194713978E+01  0.21250874854E+02  0.51100000000E-03 0.  1.
        -12    1    3    3    0    0  0.16919988772E+01  0.88027170774E+00  0.91698691829E+00  0.21162711283E+01  0.00000000000E+00 0.  1.
</event>
<event>
 7    1  0.1634068E-009  0.4778727E+02  0.7816164E-02  0.1312668E+00
        -11   -1    0    0    0    0  0.00000000000E+00  0.00000000000E+00  0.45593999997E+02  0.45594000000E+02  0.51100000000E-03 0. -1.
         11   -1    0    0    0    0 -0.00000000000E+00 -0.00000000000E+00 -0.45593999997E+02  0.45594000000E+02  0.51100000000E-03 0.  1.
    9900012    2    1    2    0    0 -0.10897508758E+02 -0.28145192742E+02 -0.31188392635E+02  0.47787269513E+02  0.19999993020E+02 0.  0.
         12    1    1    2    0    0  0.10897508758E+02  0.28145192742E+02  0.31188392635E+02  0.43400730487E+02  0.00000000000E+00 0. -1.
         11    1    3    3    0    0 -0.25524938088E+01 -0.31336884898E+00  0.14937983261E-01  0.25717013987E+01  0.51100000000E-03 0. -1.
        -11    1    3    3    0    0 -0.34988248387E+01 -0.20736375330E+02 -0.29854979329E+02  0.36517924750E+02  0.51100000000E-03 0.  1.
        -12    1    3    3    0    0 -0.48461901102E+01 -0.70954485635E+01 -0.13483512895E+01  0.86976433648E+01  0.00000000000E+00 0.  1.
</event>
<event>
 7    1  0.1634068E-009  0.4778728E+02  0.7816164E-02  0.1312668E+00
        -11   -1    0    0    0    0  0.00000000000E+00  0.00000000000E+00  0.45593999997E+02  0.45594000000E+02  0.51100000000E-03 0.  1.
         11   -1    0    0    0    0 -0.00000000000E+00 -0.00000000000E+00 -0.45593999997E+02  0.45594000000E+02  0.51100000000E-03 0. -1.
    9900012    2    1    2    0    0 -0.31814473857E+02  0.29458642121E+02  0.19105718002E+01  0.47787278497E+02  0.20000033978E+02 0.  0.
         12    1    1    2    0    0  0.31814473857E+02 -0.29458642121E+02 -0.19105718002E+01  0.43400721503E+02  0.00000000000E+00 0. -1.
         11    1    3    3    0    0 -0.94033887423E+01  0.14292383889E+02 -0.73295320246E+01  0.18612307676E+02  0.51100000000E-03 0. -1.
        -11    1    3    3    0    0 -0.40857791478E+01  0.23008388076E+01  0.40378635910E+01  0.61880362881E+01  0.51100000000E-03 0.  1.
        -12    1    3    3    0    0 -0.18325305967E+02  0.12865419424E+02  0.52022402338E+01  0.22986934532E+02  0.00000000000E+00 0.  1.
</event>
<event>
 7    1  0.1634068E-009  0.4778727E+02  0.7816164E-02  0.1312668E+00
        -11   -1    0    0    0    0  0.00000000000E+00  0.00000000000E+00  0.45593999997E+02  0.45594000000E+02  0.51100000000E-03 0.  1.
         11   -1    0    0    0    0 -0.00000000000E+00 -0.00000000000E+00 -0.45593999997E+02  0.45594000000E+02  0.51100000000E-03 0. -1.
    9900012    2    1    2    0    0  0.14016498526E+02  0.39026784904E+02  0.12809024262E+02  0.47787271050E+02  0.20000000025E+02 0.  0.
         12    1    1    2    0    0 -0.14016498526E+02 -0.39026784904E+02 -0.12809024262E+02  0.43400728950E+02  0.00000000000E+00 0. -1.
         11    1    3    3    0    0  0.12737854099E+01  0.35685998792E+01 -0.25099858374E+01  0.45450482432E+01  0.51100000000E-03 0. -1.
        -11    1    3    3    0    0  0.80742424793E+00  0.10317835419E+02  0.10958408708E+02  0.15073034974E+02  0.51100000000E-03 0.  1.
         12    1    3    3    0    0  0.11935288868E+02  0.25140349605E+02  0.43606013916E+01  0.28169187833E+02  0.00000000000E+00 0. -1.
</event>
<event>
 7    1  0.1634068E-009  0.4778728E+02  0.7816164E-02  0.1312668E+00
        -11   -1    0    0    0    0  0.00000000000E+00  0.00000000000E+00  0.45593999997E+02  0.45594000000E+02  0.51100000000E-03 0. -1.
         11   -1    0    0    0    0 -0.00000000000E+00 -0.00000000000E+00 -0.45593999997E+02  0.45594000000E+02  0.51100000000E-03 0.  1.
    9900012    2    1    2    0    0  0.23149086005E+02 -0.34981239378E+02 -0.11138026052E+02  0.47787275171E+02  0.20000018815E+02 0.  0.
         12    1    1    2    0    0 -0.23149086005E+02  0.34981239378E+02  0.11138026052E+02  0.43400724829E+02  0.00000000000E+00 0. -1.
         11    1    3    3    0    0  0.53719986337E+01 -0.32838753025E+01  0.26671257807E+01  0.68378188419E+01  0.51100000000E-03 0. -1.
        -11    1    3    3    0    0  0.18814255132E+02 -0.24070302102E+02 -0.13029198557E+02  0.33213184953E+02  0.51100000000E-03 0.  1.
         12    1    3    3    0    0 -0.10371677604E+01 -0.76270619738E+01 -0.77595327639E+00  0.77362713760E+01  0.00000000000E+00 0. -1.
</event>
<event>
 7    1  0.1634068E-009  0.4778727E+02  0.7816164E-02  0.1312668E+00
        -11   -1    0    0    0    0  0.00000000000E+00  0.00000000000E+00  0.45593999997E+02  0.45594000000E+02  0.51100000000E-03 0.  1.
         11   -1    0    0    0    0 -0.00000000000E+00 -0.00000000000E+00 -0.45593999997E+02  0.45594000000E+02  0.51100000000E-03 0. -1.
    9900012    2    1    2    0    0  0.22631400059E+02  0.89296161731E+01  0.35940295711E+02  0.47787272248E+02  0.20000005485E+02 0.  0.
         12    1    1    2    0    0 -0.22631400059E+02 -0.89296161731E+01 -0.35940295711E+02  0.43400727752E+02  0.00000000000E+00 0. -1.
         11    1    3    3    0    0  0.85404019518E+01  0.83406188829E+01  0.17916097824E+02  0.21528839968E+02  0.51100000000E-03 0. -1.
        -11    1    3    3    0    0  0.14921320436E+02 -0.40000339008E+00  0.19329683989E+02  0.24422172091E+02  0.51100000000E-03 0.  1.
         12    1    3    3    0    0 -0.83032232949E+00  0.98900068031E+00 -0.13054861021E+01  0.18362601883E+01  0.00000000000E+00 0. -1.
</event>
<event>
 7    1  0.1634068E-009  0.4778728E+02  0.7816164E-02  0.1312668E+00
        -11   -1    0    0    0    0  0.00000000000E+00  0.00000000000E+00  0.45593999997E+02  0.45594000000E+02  0.51100000000E-03 0. -1.
         11   -1    0    0    0    0 -0.00000000000E+00 -0.00000000000E+00 -0.45593999997E+02  0.45594000000E+02  0.51100000000E-03 0.  1.
    9900012    2    1    2    0    0 -0.30396229228E+02  0.30945842976E+02 -0.14306817208E+01  0.47787276516E+02  0.20000024947E+02 0.  0.
         12    1    1    2    0    0  0.30396229228E+02 -0.30945842976E+02  0.14306817208E+01  0.43400723484E+02  0.00000000000E+00 0. -1.
         11    1    3    3    0    0 -0.53079749083E+01  0.51381253806E+01  0.58488765547E+01  0.94225414442E+01  0.51100000000E-03 0.  1.
        -11    1    3    3    0    0 -0.37398412006E+01  0.10626188370E+02 -0.40469924967E+01  0.11969980785E+02  0.51100000000E-03 0. -1.
         12    1    3    3    0    0 -0.21348413119E+02  0.15181529225E+02 -0.32325657788E+01  0.26394754286E+02  0.00000000000E+00 0. -1.
</event>
<event>
 7    1  0.1634068E-009  0.4778727E+02  0.7816164E-02  0.1312668E+00
        -11   -1    0    0    0    0  0.00000000000E+00  0.00000000000E+00  0.45593999997E+02  0.45594000000E+02  0.51100000000E-03 0. -1.
         11   -1    0    0    0    0 -0.00000000000E+00 -0.00000000000E+00 -0.45593999997E+02  0.45594000000E+02  0.51100000000E-03 0.  1.
    9900012    2    1    2    0    0  0.27673727218E+01  0.30214908124E+02 -0.31032627821E+02  0.47787274037E+02  0.20000013642E+02 0.  0.
         12    1    1    2    0    0 -0.27673727218E+01 -0.30214908124E+02  0.31032627821E+02  0.43400725963E+02  0.00000000000E+00 0. -1.
         11    1    3    3    0    0 -0.22347620468E+01  0.10284654921E+02 -0.66178604229E+01  0.12432391768E+02  0.51100000000E-03 0. -1.
        -11    1    3    3    0    0  0.94945307654E+01  0.18603904657E+02 -0.19858667074E+02  0.28820444846E+02  0.51100000000E-03 0.  1.
         12    1    3    3    0    0 -0.44923959968E+01  0.13263485462E+01 -0.45561003241E+01  0.65344374220E+01  0.00000000000E+00 0. -1.
</event>
<event>
 7    1  0.1634068E-009  0.4778727E+02  0.7816164E-02  0.1312668E+00
        -11   -1    0    0    0    0  0.00000000000E+00  0.00000000000E+00  0.45593999997E+02  0.45594000000E+02  0.51100000000E-03 0.  1.
         11   -1    0    0    0    0 -0.00000000000E+00 -0.00000000000E+00 -0.45593999997E+02  0.45594000000E+02  0.51100000000E-03 0. -1.
    9900012    2    1    2    0    0 -0.15960738325E+02  0.62130398378E+01  0.39878265869E+02  0.47787272810E+02  0.20000008049E+02 0.  0.
         12    1    1    2    0    0  0.15960738325E+02 -0.62130398378E+01 -0.39878265869E+02  0.43400727190E+02  0.00000000000E+00 0. -1.
         11    1    3    3    0    0 -0.95552484999E+00  0.14481330322E+00 -0.19815091673E+01  0.22046263794E+01  0.51100000000E-03 0. -1.
        -11    1    3    3    0    0 -0.30952286465E+01 -0.57285050646E+00  0.16415911236E+02  0.16714985494E+02  0.51100000000E-03 0.  1.
        -12    1    3    3    0    0 -0.11909984828E+02  0.66410770411E+01  0.25443863800E+02  0.28867660937E+02  0.00000000000E+00 0.  1.
</event>
<event>
 7    1  0.1634068E-009  0.4778727E+02  0.7816164E-02  0.1312668E+00
        -11   -1    0    0    0    0  0.00000000000E+00  0.00000000000E+00  0.45593999997E+02  0.45594000000E+02  0.51100000000E-03 0.  1.
         11   -1    0    0    0    0 -0.00000000000E+00 -0.00000000000E+00 -0.45593999997E+02  0.45594000000E+02  0.51100000000E-03 0. -1.
    9900012    2    1    2    0    0  0.36421973187E+02 -0.22451708692E+02 -0.72790231116E+01  0.47787268077E+02  0.19999986469E+02 0.  0.
         12    1    1    2    0    0 -0.36421973187E+02  0.22451708692E+02  0.72790231116E+01  0.43400731923E+02  0.00000000000E+00 0. -1.
         11    1    3    3    0    0  0.17983448541E+01 -0.49864505135E+01 -0.53096778297E+00  0.53273501842E+01  0.51100000000E-03 0. -1.
        -11    1    3    3    0    0  0.16228241786E+02 -0.16062372984E+02 -0.73918128540E+01  0.23999886559E+02  0.51100000000E-03 0.  1.
        -12    1    3    3    0    0  0.18395386547E+02 -0.14028851950E+01  0.64375752534E+00  0.18460031333E+02  0.00000000000E+00 0.  1.
</event>
<event>
 7    1  0.1634068E-009  0.4778727E+02  0.7816164E-02  0.1312668E+00
        -11   -1    0    0    0    0  0.00000000000E+00  0.00000000000E+00  0.45593999997E+02  0.45594000000E+02  0.51100000000E-03 0.  1.
         11   -1    0    0    0    0 -0.00000000000E+00 -0.00000000000E+00 -0.45593999997E+02  0.45594000000E+02  0.51100000000E-03 0. -1.
    9900012    2    1    2    0    0  0.18376548657E+01 -0.38971376789E+02  0.19012581213E+02  0.47787269262E+02  0.19999991873E+02 0.  0.
         12    1    1    2    0    0 -0.18376548657E+01  0.38971376789E+02 -0.19012581213E+02  0.43400730738E+02  0.00000000000E+00 0. -1.
         11    1    3    3    0    0 -0.11533848978E+00 -0.91066279358E+01  0.88295782251E+01  0.12684850303E+02  0.51100000000E-03 0.  1.
        -11    1    3    3    0    0  0.42518728758E+01 -0.12157465115E+02 -0.26040479666E+01  0.13140146386E+02  0.51100000000E-03 0. -1.
         12    1    3    3    0    0 -0.22988795203E+01 -0.17707283738E+02  0.12787050954E+02  0.21962272573E+02  0.00000000000E+00 0. -1.
</event>
<event>
 7    1  0.1634068E-009  0.4778727E+02  0.7816164E-02  0.1312668E+00
        -11   -1    0    0    0    0  0.00000000000E+00  0.00000000000E+00  0.45593999997E+02  0.45594000000E+02  0.51100000000E-03 0.  1.
         11   -1    0    0    0    0 -0.00000000000E+00 -0.00000000000E+00 -0.45593999997E+02  0.45594000000E+02  0.51100000000E-03 0. -1.
    9900012    2    1    2    0    0  0.29281584086E+02  0.31986819779E+02  0.17479235170E+01  0.47787273707E+02  0.20000012140E+02 0.  0.
         12    1    1    2    0    0 -0.29281584086E+02 -0.31986819779E+02 -0.17479235170E+01  0.43400726293E+02  0.00000000000E+00 0. -1.
         11    1    3    3    0    0  0.38159283567E+01  0.11253054838E+02 -0.90159441911E+00  0.11916602921E+02  0.51100000000E-03 0. -1.
        -11    1    3    3    0    0  0.17090003599E+02  0.18075764785E+02 -0.35344112854E+01  0.25125555893E+02  0.51100000000E-03 0.  1.
        -12    1    3    3    0    0  0.83756521305E+01  0.26580001559E+01  0.61839292215E+01  0.10745114893E+02  0.00000000000E+00 0.  1.
</event>
<event>
 7    1  0.1634068E-009  0.4778727E+02  0.7816164E-02  0.1312668E+00
        -11   -1    0    0    0    0  0.00000000000E+00  0.00000000000E+00  0.45593999997E+02  0.45594000000E+02  0.51100000000E-03 0.  1.
         11   -1    0    0    0    0 -0.00000000000E+00 -0.00000000000E+00 -0.45593999997E+02  0.45594000000E+02  0.51100000000E-03 0. -1.
    9900012    2    1    2    0    0 -0.13917075107E+02  0.24341858379E+02  0.33127213239E+02  0.47787270676E+02  0.19999998321E+02 0.  0.
         12    1    1    2    0    0  0.13917075107E+02 -0.24341858379E+02 -0.33127213239E+02  0.43400729324E+02  0.00000000000E+00 0. -1.
         11    1    3    3    0    0 -0.36050554034E+01  0.50243802964E+01 -0.19375517308E+00  0.61869510385E+01  0.51100000000E-03 0. -1.
        -11    1    3    3    0    0 -0.16912397563E+01  0.14307114024E+02  0.23757110742E+02  0.27784062242E+02  0.51100000000E-03 0.  1.
         12    1    3    3    0    0 -0.86207799469E+01  0.50103640592E+01  0.95638576696E+01  0.13816257396E+02  0.00000000000E+00 0. -1.
</event>
<event>
 7    1  0.1634068E-009  0.4778727E+02  0.7816164E-02  0.1312668E+00
        -11   -1    0    0    0    0  0.00000000000E+00  0.00000000000E+00  0.45593999997E+02  0.45594000000E+02  0.51100000000E-03 0.  1.
         11   -1    0    0    0    0 -0.00000000000E+00 -0.00000000000E+00 -0.45593999997E+02  0.45594000000E+02  0.51100000000E-03 0. -1.
    9900012    2    1    2    0    0 -0.14898364828E-01 -0.15876947558E+02  0.40392391041E+02  0.47787274894E+02  0.20000017551E+02 0.  0.
         12    1    1    2    0    0  0.14898364828E-01  0.15876947558E+02 -0.40392391041E+02  0.43400725106E+02  0.00000000000E+00 0. -1.
         11    1    3    3    0    0 -0.25814671216E+01 -0.40595842794E+01  0.14037581709E+01  0.50114602947E+01  0.51100000000E-03 0. -1.
        -11    1    3    3    0    0 -0.41188254605E+01 -0.65135092689E+01  0.26874713534E+02  0.27957838864E+02  0.51100000000E-03 0.  1.
         12    1    3    3    0    0  0.66853942173E+01 -0.53038540095E+01  0.12113919337E+02  0.14817975735E+02  0.00000000000E+00 0. -1.
</event>
<event>
 7    1  0.1634068E-009  0.4778727E+02  0.7816164E-02  0.1312668E+00
        -11   -1    0    0    0    0  0.00000000000E+00  0.00000000000E+00  0.45593999997E+02  0.45594000000E+02  0.51100000000E-03 0. -1.
         11   -1    0    0    0    0 -0.00000000000E+00 -0.00000000000E+00 -0.45593999997E+02  0.45594000000E+02  0.51100000000E-03 0.  1.
    9900012    2    1    2    0    0 -0.18004204055E+02  0.33860074776E+02 -0.20321600785E+02  0.47787268601E+02  0.19999988858E+02 0.  0.
         12    1    1    2    0    0  0.18004204055E+02 -0.33860074776E+02  0.20321600785E+02  0.43400731399E+02  0.00000000000E+00 0. -1.
         11    1    3    3    0    0 -0.86515343192E+01  0.41954963912E+01 -0.83948091345E+01  0.12764170820E+02  0.51100000000E-03 0. -1.
        -11    1    3    3    0    0 -0.88191835274E+01  0.20873543327E+02 -0.13042428033E+02  0.26145510864E+02  0.51100000000E-03 0.  1.
         12    1    3    3    0    0 -0.53348620847E+00  0.87910350583E+01  0.11156363817E+01  0.88775869169E+01  0.00000000000E+00 0. -1.
</event>
<event>
 7    1  0.1634068E-009  0.4778727E+02  0.7816164E-02  0.1312668E+00
        -11   -1    0    0    0    0  0.00000000000E+00  0.00000000000E+00  0.45593999997E+02  0.45594000000E+02  0.51100000000E-03 0.  1.
         11   -1    0    0    0    0 -0.00000000000E+00 -0.00000000000E+00 -0.45593999997E+02  0.45594000000E+02  0.51100000000E-03 0. -1.
    9900012    2    1    2    0    0 -0.11002285498E+02 -0.20331135932E+02  0.36731697535E+02  0.47787274450E+02  0.20000015528E+02 0.  0.
         12    1    1    2    0    0  0.11002285498E+02  0.20331135932E+02 -0.36731697535E+02  0.43400725550E+02  0.00000000000E+00 0. -1.
         11    1    3    3    0    0 -0.36475417584E+01 -0.12944499838E+02  0.15210405100E+02  0.20303227834E+02  0.51100000000E-03 0. -1.
        -11    1    3    3    0    0 -0.86125416050E+01 -0.94314365280E+01  0.21587084040E+02  0.25082465299E+02  0.51100000000E-03 0.  1.
         12    1    3    3    0    0  0.12577978654E+01  0.20448004341E+01 -0.65791604527E-01  0.24015813167E+01  0.00000000000E+00 0. -1.
</event>
<event>
 7    1  0.1634068E-009  0.4778727E+02  0.7816164E-02  0.1312668E+00
        -11   -1    0    0    0    0  0.00000000000E+00  0.00000000000E+00  0.45593999997E+02  0.45594000000E+02  0.51100000000E-03 0.  1.
         11   -1    0    0    0    0 -0.00000000000E+00 -0.00000000000E+00 -0.45593999997E+02  0.45594000000E+02  0.51100000000E-03 0. -1.
    9900012    2    1    2    0    0  0.10976447686E+02 -0.71895745825E+01  0.41369689874E+02  0.47787266979E+02  0.19999981463E+02 0.  0.
         12    1    1    2    0    0 -0.10976447686E+02  0.71895745825E+01 -0.41369689874E+02  0.43400733021E+02  0.00000000000E+00 0. -1.
         11    1    3    3    0    0 -0.12030741700E+01 -0.21344214613E+01 -0.12615991244E+00  0.24533770639E+01  0.51100000000E-03 0. -1.
        -11    1    3    3    0    0 -0.19292689135E+01 -0.25935880164E+01  0.36868018324E+01  0.49031913436E+01  0.51100000000E-03 0.  1.
        -12    1    3    3    0    0  0.14108790769E+02 -0.24615651048E+01  0.37809047954E+02  0.40430698571E+02  0.00000000000E+00 0.  1.
</event>
<event>
 7    1  0.1634068E-009  0.4778727E+02  0.7816164E-02  0.1312668E+00
        -11   -1    0    0    0    0  0.00000000000E+00  0.00000000000E+00  0.45593999997E+02  0.45594000000E+02  0.51100000000E-03 0. -1.
         11   -1    0    0    0    0 -0.00000000000E+00 -0.00000000000E+00 -0.45593999997E+02  0.45594000000E+02  0.51100000000E-03 0.  1.
    9900012    2    1    2    0    0 -0.39514081663E+01 -0.42299514204E+02  0.88747400649E+01  0.47787267983E+02  0.19999986040E+02 0.  0.
         12    1    1    2    0    0  0.39514081663E+01  0.42299514204E+02 -0.88747400649E+01  0.43400732017E+02  0.00000000000E+00 0. -1.
         11    1    3    3    0    0  0.16485714542E+01 -0.12812293758E+02  0.80544334996E+01  0.15223224311E+02  0.51100000000E-03 0. -1.
        -11    1    3    3    0    0 -0.57686578797E+01 -0.30242927133E+02  0.23208193603E+01  0.30875528466E+02  0.51100000000E-03 0.  1.
         12    1    3    3    0    0  0.16867825928E+00  0.75570668615E+00 -0.15005127950E+01  0.16885152053E+01  0.00000000000E+00 0. -1.
</event>
<event>
 7    1  0.1634068E-009  0.4778727E+02  0.7816164E-02  0.1312668E+00
        -11   -1    0    0    0    0  0.00000000000E+00  0.00000000000E+00  0.45593999997E+02  0.45594000000E+02  0.51100000000E-03 0.  1.
         11   -1    0    0    0    0 -0.00000000000E+00 -0.00000000000E+00 -0.45593999997E+02  0.45594000000E+02  0.51100000000E-03 0. -1.
    9900012    2    1    2    0    0 -0.90823289050E+00 -0.42899565973E+02  0.65134913472E+01  0.47787271697E+02  0.20000002977E+02 0.  0.
         12    1    1    2    0    0  0.90823289050E+00  0.42899565973E+02 -0.65134913472E+01  0.43400728303E+02  0.00000000000E+00 0. -1.
         11    1    3    3    0    0 -0.95176730434E+01 -0.19594211576E+02  0.22158906745E+01  0.21895876306E+02  0.51100000000E-03 0. -1.
        -11    1    3    3    0    0  0.31959153668E+01 -0.97486099532E+01 -0.11217208089E+01  0.10320248490E+02  0.51100000000E-03 0.  1.
        -12    1    3    3    0    0  0.54135247860E+01 -0.13556744444E+02  0.54193214815E+01  0.15571146902E+02  0.00000000000E+00 0.  1.
</event>
<event>
 7    1  0.1634068E-009  0.4778727E+02  0.7816164E-02  0.1312668E+00
        -11   -1    0    0    0    0  0.00000000000E+00  0.00000000000E+00  0.45593999997E+02  0.45594000000E+02  0.51100000000E-03 0.  1.
         11   -1    0    0    0    0 -0.00000000000E+00 -0.00000000000E+00 -0.45593999997E+02  0.45594000000E+02  0.51100000000E-03 0. -1.
    9900012    2    1    2    0    0 -0.52076997139E+01  0.25896874347E+02  0.34436245696E+02  0.47787271263E+02  0.20000000996E+02 0.  0.
         12    1    1    2    0    0  0.52076997139E+01 -0.25896874347E+02 -0.34436245696E+02  0.43400728737E+02  0.00000000000E+00 0. -1.
         11    1    3    3    0    0  0.39945442885E+01  0.13313201989E+02  0.23256107575E+02  0.27093251394E+02  0.51100000000E-03 0.  1.
        -11    1    3    3    0    0 -0.13157716892E+01  0.52549758153E+00  0.46757478678E+01  0.48856955729E+01  0.51100000000E-03 0. -1.
        -12    1    3    3    0    0 -0.78864723132E+01  0.12058174776E+02  0.65043902533E+01  0.15808324296E+02  0.00000000000E+00 0.  1.
</event>
<event>
 7    1  0.1634068E-009  0.4778727E+02  0.7816164E-02  0.1312668E+00
        -11   -1    0    0    0    0  0.00000000000E+00  0.00000000000E+00  0.45593999997E+02  0.45594000000E+02  0.51100000000E-03 0.  1.
         11   -1    0    0    0    0 -0.00000000000E+00 -0.00000000000E+00 -0.45593999997E+02  0.45594000000E+02  0.51100000000E-03 0. -1.
    9900012    2    1    2    0    0  0.31448685834E+00 -0.41880872506E+02  0.11380545195E+02  0.47787271978E+02  0.20000004258E+02 0.  0.
         12    1    1    2    0    0 -0.31448685834E+00  0.41880872506E+02 -0.11380545195E+02  0.43400728022E+02  0.00000000000E+00 0. -1.
         11    1    3    3    0    0 -0.39602436503E+01 -0.95034800518E+01  0.54033323951E+01  0.11627367032E+02  0.51100000000E-03 0. -1.
        -11    1    3    3    0    0  0.50818844175E+01 -0.28989728251E+02  0.97698254383E+01  0.31010955849E+02  0.51100000000E-03 0.  1.
         12    1    3    3    0    0 -0.80715390890E+00 -0.33876642036E+01 -0.37926126381E+01  0.51489490978E+01  0.00000000000E+00 0. -1.
</event>
<event>
 7    1  0.1634068E-009  0.4778726E+02  0.7816164E-02  0.1312668E+00
        -11   -1    0    0    0    0  0.00000000000E+00  0.00000000000E+00  0.45593999997E+02  0.45594000000E+02  0.51100000000E-03 0.  1.
         11   -1    0    0    0    0 -0.00000000000E+00 -0.00000000000E+00 -0.45593999997E+02  0.45594000000E+02  0.51100000000E-03 0. -1.
    9900012    2    1    2    0    0  0.20774669575E+02 -0.28511026579E+02  0.25281596219E+02  0.47787255307E+02  0.19999928245E+02 0.  0.
         12    1    1    2    0    0 -0.20774669575E+02  0.28511026579E+02 -0.25281596219E+02  0.43400744693E+02  0.00000000000E+00 0. -1.
         11    1    3    3    0    0  0.26659444312E+01 -0.50709598583E+01 -0.13647061077E+01  0.58893392342E+01  0.51100000000E-03 0. -1.
        -11    1    3    3    0    0  0.55575206207E+01 -0.12509438165E+01  0.98198547716E+01  0.11352552307E+02  0.51100000000E-03 0.  1.
        -12    1    3    3    0    0  0.12551204523E+02 -0.22189122905E+02  0.16826447555E+02  0.30545363766E+02  0.00000000000E+00 0.  1.
</event>
<event>
 7    1  0.1634068E-009  0.4778724E+02  0.7816164E-02  0.1312668E+00
        -11   -1    0    0    0    0  0.00000000000E+00  0.00000000000E+00  0.45593999997E+02  0.45594000000E+02  0.51100000000E-03 0.  1.
         11   -1    0    0    0    0 -0.00000000000E+00 -0.00000000000E+00 -0.45593999997E+02  0.45594000000E+02  0.51100000000E-03 0. -1.
    9900012    2    1    2    0    0 -0.17627437335E+02 -0.21930445420E+02  0.33044740141E+02  0.47787241547E+02  0.19999865509E+02 0.  0.
         12    1    1    2    0    0  0.17627437335E+02  0.21930445420E+02 -0.33044740141E+02  0.43400758453E+02  0.00000000000E+00 0. -1.
         11    1    3    3    0    0 -0.11810513172E+02 -0.48961925559E+01  0.48956774609E+01  0.13690455836E+02  0.51100000000E-03 0. -1.
        -11    1    3    3    0    0 -0.48648449825E+01 -0.12679741481E+02  0.15107378635E+02  0.20314414838E+02  0.51100000000E-03 0.  1.
        -12    1    3    3    0    0 -0.95207918028E+00 -0.43545113826E+01  0.13041684045E+02  0.13782370873E+02  0.00000000000E+00 0.  1.
</event>
<event>
 7    1  0.1634068E-009  0.4778727E+02  0.7816164E-02  0.1312668E+00
        -11   -1    0    0    0    0  0.00000000000E+00  0.00000000000E+00  0.45593999997E+02  0.45594000000E+02  0.51100000000E-03 0. -1.
         11   -1    0    0    0    0 -0.00000000000E+00 -0.00000000000E+00 -0.45593999997E+02  0.45594000000E+02  0.51100000000E-03 0.  1.
    9900012    2    1    2    0    0  0.81735612796E+00 -0.10167380657E+02 -0.42185065692E+02  0.47787268809E+02  0.19999989808E+02 0.  0.
         12    1    1    2    0    0 -0.81735612796E+00  0.10167380657E+02  0.42185065692E+02  0.43400731191E+02  0.00000000000E+00 0. -1.
         11    1    3    3    0    0  0.37167299684E+01  0.32921578898E+01 -0.10538223172E+02  0.11649314705E+02  0.51100000000E-03 0. -1.
        -11    1    3    3    0    0  0.16532078049E+01  0.55199224989E+00 -0.86707149452E+01  0.88441556642E+01  0.51100000000E-03 0.  1.
        -12    1    3    3    0    0 -0.45525816453E+01 -0.14011530797E+02 -0.22976127575E+02  0.27293798439E+02  0.00000000000E+00 0.  1.
</event>
<event>
 7    1  0.1634068E-009  0.4778727E+02  0.7816164E-02  0.1312668E+00
        -11   -1    0    0    0    0  0.00000000000E+00  0.00000000000E+00  0.45593999997E+02  0.45594000000E+02  0.51100000000E-03 0. -1.
         11   -1    0    0    0    0 -0.00000000000E+00 -0.00000000000E+00 -0.45593999997E+02  0.45594000000E+02  0.51100000000E-03 0.  1.
    9900012    2    1    2    0    0 -0.15867396743E+01  0.43334861882E+02 -0.17874676572E+01  0.47787273765E+02  0.20000012402E+02 0.  0.
         12    1    1    2    0    0  0.15867396743E+01 -0.43334861882E+02  0.17874676572E+01  0.43400726235E+02  0.00000000000E+00 0. -1.
         11    1    3    3    0    0 -0.19637414504E+01  0.10407381818E+02 -0.66593220660E+01  0.12510653357E+02  0.51100000000E-03 0.  1.
        -11    1    3    3    0    0  0.51491219227E+01  0.77031382284E+01  0.11641806592E+01  0.93384748224E+01  0.51100000000E-03 0. -1.
        -12    1    3    3    0    0 -0.47721201466E+01  0.25224341836E+02  0.37076737496E+01  0.25938145585E+02  0.00000000000E+00 0.  1.
</event>
<event>
 7    1  0.1634068E-009  0.4778727E+02  0.7816164E-02  0.1312668E+00
        -11   -1    0    0    0    0  0.00000000000E+00  0.00000000000E+00  0.45593999997E+02  0.45594000000E+02  0.51100000000E-03 0.  1.
         11   -1    0    0    0    0 -0.00000000000E+00 -0.00000000000E+00 -0.45593999997E+02  0.45594000000E+02  0.51100000000E-03 0. -1.
    9900012    2    1    2    0    0  0.63373368709E+01 -0.28159803524E+02  0.32411220604E+02  0.47787267354E+02  0.19999983174E+02 0.  0.
         12    1    1    2    0    0 -0.63373368709E+01  0.28159803524E+02 -0.32411220604E+02  0.43400732646E+02  0.00000000000E+00 0. -1.
         11    1    3    3    0    0  0.66715853484E+01 -0.88135188378E+01  0.14396915593E+02  0.18151014964E+02  0.51100000000E-03 0. -1.
        -11    1    3    3    0    0  0.47770788584E+01 -0.16722506164E+02  0.11037670497E+02  0.20598370447E+02  0.51100000000E-03 0.  1.
        -12    1    3    3    0    0 -0.51113273359E+01 -0.26237785227E+01  0.69766345139E+01  0.90378819428E+01  0.00000000000E+00 0.  1.
</event>
<event>
 7    1  0.1634068E-009  0.4778727E+02  0.7816164E-02  0.1312668E+00
        -11   -1    0    0    0    0  0.00000000000E+00  0.00000000000E+00  0.45593999997E+02  0.45594000000E+02  0.51100000000E-03 0. -1.
         11   -1    0    0    0    0 -0.00000000000E+00 -0.00000000000E+00 -0.45593999997E+02  0.45594000000E+02  0.51100000000E-03 0.  1.
    9900012    2    1    2    0    0  0.37976002759E+02  0.16846698890E+02  0.12555300202E+02  0.47787267146E+02  0.19999982227E+02 0.  0.
         12    1    1    2    0    0 -0.37976002759E+02 -0.16846698890E+02 -0.12555300202E+02  0.43400732854E+02  0.00000000000E+00 0. -1.
         11    1    3    3    0    0  0.84583426607E+01  0.65550094127E+01  0.63615861029E+01  0.12449156075E+02  0.51100000000E-03 0.  1.
        -11    1    3    3    0    0  0.76771672972E+01  0.12239252253E+01 -0.49288709039E+01  0.92049258180E+01  0.51100000000E-03 0. -1.
        -12    1    3    3    0    0  0.21840492802E+02  0.90677642517E+01  0.11122585004E+02  0.26133185254E+02  0.00000000000E+00 0.  1.
</event>
<event>
 7    1  0.1634068E-009  0.4778727E+02  0.7816164E-02  0.1312668E+00
        -11   -1    0    0    0    0  0.00000000000E+00  0.00000000000E+00  0.45593999997E+02  0.45594000000E+02  0.51100000000E-03 0. -1.
         11   -1    0    0    0    0 -0.00000000000E+00 -0.00000000000E+00 -0.45593999997E+02  0.45594000000E+02  0.51100000000E-03 0.  1.
    9900012    2    1    2    0    0 -0.42413814415E+02 -0.10053879727E+01 -0.91477388834E+01  0.47787267461E+02  0.19999983662E+02 0.  0.
         12    1    1    2    0    0  0.42413814415E+02  0.10053879727E+01  0.91477388834E+01  0.43400732539E+02  0.00000000000E+00 0. -1.
         11    1    3    3    0    0 -0.30199126874E+02  0.15038075650E+01 -0.99905184101E+01  0.31844295557E+02  0.51100000000E-03 0. -1.
        -11    1    3    3    0    0 -0.61312796677E+01 -0.56356533782E+01 -0.19531092682E+01  0.85538187634E+01  0.51100000000E-03 0.  1.
        -12    1    3    3    0    0 -0.60834078732E+01  0.31264578405E+01  0.27958887950E+01  0.73891531405E+01  0.00000000000E+00 0.  1.
</event>
<event>
 7    1  0.1634068E-009  0.4778726E+02  0.7816164E-02  0.1312668E+00
        -11   -1    0    0    0    0  0.00000000000E+00  0.00000000000E+00  0.45593999997E+02  0.45594000000E+02  0.51100000000E-03 0.  1.
         11   -1    0    0    0    0 -0.00000000000E+00 -0.00000000000E+00 -0.45593999997E+02  0.45594000000E+02  0.51100000000E-03 0. -1.
    9900012    2    1    2    0    0 -0.33705198326E+01 -0.41005841872E+02  0.13812477121E+02  0.47787262727E+02  0.19999962080E+02 0.  0.
         12    1    1    2    0    0  0.33705198326E+01  0.41005841872E+02 -0.13812477121E+02  0.43400737273E+02  0.00000000000E+00 0. -1.
         11    1    3    3    0    0 -0.21254766829E+00 -0.12250558835E+02  0.98314198467E+01  0.15709175177E+02  0.51100000000E-03 0. -1.
        -11    1    3    3    0    0 -0.11852644200E+01 -0.30917921831E+01  0.53618686514E+01  0.63018780014E+01  0.51100000000E-03 0.  1.
         12    1    3    3    0    0 -0.19727077443E+01 -0.25663490854E+02 -0.13808113767E+01  0.25776209549E+02  0.00000000000E+00 0. -1.
</event>
<event>
 7    1  0.1634068E-009  0.4778726E+02  0.7816164E-02  0.1312668E+00
        -11   -1    0    0    0    0  0.00000000000E+00  0.00000000000E+00  0.45593999997E+02  0.45594000000E+02  0.51100000000E-03 0. -1.
         11   -1    0    0    0    0 -0.00000000000E+00 -0.00000000000E+00 -0.45593999997E+02  0.45594000000E+02  0.51100000000E-03 0.  1.
    9900012    2    1    2    0    0  0.42496811005E+02  0.74923159883E+01  0.46379198197E+01  0.47787262164E+02  0.19999959508E+02 0.  0.
         12    1    1    2    0    0 -0.42496811005E+02 -0.74923159883E+01 -0.46379198197E+01  0.43400737836E+02  0.00000000000E+00 0. -1.
         11    1    3    3    0    0  0.97876295957E+01  0.18223974887E+01 -0.36946539330E+01  0.10619288755E+02  0.51100000000E-03 0.  1.
        -11    1    3    3    0    0  0.16152961746E+02  0.97783345663E+01  0.66836537961E+01  0.20030108047E+02  0.51100000000E-03 0. -1.
         12    1    3    3    0    0  0.16556219664E+02 -0.41084160666E+01  0.16489199566E+01  0.17137865362E+02  0.00000000000E+00 0. -1.
</event>
<event>
 7    1  0.1834463E-009  0.4778725E+02  0.7816164E-02  0.1312668E+00
        -11   -1    0    0    0    0  0.00000000000E+00  0.00000000000E+00  0.45593999997E+02  0.45594000000E+02  0.51100000000E-03 0.  1.
         11   -1    0    0    0    0 -0.00000000000E+00 -0.00000000000E+00 -0.45593999997E+02  0.45594000000E+02  0.51100000000E-03 0. -1.
    9900012    2    1    2    0    0 -0.42742789507E+02 -0.13474698987E+01  0.74069550520E+01  0.47787254464E+02  0.19999924401E+02 0.  0.
         12    1    1    2    0    0  0.42742789507E+02  0.13474698987E+01 -0.74069550520E+01  0.43400745536E+02  0.00000000000E+00 0. -1.
         11    1    3    3    0    0 -0.44004839551E+01  0.48682609968E+01 -0.14518042584E+01  0.67210088557E+01  0.51100000000E-03 0. -1.
        -11    1    3    3    0    0 -0.22187605207E+02 -0.92794888999E+00  0.71623537045E+00  0.22218548722E+02  0.51100000000E-03 0.  1.
        -12    1    3    3    0    0 -0.16154700345E+02 -0.52877820055E+01  0.81425239400E+01  0.18847696886E+02  0.00000000000E+00 0.  1.
</event>
<event>
 7    1  0.1634068E-009  0.4778727E+02  0.7816164E-02  0.1312668E+00
        -11   -1    0    0    0    0  0.00000000000E+00  0.00000000000E+00  0.45593999997E+02  0.45594000000E+02  0.51100000000E-03 0. -1.
         11   -1    0    0    0    0 -0.00000000000E+00 -0.00000000000E+00 -0.45593999997E+02  0.45594000000E+02  0.51100000000E-03 0.  1.
    9900012    2    1    2    0    0 -0.15629191445E+02  0.40474480580E+02  0.10807609916E+01  0.47787271345E+02  0.20000001370E+02 0.  0.
         12    1    1    2    0    0  0.15629191445E+02 -0.40474480580E+02 -0.10807609916E+01  0.43400728655E+02  0.00000000000E+00 0. -1.
         11    1    3    3    0    0 -0.77308152241E+01  0.39774597779E+01 -0.13223309622E+01  0.87939894104E+01  0.51100000000E-03 0. -1.
        -11    1    3    3    0    0 -0.90226610424E+01  0.15872163997E+02  0.77884440566E+00  0.18274041728E+02  0.51100000000E-03 0.  1.
         12    1    3    3    0    0  0.11242848219E+01  0.20624856806E+02  0.16242475481E+01  0.20719240206E+02  0.00000000000E+00 0. -1.
</event>
<event>
 7    1  0.1634068E-009  0.4778727E+02  0.7816164E-02  0.1312668E+00
        -11   -1    0    0    0    0  0.00000000000E+00  0.00000000000E+00  0.45593999997E+02  0.45594000000E+02  0.51100000000E-03 0.  1.
         11   -1    0    0    0    0 -0.00000000000E+00 -0.00000000000E+00 -0.45593999997E+02  0.45594000000E+02  0.51100000000E-03 0. -1.
    9900012    2    1    2    0    0 -0.59123932801E+01 -0.16078047592E+02  0.39876853701E+02  0.47787268788E+02  0.19999989711E+02 0.  0.
         12    1    1    2    0    0  0.59123932801E+01  0.16078047592E+02 -0.39876853701E+02  0.43400731212E+02  0.00000000000E+00 0. -1.
         11    1    3    3    0    0 -0.28508749490E+00 -0.10235228722E+02  0.45331760677E+01  0.11197806365E+02  0.51100000000E-03 0. -1.
        -11    1    3    3    0    0 -0.48638093384E+01 -0.35536337630E+01  0.16008853175E+02  0.17104629036E+02  0.51100000000E-03 0.  1.
         12    1    3    3    0    0 -0.76349644686E+00 -0.22891851064E+01  0.19334824458E+02  0.19484833386E+02  0.00000000000E+00 0. -1.
</event>
<event>
 7    1  0.1634068E-009  0.4778727E+02  0.7816164E-02  0.1312668E+00
        -11   -1    0    0    0    0  0.00000000000E+00  0.00000000000E+00  0.45593999997E+02  0.45594000000E+02  0.51100000000E-03 0.  1.
         11   -1    0    0    0    0 -0.00000000000E+00 -0.00000000000E+00 -0.45593999997E+02  0.45594000000E+02  0.51100000000E-03 0. -1.
    9900012    2    1    2    0    0 -0.43143148275E+02  0.29893295915E+01 -0.36545387486E+01  0.47787274339E+02  0.20000015020E+02 0.  0.
         12    1    1    2    0    0  0.43143148275E+02 -0.29893295915E+01  0.36545387486E+01  0.43400725661E+02  0.00000000000E+00 0. -1.
         11    1    3    3    0    0 -0.33723472120E+00  0.34379264804E+01 -0.20842765472E+01  0.40345104694E+01  0.51100000000E-03 0. -1.
        -11    1    3    3    0    0 -0.20195149733E+02  0.41568860304E+01 -0.15635761154E+01  0.20677730648E+02  0.51100000000E-03 0.  1.
        -12    1    3    3    0    0 -0.22610763820E+02 -0.46054829193E+01 -0.66860860019E-02  0.23075033221E+02  0.00000000000E+00 0.  1.
</event>
<event>
 7    1  0.1634068E-009  0.4778727E+02  0.7816164E-02  0.1312668E+00
        -11   -1    0    0    0    0  0.00000000000E+00  0.00000000000E+00  0.45593999997E+02  0.45594000000E+02  0.51100000000E-03 0. -1.
         11   -1    0    0    0    0 -0.00000000000E+00 -0.00000000000E+00 -0.45593999997E+02  0.45594000000E+02  0.51100000000E-03 0.  1.
    9900012    2    1    2    0    0  0.34099976098E+02  0.20122366065E+02 -0.17773722387E+02  0.47787271972E+02  0.20000004228E+02 0.  0.
         12    1    1    2    0    0 -0.34099976098E+02 -0.20122366065E+02  0.17773722387E+02  0.43400728028E+02  0.00000000000E+00 0. -1.
         11    1    3    3    0    0  0.47882680890E+01  0.21555589461E+01  0.33375972138E+01  0.62220174449E+01  0.51100000000E-03 0. -1.
        -11    1    3    3    0    0  0.11716271353E+02  0.12770173918E+02 -0.85059221081E+01  0.19305415496E+02  0.51100000000E-03 0.  1.
         12    1    3    3    0    0  0.17595436656E+02  0.51966332003E+01 -0.12605397492E+02  0.22259839030E+02  0.00000000000E+00 0. -1.
</event>
<event>
 7    1  0.1634068E-009  0.4778727E+02  0.7816164E-02  0.1312668E+00
        -11   -1    0    0    0    0  0.00000000000E+00  0.00000000000E+00  0.45593999997E+02  0.45594000000E+02  0.51100000000E-03 0.  1.
         11   -1    0    0    0    0 -0.00000000000E+00 -0.00000000000E+00 -0.45593999997E+02  0.45594000000E+02  0.51100000000E-03 0. -1.
    9900012    2    1    2    0    0  0.39252095811E+01  0.24983281489E+02  0.35271113434E+02  0.47787273426E+02  0.20000010859E+02 0.  0.
         12    1    1    2    0    0 -0.39252095811E+01 -0.24983281489E+02 -0.35271113434E+02  0.43400726574E+02  0.00000000000E+00 0. -1.
         11    1    3    3    0    0  0.50720019266E+01  0.50026774190E+01  0.91614096425E+01  0.11605318255E+02  0.51100000000E-03 0. -1.
        -11    1    3    3    0    0 -0.59248888615E+01  0.39285019172E+01  0.13357982282E+02  0.15131857991E+02  0.51100000000E-03 0.  1.
        -12    1    3    3    0    0  0.47780965160E+01  0.16052102153E+02  0.12751721510E+02  0.21050097181E+02  0.00000000000E+00 0.  1.
</event>
<event>
 7    1  0.1634068E-009  0.4778727E+02  0.7816164E-02  0.1312668E+00
        -11   -1    0    0    0    0  0.00000000000E+00  0.00000000000E+00  0.45593999997E+02  0.45594000000E+02  0.51100000000E-03 0.  1.
         11   -1    0    0    0    0 -0.00000000000E+00 -0.00000000000E+00 -0.45593999997E+02  0.45594000000E+02  0.51100000000E-03 0. -1.
    9900012    2    1    2    0    0 -0.22248153866E+02  0.89583267558E+01  0.36171688930E+02  0.47787273638E+02  0.20000011825E+02 0.  0.
         12    1    1    2    0    0  0.22248153866E+02 -0.89583267558E+01 -0.36171688930E+02  0.43400726362E+02  0.00000000000E+00 0. -1.
         11    1    3    3    0    0 -0.69481704541E+00  0.78672410250E+01  0.58319867167E+01  0.98177554155E+01  0.51100000000E-03 0. -1.
        -11    1    3    3    0    0 -0.10454211217E+02  0.42180520291E+01  0.14106266354E+02  0.18057387569E+02  0.51100000000E-03 0.  1.
        -12    1    3    3    0    0 -0.11099125604E+02 -0.31269662983E+01  0.16233435859E+02  0.19912130654E+02  0.00000000000E+00 0.  1.
</event>
<event>
 7    1  0.1634068E-009  0.4778727E+02  0.7816164E-02  0.1312668E+00
        -11   -1    0    0    0    0  0.00000000000E+00  0.00000000000E+00  0.45593999997E+02  0.45594000000E+02  0.51100000000E-03 0.  1.
         11   -1    0    0    0    0 -0.00000000000E+00 -0.00000000000E+00 -0.45593999997E+02  0.45594000000E+02  0.51100000000E-03 0. -1.
    9900012    2    1    2    0    0  0.13503033638E+02  0.28813738585E+01  0.41145947484E+02  0.47787271583E+02  0.20000002458E+02 0.  0.
         12    1    1    2    0    0 -0.13503033638E+02 -0.28813738585E+01 -0.41145947484E+02  0.43400728417E+02  0.00000000000E+00 0. -1.
         11    1    3    3    0    0  0.50933337728E+01 -0.44270884697E+01  0.29240943763E+01  0.73546916605E+01  0.51100000000E-03 0. -1.
        -11    1    3    3    0    0  0.45396823273E+01  0.13530993222E+00  0.19350455335E+02  0.19876296092E+02  0.51100000000E-03 0.  1.
         12    1    3    3    0    0  0.38700175379E+01  0.71731523959E+01  0.18871397773E+02  0.20556283831E+02  0.00000000000E+00 0. -1.
</event>
<event>
 7    1  0.1634068E-009  0.4778727E+02  0.7816164E-02  0.1312668E+00
        -11   -1    0    0    0    0  0.00000000000E+00  0.00000000000E+00  0.45593999997E+02  0.45594000000E+02  0.51100000000E-03 0.  1.
         11   -1    0    0    0    0 -0.00000000000E+00 -0.00000000000E+00 -0.45593999997E+02  0.45594000000E+02  0.51100000000E-03 0. -1.
    9900012    2    1    2    0    0  0.37870744991E+02 -0.19157057369E+02 -0.90794834962E+01  0.47787271967E+02  0.20000004206E+02 0.  0.
         12    1    1    2    0    0 -0.37870744991E+02  0.19157057369E+02  0.90794834962E+01  0.43400728033E+02  0.00000000000E+00 0. -1.
         11    1    3    3    0    0  0.20782259429E+02 -0.49594039382E+01 -0.64909081610E+00  0.21375671066E+02  0.51100000000E-03 0. -1.
        -11    1    3    3    0    0  0.17827801195E+02 -0.12537668307E+02 -0.47494143102E+01  0.22306513815E+02  0.51100000000E-03 0.  1.
         12    1    3    3    0    0 -0.73931563284E+00 -0.16599851239E+01 -0.36809783699E+01  0.41050870851E+01  0.00000000000E+00 0. -1.
</event>
<event>
 7    1  0.1634068E-009  0.4778727E+02  0.7816164E-02  0.1312668E+00
        -11   -1    0    0    0    0  0.00000000000E+00  0.00000000000E+00  0.45593999997E+02  0.45594000000E+02  0.51100000000E-03 0.  1.
         11   -1    0    0    0    0 -0.00000000000E+00 -0.00000000000E+00 -0.45593999997E+02  0.45594000000E+02  0.51100000000E-03 0. -1.
    9900012    2    1    2    0    0 -0.24973258484E+02 -0.13350060514E+02  0.32889750528E+02  0.47787269075E+02  0.19999991020E+02 0.  0.
         12    1    1    2    0    0  0.24973258484E+02  0.13350060514E+02 -0.32889750528E+02  0.43400730925E+02  0.00000000000E+00 0. -1.
         11    1    3    3    0    0 -0.83887926555E+01 -0.11018241245E+02  0.83398302514E+01  0.16165588490E+02  0.51100000000E-03 0. -1.
        -11    1    3    3    0    0 -0.29992902911E+00 -0.64769830321E+00 -0.10289440217E+01  0.12522765571E+01  0.51100000000E-03 0.  1.
        -12    1    3    3    0    0 -0.16284536799E+02 -0.16841209662E+01  0.25578864298E+02  0.30369404028E+02  0.00000000000E+00 0.  1.
</event>
<event>
 7    1  0.1634068E-009  0.4778727E+02  0.7816164E-02  0.1312668E+00
        -11   -1    0    0    0    0  0.00000000000E+00  0.00000000000E+00  0.45593999997E+02  0.45594000000E+02  0.51100000000E-03 0. -1.
         11   -1    0    0    0    0 -0.00000000000E+00 -0.00000000000E+00 -0.45593999997E+02  0.45594000000E+02  0.51100000000E-03 0.  1.
    9900012    2    1    2    0    0 -0.34241434596E+02 -0.18606571393E+02 -0.19103487612E+02  0.47787267504E+02  0.19999983859E+02 0.  0.
         12    1    1    2    0    0  0.34241434596E+02  0.18606571393E+02  0.19103487612E+02  0.43400732496E+02  0.00000000000E+00 0. -1.
         11    1    3    3    0    0 -0.14544007513E+02 -0.94053916188E+01 -0.27416294045E+01  0.17535851223E+02  0.51100000000E-03 0. -1.
        -11    1    3    3    0    0  0.18055238340E+01 -0.19379825028E+01 -0.25837556839E+01  0.37002008313E+01  0.51100000000E-03 0.  1.
        -12    1    3    3    0    0 -0.21502950917E+02 -0.72631972714E+01 -0.13778102523E+02  0.26551215450E+02  0.00000000000E+00 0.  1.
</event>
<event>
 7    1  0.1634068E-009  0.4778728E+02  0.7816164E-02  0.1312668E+00
        -11   -1    0    0    0    0  0.00000000000E+00  0.00000000000E+00  0.45593999997E+02  0.45594000000E+02  0.51100000000E-03 0.  1.
         11   -1    0    0    0    0 -0.00000000000E+00 -0.00000000000E+00 -0.45593999997E+02  0.45594000000E+02  0.51100000000E-03 0. -1.
    9900012    2    1    2    0    0  0.43308660624E+02  0.21418527745E+01 -0.18426155106E+01  0.47787275925E+02  0.20000022252E+02 0.  0.
         12    1    1    2    0    0 -0.43308660624E+02 -0.21418527745E+01  0.18426155106E+01  0.43400724075E+02  0.00000000000E+00 0. -1.
         11    1    3    3    0    0  0.18357714890E+02 -0.19607151778E+01 -0.54854237257E+01  0.19259802016E+02  0.51100000000E-03 0. -1.
        -11    1    3    3    0    0  0.80846497419E+01  0.70989709264E+01 -0.92443381060E+00  0.10798681762E+02  0.51100000000E-03 0.  1.
        -12    1    3    3    0    0  0.16866295992E+02 -0.29964029741E+01  0.45672420257E+01  0.17728792147E+02  0.00000000000E+00 0.  1.
</event>
<event>
 7    1  0.1634068E-009  0.4778727E+02  0.7816164E-02  0.1312668E+00
        -11   -1    0    0    0    0  0.00000000000E+00  0.00000000000E+00  0.45593999997E+02  0.45594000000E+02  0.51100000000E-03 0. -1.
         11   -1    0    0    0    0 -0.00000000000E+00 -0.00000000000E+00 -0.45593999997E+02  0.45594000000E+02  0.51100000000E-03 0.  1.
    9900012    2    1    2    0    0 -0.32812211086E+02  0.27084871955E+02 -0.85669078102E+01  0.47787269653E+02  0.19999993657E+02 0.  0.
         12    1    1    2    0    0  0.32812211086E+02 -0.27084871955E+02  0.85669078102E+01  0.43400730347E+02  0.00000000000E+00 0. -1.
         11    1    3    3    0    0 -0.10638016061E+02  0.66114626498E+01  0.34825715693E+01  0.13000274192E+02  0.51100000000E-03 0. -1.
        -11    1    3    3    0    0 -0.16364712109E+02  0.19368292871E+02 -0.54680912389E+01  0.25939055365E+02  0.51100000000E-03 0.  1.
        -12    1    3    3    0    0 -0.58094829163E+01  0.11051164347E+01 -0.65813881406E+01  0.88479400962E+01  0.00000000000E+00 0.  1.
</event>
<event>
 7    1  0.1634068E-009  0.4778727E+02  0.7816164E-02  0.1312668E+00
        -11   -1    0    0    0    0  0.00000000000E+00  0.00000000000E+00  0.45593999997E+02  0.45594000000E+02  0.51100000000E-03 0.  1.
         11   -1    0    0    0    0 -0.00000000000E+00 -0.00000000000E+00 -0.45593999997E+02  0.45594000000E+02  0.51100000000E-03 0. -1.
    9900012    2    1    2    0    0 -0.38195677765E+02  0.25769906513E+01  0.20446823930E+02  0.47787270864E+02  0.19999999175E+02 0.  0.
         12    1    1    2    0    0  0.38195677765E+02 -0.25769906513E+01 -0.20446823930E+02  0.43400729136E+02  0.00000000000E+00 0. -1.
         11    1    3    3    0    0 -0.24255579035E+02  0.77991268904E+01  0.13406639391E+02  0.28790579615E+02  0.51100000000E-03 0. -1.
        -11    1    3    3    0    0 -0.65478855863E+00 -0.19099600228E+01  0.46877764171E+01  0.51041104360E+01  0.51100000000E-03 0.  1.
        -12    1    3    3    0    0 -0.13285310172E+02 -0.33121762163E+01  0.23524081216E+01  0.13892580812E+02  0.00000000000E+00 0.  1.
</event>
<event>
 7    1  0.1634068E-009  0.4778727E+02  0.7816164E-02  0.1312668E+00
        -11   -1    0    0    0    0  0.00000000000E+00  0.00000000000E+00  0.45593999997E+02  0.45594000000E+02  0.51100000000E-03 0. -1.
         11   -1    0    0    0    0 -0.00000000000E+00 -0.00000000000E+00 -0.45593999997E+02  0.45594000000E+02  0.51100000000E-03 0.  1.
    9900012    2    1    2    0    0 -0.26138769619E+02 -0.33115327615E+02 -0.10186403604E+02  0.47787273985E+02  0.20000013407E+02 0.  0.
         12    1    1    2    0    0  0.26138769619E+02  0.33115327615E+02  0.10186403604E+02  0.43400726015E+02  0.00000000000E+00 0. -1.
         11    1    3    3    0    0 -0.13230239303E+02 -0.15061579226E+02 -0.80057087685E+01  0.21586610988E+02  0.51100000000E-03 0. -1.
        -11    1    3    3    0    0 -0.99113601653E+01 -0.88817929641E+01 -0.74027519368E+01  0.15228986936E+02  0.51100000000E-03 0.  1.
         12    1    3    3    0    0 -0.29971701506E+01 -0.91719554245E+01  0.52220571011E+01  0.10971676061E+02  0.00000000000E+00 0. -1.
</event>
<event>
 7    1  0.1634068E-009  0.4778727E+02  0.7816164E-02  0.1312668E+00
        -11   -1    0    0    0    0  0.00000000000E+00  0.00000000000E+00  0.45593999997E+02  0.45594000000E+02  0.51100000000E-03 0.  1.
         11   -1    0    0    0    0 -0.00000000000E+00 -0.00000000000E+00 -0.45593999997E+02  0.45594000000E+02  0.51100000000E-03 0. -1.
    9900012    2    1    2    0    0  0.53906228535E+01  0.34006557096E+02  0.26421930693E+02  0.47787272335E+02  0.20000005886E+02 0.  0.
         12    1    1    2    0    0 -0.53906228535E+01 -0.34006557096E+02 -0.26421930693E+02  0.43400727665E+02  0.00000000000E+00 0. -1.
         11    1    3    3    0    0 -0.19695855410E+01 -0.14971372490E+01  0.52080515105E+01  0.57658033215E+01  0.51100000000E-03 0. -1.
        -11    1    3    3    0    0  0.26168990077E+01  0.11223981882E+02  0.62870052661E+01  0.13128303972E+02  0.51100000000E-03 0.  1.
         12    1    3    3    0    0  0.47433093867E+01  0.24279712463E+02  0.14926873916E+02  0.28893165042E+02  0.00000000000E+00 0. -1.
</event>
<event>
 7    1  0.1634068E-009  0.4778727E+02  0.7816164E-02  0.1312668E+00
        -11   -1    0    0    0    0  0.00000000000E+00  0.00000000000E+00  0.45593999997E+02  0.45594000000E+02  0.51100000000E-03 0.  1.
         11   -1    0    0    0    0 -0.00000000000E+00 -0.00000000000E+00 -0.45593999997E+02  0.45594000000E+02  0.51100000000E-03 0. -1.
    9900012    2    1    2    0    0 -0.84420496389E+01 -0.11359735750E+02  0.41028181162E+02  0.47787269040E+02  0.19999990862E+02 0.  0.
         12    1    1    2    0    0  0.84420496389E+01  0.11359735750E+02 -0.41028181162E+02  0.43400730960E+02  0.00000000000E+00 0. -1.
         11    1    3    3    0    0  0.66033787854E+00  0.31808652594E+01  0.33420491969E+01  0.46608199931E+01  0.51100000000E-03 0. -1.
        -11    1    3    3    0    0 -0.27822303057E+01 -0.53689394458E+01  0.31087003930E+01  0.67992892747E+01  0.51100000000E-03 0.  1.
        -12    1    3    3    0    0 -0.63201572117E+01 -0.91716615635E+01  0.34577431572E+02  0.36327159772E+02  0.00000000000E+00 0.  1.
</event>
<event>
 7    1  0.1634068E-009  0.4778727E+02  0.7816164E-02  0.1312668E+00
        -11   -1    0    0    0    0  0.00000000000E+00  0.00000000000E+00  0.45593999997E+02  0.45594000000E+02  0.51100000000E-03 0.  1.
         11   -1    0    0    0    0 -0.00000000000E+00 -0.00000000000E+00 -0.45593999997E+02  0.45594000000E+02  0.51100000000E-03 0. -1.
    9900012    2    1    2    0    0 -0.14848927297E+02 -0.24606486743E+02  0.32521583515E+02  0.47787271596E+02  0.20000002513E+02 0.  0.
         12    1    1    2    0    0  0.14848927297E+02  0.24606486743E+02 -0.32521583515E+02  0.43400728404E+02  0.00000000000E+00 0. -1.
         11    1    3    3    0    0 -0.35913486429E+01 -0.15883757372E+02  0.15122548721E+02  0.22223478877E+02  0.51100000000E-03 0. -1.
        -11    1    3    3    0    0 -0.13361940287E+02 -0.79677457675E+01  0.11772759191E+02  0.19509594565E+02  0.51100000000E-03 0.  1.
         12    1    3    3    0    0  0.21043616327E+01 -0.75498360350E+00  0.56262756035E+01  0.60541981541E+01  0.00000000000E+00 0. -1.
</event>
<event>
 7    1  0.1634068E-009  0.4778727E+02  0.7816164E-02  0.1312668E+00
        -11   -1    0    0    0    0  0.00000000000E+00  0.00000000000E+00  0.45593999997E+02  0.45594000000E+02  0.51100000000E-03 0.  1.
         11   -1    0    0    0    0 -0.00000000000E+00 -0.00000000000E+00 -0.45593999997E+02  0.45594000000E+02  0.51100000000E-03 0. -1.
    9900012    2    1    2    0    0  0.14126821015E+02 -0.19002648888E+02  0.36372456867E+02  0.47787270106E+02  0.19999995723E+02 0.  0.
         12    1    1    2    0    0 -0.14126821015E+02  0.19002648888E+02 -0.36372456867E+02  0.43400729894E+02  0.00000000000E+00 0. -1.
         11    1    3    3    0    0 -0.11510135359E+01 -0.25746763183E+01  0.32638180951E+01  0.43135019558E+01  0.51100000000E-03 0. -1.
        -11    1    3    3    0    0 -0.57120808317E+00  0.18149249572E+01  0.95036716711E+01  0.96922653063E+01  0.51100000000E-03 0.  1.
         12    1    3    3    0    0  0.15849042634E+02 -0.18242897527E+02  0.23604967101E+02  0.33781502844E+02  0.00000000000E+00 0. -1.
</event>
<event>
 7    1  0.1634068E-009  0.4778727E+02  0.7816164E-02  0.1312668E+00
        -11   -1    0    0    0    0  0.00000000000E+00  0.00000000000E+00  0.45593999997E+02  0.45594000000E+02  0.51100000000E-03 0.  1.
         11   -1    0    0    0    0 -0.00000000000E+00 -0.00000000000E+00 -0.45593999997E+02  0.45594000000E+02  0.51100000000E-03 0. -1.
    9900012    2    1    2    0    0  0.42560392837E+02 -0.83642201302E+01  0.15087054411E+01  0.47787269488E+02  0.19999992905E+02 0.  0.
         12    1    1    2    0    0 -0.42560392837E+02  0.83642201302E+01 -0.15087054411E+01  0.43400730512E+02  0.00000000000E+00 0. -1.
         11    1    3    3    0    0  0.90020330866E+01  0.25014770635E+01  0.32135169410E+01  0.98803177370E+01  0.51100000000E-03 0. -1.
        -11    1    3    3    0    0  0.53926824933E+01  0.23581822215E+01  0.27101991894E+01  0.64797552246E+01  0.51100000000E-03 0.  1.
         12    1    3    3    0    0  0.28165677257E+02 -0.13223879415E+02 -0.44150106894E+01  0.31427196527E+02  0.00000000000E+00 0. -1.
</event>
<event>
 7    1  0.1634068E-009  0.4778727E+02  0.7816164E-02  0.1312668E+00
        -11   -1    0    0    0    0  0.00000000000E+00  0.00000000000E+00  0.45593999997E+02  0.45594000000E+02  0.51100000000E-03 0.  1.
         11   -1    0    0    0    0 -0.00000000000E+00 -0.00000000000E+00 -0.45593999997E+02  0.45594000000E+02  0.51100000000E-03 0. -1.
    9900012    2    1    2    0    0  0.28312848789E+02 -0.21119279517E+02  0.25218677498E+02  0.47787273409E+02  0.20000010781E+02 0.  0.
         12    1    1    2    0    0 -0.28312848789E+02  0.21119279517E+02 -0.25218677498E+02  0.43400726591E+02  0.00000000000E+00 0. -1.
         11    1    3    3    0    0  0.38047147237E+01 -0.42629262460E+01  0.34486908585E+00  0.57242754349E+01  0.51100000000E-03 0. -1.
        -11    1    3    3    0    0  0.16796639401E+02 -0.60045615513E+01  0.22210246638E+02  0.28486433799E+02  0.51100000000E-03 0.  1.
        -12    1    3    3    0    0  0.77114946646E+01 -0.10851791719E+02  0.26635617744E+01  0.13576564175E+02  0.00000000000E+00 0.  1.
</event>
<event>
 7    1  0.1634068E-009  0.4778729E+02  0.7816164E-02  0.1312668E+00
        -11   -1    0    0    0    0  0.00000000000E+00  0.00000000000E+00  0.45593999997E+02  0.45594000000E+02  0.51100000000E-03 0.  1.
         11   -1    0    0    0    0 -0.00000000000E+00 -0.00000000000E+00 -0.45593999997E+02  0.45594000000E+02  0.51100000000E-03 0. -1.
    9900012    2    1    2    0    0 -0.24500973291E+02  0.25358593704E+01  0.35733646820E+02  0.47787288140E+02  0.20000077943E+02 0.  0.
         12    1    1    2    0    0  0.24500973291E+02 -0.25358593704E+01 -0.35733646820E+02  0.43400711860E+02  0.00000000000E+00 0. -1.
         11    1    3    3    0    0 -0.99257854024E+01 -0.24717686450E+01  0.27289685615E+01  0.10586695696E+02  0.51100000000E-03 0. -1.
        -11    1    3    3    0    0 -0.56978505299E+01  0.50452364066E+01  0.10180182915E+02  0.12710469523E+02  0.51100000000E-03 0.  1.
         12    1    3    3    0    0 -0.88773373583E+01 -0.37608391197E-01  0.22824495343E+02  0.24490122920E+02  0.00000000000E+00 0. -1.
</event>
<event>
 7    1  0.1634068E-009  0.4778729E+02  0.7816164E-02  0.1312668E+00
        -11   -1    0    0    0    0  0.00000000000E+00  0.00000000000E+00  0.45593999997E+02  0.45594000000E+02  0.51100000000E-03 0.  1.
         11   -1    0    0    0    0 -0.00000000000E+00 -0.00000000000E+00 -0.45593999997E+02  0.45594000000E+02  0.51100000000E-03 0. -1.
    9900012    2    1    2    0    0 -0.21715932769E+02 -0.52380260183E-01  0.37577077380E+02  0.47787294658E+02  0.20000107663E+02 0.  0.
         12    1    1    2    0    0  0.21715932769E+02  0.52380260183E-01 -0.37577077380E+02  0.43400705342E+02  0.00000000000E+00 0. -1.
         11    1    3    3    0    0 -0.13967945921E+02  0.25455005999E+01  0.13198889718E+02  0.19385401120E+02  0.51100000000E-03 0. -1.
        -11    1    3    3    0    0 -0.31190175489E+01 -0.63871496173E+01  0.68125003224E+01  0.98455122573E+01  0.51100000000E-03 0.  1.
        -12    1    3    3    0    0 -0.46289692999E+01  0.37892687572E+01  0.17565687340E+02  0.18556381281E+02  0.00000000000E+00 0.  1.
</event>
<event>
 7    1  0.1634068E-009  0.4778727E+02  0.7816164E-02  0.1312668E+00
        -11   -1    0    0    0    0  0.00000000000E+00  0.00000000000E+00  0.45593999997E+02  0.45594000000E+02  0.51100000000E-03 0.  1.
         11   -1    0    0    0    0 -0.00000000000E+00 -0.00000000000E+00 -0.45593999997E+02  0.45594000000E+02  0.51100000000E-03 0. -1.
    9900012    2    1    2    0    0 -0.38250547091E+02  0.19334972317E+02  0.68321228366E+01  0.47787269479E+02  0.19999992865E+02 0.  0.
         12    1    1    2    0    0  0.38250547091E+02 -0.19334972317E+02 -0.68321228366E+01  0.43400730521E+02  0.00000000000E+00 0. -1.
         11    1    3    3    0    0 -0.32382565197E+01 -0.17540181794E+01  0.26808443064E+01  0.45551961008E+01  0.51100000000E-03 0. -1.
        -11    1    3    3    0    0 -0.10337756158E+02  0.10538396801E+02 -0.37994890051E+01  0.15243461761E+02  0.51100000000E-03 0.  1.
        -12    1    3    3    0    0 -0.24674534414E+02  0.10550593695E+02  0.79507675353E+01  0.27988611617E+02  0.00000000000E+00 0.  1.
</event>
<event>
 7    1  0.1634068E-009  0.4778727E+02  0.7816164E-02  0.1312668E+00
        -11   -1    0    0    0    0  0.00000000000E+00  0.00000000000E+00  0.45593999997E+02  0.45594000000E+02  0.51100000000E-03 0. -1.
         11   -1    0    0    0    0 -0.00000000000E+00 -0.00000000000E+00 -0.45593999997E+02  0.45594000000E+02  0.51100000000E-03 0.  1.
    9900012    2    1    2    0    0  0.37090919181E+01 -0.41203530233E+02 -0.13120032537E+02  0.47787268206E+02  0.19999987058E+02 0.  0.
         12    1    1    2    0    0 -0.37090919181E+01  0.41203530233E+02  0.13120032537E+02  0.43400731794E+02  0.00000000000E+00 0. -1.
         11    1    3    3    0    0  0.55826410226E+01 -0.12276297640E+02 -0.43648269367E+01  0.14174804372E+02  0.51100000000E-03 0. -1.
        -11    1    3    3    0    0 -0.46244665863E+01 -0.17906694519E+02 -0.11692220929E+02  0.21880206359E+02  0.51100000000E-03 0.  1.
         12    1    3    3    0    0  0.27509174818E+01 -0.11020538073E+02  0.29370153281E+01  0.11732257475E+02  0.00000000000E+00 0. -1.
</event>
<event>
 7    1  0.1634068E-009  0.4778727E+02  0.7816164E-02  0.1312668E+00
        -11   -1    0    0    0    0  0.00000000000E+00  0.00000000000E+00  0.45593999997E+02  0.45594000000E+02  0.51100000000E-03 0.  1.
         11   -1    0    0    0    0 -0.00000000000E+00 -0.00000000000E+00 -0.45593999997E+02  0.45594000000E+02  0.51100000000E-03 0. -1.
    9900012    2    1    2    0    0 -0.72928136516E+00 -0.23649577259E+02  0.36383911334E+02  0.47787270054E+02  0.19999995485E+02 0.  0.
         12    1    1    2    0    0  0.72928136516E+00  0.23649577259E+02 -0.36383911334E+02  0.43400729946E+02  0.00000000000E+00 0. -1.
         11    1    3    3    0    0  0.20372538711E+01 -0.10273573817E+02  0.15370987706E+02  0.18600107140E+02  0.51100000000E-03 0. -1.
        -11    1    3    3    0    0 -0.32996420078E+01  0.21368352710E+01  0.80716156920E+01  0.89780110546E+01  0.51100000000E-03 0.  1.
         12    1    3    3    0    0  0.53310677149E+00 -0.15512838713E+02  0.12941307937E+02  0.20209151860E+02  0.00000000000E+00 0. -1.
</event>
<event>
 7    1  0.1634068E-009  0.4778727E+02  0.7816164E-02  0.1312668E+00
        -11   -1    0    0    0    0  0.00000000000E+00  0.00000000000E+00  0.45593999997E+02  0.45594000000E+02  0.51100000000E-03 0. -1.
         11   -1    0    0    0    0 -0.00000000000E+00 -0.00000000000E+00 -0.45593999997E+02  0.45594000000E+02  0.51100000000E-03 0.  1.
    9900012    2    1    2    0    0 -0.16120056663E+02  0.29137463222E+02 -0.27834790313E+02  0.47787267960E+02  0.19999985936E+02 0.  0.
         12    1    1    2    0    0  0.16120056663E+02 -0.29137463222E+02  0.27834790313E+02  0.43400732040E+02  0.00000000000E+00 0. -1.
         11    1    3    3    0    0 -0.75875305447E+01  0.84572815782E+01 -0.20495538222E+02  0.23434233905E+02  0.51100000000E-03 0. -1.
        -11    1    3    3    0    0  0.57520950819E+00 -0.14394735923E-01  0.19075979268E-01  0.57570594998E+00  0.51100000000E-03 0.  1.
        -12    1    3    3    0    0 -0.91077356265E+01  0.20694576380E+02 -0.73583280706E+01  0.23777328104E+02  0.00000000000E+00 0.  1.
</event>
<event>
 7    1  0.1634068E-009  0.4778727E+02  0.7816164E-02  0.1312668E+00
        -11   -1    0    0    0    0  0.00000000000E+00  0.00000000000E+00  0.45593999997E+02  0.45594000000E+02  0.51100000000E-03 0. -1.
         11   -1    0    0    0    0 -0.00000000000E+00 -0.00000000000E+00 -0.45593999997E+02  0.45594000000E+02  0.51100000000E-03 0.  1.
    9900012    2    1    2    0    0  0.25716009167E+02 -0.29447568010E+02 -0.18845449442E+02  0.47787270123E+02  0.19999995797E+02 0.  0.
         12    1    1    2    0    0 -0.25716009167E+02  0.29447568010E+02  0.18845449442E+02  0.43400729877E+02  0.00000000000E+00 0. -1.
         11    1    3    3    0    0  0.23632378374E+02 -0.28568904557E+02 -0.13682762202E+02  0.39520748942E+02  0.51100000000E-03 0.  1.
        -11    1    3    3    0    0  0.23569795566E+01  0.67824257768E+00  0.39872860338E+00  0.24848240149E+01  0.51100000000E-03 0. -1.
        -12    1    3    3    0    0 -0.27334876300E+00 -0.15569060308E+01 -0.55614158431E+01  0.57816971656E+01  0.00000000000E+00 0.  1.
</event>
<event>
 7    1  0.1634068E-009  0.4778727E+02  0.7816164E-02  0.1312668E+00
        -11   -1    0    0    0    0  0.00000000000E+00  0.00000000000E+00  0.45593999997E+02  0.45594000000E+02  0.51100000000E-03 0.  1.
         11   -1    0    0    0    0 -0.00000000000E+00 -0.00000000000E+00 -0.45593999997E+02  0.45594000000E+02  0.51100000000E-03 0. -1.
    9900012    2    1    2    0    0  0.42640500214E+02 -0.29013750745E+01  0.75493863573E+01  0.47787268783E+02  0.19999989688E+02 0.  0.
         12    1    1    2    0    0 -0.42640500214E+02  0.29013750745E+01 -0.75493863573E+01  0.43400731217E+02  0.00000000000E+00 0. -1.
         11    1    3    3    0    0  0.33416310251E+02  0.12339547509E+01  0.10119193938E+02  0.34936664428E+02  0.51100000000E-03 0. -1.
        -11    1    3    3    0    0  0.63984420213E+01  0.82997306538E+00 -0.30119734929E+01  0.71204564582E+01  0.51100000000E-03 0.  1.
         12    1    3    3    0    0  0.28257479415E+01 -0.49653028908E+01  0.44216591205E+00  0.57301478969E+01  0.00000000000E+00 0. -1.
</event>
<event>
 7    1  0.1634068E-009  0.4778729E+02  0.7816164E-02  0.1312668E+00
        -11   -1    0    0    0    0  0.00000000000E+00  0.00000000000E+00  0.45593999997E+02  0.45594000000E+02  0.51100000000E-03 0. -1.
         11   -1    0    0    0    0 -0.00000000000E+00 -0.00000000000E+00 -0.45593999997E+02  0.45594000000E+02  0.51100000000E-03 0.  1.
    9900012    2    1    2    0    0  0.96572884718E+01  0.33020361095E+02 -0.26457778045E+02  0.47787291636E+02  0.20000093883E+02 0.  0.
         12    1    1    2    0    0 -0.96572884718E+01 -0.33020361095E+02  0.26457778045E+02  0.43400708364E+02  0.00000000000E+00 0. -1.
         11    1    3    3    0    0  0.80987959233E+00  0.43490764569E+01 -0.93107259502E+01  0.10308248589E+02  0.51100000000E-03 0. -1.
        -11    1    3    3    0    0  0.53038659028E+00  0.76094500880E+01  0.19316933770E+01  0.78687025704E+01  0.51100000000E-03 0.  1.
        -12    1    3    3    0    0  0.83170222892E+01  0.21061834550E+02 -0.19078745472E+02  0.29610340477E+02  0.00000000000E+00 0.  1.
</event>
<event>
 7    1  0.1634068E-009  0.4778727E+02  0.7816164E-02  0.1312668E+00
        -11   -1    0    0    0    0  0.00000000000E+00  0.00000000000E+00  0.45593999997E+02  0.45594000000E+02  0.51100000000E-03 0.  1.
         11   -1    0    0    0    0 -0.00000000000E+00 -0.00000000000E+00 -0.45593999997E+02  0.45594000000E+02  0.51100000000E-03 0. -1.
    9900012    2    1    2    0    0  0.62673542599E+01 -0.32627853138E+02  0.27924308305E+02  0.47787268162E+02  0.19999986857E+02 0.  0.
         12    1    1    2    0    0 -0.62673542599E+01  0.32627853138E+02 -0.27924308305E+02  0.43400731838E+02  0.00000000000E+00 0. -1.
         11    1    3    3    0    0  0.18663593025E+01 -0.29450172088E+01  0.95231480378E+01  0.10141339764E+02  0.51100000000E-03 0. -1.
        -11    1    3    3    0    0  0.57918393498E+01 -0.77743538798E+01  0.12237318223E+01  0.97715659511E+01  0.51100000000E-03 0.  1.
        -12    1    3    3    0    0 -0.13908443924E+01 -0.21908482049E+02  0.17177428445E+02  0.27874362446E+02  0.00000000000E+00 0.  1.
</event>
<event>
 7    1  0.1634068E-009  0.4778728E+02  0.7816164E-02  0.1312668E+00
        -11   -1    0    0    0    0  0.00000000000E+00  0.00000000000E+00  0.45593999997E+02  0.45594000000E+02  0.51100000000E-03 0. -1.
         11   -1    0    0    0    0 -0.00000000000E+00 -0.00000000000E+00 -0.45593999997E+02  0.45594000000E+02  0.51100000000E-03 0.  1.
    9900012    2    1    2    0    0 -0.40424740911E+02 -0.12237258138E+02  0.99856192652E+01  0.47787277004E+02  0.20000027172E+02 0.  0.
         12    1    1    2    0    0  0.40424740911E+02  0.12237258138E+02 -0.99856192652E+01  0.43400722996E+02  0.00000000000E+00 0. -1.
         11    1    3    3    0    0  0.57102849051E-03 -0.95568778070E+00  0.58056512006E+00  0.11182108835E+01  0.51100000000E-03 0. -1.
        -11    1    3    3    0    0 -0.31900127268E+02 -0.16294837700E+02  0.72682458660E+01  0.36550885812E+02  0.51100000000E-03 0.  1.
        -12    1    3    3    0    0 -0.85251846717E+01  0.50132673431E+01  0.21368082792E+01  0.10118180309E+02  0.00000000000E+00 0.  1.
</event>
<event>
 7    1  0.1634068E-009  0.4778727E+02  0.7816164E-02  0.1312668E+00
        -11   -1    0    0    0    0  0.00000000000E+00  0.00000000000E+00  0.45593999997E+02  0.45594000000E+02  0.51100000000E-03 0.  1.
         11   -1    0    0    0    0 -0.00000000000E+00 -0.00000000000E+00 -0.45593999997E+02  0.45594000000E+02  0.51100000000E-03 0. -1.
    9900012    2    1    2    0    0  0.38476532342E+02 -0.64875170897E+01  0.19002409145E+02  0.47787274518E+02  0.20000015835E+02 0.  0.
         12    1    1    2    0    0 -0.38476532342E+02  0.64875170897E+01 -0.19002409145E+02  0.43400725482E+02  0.00000000000E+00 0. -1.
         11    1    3    3    0    0 -0.16399681417E+01 -0.13634179454E+01  0.20073175329E+01  0.29287758431E+01  0.51100000000E-03 0. -1.
        -11    1    3    3    0    0  0.16711331899E+02  0.22587243159E+01  0.85278331974E+01  0.18896941252E+02  0.51100000000E-03 0.  1.
         12    1    3    3    0    0  0.23405168585E+02 -0.73828234602E+01  0.84672584150E+01  0.25961557423E+02  0.00000000000E+00 0. -1.
</event>
<event>
 7    1  0.1634068E-009  0.4778727E+02  0.7816164E-02  0.1312668E+00
        -11   -1    0    0    0    0  0.00000000000E+00  0.00000000000E+00  0.45593999997E+02  0.45594000000E+02  0.51100000000E-03 0.  1.
         11   -1    0    0    0    0 -0.00000000000E+00 -0.00000000000E+00 -0.45593999997E+02  0.45594000000E+02  0.51100000000E-03 0. -1.
    9900012    2    1    2    0    0 -0.27894785168E+01  0.17868572541E+02  0.39453215086E+02  0.47787271254E+02  0.20000000956E+02 0.  0.
         12    1    1    2    0    0  0.27894785168E+01 -0.17868572541E+02 -0.39453215086E+02  0.43400728746E+02  0.00000000000E+00 0. -1.
         11    1    3    3    0    0 -0.51769506146E+01  0.11155628702E+01  0.46606929507E+01  0.70545983036E+01  0.51100000000E-03 0. -1.
        -11    1    3    3    0    0  0.52055241436E+01  0.12241111077E+01  0.10073990237E+02  0.11405314953E+02  0.51100000000E-03 0.  1.
         12    1    3    3    0    0 -0.28180520458E+01  0.15528898563E+02  0.24718531898E+02  0.29327357998E+02  0.00000000000E+00 0. -1.
</event>
<event>
 7    1  0.1634068E-009  0.4778727E+02  0.7816164E-02  0.1312668E+00
        -11   -1    0    0    0    0  0.00000000000E+00  0.00000000000E+00  0.45593999997E+02  0.45594000000E+02  0.51100000000E-03 0.  1.
         11   -1    0    0    0    0 -0.00000000000E+00 -0.00000000000E+00 -0.45593999997E+02  0.45594000000E+02  0.51100000000E-03 0. -1.
    9900012    2    1    2    0    0 -0.34310014610E+02 -0.21517932083E+02  0.15602074290E+02  0.47787271598E+02  0.20000002524E+02 0.  0.
         12    1    1    2    0    0  0.34310014610E+02  0.21517932083E+02 -0.15602074290E+02  0.43400728402E+02  0.00000000000E+00 0. -1.
         11    1    3    3    0    0 -0.14424421202E+02 -0.57497348797E+01  0.12997745861E+02  0.20250056196E+02  0.51100000000E-03 0. -1.
        -11    1    3    3    0    0 -0.11075004199E+02 -0.13004673733E+02  0.53570304724E+01  0.17901816462E+02  0.51100000000E-03 0.  1.
         12    1    3    3    0    0 -0.88105892094E+01 -0.27635234697E+01 -0.27527020434E+01  0.96353989395E+01  0.00000000000E+00 0. -1.
</event>
<event>
 7    1  0.1634068E-009  0.4778728E+02  0.7816164E-02  0.1312668E+00
        -11   -1    0    0    0    0  0.00000000000E+00  0.00000000000E+00  0.45593999997E+02  0.45594000000E+02  0.51100000000E-03 0.  1.
         11   -1    0    0    0    0 -0.00000000000E+00 -0.00000000000E+00 -0.45593999997E+02  0.45594000000E+02  0.51100000000E-03 0. -1.
    9900012    2    1    2    0    0 -0.23391811978E+02 -0.12310245740E+02  0.34422432713E+02  0.47787275447E+02  0.20000020074E+02 0.  0.
         12    1    1    2    0    0  0.23391811978E+02  0.12310245740E+02 -0.34422432713E+02  0.43400724553E+02  0.00000000000E+00 0. -1.
         11    1    3    3    0    0 -0.20790314901E+02 -0.54331734916E+01  0.21095202420E+02  0.30112524525E+02  0.51100000000E-03 0.  1.
        -11    1    3    3    0    0 -0.45402514145E+01 -0.80963916768E+01  0.11224898672E+02  0.14565843317E+02  0.51100000000E-03 0. -1.
        -12    1    3    3    0    0  0.19387543375E+01  0.12193194279E+01  0.21023316215E+01  0.31089076049E+01  0.00000000000E+00 0.  1.
</event>
<event>
 7    1  0.1634068E-009  0.4778729E+02  0.7816164E-02  0.1312668E+00
        -11   -1    0    0    0    0  0.00000000000E+00  0.00000000000E+00  0.45593999997E+02  0.45594000000E+02  0.51100000000E-03 0.  1.
         11   -1    0    0    0    0 -0.00000000000E+00 -0.00000000000E+00 -0.45593999997E+02  0.45594000000E+02  0.51100000000E-03 0. -1.
    9900012    2    1    2    0    0  0.39080587487E+02 -0.14557682176E+02  0.12016784696E+02  0.47787290984E+02  0.20000090913E+02 0.  0.
         12    1    1    2    0    0 -0.39080587487E+02  0.14557682176E+02 -0.12016784696E+02  0.43400709016E+02  0.00000000000E+00 0. -1.
         11    1    3    3    0    0  0.20926384594E+02 -0.70106043019E+01 -0.34607993532E+00  0.22072197816E+02  0.51100000000E-03 0. -1.
        -11    1    3    3    0    0  0.42926322449E+01 -0.74936130870E+01  0.39146595292E+01  0.94818504617E+01  0.51100000000E-03 0.  1.
        -12    1    3    3    0    0  0.13861570648E+02 -0.53464786940E-01  0.84482051018E+01  0.16233242706E+02  0.00000000000E+00 0.  1.
</event>
<event>
 7    1  0.1634068E-009  0.4778728E+02  0.7816164E-02  0.1312668E+00
        -11   -1    0    0    0    0  0.00000000000E+00  0.00000000000E+00  0.45593999997E+02  0.45594000000E+02  0.51100000000E-03 0.  1.
         11   -1    0    0    0    0 -0.00000000000E+00 -0.00000000000E+00 -0.45593999997E+02  0.45594000000E+02  0.51100000000E-03 0. -1.
    9900012    2    1    2    0    0 -0.35508364425E+02 -0.24946437454E+02 -0.67391634592E+00  0.47787275939E+02  0.20000022317E+02 0.  0.
         12    1    1    2    0    0  0.35508364425E+02  0.24946437454E+02  0.67391634592E+00  0.43400724061E+02  0.00000000000E+00 0. -1.
         11    1    3    3    0    0 -0.14650668998E+02 -0.76037503349E+01 -0.63775523747E+01  0.17695544518E+02  0.51100000000E-03 0. -1.
        -11    1    3    3    0    0 -0.14405613491E+02 -0.54955219800E+01 -0.68870550392E-01  0.15418404758E+02  0.51100000000E-03 0.  1.
        -12    1    3    3    0    0 -0.64520819360E+01 -0.11847165139E+02  0.57725065791E+01  0.14673326663E+02  0.00000000000E+00 0.  1.
</event>
<event>
 7    1  0.1634068E-009  0.4778728E+02  0.7816164E-02  0.1312668E+00
        -11   -1    0    0    0    0  0.00000000000E+00  0.00000000000E+00  0.45593999997E+02  0.45594000000E+02  0.51100000000E-03 0.  1.
         11   -1    0    0    0    0 -0.00000000000E+00 -0.00000000000E+00 -0.45593999997E+02  0.45594000000E+02  0.51100000000E-03 0. -1.
    9900012    2    1    2    0    0  0.59012608359E+01  0.28867206722E+02  0.31866627165E+02  0.47787280764E+02  0.20000044315E+02 0.  0.
         12    1    1    2    0    0 -0.59012608359E+01 -0.28867206722E+02 -0.31866627165E+02  0.43400719236E+02  0.00000000000E+00 0. -1.
         11    1    3    3    0    0 -0.27164379370E+01  0.19754963928E+02  0.19234571297E+02  0.27705710027E+02  0.51100000000E-03 0. -1.
        -11    1    3    3    0    0 -0.98121382355E+00  0.32987560446E+01  0.63451364973E+01  0.72184021390E+01  0.51100000000E-03 0.  1.
        -12    1    3    3    0    0  0.95989125964E+01  0.58134867488E+01  0.62869193706E+01  0.12863168598E+02  0.00000000000E+00 0.  1.
</event>
<event>
 7    1  0.1634068E-009  0.4778727E+02  0.7816164E-02  0.1312668E+00
        -11   -1    0    0    0    0  0.00000000000E+00  0.00000000000E+00  0.45593999997E+02  0.45594000000E+02  0.51100000000E-03 0.  1.
         11   -1    0    0    0    0 -0.00000000000E+00 -0.00000000000E+00 -0.45593999997E+02  0.45594000000E+02  0.51100000000E-03 0. -1.
    9900012    2    1    2    0    0 -0.26961671184E+02  0.32386704117E+02  0.10382339923E+02  0.47787270757E+02  0.19999998688E+02 0.  0.
         12    1    1    2    0    0  0.26961671184E+02 -0.32386704117E+02 -0.10382339923E+02  0.43400729243E+02  0.00000000000E+00 0. -1.
         11    1    3    3    0    0 -0.14745366977E+02  0.18146993852E+02  0.15256094072E+02  0.27919305861E+02  0.51100000000E-03 0. -1.
        -11    1    3    3    0    0 -0.12622535545E+01  0.15046640407E+01  0.82414251290E+00  0.21299082266E+01  0.51100000000E-03 0.  1.
         12    1    3    3    0    0 -0.10954050652E+02  0.12735046224E+02 -0.56978966622E+01  0.17738056669E+02  0.00000000000E+00 0. -1.
</event>
<event>
 7    1  0.1634068E-009  0.4778727E+02  0.7816164E-02  0.1312668E+00
        -11   -1    0    0    0    0  0.00000000000E+00  0.00000000000E+00  0.45593999997E+02  0.45594000000E+02  0.51100000000E-03 0. -1.
         11   -1    0    0    0    0 -0.00000000000E+00 -0.00000000000E+00 -0.45593999997E+02  0.45594000000E+02  0.51100000000E-03 0.  1.
    9900012    2    1    2    0    0  0.19770084444E+02 -0.26242718383E+02 -0.28356426103E+02  0.47787269495E+02  0.19999992934E+02 0.  0.
         12    1    1    2    0    0 -0.19770084444E+02  0.26242718383E+02  0.28356426103E+02  0.43400730505E+02  0.00000000000E+00 0. -1.
         11    1    3    3    0    0  0.81406641902E+01 -0.76599942521E+01 -0.57716745853E+01  0.12580069681E+02  0.51100000000E-03 0. -1.
        -11    1    3    3    0    0 -0.25722435311E+01  0.10463902129E+01 -0.21407033942E+01  0.35062773057E+01  0.51100000000E-03 0.  1.
        -12    1    3    3    0    0  0.14201663785E+02 -0.19629114344E+02 -0.20444048124E+02  0.31700922508E+02  0.00000000000E+00 0.  1.
</event>
<event>
 7    1  0.1634068E-009  0.4778727E+02  0.7816164E-02  0.1312668E+00
        -11   -1    0    0    0    0  0.00000000000E+00  0.00000000000E+00  0.45593999997E+02  0.45594000000E+02  0.51100000000E-03 0.  1.
         11   -1    0    0    0    0 -0.00000000000E+00 -0.00000000000E+00 -0.45593999997E+02  0.45594000000E+02  0.51100000000E-03 0. -1.
    9900012    2    1    2    0    0 -0.13261995845E+00  0.43296831244E+02 -0.29983584137E+01  0.47787270317E+02  0.19999996684E+02 0.  0.
         12    1    1    2    0    0  0.13261995845E+00 -0.43296831244E+02  0.29983584137E+01  0.43400729683E+02  0.00000000000E+00 0. -1.
         11    1    3    3    0    0  0.23375997815E+01  0.39493375974E+01  0.45442711518E+01  0.64584859494E+01  0.51100000000E-03 0.  1.
        -11    1    3    3    0    0  0.12980791774E+01  0.12527180720E+02 -0.66227798341E+01  0.14229423014E+02  0.51100000000E-03 0. -1.
        -12    1    3    3    0    0 -0.37682989174E+01  0.26820312927E+02 -0.91984973147E+00  0.27099361353E+02  0.00000000000E+00 0.  1.
</event>
<event>
 7    1  0.1634068E-009  0.4778728E+02  0.7816164E-02  0.1312668E+00
        -11   -1    0    0    0    0  0.00000000000E+00  0.00000000000E+00  0.45593999997E+02  0.45594000000E+02  0.51100000000E-03 0.  1.
         11   -1    0    0    0    0 -0.00000000000E+00 -0.00000000000E+00 -0.45593999997E+02  0.45594000000E+02  0.51100000000E-03 0. -1.
    9900012    2    1    2    0    0  0.14927917461E+02  0.63712685361E+01  0.40251545300E+02  0.47787277869E+02  0.20000031115E+02 0.  0.
         12    1    1    2    0    0 -0.14927917461E+02 -0.63712685361E+01 -0.40251545300E+02  0.43400722131E+02  0.00000000000E+00 0. -1.
         11    1    3    3    0    0  0.47208310656E+01 -0.16818491685E+01  0.10293856506E+01  0.51161018026E+01  0.51100000000E-03 0. -1.
        -11    1    3    3    0    0  0.91929237287E+01  0.11366862695E+01  0.27553691714E+02  0.29069018382E+02  0.51100000000E-03 0.  1.
        -12    1    3    3    0    0  0.10141626668E+01  0.69164314351E+01  0.11668467935E+02  0.13602157684E+02  0.00000000000E+00 0.  1.
</event>
<event>
 7    1  0.1634068E-009  0.4778727E+02  0.7816164E-02  0.1312668E+00
        -11   -1    0    0    0    0  0.00000000000E+00  0.00000000000E+00  0.45593999997E+02  0.45594000000E+02  0.51100000000E-03 0.  1.
         11   -1    0    0    0    0 -0.00000000000E+00 -0.00000000000E+00 -0.45593999997E+02  0.45594000000E+02  0.51100000000E-03 0. -1.
    9900012    2    1    2    0    0  0.58014929020E+01  0.37039225192E+02  0.21864629230E+02  0.47787268047E+02  0.19999986331E+02 0.  0.
         12    1    1    2    0    0 -0.58014929020E+01 -0.37039225192E+02 -0.21864629230E+02  0.43400731953E+02  0.00000000000E+00 0. -1.
         11    1    3    3    0    0  0.57365855849E+01  0.72933055159E+01 -0.75367033393E+00  0.93096046509E+01  0.51100000000E-03 0. -1.
        -11    1    3    3    0    0 -0.28513016278E+01  0.15685505089E+02  0.74730082770E+01  0.17607124803E+02  0.51100000000E-03 0.  1.
        -12    1    3    3    0    0  0.29162089448E+01  0.14060414588E+02  0.15145291287E+02  0.20870538593E+02  0.00000000000E+00 0.  1.
</event>
<event>
 7    1  0.1634068E-009  0.4778727E+02  0.7816164E-02  0.1312668E+00
        -11   -1    0    0    0    0  0.00000000000E+00  0.00000000000E+00  0.45593999997E+02  0.45594000000E+02  0.51100000000E-03 0.  1.
         11   -1    0    0    0    0 -0.00000000000E+00 -0.00000000000E+00 -0.45593999997E+02  0.45594000000E+02  0.51100000000E-03 0. -1.
    9900012    2    1    2    0    0 -0.25445130918E+02  0.24890297915E+02  0.24832274241E+02  0.47787268880E+02  0.19999990133E+02 0.  0.
         12    1    1    2    0    0  0.25445130918E+02 -0.24890297915E+02 -0.24832274241E+02  0.43400731120E+02  0.00000000000E+00 0. -1.
         11    1    3    3    0    0 -0.66657420490E+00  0.32142044523E+00 -0.16831506556E+01  0.18386485971E+01  0.51100000000E-03 0. -1.
        -11    1    3    3    0    0 -0.96626827011E+01  0.11281845295E+02  0.19758079731E+02  0.24719004534E+02  0.51100000000E-03 0.  1.
         12    1    3    3    0    0 -0.15115874012E+02  0.13287032175E+02  0.67573451657E+01  0.21229615749E+02  0.00000000000E+00 0. -1.
</event>
<event>
 7    1  0.1634068E-009  0.4778727E+02  0.7816164E-02  0.1312668E+00
        -11   -1    0    0    0    0  0.00000000000E+00  0.00000000000E+00  0.45593999997E+02  0.45594000000E+02  0.51100000000E-03 0.  1.
         11   -1    0    0    0    0 -0.00000000000E+00 -0.00000000000E+00 -0.45593999997E+02  0.45594000000E+02  0.51100000000E-03 0. -1.
    9900012    2    1    2    0    0  0.34346275907E+02 -0.11615166572E+02  0.23854651288E+02  0.47787272457E+02  0.20000006441E+02 0.  0.
         12    1    1    2    0    0 -0.34346275907E+02  0.11615166572E+02 -0.23854651288E+02  0.43400727543E+02  0.00000000000E+00 0. -1.
         11    1    3    3    0    0  0.22605906673E+02 -0.48139790703E+01  0.21809097491E+02  0.31777950605E+02  0.51100000000E-03 0.  1.
        -11    1    3    3    0    0  0.38714244576E+01  0.15535520889E+01 -0.64519050089E+00  0.42211044132E+01  0.51100000000E-03 0. -1.
         12    1    3    3    0    0  0.78689447763E+01 -0.83547395903E+01  0.26907442981E+01  0.11788217439E+02  0.00000000000E+00 0. -1.
</event>
<event>
 7    1  0.1634068E-009  0.4778728E+02  0.7816164E-02  0.1312668E+00
        -11   -1    0    0    0    0  0.00000000000E+00  0.00000000000E+00  0.45593999997E+02  0.45594000000E+02  0.51100000000E-03 0.  1.
         11   -1    0    0    0    0 -0.00000000000E+00 -0.00000000000E+00 -0.45593999997E+02  0.45594000000E+02  0.51100000000E-03 0. -1.
    9900012    2    1    2    0    0 -0.24498833538E+02 -0.35614343515E+02 -0.38792238696E+01  0.47787277811E+02  0.20000030850E+02 0.  0.
         12    1    1    2    0    0  0.24498833538E+02  0.35614343515E+02  0.38792238696E+01  0.43400722189E+02  0.00000000000E+00 0. -1.
         11    1    3    3    0    0 -0.37023798262E+01 -0.17755893440E+02 -0.27297523527E+00  0.18139842446E+02  0.51100000000E-03 0. -1.
        -11    1    3    3    0    0 -0.17593435863E+02 -0.18289689760E+02 -0.83764585178E+00  0.25391797648E+02  0.51100000000E-03 0.  1.
        -12    1    3    3    0    0 -0.32030178489E+01  0.43123968485E+00 -0.27686027826E+01  0.42556377165E+01  0.00000000000E+00 0.  1.
</event>
<event>
 7    1  0.1979706E-009  0.4778728E+02  0.7816164E-02  0.1312668E+00
        -11   -1    0    0    0    0  0.00000000000E+00  0.00000000000E+00  0.45593999997E+02  0.45594000000E+02  0.51100000000E-03 0.  1.
         11   -1    0    0    0    0 -0.00000000000E+00 -0.00000000000E+00 -0.45593999997E+02  0.45594000000E+02  0.51100000000E-03 0. -1.
    9900012    2    1    2    0    0 -0.23185836715E+02 -0.34582107239E+02  0.12252234935E+02  0.47787280810E+02  0.20000044526E+02 0.  0.
         12    1    1    2    0    0  0.23185836715E+02  0.34582107239E+02 -0.12252234935E+02  0.43400719190E+02  0.00000000000E+00 0. -1.
         11    1    3    3    0    0 -0.37545225092E+01 -0.35425704273E+01  0.76662537775E+01  0.92421692121E+01  0.51100000000E-03 0. -1.
        -11    1    3    3    0    0 -0.35566844960E+01 -0.16000909845E+02  0.24607535115E+01  0.16575114738E+02  0.51100000000E-03 0.  1.
        -12    1    3    3    0    0 -0.15874629710E+02 -0.15038626967E+02  0.21252276461E+01  0.21969996860E+02  0.00000000000E+00 0.  1.
</event>
<event>
 7    1  0.1634068E-009  0.4778727E+02  0.7816164E-02  0.1312668E+00
        -11   -1    0    0    0    0  0.00000000000E+00  0.00000000000E+00  0.45593999997E+02  0.45594000000E+02  0.51100000000E-03 0. -1.
         11   -1    0    0    0    0 -0.00000000000E+00 -0.00000000000E+00 -0.45593999997E+02  0.45594000000E+02  0.51100000000E-03 0.  1.
    9900012    2    1    2    0    0  0.36322732335E+02 -0.20727770801E+02 -0.11603532646E+02  0.47787270323E+02  0.19999996709E+02 0.  0.
         12    1    1    2    0    0 -0.36322732335E+02  0.20727770801E+02  0.11603532646E+02  0.43400729677E+02  0.00000000000E+00 0. -1.
         11    1    3    3    0    0  0.24571928146E+02 -0.82537672380E+01 -0.79750226009E+01  0.27120201182E+02  0.51100000000E-03 0. -1.
        -11    1    3    3    0    0  0.12765679057E+02 -0.13563008009E+02 -0.41632513266E+01  0.19085345423E+02  0.51100000000E-03 0.  1.
         12    1    3    3    0    0 -0.10148748675E+01  0.10890044460E+01  0.53474128196E+00  0.15817237176E+01  0.00000000000E+00 0. -1.
</event>
<event>
 7    1  0.1634068E-009  0.4778727E+02  0.7816164E-02  0.1312668E+00
        -11   -1    0    0    0    0  0.00000000000E+00  0.00000000000E+00  0.45593999997E+02  0.45594000000E+02  0.51100000000E-03 0.  1.
         11   -1    0    0    0    0 -0.00000000000E+00 -0.00000000000E+00 -0.45593999997E+02  0.45594000000E+02  0.51100000000E-03 0. -1.
    9900012    2    1    2    0    0  0.36865975891E+02 -0.22565933614E+02  0.39117561876E+01  0.47787269883E+02  0.19999994704E+02 0.  0.
         12    1    1    2    0    0 -0.36865975891E+02  0.22565933614E+02 -0.39117561876E+01  0.43400730117E+02  0.00000000000E+00 0. -1.
         11    1    3    3    0    0  0.22598514840E+02 -0.81293333184E+01 -0.43274343171E+01  0.24402983859E+02  0.51100000000E-03 0. -1.
        -11    1    3    3    0    0  0.12729967136E+02 -0.12301787954E+02  0.36209094088E+01  0.18069228964E+02  0.51100000000E-03 0.  1.
         12    1    3    3    0    0  0.15374939146E+01 -0.21348123411E+01  0.46182810959E+01  0.53150570599E+01  0.00000000000E+00 0. -1.
</event>
<event>
 7    1  0.1983813E-009  0.4778728E+02  0.7816164E-02  0.1312668E+00
        -11   -1    0    0    0    0  0.00000000000E+00  0.00000000000E+00  0.45593999997E+02  0.45594000000E+02  0.51100000000E-03 0.  1.
         11   -1    0    0    0    0 -0.00000000000E+00 -0.00000000000E+00 -0.45593999997E+02  0.45594000000E+02  0.51100000000E-03 0. -1.
    9900012    2    1    2    0    0  0.22584515189E+02 -0.36702728715E+02  0.51450822448E+01  0.47787280044E+02  0.20000041031E+02 0.  0.
         12    1    1    2    0    0 -0.22584515189E+02  0.36702728715E+02 -0.51450822448E+01  0.43400719956E+02  0.00000000000E+00 0. -1.
         11    1    3    3    0    0  0.13965740081E+01  0.81002178259E+00 -0.53484940789E-01  0.16153684250E+01  0.51100000000E-03 0. -1.
        -11    1    3    3    0    0  0.23390365978E+02 -0.31515755043E+02  0.61049744616E+01  0.39719299464E+02  0.51100000000E-03 0.  1.
        -12    1    3    3    0    0 -0.22024247968E+01 -0.59969954543E+01 -0.90640727605E+00  0.64526121544E+01  0.00000000000E+00 0.  1.
</event>
<event>
 7    1  0.1634068E-009  0.4778727E+02  0.7816164E-02  0.1312668E+00
        -11   -1    0    0    0    0  0.00000000000E+00  0.00000000000E+00  0.45593999997E+02  0.45594000000E+02  0.51100000000E-03 0.  1.
         11   -1    0    0    0    0 -0.00000000000E+00 -0.00000000000E+00 -0.45593999997E+02  0.45594000000E+02  0.51100000000E-03 0. -1.
    9900012    2    1    2    0    0  0.41362220434E+02 -0.10155835814E+02  0.83455940185E+01  0.47787271667E+02  0.20000002838E+02 0.  0.
         12    1    1    2    0    0 -0.41362220434E+02  0.10155835814E+02 -0.83455940185E+01  0.43400728333E+02  0.00000000000E+00 0. -1.
         11    1    3    3    0    0  0.30362429609E+02  0.27258316326E+00  0.60495500602E+00  0.30369679026E+02  0.51100000000E-03 0. -1.
        -11    1    3    3    0    0  0.65627530005E+01 -0.37133651754E+01  0.41132042693E+01  0.85893688647E+01  0.51100000000E-03 0.  1.
         12    1    3    3    0    0  0.44370378245E+01 -0.67150538022E+01  0.36274347432E+01  0.88282237759E+01  0.00000000000E+00 0. -1.
</event>
<event>
 7    1  0.1634068E-009  0.4778727E+02  0.7816164E-02  0.1312668E+00
        -11   -1    0    0    0    0  0.00000000000E+00  0.00000000000E+00  0.45593999997E+02  0.45594000000E+02  0.51100000000E-03 0.  1.
         11   -1    0    0    0    0 -0.00000000000E+00 -0.00000000000E+00 -0.45593999997E+02  0.45594000000E+02  0.51100000000E-03 0. -1.
    9900012    2    1    2    0    0 -0.17694496122E+01  0.35688751164E+02  0.24633427528E+02  0.47787266557E+02  0.19999979542E+02 0.  0.
         12    1    1    2    0    0  0.17694496122E+01 -0.35688751164E+02 -0.24633427528E+02  0.43400733443E+02  0.00000000000E+00 0. -1.
         11    1    3    3    0    0  0.54379685139E+01  0.24596617786E+02  0.22481404448E+02  0.33763569928E+02  0.51100000000E-03 0.  1.
        -11    1    3    3    0    0 -0.20817820857E+01  0.10862303383E+01 -0.65195548148E+00  0.24369569572E+01  0.51100000000E-03 0. -1.
        -12    1    3    3    0    0 -0.51256360404E+01  0.10005903039E+02  0.28039785614E+01  0.11586739672E+02  0.00000000000E+00 0.  1.
</event>
<event>
 7    1  0.1634068E-009  0.4778727E+02  0.7816164E-02  0.1312668E+00
        -11   -1    0    0    0    0  0.00000000000E+00  0.00000000000E+00  0.45593999997E+02  0.45594000000E+02  0.51100000000E-03 0. -1.
         11   -1    0    0    0    0 -0.00000000000E+00 -0.00000000000E+00 -0.45593999997E+02  0.45594000000E+02  0.51100000000E-03 0.  1.
    9900012    2    1    2    0    0 -0.38173861490E+02 -0.98223896455E+01  0.18163155452E+02  0.47787271257E+02  0.20000000970E+02 0.  0.
         12    1    1    2    0    0  0.38173861490E+02  0.98223896455E+01 -0.18163155452E+02  0.43400728743E+02  0.00000000000E+00 0. -1.
         11    1    3    3    0    0 -0.90938675573E+01 -0.93927653934E+01  0.77295608448E+01  0.15187777323E+02  0.51100000000E-03 0. -1.
        -11    1    3    3    0    0 -0.49948429281E+01  0.38538944117E+01  0.10353294205E+01  0.63931889760E+01  0.51100000000E-03 0.  1.
        -12    1    3    3    0    0 -0.24085151005E+02 -0.42835186638E+01  0.93982651866E+01  0.26206304959E+02  0.00000000000E+00 0.  1.
</event>
<event>
 7    1  0.2069212E-009  0.4778728E+02  0.7816164E-02  0.1312668E+00
        -11   -1    0    0    0    0  0.00000000000E+00  0.00000000000E+00  0.45593999997E+02  0.45594000000E+02  0.51100000000E-03 0. -1.
         11   -1    0    0    0    0 -0.00000000000E+00 -0.00000000000E+00 -0.45593999997E+02  0.45594000000E+02  0.51100000000E-03 0.  1.
    9900012    2    1    2    0    0 -0.34357714643E+02  0.23138771822E+02  0.12952497897E+02  0.47787279745E+02  0.20000039668E+02 0.  0.
         12    1    1    2    0    0  0.34357714643E+02 -0.23138771822E+02 -0.12952497897E+02  0.43400720255E+02  0.00000000000E+00 0. -1.
         11    1    3    3    0    0  0.33035687809E+00 -0.33423163382E+00  0.38920031650E+01  0.39202723565E+01  0.51100000000E-03 0. -1.
        -11    1    3    3    0    0 -0.14361822452E+02  0.86457826153E+01 -0.94720412488E+00  0.16790136899E+02  0.51100000000E-03 0.  1.
        -12    1    3    3    0    0 -0.20326249069E+02  0.14827220841E+02  0.10007698857E+02  0.27076870489E+02  0.00000000000E+00 0.  1.
</event>
<event>
 7    1  0.1634068E-009  0.4778728E+02  0.7816164E-02  0.1312668E+00
        -11   -1    0    0    0    0  0.00000000000E+00  0.00000000000E+00  0.45593999997E+02  0.45594000000E+02  0.51100000000E-03 0.  1.
         11   -1    0    0    0    0 -0.00000000000E+00 -0.00000000000E+00 -0.45593999997E+02  0.45594000000E+02  0.51100000000E-03 0. -1.
    9900012    2    1    2    0    0  0.11138395721E+02  0.28193827457E+02  0.31059084121E+02  0.47787280278E+02  0.20000042100E+02 0.  0.
         12    1    1    2    0    0 -0.11138395721E+02 -0.28193827457E+02 -0.31059084121E+02  0.43400719722E+02  0.00000000000E+00 0. -1.
         11    1    3    3    0    0  0.82120325109E+01  0.12551940487E+02  0.81802254813E+01  0.17085221015E+02  0.51100000000E-03 0. -1.
        -11    1    3    3    0    0  0.60646532119E+01  0.15511186838E+02  0.15796544922E+02  0.22954471622E+02  0.51100000000E-03 0.  1.
         12    1    3    3    0    0 -0.31382900018E+01  0.13070013220E+00  0.70823137181E+01  0.77475876414E+01  0.00000000000E+00 0. -1.
</event>
<event>
 7    1  0.1634068E-009  0.4778729E+02  0.7816164E-02  0.1312668E+00
        -11   -1    0    0    0    0  0.00000000000E+00  0.00000000000E+00  0.45593999997E+02  0.45594000000E+02  0.51100000000E-03 0. -1.
         11   -1    0    0    0    0 -0.00000000000E+00 -0.00000000000E+00 -0.45593999997E+02  0.45594000000E+02  0.51100000000E-03 0.  1.
    9900012    2    1    2    0    0 -0.19918807318E+02  0.31074527521E+02  0.22830611562E+02  0.47787286067E+02  0.20000068492E+02 0.  0.
         12    1    1    2    0    0  0.19918807318E+02 -0.31074527521E+02 -0.22830611562E+02  0.43400713933E+02  0.00000000000E+00 0. -1.
         11    1    3    3    0    0 -0.11944153416E+02  0.14590384706E+02  0.32506282418E+01  0.19133967465E+02  0.51100000000E-03 0. -1.
        -11    1    3    3    0    0 -0.10426308002E+02  0.13293325772E+02  0.15679006938E+02  0.23048897315E+02  0.51100000000E-03 0.  1.
         12    1    3    3    0    0  0.24516540997E+01  0.31908170429E+01  0.39009763815E+01  0.56044212864E+01  0.00000000000E+00 0. -1.
</event>
<event>
 7    1  0.1663683E-009  0.4778727E+02  0.7816164E-02  0.1312668E+00
        -11   -1    0    0    0    0  0.00000000000E+00  0.00000000000E+00  0.45593999997E+02  0.45594000000E+02  0.51100000000E-03 0.  1.
         11   -1    0    0    0    0 -0.00000000000E+00 -0.00000000000E+00 -0.45593999997E+02  0.45594000000E+02  0.51100000000E-03 0. -1.
    9900012    2    1    2    0    0  0.30423627231E+02 -0.23857797149E+02  0.19718813238E+02  0.47787272193E+02  0.20000005235E+02 0.  0.
         12    1    1    2    0    0 -0.30423627231E+02  0.23857797149E+02 -0.19718813238E+02  0.43400727807E+02  0.00000000000E+00 0. -1.
         11    1    3    3    0    0  0.62493255424E+01  0.15415118569E-01  0.35119252147E+01  0.71685372521E+01  0.51100000000E-03 0. -1.
        -11    1    3    3    0    0  0.22976985384E+02 -0.24422533784E+02  0.18258345925E+02  0.38180743968E+02  0.51100000000E-03 0.  1.
        -12    1    3    3    0    0  0.11973163044E+01  0.54932151576E+00 -0.20514579016E+01  0.24379909726E+01  0.00000000000E+00 0.  1.
</event>
<event>
 7    1 -0.1634068E-009  0.4778727E+02  0.7816164E-02  0.1312668E+00
        -11   -1    0    0    0    0  0.00000000000E+00  0.00000000000E+00  0.45593999997E+02  0.45594000000E+02  0.51100000000E-03 0.  1.
         11   -1    0    0    0    0 -0.00000000000E+00 -0.00000000000E+00 -0.45593999997E+02  0.45594000000E+02  0.51100000000E-03 0. -1.
    9900012    2    1    2    0    0 -0.41923341994E+02 -0.11072386611E+02  0.18598195782E+01  0.47787270996E+02  0.19999999779E+02 0.  0.
         12    1    1    2    0    0  0.41923341994E+02  0.11072386611E+02 -0.18598195782E+01  0.43400729004E+02  0.00000000000E+00 0. -1.
         11    1    3    3    0    0 -0.12256710957E+02 -0.96144099204E+01 -0.43255182543E+01  0.16167063742E+02  0.51100000000E-03 0. -1.
        -11    1    3    3    0    0 -0.21062111348E+02 -0.49607468435E+01  0.32750928410E+01  0.21884875532E+02  0.51100000000E-03 0.  1.
         12    1    3    3    0    0 -0.86045196892E+01  0.35027701533E+01  0.29102449915E+01  0.97353317221E+01  0.00000000000E+00 0. -1.
</event>
<event>
 7    1  0.1634068E-009  0.4778727E+02  0.7816164E-02  0.1312668E+00
        -11   -1    0    0    0    0  0.00000000000E+00  0.00000000000E+00  0.45593999997E+02  0.45594000000E+02  0.51100000000E-03 0.  1.
         11   -1    0    0    0    0 -0.00000000000E+00 -0.00000000000E+00 -0.45593999997E+02  0.45594000000E+02  0.51100000000E-03 0. -1.
    9900012    2    1    2    0    0 -0.41915797769E+01  0.43033958500E+02 -0.37592937048E+01  0.47787271730E+02  0.20000003124E+02 0.  0.
         12    1    1    2    0    0  0.41915797769E+01 -0.43033958500E+02  0.37592937048E+01  0.43400728270E+02  0.00000000000E+00 0. -1.
         11    1    3    3    0    0 -0.70962882918E+00  0.91909053485E+01 -0.44022710748E+01  0.10215493384E+02  0.51100000000E-03 0. -1.
        -11    1    3    3    0    0  0.20690874914E+01  0.18899344150E+02 -0.65143571063E+01  0.20097342638E+02  0.51100000000E-03 0.  1.
         12    1    3    3    0    0 -0.55510384392E+01  0.14943709002E+02  0.71573344763E+01  0.17474435707E+02  0.00000000000E+00 0. -1.
</event>
<event>
 7    1  0.1634068E-009  0.4778727E+02  0.7816164E-02  0.1312668E+00
        -11   -1    0    0    0    0  0.00000000000E+00  0.00000000000E+00  0.45593999997E+02  0.45594000000E+02  0.51100000000E-03 0. -1.
         11   -1    0    0    0    0 -0.00000000000E+00 -0.00000000000E+00 -0.45593999997E+02  0.45594000000E+02  0.51100000000E-03 0.  1.
    9900012    2    1    2    0    0 -0.34134751154E+02 -0.71113721701E+01 -0.25843186640E+02  0.47787272515E+02  0.20000006704E+02 0.  0.
         12    1    1    2    0    0  0.34134751154E+02  0.71113721701E+01  0.25843186640E+02  0.43400727485E+02  0.00000000000E+00 0. -1.
         11    1    3    3    0    0 -0.14626837325E+02 -0.46204342941E+01 -0.92831595865E+01  0.17929579899E+02  0.51100000000E-03 0.  1.
        -11    1    3    3    0    0 -0.13591553376E+02  0.48108696425E+01 -0.14047530302E+02  0.20129776396E+02  0.51100000000E-03 0. -1.
         12    1    3    3    0    0 -0.59163604538E+01 -0.73018075184E+01 -0.25124967518E+01  0.97279162200E+01  0.00000000000E+00 0. -1.
</event>
<event>
 7    1  0.1634068E-009  0.4778727E+02  0.7816164E-02  0.1312668E+00
        -11   -1    0    0    0    0  0.00000000000E+00  0.00000000000E+00  0.45593999997E+02  0.45594000000E+02  0.51100000000E-03 0.  1.
         11   -1    0    0    0    0 -0.00000000000E+00 -0.00000000000E+00 -0.45593999997E+02  0.45594000000E+02  0.51100000000E-03 0. -1.
    9900012    2    1    2    0    0 -0.33036668485E+02  0.14205479854E+02  0.24298273937E+02  0.47787271449E+02  0.20000001845E+02 0.  0.
         12    1    1    2    0    0  0.33036668485E+02 -0.14205479854E+02 -0.24298273937E+02  0.43400728551E+02  0.00000000000E+00 0. -1.
         11    1    3    3    0    0 -0.19836903599E+02  0.88798454896E+01  0.19776685300E+02  0.29384888668E+02  0.51100000000E-03 0. -1.
        -11    1    3    3    0    0 -0.14823908939E+02  0.61109924196E+01  0.40477330668E+01  0.16537129371E+02  0.51100000000E-03 0.  1.
         12    1    3    3    0    0  0.16241440535E+01 -0.78535805535E+00  0.47385556952E+00  0.18652534097E+01  0.00000000000E+00 0. -1.
</event>
<event>
 7    1  0.1634068E-009  0.4778727E+02  0.7816164E-02  0.1312668E+00
        -11   -1    0    0    0    0  0.00000000000E+00  0.00000000000E+00  0.45593999997E+02  0.45594000000E+02  0.51100000000E-03 0.  1.
         11   -1    0    0    0    0 -0.00000000000E+00 -0.00000000000E+00 -0.45593999997E+02  0.45594000000E+02  0.51100000000E-03 0. -1.
    9900012    2    1    2    0    0 -0.23241314970E+02  0.52429023519E+01  0.36276387482E+02  0.47787273792E+02  0.20000012528E+02 0.  0.
         12    1    1    2    0    0  0.23241314970E+02 -0.52429023519E+01 -0.36276387482E+02  0.43400726208E+02  0.00000000000E+00 0. -1.
         11    1    3    3    0    0 -0.44678847419E+01  0.22768326014E+01  0.12599091376E+01  0.51704286145E+01  0.51100000000E-03 0. -1.
        -11    1    3    3    0    0 -0.10386137061E+02  0.61696855620E+01  0.89133898136E+01  0.15012840544E+02  0.51100000000E-03 0.  1.
        -12    1    3    3    0    0 -0.83872931681E+01 -0.32036158115E+01  0.26103088531E+02  0.27604004633E+02  0.00000000000E+00 0.  1.
</event>
<event>
 7    1  0.1634068E-009  0.4778727E+02  0.7816164E-02  0.1312668E+00
        -11   -1    0    0    0    0  0.00000000000E+00  0.00000000000E+00  0.45593999997E+02  0.45594000000E+02  0.51100000000E-03 0. -1.
         11   -1    0    0    0    0 -0.00000000000E+00 -0.00000000000E+00 -0.45593999997E+02  0.45594000000E+02  0.51100000000E-03 0.  1.
    9900012    2    1    2    0    0 -0.24970348365E+02 -0.26187430345E+02 -0.23965050900E+02  0.47787268783E+02  0.19999989689E+02 0.  0.
         12    1    1    2    0    0  0.24970348365E+02  0.26187430345E+02  0.23965050900E+02  0.43400731217E+02  0.00000000000E+00 0. -1.
         11    1    3    3    0    0 -0.14577788022E+02 -0.39670651491E+01 -0.11172110012E+02  0.18790038635E+02  0.51100000000E-03 0. -1.
        -11    1    3    3    0    0 -0.46933269678E+01 -0.12442508950E+02 -0.11545973496E+02  0.17611157010E+02  0.51100000000E-03 0.  1.
        -12    1    3    3    0    0 -0.56992333753E+01 -0.97778562461E+01 -0.12469673918E+01  0.11386073138E+02  0.00000000000E+00 0.  1.
</event>
<event>
 7    1  0.1634068E-009  0.4778727E+02  0.7816164E-02  0.1312668E+00
        -11   -1    0    0    0    0  0.00000000000E+00  0.00000000000E+00  0.45593999997E+02  0.45594000000E+02  0.51100000000E-03 0.  1.
         11   -1    0    0    0    0 -0.00000000000E+00 -0.00000000000E+00 -0.45593999997E+02  0.45594000000E+02  0.51100000000E-03 0. -1.
    9900012    2    1    2    0    0 -0.29047098986E+02  0.27058371559E+02  0.17542347664E+02  0.47787269678E+02  0.19999993768E+02 0.  0.
         12    1    1    2    0    0  0.29047098986E+02 -0.27058371559E+02 -0.17542347664E+02  0.43400730322E+02  0.00000000000E+00 0. -1.
         11    1    3    3    0    0 -0.29994260268E+01  0.55678148745E+00  0.34863002096E+01  0.46325858360E+01  0.51100000000E-03 0.  1.
        -11    1    3    3    0    0 -0.18544041616E+02  0.13201891426E+02  0.15909753951E+02  0.27772138696E+02  0.51100000000E-03 0. -1.
         12    1    3    3    0    0 -0.75036313432E+01  0.13299698646E+02 -0.18537064962E+01  0.15382545146E+02  0.00000000000E+00 0. -1.
</event>
<event>
 7    1  0.1634068E-009  0.4778728E+02  0.7816164E-02  0.1312668E+00
        -11   -1    0    0    0    0  0.00000000000E+00  0.00000000000E+00  0.45593999997E+02  0.45594000000E+02  0.51100000000E-03 0. -1.
         11   -1    0    0    0    0 -0.00000000000E+00 -0.00000000000E+00 -0.45593999997E+02  0.45594000000E+02  0.51100000000E-03 0.  1.
    9900012    2    1    2    0    0 -0.17020049409E+02  0.21444544333E+01 -0.39866553747E+02  0.47787275647E+02  0.20000020984E+02 0.  0.
         12    1    1    2    0    0  0.17020049409E+02 -0.21444544333E+01  0.39866553747E+02  0.43400724353E+02  0.00000000000E+00 0. -1.
         11    1    3    3    0    0 -0.21941606206E+01  0.36024284429E+01 -0.17601797933E+02  0.18100141499E+02  0.51100000000E-03 0. -1.
        -11    1    3    3    0    0 -0.78889910096E+01  0.36651479267E+01 -0.18161089982E+02  0.20136898423E+02  0.51100000000E-03 0.  1.
         12    1    3    3    0    0 -0.69368977783E+01 -0.51231219363E+01 -0.41036658316E+01  0.95502357258E+01  0.00000000000E+00 0. -1.
</event>
<event>
 7    1  0.1634068E-009  0.4778727E+02  0.7816164E-02  0.1312668E+00
        -11   -1    0    0    0    0  0.00000000000E+00  0.00000000000E+00  0.45593999997E+02  0.45594000000E+02  0.51100000000E-03 0.  1.
         11   -1    0    0    0    0 -0.00000000000E+00 -0.00000000000E+00 -0.45593999997E+02  0.45594000000E+02  0.51100000000E-03 0. -1.
    9900012    2    1    2    0    0 -0.41058993346E+02 -0.13108917738E+02  0.50930096054E+01  0.47787269526E+02  0.19999993079E+02 0.  0.
         12    1    1    2    0    0  0.41058993346E+02  0.13108917738E+02 -0.50930096054E+01  0.43400730474E+02  0.00000000000E+00 0. -1.
         11    1    3    3    0    0 -0.85657446979E+01 -0.17700086413E+01 -0.44430806826E+01  0.98104984090E+01  0.51100000000E-03 0. -1.
        -11    1    3    3    0    0 -0.98110478925E+01 -0.81761403561E+01 -0.91321688985E+00  0.12803901640E+02  0.51100000000E-03 0.  1.
        -12    1    3    3    0    0 -0.22682200755E+02 -0.31627687403E+01  0.10449307178E+02  0.25172869477E+02  0.00000000000E+00 0.  1.
</event>
<event>
 7    1  0.1634068E-009  0.4778727E+02  0.7816164E-02  0.1312668E+00
        -11   -1    0    0    0    0  0.00000000000E+00  0.00000000000E+00  0.45593999997E+02  0.45594000000E+02  0.51100000000E-03 0. -1.
         11   -1    0    0    0    0 -0.00000000000E+00 -0.00000000000E+00 -0.45593999997E+02  0.45594000000E+02  0.51100000000E-03 0.  1.
    9900012    2    1    2    0    0 -0.30389299744E+02 -0.30624934019E+02  0.47145436532E+01  0.47787273687E+02  0.20000012050E+02 0.  0.
         12    1    1    2    0    0  0.30389299744E+02  0.30624934019E+02 -0.47145436532E+01  0.43400726313E+02  0.00000000000E+00 0. -1.
         11    1    3    3    0    0 -0.85068012237E+00 -0.61362547919E+00 -0.21303090139E+01  0.23745335658E+01  0.51100000000E-03 0. -1.
        -11    1    3    3    0    0 -0.15711084956E+02 -0.12361216522E+02  0.10680921680E+02  0.22665391075E+02  0.51100000000E-03 0.  1.
        -12    1    3    3    0    0 -0.13827534666E+02 -0.17650092018E+02 -0.38360690125E+01  0.22747349046E+02  0.00000000000E+00 0.  1.
</event>
<event>
 7    1  0.1634068E-009  0.4778726E+02  0.7816164E-02  0.1312668E+00
        -11   -1    0    0    0    0  0.00000000000E+00  0.00000000000E+00  0.45593999997E+02  0.45594000000E+02  0.51100000000E-03 0.  1.
         11   -1    0    0    0    0 -0.00000000000E+00 -0.00000000000E+00 -0.45593999997E+02  0.45594000000E+02  0.51100000000E-03 0. -1.
    9900012    2    1    2    0    0  0.15530873238E+02  0.18712754225E+02  0.35947867196E+02  0.47787258645E+02  0.19999943464E+02 0.  0.
         12    1    1    2    0    0 -0.15530873238E+02 -0.18712754225E+02 -0.35947867196E+02  0.43400741355E+02  0.00000000000E+00 0. -1.
         11    1    3    3    0    0 -0.15517672396E+01 -0.81375684319E+00  0.13440547276E+01  0.22083172638E+01  0.51100000000E-03 0. -1.
        -11    1    3    3    0    0  0.13890306528E+02  0.19736044327E+02  0.22277270701E+02  0.32844007844E+02  0.51100000000E-03 0.  1.
         12    1    3    3    0    0  0.31923339501E+01 -0.20953325886E+00  0.12326541768E+02  0.12734933537E+02  0.00000000000E+00 0. -1.
</event>
<event>
 7    1  0.1634068E-009  0.4778726E+02  0.7816164E-02  0.1312668E+00
        -11   -1    0    0    0    0  0.00000000000E+00  0.00000000000E+00  0.45593999997E+02  0.45594000000E+02  0.51100000000E-03 0. -1.
         11   -1    0    0    0    0 -0.00000000000E+00 -0.00000000000E+00 -0.45593999997E+02  0.45594000000E+02  0.51100000000E-03 0.  1.
    9900012    2    1    2    0    0 -0.35014887745E+02  0.16639133136E+02 -0.19512065852E+02  0.47787264648E+02  0.19999970836E+02 0.  0.
         12    1    1    2    0    0  0.35014887745E+02 -0.16639133136E+02  0.19512065852E+02  0.43400735352E+02  0.00000000000E+00 0. -1.
         11    1    3    3    0    0  0.13209591281E+01  0.19641742093E+01  0.69114117986E+00  0.24658851827E+01  0.51100000000E-03 0. -1.
        -11    1    3    3    0    0 -0.21192209999E+02  0.57627003308E+01 -0.61085666414E+01  0.22795461531E+02  0.51100000000E-03 0.  1.
        -12    1    3    3    0    0 -0.15143636874E+02  0.89122585959E+01 -0.14094640390E+02  0.22525917934E+02  0.00000000000E+00 0.  1.
</event>
<event>
 7    1  0.1634068E-009  0.4778726E+02  0.7816164E-02  0.1312668E+00
        -11   -1    0    0    0    0  0.00000000000E+00  0.00000000000E+00  0.45593999997E+02  0.45594000000E+02  0.51100000000E-03 0.  1.
         11   -1    0    0    0    0 -0.00000000000E+00 -0.00000000000E+00 -0.45593999997E+02  0.45594000000E+02  0.51100000000E-03 0. -1.
    9900012    2    1    2    0    0 -0.24494546918E+02  0.13493160518E+02  0.33190000752E+02  0.47787258538E+02  0.19999942980E+02 0.  0.
         12    1    1    2    0    0  0.24494546918E+02 -0.13493160518E+02 -0.33190000752E+02  0.43400741462E+02  0.00000000000E+00 0. -1.
         11    1    3    3    0    0  0.67080714525E+00  0.23353286770E+01  0.20614865446E+01  0.31864508925E+01  0.51100000000E-03 0. -1.
        -11    1    3    3    0    0 -0.24354143148E+02  0.68725888166E+01  0.18802750830E+02  0.31526182842E+02  0.51100000000E-03 0.  1.
         12    1    3    3    0    0 -0.81121091484E+00  0.42852430245E+01  0.12325763378E+02  0.13074624804E+02  0.00000000000E+00 0. -1.
</event>
<event>
 7    1  0.1634068E-009  0.4778728E+02  0.7816164E-02  0.1312668E+00
        -11   -1    0    0    0    0  0.00000000000E+00  0.00000000000E+00  0.45593999997E+02  0.45594000000E+02  0.51100000000E-03 0. -1.
         11   -1    0    0    0    0 -0.00000000000E+00 -0.00000000000E+00 -0.45593999997E+02  0.45594000000E+02  0.51100000000E-03 0.  1.
    9900012    2    1    2    0    0  0.24432517551E+02  0.33554253678E+01 -0.35712968589E+02  0.47787275136E+02  0.20000018654E+02 0.  0.
         12    1    1    2    0    0 -0.24432517551E+02 -0.33554253678E+01  0.35712968589E+02  0.43400724864E+02  0.00000000000E+00 0. -1.
         11    1    3    3    0    0  0.74750321035E+01 -0.23533008058E+01 -0.63111610938E+01  0.10062051692E+02  0.51100000000E-03 0. -1.
        -11    1    3    3    0    0  0.11146779465E+02  0.90547215030E+01 -0.27038571602E+02  0.30615731716E+02  0.51100000000E-03 0.  1.
        -12    1    3    3    0    0  0.58107059819E+01 -0.33459953294E+01 -0.23632358936E+01  0.71094917288E+01  0.00000000000E+00 0.  1.
</event>
<event>
 7    1  0.1634068E-009  0.4778727E+02  0.7816164E-02  0.1312668E+00
        -11   -1    0    0    0    0  0.00000000000E+00  0.00000000000E+00  0.45593999997E+02  0.45594000000E+02  0.51100000000E-03 0.  1.
         11   -1    0    0    0    0 -0.00000000000E+00 -0.00000000000E+00 -0.45593999997E+02  0.45594000000E+02  0.51100000000E-03 0. -1.
    9900012    2    1    2    0    0  0.26371466602E+02 -0.15274537900E+02  0.30900771898E+02  0.47787268869E+02  0.19999990082E+02 0.  0.
         12    1    1    2    0    0 -0.26371466602E+02  0.15274537900E+02 -0.30900771898E+02  0.43400731131E+02  0.00000000000E+00 0. -1.
         11    1    3    3    0    0  0.32844942189E+01 -0.78160326842E+01  0.10013552844E+02  0.13120575826E+02  0.51100000000E-03 0. -1.
        -11    1    3    3    0    0  0.97403800812E+01 -0.56315691959E+01  0.19376290617E+01  0.11416828911E+02  0.51100000000E-03 0.  1.
        -12    1    3    3    0    0  0.13346592302E+02 -0.18269360203E+01  0.18949589992E+02  0.23249864132E+02  0.00000000000E+00 0.  1.
</event>
<event>
 7    1  0.1634068E-009  0.4778727E+02  0.7816164E-02  0.1312668E+00
        -11   -1    0    0    0    0  0.00000000000E+00  0.00000000000E+00  0.45593999997E+02  0.45594000000E+02  0.51100000000E-03 0.  1.
         11   -1    0    0    0    0 -0.00000000000E+00 -0.00000000000E+00 -0.45593999997E+02  0.45594000000E+02  0.51100000000E-03 0. -1.
    9900012    2    1    2    0    0 -0.32041800335E+02  0.27860854076E+02  0.89843729363E+01  0.47787272868E+02  0.20000008312E+02 0.  0.
         12    1    1    2    0    0  0.32041800335E+02 -0.27860854076E+02 -0.89843729363E+01  0.43400727132E+02  0.00000000000E+00 0. -1.
         11    1    3    3    0    0 -0.16388977869E+02  0.17186108966E+02  0.58540513224E+01  0.24458758229E+02  0.51100000000E-03 0. -1.
        -11    1    3    3    0    0 -0.14572973402E+02  0.27227530587E+01  0.37110083468E+01  0.15282556108E+02  0.51100000000E-03 0.  1.
         12    1    3    3    0    0 -0.10798490647E+01  0.79519920513E+01 -0.58068673289E+00  0.80459585301E+01  0.00000000000E+00 0. -1.
</event>
<event>
 7    1  0.1634068E-009  0.4778727E+02  0.7816164E-02  0.1312668E+00
        -11   -1    0    0    0    0  0.00000000000E+00  0.00000000000E+00  0.45593999997E+02  0.45594000000E+02  0.51100000000E-03 0.  1.
         11   -1    0    0    0    0 -0.00000000000E+00 -0.00000000000E+00 -0.45593999997E+02  0.45594000000E+02  0.51100000000E-03 0. -1.
    9900012    2    1    2    0    0  0.55717449877E+01  0.14567641131E+01  0.43016937991E+02  0.47787268923E+02  0.19999990329E+02 0.  0.
         12    1    1    2    0    0 -0.55717449877E+01 -0.14567641131E+01 -0.43016937991E+02  0.43400731077E+02  0.00000000000E+00 0. -1.
         11    1    3    3    0    0  0.72168394551E+01 -0.45890671629E+01  0.17173749641E+02  0.19185410763E+02  0.51100000000E-03 0. -1.
        -11    1    3    3    0    0  0.33273841383E+01 -0.31094504267E-01  0.14015341441E+02  0.14404938321E+02  0.51100000000E-03 0.  1.
         12    1    3    3    0    0 -0.49724786057E+01  0.60769257802E+01  0.11827846909E+02  0.14196919840E+02  0.00000000000E+00 0. -1.
</event>
<event>
 7    1  0.1634068E-009  0.4778727E+02  0.7816164E-02  0.1312668E+00
        -11   -1    0    0    0    0  0.00000000000E+00  0.00000000000E+00  0.45593999997E+02  0.45594000000E+02  0.51100000000E-03 0. -1.
         11   -1    0    0    0    0 -0.00000000000E+00 -0.00000000000E+00 -0.45593999997E+02  0.45594000000E+02  0.51100000000E-03 0.  1.
    9900012    2    1    2    0    0 -0.36835597806E+02 -0.68701270200E+01  0.21898934839E+02  0.47787271226E+02  0.20000000829E+02 0.  0.
         12    1    1    2    0    0  0.36835597806E+02  0.68701270200E+01 -0.21898934839E+02  0.43400728774E+02  0.00000000000E+00 0. -1.
         11    1    3    3    0    0 -0.36361785501E+02 -0.34207418091E+01  0.17789862190E+02  0.40624624507E+02  0.51100000000E-03 0.  1.
        -11    1    3    3    0    0 -0.14055805411E+01 -0.74183661029E+00  0.39921293604E+01  0.42968680810E+01  0.51100000000E-03 0. -1.
        -12    1    3    3    0    0  0.93176823577E+00 -0.27075486007E+01  0.11694328874E+00  0.28657786382E+01  0.00000000000E+00 0.  1.
</event>
<event>
 7    1  0.1634068E-009  0.4778721E+02  0.7816164E-02  0.1312668E+00
        -11   -1    0    0    0    0  0.00000000000E+00  0.00000000000E+00  0.45593999997E+02  0.45594000000E+02  0.51100000000E-03 0. -1.
         11   -1    0    0    0    0 -0.00000000000E+00 -0.00000000000E+00 -0.45593999997E+02  0.45594000000E+02  0.51100000000E-03 0.  1.
    9900012    2    1    2    0    0 -0.43231140948E+02  0.37571312284E+01  0.76197271009E+00  0.47787214464E+02  0.19999742024E+02 0.  0.
         12    1    1    2    0    0  0.43231140948E+02 -0.37571312284E+01 -0.76197271009E+00  0.43400785536E+02  0.00000000000E+00 0. -1.
         11    1    3    3    0    0  0.49369163569E-01 -0.67549688217E+00  0.17172382660E+01  0.18459796520E+01  0.51100000000E-03 0. -1.
        -11    1    3    3    0    0 -0.37179783591E+02 -0.16167773871E+01 -0.20982327395E+01  0.37274023903E+02  0.51100000000E-03 0.  1.
         12    1    3    3    0    0 -0.61007265206E+01  0.60494054977E+01  0.11429671835E+01  0.86672109088E+01  0.00000000000E+00 0. -1.
</event>
<event>
 7    1  0.1634068E-009  0.4778727E+02  0.7816164E-02  0.1312668E+00
        -11   -1    0    0    0    0  0.00000000000E+00  0.00000000000E+00  0.45593999997E+02  0.45594000000E+02  0.51100000000E-03 0.  1.
         11   -1    0    0    0    0 -0.00000000000E+00 -0.00000000000E+00 -0.45593999997E+02  0.45594000000E+02  0.51100000000E-03 0. -1.
    9900012    2    1    2    0    0 -0.13610679836E+02 -0.16092257516E+01  0.41179891237E+02  0.47787266649E+02  0.19999979960E+02 0.  0.
         12    1    1    2    0    0  0.13610679836E+02  0.16092257516E+01 -0.41179891237E+02  0.43400733351E+02  0.00000000000E+00 0. -1.
         11    1    3    3    0    0 -0.68738948828E+00  0.40815126803E+01  0.41589680988E+01  0.58675604791E+01  0.51100000000E-03 0. -1.
        -11    1    3    3    0    0 -0.15248820950E+02 -0.72226188256E+01  0.31364093947E+02  0.35614591847E+02  0.51100000000E-03 0.  1.
         12    1    3    3    0    0  0.23255306026E+01  0.15318803938E+01  0.56568291911E+01  0.63051143227E+01  0.00000000000E+00 0. -1.
</event>
<event>
 7    1  0.1908525E-009  0.4778727E+02  0.7816164E-02  0.1312668E+00
        -11   -1    0    0    0    0  0.00000000000E+00  0.00000000000E+00  0.45593999997E+02  0.45594000000E+02  0.51100000000E-03 0. -1.
         11   -1    0    0    0    0 -0.00000000000E+00 -0.00000000000E+00 -0.45593999997E+02  0.45594000000E+02  0.51100000000E-03 0.  1.
    9900012    2    1    2    0    0  0.36625556963E+01 -0.31596658492E+02 -0.29527279712E+02  0.47787269715E+02  0.19999993937E+02 0.  0.
         12    1    1    2    0    0 -0.36625556963E+01  0.31596658492E+02  0.29527279712E+02  0.43400730285E+02  0.00000000000E+00 0. -1.
         11    1    3    3    0    0 -0.10878741842E+01 -0.14871791983E+02 -0.37824617106E+01  0.15383779895E+02  0.51100000000E-03 0. -1.
        -11    1    3    3    0    0  0.12063336903E+01 -0.48658375975E+00 -0.79432830262E+01  0.80490838126E+01  0.51100000000E-03 0.  1.
        -12    1    3    3    0    0  0.35440961901E+01 -0.16238282750E+02 -0.17801534975E+02  0.24354406007E+02  0.00000000000E+00 0.  1.
</event>
<event>
 7    1  0.1634068E-009  0.4778727E+02  0.7816164E-02  0.1312668E+00
        -11   -1    0    0    0    0  0.00000000000E+00  0.00000000000E+00  0.45593999997E+02  0.45594000000E+02  0.51100000000E-03 0. -1.
         11   -1    0    0    0    0 -0.00000000000E+00 -0.00000000000E+00 -0.45593999997E+02  0.45594000000E+02  0.51100000000E-03 0.  1.
    9900012    2    1    2    0    0  0.36074533435E+02  0.23847516261E+02  0.36806934941E+01  0.47787268451E+02  0.19999988177E+02 0.  0.
         12    1    1    2    0    0 -0.36074533435E+02 -0.23847516261E+02 -0.36806934941E+01  0.43400731549E+02  0.00000000000E+00 0. -1.
         11    1    3    3    0    0  0.16112512579E+02  0.12414754127E+02 -0.16669201918E+01  0.20408767843E+02  0.51100000000E-03 0.  1.
        -11    1    3    3    0    0  0.11261416507E+02 -0.11419495469E+01  0.40905354394E+01  0.12035615105E+02  0.51100000000E-03 0. -1.
         12    1    3    3    0    0  0.87006043489E+01  0.12574711680E+02  0.12570782465E+01  0.15342885504E+02  0.00000000000E+00 0. -1.
</event>
<event>
 7    1  0.1634068E-009  0.4778727E+02  0.7816164E-02  0.1312668E+00
        -11   -1    0    0    0    0  0.00000000000E+00  0.00000000000E+00  0.45593999997E+02  0.45594000000E+02  0.51100000000E-03 0. -1.
         11   -1    0    0    0    0 -0.00000000000E+00 -0.00000000000E+00 -0.45593999997E+02  0.45594000000E+02  0.51100000000E-03 0.  1.
    9900012    2    1    2    0    0  0.70714741915E+01  0.81164396991E+01 -0.42044511213E+02  0.47787271161E+02  0.20000000532E+02 0.  0.
         12    1    1    2    0    0 -0.70714741915E+01 -0.81164396991E+01  0.42044511213E+02  0.43400728839E+02  0.00000000000E+00 0. -1.
         11    1    3    3    0    0 -0.26927015677E+01  0.40999347738E+00 -0.11772752993E+02  0.12083726647E+02  0.51100000000E-03 0. -1.
        -11    1    3    3    0    0  0.11510574119E+02  0.48351281750E+01 -0.12684190911E+02  0.17797766162E+02  0.51100000000E-03 0.  1.
         12    1    3    3    0    0 -0.17463983600E+01  0.28713180467E+01 -0.17587567309E+02  0.17905778353E+02  0.00000000000E+00 0. -1.
</event>
<event>
 7    1  0.1634068E-009  0.4778723E+02  0.7816164E-02  0.1312668E+00
        -11   -1    0    0    0    0  0.00000000000E+00  0.00000000000E+00  0.45593999997E+02  0.45594000000E+02  0.51100000000E-03 0.  1.
         11   -1    0    0    0    0 -0.00000000000E+00 -0.00000000000E+00 -0.45593999997E+02  0.45594000000E+02  0.51100000000E-03 0. -1.
    9900012    2    1    2    0    0 -0.65147025275E+01  0.21229435738E+02  0.37289367196E+02  0.47787225852E+02  0.19999793950E+02 0.  0.
         12    1    1    2    0    0  0.65147025275E+01 -0.21229435738E+02 -0.37289367196E+02  0.43400774148E+02  0.00000000000E+00 0. -1.
         11    1    3    3    0    0 -0.41914734680E+01  0.63465161891E+00  0.23044688037E+01  0.48251227175E+01  0.51100000000E-03 0. -1.
        -11    1    3    3    0    0 -0.76830966888E+01  0.86271676929E+01  0.13260556997E+02  0.17586937461E+02  0.51100000000E-03 0.  1.
        -12    1    3    3    0    0  0.53598676293E+01  0.11967616426E+02  0.21724341395E+02  0.25375165674E+02  0.00000000000E+00 0.  1.
</event>
<event>
 7    1  0.1634068E-009  0.4778727E+02  0.7816164E-02  0.1312668E+00
        -11   -1    0    0    0    0  0.00000000000E+00  0.00000000000E+00  0.45593999997E+02  0.45594000000E+02  0.51100000000E-03 0.  1.
         11   -1    0    0    0    0 -0.00000000000E+00 -0.00000000000E+00 -0.45593999997E+02  0.45594000000E+02  0.51100000000E-03 0. -1.
    9900012    2    1    2    0    0  0.51476146772E+01 -0.27220953127E+02  0.33408756088E+02  0.47787271788E+02  0.20000003390E+02 0.  0.
         12    1    1    2    0    0 -0.51476146772E+01  0.27220953127E+02 -0.33408756088E+02  0.43400728212E+02  0.00000000000E+00 0. -1.
         11    1    3    3    0    0 -0.24628322612E+01 -0.19079446362E+02  0.18873353880E+02  0.26949847925E+02  0.51100000000E-03 0. -1.
        -11    1    3    3    0    0  0.57049475333E+01 -0.91779844877E+01  0.67176809005E+01  0.12724349200E+02  0.51100000000E-03 0.  1.
         12    1    3    3    0    0  0.19054994050E+01  0.10364777232E+01  0.78177213073E+01  0.81130746632E+01  0.00000000000E+00 0. -1.
</event>
<event>
 7    1  0.1634068E-009  0.4778727E+02  0.7816164E-02  0.1312668E+00
        -11   -1    0    0    0    0  0.00000000000E+00  0.00000000000E+00  0.45593999997E+02  0.45594000000E+02  0.51100000000E-03 0. -1.
         11   -1    0    0    0    0 -0.00000000000E+00 -0.00000000000E+00 -0.45593999997E+02  0.45594000000E+02  0.51100000000E-03 0.  1.
    9900012    2    1    2    0    0  0.11140374689E+02  0.25876041057E+02  0.33014326265E+02  0.47787272036E+02  0.20000004522E+02 0.  0.
         12    1    1    2    0    0 -0.11140374689E+02 -0.25876041057E+02 -0.33014326265E+02  0.43400727964E+02  0.00000000000E+00 0. -1.
         11    1    3    3    0    0  0.74816551425E+00  0.13694506134E+02  0.14566805596E+02  0.20007275562E+02  0.51100000000E-03 0. -1.
        -11    1    3    3    0    0  0.69885225417E+01  0.95430739711E+01  0.19971749341E+02  0.23211645356E+02  0.51100000000E-03 0.  1.
        -12    1    3    3    0    0  0.34036866334E+01  0.26384609524E+01 -0.15242286714E+01  0.45683511181E+01  0.00000000000E+00 0.  1.
</event>
<event>
 7    1  0.1634068E-009  0.4778727E+02  0.7816164E-02  0.1312668E+00
        -11   -1    0    0    0    0  0.00000000000E+00  0.00000000000E+00  0.45593999997E+02  0.45594000000E+02  0.51100000000E-03 0.  1.
         11   -1    0    0    0    0 -0.00000000000E+00 -0.00000000000E+00 -0.45593999997E+02  0.45594000000E+02  0.51100000000E-03 0. -1.
    9900012    2    1    2    0    0  0.33020443806E+02 -0.23327382836E+02  0.15783124610E+02  0.47787268190E+02  0.19999986987E+02 0.  0.
         12    1    1    2    0    0 -0.33020443806E+02  0.23327382836E+02 -0.15783124610E+02  0.43400731810E+02  0.00000000000E+00 0. -1.
         11    1    3    3    0    0  0.29647902198E+01 -0.72186951524E+01  0.12487602653E+01  0.79030970646E+01  0.51100000000E-03 0. -1.
        -11    1    3    3    0    0  0.18650274775E+02 -0.48812249863E+01  0.16702406005E+01  0.19350679845E+02  0.51100000000E-03 0.  1.
        -12    1    3    3    0    0  0.11405378812E+02 -0.11227462697E+02  0.12864123745E+02  0.20533491281E+02  0.00000000000E+00 0.  1.
</event>
<event>
 7    1  0.2109092E-009  0.4778727E+02  0.7816164E-02  0.1312668E+00
        -11   -1    0    0    0    0  0.00000000000E+00  0.00000000000E+00  0.45593999997E+02  0.45594000000E+02  0.51100000000E-03 0. -1.
         11   -1    0    0    0    0 -0.00000000000E+00 -0.00000000000E+00 -0.45593999997E+02  0.45594000000E+02  0.51100000000E-03 0.  1.
    9900012    2    1    2    0    0  0.21968156448E+02 -0.79867887075E+01 -0.36568222355E+02  0.47787267544E+02  0.19999984039E+02 0.  0.
         12    1    1    2    0    0 -0.21968156448E+02  0.79867887075E+01  0.36568222355E+02  0.43400732456E+02  0.00000000000E+00 0. -1.
         11    1    3    3    0    0  0.20678562631E+00  0.55674534105E+00  0.10877563973E+01  0.12393304285E+01  0.51100000000E-03 0. -1.
        -11    1    3    3    0    0  0.92876692437E+01 -0.14466783225E+01 -0.27237209928E+02  0.28813526043E+02  0.51100000000E-03 0.  1.
        -12    1    3    3    0    0  0.12473701578E+02 -0.70968557261E+01 -0.10418768824E+02  0.17734411072E+02  0.00000000000E+00 0.  1.
</event>
<event>
 7    1  0.1634068E-009  0.4778727E+02  0.7816164E-02  0.1312668E+00
        -11   -1    0    0    0    0  0.00000000000E+00  0.00000000000E+00  0.45593999997E+02  0.45594000000E+02  0.51100000000E-03 0. -1.
         11   -1    0    0    0    0 -0.00000000000E+00 -0.00000000000E+00 -0.45593999997E+02  0.45594000000E+02  0.51100000000E-03 0.  1.
    9900012    2    1    2    0    0  0.36873638112E+02  0.22677278270E+02  0.31143487060E+01  0.47787270684E+02  0.19999998356E+02 0.  0.
         12    1    1    2    0    0 -0.36873638112E+02 -0.22677278270E+02 -0.31143487060E+01  0.43400729316E+02  0.00000000000E+00 0. -1.
         11    1    3    3    0    0  0.11202245419E+02  0.35282048747E+00 -0.44272350428E+01  0.12050526757E+02  0.51100000000E-03 0. -1.
        -11    1    3    3    0    0  0.13613452754E+02  0.71237681047E+01  0.50588552489E+01  0.16176099177E+02  0.51100000000E-03 0.  1.
         12    1    3    3    0    0  0.12057939938E+02  0.15200689678E+02  0.24827284999E+01  0.19560644750E+02  0.00000000000E+00 0. -1.
</event>
<event>
 7    1  0.1634068E-009  0.4778727E+02  0.7816164E-02  0.1312668E+00
        -11   -1    0    0    0    0  0.00000000000E+00  0.00000000000E+00  0.45593999997E+02  0.45594000000E+02  0.51100000000E-03 0. -1.
         11   -1    0    0    0    0 -0.00000000000E+00 -0.00000000000E+00 -0.45593999997E+02  0.45594000000E+02  0.51100000000E-03 0.  1.
    9900012    2    1    2    0    0  0.10363013505E+02  0.24263495162E+02 -0.34460322803E+02  0.47787273116E+02  0.20000009445E+02 0.  0.
         12    1    1    2    0    0 -0.10363013505E+02 -0.24263495162E+02  0.34460322803E+02  0.43400726884E+02  0.00000000000E+00 0. -1.
         11    1    3    3    0    0 -0.13657977017E+01 -0.99984790918E+00 -0.84436761280E+00  0.18915750395E+01  0.51100000000E-03 0. -1.
        -11    1    3    3    0    0  0.11969249442E+02  0.24412527098E+02 -0.24080927035E+02  0.36319766776E+02  0.51100000000E-03 0.  1.
         12    1    3    3    0    0 -0.24043823466E+00  0.85081597325E+00 -0.95350281548E+01  0.95759313008E+01  0.00000000000E+00 0. -1.
</event>
<event>
 7    1  0.1634068E-009  0.4778727E+02  0.7816164E-02  0.1312668E+00
        -11   -1    0    0    0    0  0.00000000000E+00  0.00000000000E+00  0.45593999997E+02  0.45594000000E+02  0.51100000000E-03 0. -1.
         11   -1    0    0    0    0 -0.00000000000E+00 -0.00000000000E+00 -0.45593999997E+02  0.45594000000E+02  0.51100000000E-03 0.  1.
    9900012    2    1    2    0    0 -0.27007314898E+02 -0.31201313055E+01 -0.33830356881E+02  0.47787270466E+02  0.19999997362E+02 0.  0.
         12    1    1    2    0    0  0.27007314898E+02  0.31201313055E+01  0.33830356881E+02  0.43400729534E+02  0.00000000000E+00 0. -1.
         11    1    3    3    0    0 -0.65272934433E+00 -0.50330224609E+00  0.16380395011E+01  0.18337236477E+01  0.51100000000E-03 0. -1.
        -11    1    3    3    0    0 -0.15683454697E+02 -0.73001966936E+01 -0.18096625491E+02  0.25035005041E+02  0.51100000000E-03 0.  1.
         12    1    3    3    0    0 -0.10671130857E+02  0.46833676342E+01 -0.17371770891E+02  0.20918541777E+02  0.00000000000E+00 0. -1.
</event>
<event>
 7    1  0.2062178E-009  0.4778727E+02  0.7816164E-02  0.1312668E+00
        -11   -1    0    0    0    0  0.00000000000E+00  0.00000000000E+00  0.45593999997E+02  0.45594000000E+02  0.51100000000E-03 0.  1.
         11   -1    0    0    0    0 -0.00000000000E+00 -0.00000000000E+00 -0.45593999997E+02  0.45594000000E+02  0.51100000000E-03 0. -1.
    9900012    2    1    2    0    0 -0.18252605417E+02 -0.26299045775E+02  0.29305730700E+02  0.47787271146E+02  0.20000000464E+02 0.  0.
         12    1    1    2    0    0  0.18252605417E+02  0.26299045775E+02 -0.29305730700E+02  0.43400728854E+02  0.00000000000E+00 0. -1.
         11    1    3    3    0    0 -0.35347606322E+01 -0.29914578840E+01 -0.14669498198E+01  0.48574988455E+01  0.51100000000E-03 0. -1.
        -11    1    3    3    0    0 -0.12177361109E+02 -0.86392391390E+01  0.17296730935E+02  0.22849539990E+02  0.51100000000E-03 0.  1.
        -12    1    3    3    0    0 -0.25404836758E+01 -0.14668348752E+02  0.13475949585E+02  0.20080232310E+02  0.00000000000E+00 0.  1.
</event>
<event>
 7    1  0.1634068E-009  0.4778727E+02  0.7816164E-02  0.1312668E+00
        -11   -1    0    0    0    0  0.00000000000E+00  0.00000000000E+00  0.45593999997E+02  0.45594000000E+02  0.51100000000E-03 0.  1.
         11   -1    0    0    0    0 -0.00000000000E+00 -0.00000000000E+00 -0.45593999997E+02  0.45594000000E+02  0.51100000000E-03 0. -1.
    9900012    2    1    2    0    0 -0.16741998591E+02  0.39763755421E+02 -0.47087781274E+01  0.47787270128E+02  0.19999995821E+02 0.  0.
         12    1    1    2    0    0  0.16741998591E+02 -0.39763755421E+02  0.47087781274E+01  0.43400729872E+02  0.00000000000E+00 0. -1.
         11    1    3    3    0    0  0.87645973005E-01  0.16368010318E+01 -0.36593341113E+01  0.40096790188E+01  0.51100000000E-03 0. -1.
        -11    1    3    3    0    0 -0.11047481715E+02  0.15768754238E+02  0.50245314962E+01  0.19898401431E+02  0.51100000000E-03 0.  1.
         12    1    3    3    0    0 -0.57821628492E+01  0.22358200150E+02 -0.60739755123E+01  0.23879189679E+02  0.00000000000E+00 0. -1.
</event>
<event>
 7    1  0.1634068E-009  0.4778727E+02  0.7816164E-02  0.1312668E+00
        -11   -1    0    0    0    0  0.00000000000E+00  0.00000000000E+00  0.45593999997E+02  0.45594000000E+02  0.51100000000E-03 0.  1.
         11   -1    0    0    0    0 -0.00000000000E+00 -0.00000000000E+00 -0.45593999997E+02  0.45594000000E+02  0.51100000000E-03 0. -1.
    9900012    2    1    2    0    0  0.34122342154E+02 -0.32241253260E+01  0.26625068044E+02  0.47787268824E+02  0.19999989878E+02 0.  0.
         12    1    1    2    0    0 -0.34122342154E+02  0.32241253260E+01 -0.26625068044E+02  0.43400731176E+02  0.00000000000E+00 0. -1.
         11    1    3    3    0    0  0.85775827414E+01 -0.45506254332E+01  0.82276799145E+01  0.12727051291E+02  0.51100000000E-03 0.  1.
        -11    1    3    3    0    0  0.11495418838E+02  0.70777098460E+01  0.13543063188E+02  0.19122060342E+02  0.51100000000E-03 0. -1.
         12    1    3    3    0    0  0.14049340574E+02 -0.57512097388E+01  0.48543249413E+01  0.15938157192E+02  0.00000000000E+00 0. -1.
</event>
<event>
 7    1  0.1634068E-009  0.4778724E+02  0.7816164E-02  0.1312668E+00
        -11   -1    0    0    0    0  0.00000000000E+00  0.00000000000E+00  0.45593999997E+02  0.45594000000E+02  0.51100000000E-03 0. -1.
         11   -1    0    0    0    0 -0.00000000000E+00 -0.00000000000E+00 -0.45593999997E+02  0.45594000000E+02  0.51100000000E-03 0.  1.
    9900012    2    1    2    0    0 -0.87341892203E+01 -0.42128484699E+02 -0.57035313380E+01  0.47787244776E+02  0.19999880229E+02 0.  0.
         12    1    1    2    0    0  0.87341892203E+01  0.42128484699E+02  0.57035313380E+01  0.43400755224E+02  0.00000000000E+00 0. -1.
         11    1    3    3    0    0 -0.86280109754E+01 -0.99309266639E+01 -0.45067699142E+01  0.13906000615E+02  0.51100000000E-03 0. -1.
        -11    1    3    3    0    0 -0.35466835279E+01 -0.65807121806E+01  0.22469374098E+01  0.78059890364E+01  0.51100000000E-03 0.  1.
        -12    1    3    3    0    0  0.34405052831E+01 -0.25616845854E+02 -0.34436988336E+01  0.26075255124E+02  0.00000000000E+00 0.  1.
</event>
<event>
 7    1  0.1634068E-009  0.4778727E+02  0.7816164E-02  0.1312668E+00
        -11   -1    0    0    0    0  0.00000000000E+00  0.00000000000E+00  0.45593999997E+02  0.45594000000E+02  0.51100000000E-03 0.  1.
         11   -1    0    0    0    0 -0.00000000000E+00 -0.00000000000E+00 -0.45593999997E+02  0.45594000000E+02  0.51100000000E-03 0. -1.
    9900012    2    1    2    0    0  0.29396829110E+02  0.96852064346E+01  0.30424445316E+02  0.47787266617E+02  0.19999979812E+02 0.  0.
         12    1    1    2    0    0 -0.29396829110E+02 -0.96852064346E+01 -0.30424445316E+02  0.43400733383E+02  0.00000000000E+00 0. -1.
         11    1    3    3    0    0  0.19639551224E+02  0.59566443179E+01  0.12776785512E+02  0.24175190425E+02  0.51100000000E-03 0.  1.
        -11    1    3    3    0    0  0.17180738409E+01  0.65519635472E+01  0.52553657660E+01  0.85731484089E+01  0.51100000000E-03 0. -1.
        -12    1    3    3    0    0  0.80392040453E+01 -0.28234014304E+01  0.12392294038E+02  0.15038927782E+02  0.00000000000E+00 0.  1.
</event>
<event>
 7    1  0.1634068E-009  0.4778727E+02  0.7816164E-02  0.1312668E+00
        -11   -1    0    0    0    0  0.00000000000E+00  0.00000000000E+00  0.45593999997E+02  0.45594000000E+02  0.51100000000E-03 0. -1.
         11   -1    0    0    0    0 -0.00000000000E+00 -0.00000000000E+00 -0.45593999997E+02  0.45594000000E+02  0.51100000000E-03 0.  1.
    9900012    2    1    2    0    0 -0.31115140134E+01  0.37680334572E+02  0.21310418876E+02  0.47787273213E+02  0.20000009889E+02 0.  0.
         12    1    1    2    0    0  0.31115140134E+01 -0.37680334572E+02 -0.21310418876E+02  0.43400726787E+02  0.00000000000E+00 0. -1.
         11    1    3    3    0    0  0.50937453526E+01  0.16482698834E+01  0.32934765668E+01  0.62856999199E+01  0.51100000000E-03 0. -1.
        -11    1    3    3    0    0 -0.36398993378E+01  0.11544191349E+02  0.86990207295E+01  0.14906045183E+02  0.51100000000E-03 0.  1.
         12    1    3    3    0    0 -0.45653600282E+01  0.24487873340E+02  0.93179215793E+01  0.26595528110E+02  0.00000000000E+00 0. -1.
</event>
<event>
 7    1  0.1634068E-009  0.4778727E+02  0.7816164E-02  0.1312668E+00
        -11   -1    0    0    0    0  0.00000000000E+00  0.00000000000E+00  0.45593999997E+02  0.45594000000E+02  0.51100000000E-03 0.  1.
         11   -1    0    0    0    0 -0.00000000000E+00 -0.00000000000E+00 -0.45593999997E+02  0.45594000000E+02  0.51100000000E-03 0. -1.
    9900012    2    1    2    0    0  0.38697785718E+02  0.18762429263E+00  0.19648659565E+02  0.47787266768E+02  0.19999980504E+02 0.  0.
         12    1    1    2    0    0 -0.38697785718E+02 -0.18762429263E+00 -0.19648659565E+02  0.43400733232E+02  0.00000000000E+00 0. -1.
         11    1    3    3    0    0  0.37263596018E+02 -0.92642057330E+00  0.16631083612E+02  0.40816991384E+02  0.51100000000E-03 0. -1.
        -11    1    3    3    0    0  0.22380913555E+01  0.25830998122E+01 -0.11328098300E+00  0.34196915647E+01  0.51100000000E-03 0.  1.
         12    1    3    3    0    0 -0.80390165556E+00 -0.14690549463E+01  0.31308569359E+01  0.35505838196E+01  0.00000000000E+00 0. -1.
</event>
<event>
 7    1  0.1634068E-009  0.4778727E+02  0.7816164E-02  0.1312668E+00
        -11   -1    0    0    0    0  0.00000000000E+00  0.00000000000E+00  0.45593999997E+02  0.45594000000E+02  0.51100000000E-03 0.  1.
         11   -1    0    0    0    0 -0.00000000000E+00 -0.00000000000E+00 -0.45593999997E+02  0.45594000000E+02  0.51100000000E-03 0. -1.
    9900012    2    1    2    0    0 -0.19286873956E+02  0.56414983294E-01  0.38879769513E+02  0.47787272275E+02  0.20000005612E+02 0.  0.
         12    1    1    2    0    0  0.19286873956E+02 -0.56414983294E-01 -0.38879769513E+02  0.43400727725E+02  0.00000000000E+00 0. -1.
         11    1    3    3    0    0 -0.72210146707E+01  0.84225268053E+01  0.19160259456E+02  0.22140405447E+02  0.51100000000E-03 0. -1.
        -11    1    3    3    0    0 -0.20950413697E+01 -0.46551071073E+01  0.10041070328E+02  0.11264204992E+02  0.51100000000E-03 0.  1.
        -12    1    3    3    0    0 -0.99708179159E+01 -0.37110047148E+01  0.96784397288E+01  0.14382661836E+02  0.00000000000E+00 0.  1.
</event>
<event>
 7    1  0.1634068E-009  0.4778727E+02  0.7816164E-02  0.1312668E+00
        -11   -1    0    0    0    0  0.00000000000E+00  0.00000000000E+00  0.45593999997E+02  0.45594000000E+02  0.51100000000E-03 0. -1.
         11   -1    0    0    0    0 -0.00000000000E+00 -0.00000000000E+00 -0.45593999997E+02  0.45594000000E+02  0.51100000000E-03 0.  1.
    9900012    2    1    2    0    0  0.11119954205E+02  0.41549612252E+02 -0.57964942019E+01  0.47787274144E+02  0.20000014131E+02 0.  0.
         12    1    1    2    0    0 -0.11119954205E+02 -0.41549612252E+02  0.57964942019E+01  0.43400725856E+02  0.00000000000E+00 0. -1.
         11    1    3    3    0    0  0.18099521810E+01  0.18094014062E+02 -0.72394526216E+01  0.19572402671E+02  0.51100000000E-03 0. -1.
        -11    1    3    3    0    0  0.20572626158E+01  0.10104899144E+02 -0.52974704343E+01  0.11593295883E+02  0.51100000000E-03 0.  1.
         12    1    3    3    0    0  0.72527394086E+01  0.13350699046E+02  0.67404288540E+01  0.16621575590E+02  0.00000000000E+00 0. -1.
</event>
<event>
 7    1  0.1634068E-009  0.4778727E+02  0.7816164E-02  0.1312668E+00
        -11   -1    0    0    0    0  0.00000000000E+00  0.00000000000E+00  0.45593999997E+02  0.45594000000E+02  0.51100000000E-03 0. -1.
         11   -1    0    0    0    0 -0.00000000000E+00 -0.00000000000E+00 -0.45593999997E+02  0.45594000000E+02  0.51100000000E-03 0.  1.
    9900012    2    1    2    0    0  0.14864486178E+02 -0.27168046500E+02 -0.30406709922E+02  0.47787266040E+02  0.19999977182E+02 0.  0.
         12    1    1    2    0    0 -0.14864486178E+02  0.27168046500E+02  0.30406709922E+02  0.43400733960E+02  0.00000000000E+00 0. -1.
         11    1    3    3    0    0 -0.18624005128E+01 -0.16866050239E+01  0.55389358737E+00  0.25729303418E+01  0.51100000000E-03 0. -1.
        -11    1    3    3    0    0  0.98867129616E+01 -0.18083895358E+02 -0.12283248713E+02  0.23992760652E+02  0.51100000000E-03 0.  1.
         12    1    3    3    0    0  0.68401737296E+01 -0.73975461181E+01 -0.18677354797E+02  0.21221575046E+02  0.00000000000E+00 0. -1.
</event>
<event>
 7    1  0.1634068E-009  0.4778726E+02  0.7816164E-02  0.1312668E+00
        -11   -1    0    0    0    0  0.00000000000E+00  0.00000000000E+00  0.45593999997E+02  0.45594000000E+02  0.51100000000E-03 0.  1.
         11   -1    0    0    0    0 -0.00000000000E+00 -0.00000000000E+00 -0.45593999997E+02  0.45594000000E+02  0.51100000000E-03 0. -1.
    9900012    2    1    2    0    0  0.10437615412E+02 -0.38454527507E+02  0.17202603073E+02  0.47787262059E+02  0.19999959033E+02 0.  0.
         12    1    1    2    0    0 -0.10437615412E+02  0.38454527507E+02 -0.17202603073E+02  0.43400737941E+02  0.00000000000E+00 0. -1.
         11    1    3    3    0    0  0.91759298161E+01 -0.12001558395E+02  0.11078126821E+02  0.18733926070E+02  0.51100000000E-03 0. -1.
        -11    1    3    3    0    0 -0.17690650236E+01 -0.12299985126E+02  0.74997057036E+01  0.14514296781E+02  0.51100000000E-03 0.  1.
         12    1    3    3    0    0  0.30307506199E+01 -0.14152983987E+02 -0.13752294506E+01  0.14539039208E+02  0.00000000000E+00 0. -1.
</event>
<event>
 7    1  0.1634068E-009  0.4778727E+02  0.7816164E-02  0.1312668E+00
        -11   -1    0    0    0    0  0.00000000000E+00  0.00000000000E+00  0.45593999997E+02  0.45594000000E+02  0.51100000000E-03 0.  1.
         11   -1    0    0    0    0 -0.00000000000E+00 -0.00000000000E+00 -0.45593999997E+02  0.45594000000E+02  0.51100000000E-03 0. -1.
    9900012    2    1    2    0    0 -0.26632743666E+02  0.32714823931E+02  0.10201030578E+02  0.47787265388E+02  0.19999974208E+02 0.  0.
         12    1    1    2    0    0  0.26632743666E+02 -0.32714823931E+02 -0.10201030578E+02  0.43400734612E+02  0.00000000000E+00 0. -1.
         11    1    3    3    0    0 -0.74987491205E+01  0.13633658806E+02  0.10043043726E+02  0.18519465930E+02  0.51100000000E-03 0. -1.
        -11    1    3    3    0    0 -0.15235565215E+02  0.19513198207E+02  0.21848033645E+01  0.24852780885E+02  0.51100000000E-03 0.  1.
        -12    1    3    3    0    0 -0.38984293299E+01 -0.43203308126E+00 -0.20268165121E+01  0.44150185727E+01  0.00000000000E+00 0.  1.
</event>
<event>
 7    1  0.1634068E-009  0.4778727E+02  0.7816164E-02  0.1312668E+00
        -11   -1    0    0    0    0  0.00000000000E+00  0.00000000000E+00  0.45593999997E+02  0.45594000000E+02  0.51100000000E-03 0.  1.
         11   -1    0    0    0    0 -0.00000000000E+00 -0.00000000000E+00 -0.45593999997E+02  0.45594000000E+02  0.51100000000E-03 0. -1.
    9900012    2    1    2    0    0  0.71808936123E+01 -0.18229238101E+02  0.38726644473E+02  0.47787270202E+02  0.19999996160E+02 0.  0.
         12    1    1    2    0    0 -0.71808936123E+01  0.18229238101E+02 -0.38726644473E+02  0.43400729798E+02  0.00000000000E+00 0. -1.
         11    1    3    3    0    0  0.54415621390E+01 -0.82187495575E+01  0.82473432104E+01  0.12852124847E+02  0.51100000000E-03 0. -1.
        -11    1    3    3    0    0  0.52281336656E+01 -0.72556151758E+01  0.28843976059E+02  0.30198547786E+02  0.51100000000E-03 0.  1.
        -12    1    3    3    0    0 -0.34888021923E+01 -0.27548733676E+01  0.16353252035E+01  0.47365975689E+01  0.00000000000E+00 0.  1.
</event>
<event>
 7    1  0.1634068E-009  0.4778725E+02  0.7816164E-02  0.1312668E+00
        -11   -1    0    0    0    0  0.00000000000E+00  0.00000000000E+00  0.45593999997E+02  0.45594000000E+02  0.51100000000E-03 0. -1.
         11   -1    0    0    0    0 -0.00000000000E+00 -0.00000000000E+00 -0.45593999997E+02  0.45594000000E+02  0.51100000000E-03 0.  1.
    9900012    2    1    2    0    0  0.18807262095E+02  0.84042885060E+01 -0.38200527536E+02  0.47787245666E+02  0.19999884287E+02 0.  0.
         12    1    1    2    0    0 -0.18807262095E+02 -0.84042885060E+01  0.38200527536E+02  0.43400754334E+02  0.00000000000E+00 0. -1.
         11    1    3    3    0    0 -0.50199704290E+00 -0.19397824883E+01 -0.53793725126E+01  0.57404186278E+01  0.51100000000E-03 0. -1.
        -11    1    3    3    0    0  0.19911716955E+02  0.45737128983E+01 -0.26597456660E+02  0.33538336614E+02  0.51100000000E-03 0.  1.
        -12    1    3    3    0    0 -0.60245781747E+00  0.57703580959E+01 -0.62236983630E+01  0.85084904238E+01  0.00000000000E+00 0.  1.
</event>
<event>
 7    1  0.1634068E-009  0.4778727E+02  0.7816164E-02  0.1312668E+00
        -11   -1    0    0    0    0  0.00000000000E+00  0.00000000000E+00  0.45593999997E+02  0.45594000000E+02  0.51100000000E-03 0. -1.
         11   -1    0    0    0    0 -0.00000000000E+00 -0.00000000000E+00 -0.45593999997E+02  0.45594000000E+02  0.51100000000E-03 0.  1.
    9900012    2    1    2    0    0 -0.17712229368E+02 -0.39555660757E+02 -0.22912933188E+01  0.47787269681E+02  0.19999993785E+02 0.  0.
         12    1    1    2    0    0  0.17712229368E+02  0.39555660757E+02  0.22912933188E+01  0.43400730319E+02  0.00000000000E+00 0. -1.
         11    1    3    3    0    0 -0.81688943015E+01 -0.18994463522E+01 -0.30536189830E+01  0.89254310657E+01  0.51100000000E-03 0. -1.
        -11    1    3    3    0    0 -0.38229298560E+01 -0.13591432822E+02  0.33390034995E+00  0.14122794643E+02  0.51100000000E-03 0.  1.
         12    1    3    3    0    0 -0.57204052104E+01 -0.24064781583E+02  0.42842531423E+00  0.24739043973E+02  0.00000000000E+00 0. -1.
</event>
<event>
 7    1  0.1634068E-009  0.4778727E+02  0.7816164E-02  0.1312668E+00
        -11   -1    0    0    0    0  0.00000000000E+00  0.00000000000E+00  0.45593999997E+02  0.45594000000E+02  0.51100000000E-03 0.  1.
         11   -1    0    0    0    0 -0.00000000000E+00 -0.00000000000E+00 -0.45593999997E+02  0.45594000000E+02  0.51100000000E-03 0. -1.
    9900012    2    1    2    0    0  0.20186448496E+01 -0.32414412346E+02  0.28789832339E+02  0.47787268429E+02  0.19999988076E+02 0.  0.
         12    1    1    2    0    0 -0.20186448496E+01  0.32414412346E+02 -0.28789832339E+02  0.43400731571E+02  0.00000000000E+00 0. -1.
         11    1    3    3    0    0  0.17712550629E+01 -0.56258337276E+00  0.51513806437E+01  0.54763644279E+01  0.51100000000E-03 0. -1.
        -11    1    3    3    0    0  0.31286864279E+01 -0.31718856125E+02  0.23132327949E+02  0.39382472107E+02  0.51100000000E-03 0.  1.
        -12    1    3    3    0    0 -0.28812966411E+01 -0.13297284794E+00  0.50612374693E+00  0.29284318943E+01  0.00000000000E+00 0.  1.
</event>
<event>
 7    1  0.1634068E-009  0.4778727E+02  0.7816164E-02  0.1312668E+00
        -11   -1    0    0    0    0  0.00000000000E+00  0.00000000000E+00  0.45593999997E+02  0.45594000000E+02  0.51100000000E-03 0.  1.
         11   -1    0    0    0    0 -0.00000000000E+00 -0.00000000000E+00 -0.45593999997E+02  0.45594000000E+02  0.51100000000E-03 0. -1.
    9900012    2    1    2    0    0  0.26790845029E+02  0.82854266294E+01  0.33124393891E+02  0.47787272558E+02  0.20000006902E+02 0.  0.
         12    1    1    2    0    0 -0.26790845029E+02 -0.82854266294E+01 -0.33124393891E+02  0.43400727442E+02  0.00000000000E+00 0. -1.
         11    1    3    3    0    0  0.10326740954E+02  0.80606569444E+01  0.50063784907E+01  0.14024250246E+02  0.51100000000E-03 0. -1.
        -11    1    3    3    0    0  0.27661041868E+01 -0.34609285132E+01  0.54671339459E+01  0.70369675564E+01  0.51100000000E-03 0.  1.
        -12    1    3    3    0    0  0.13697999888E+02  0.36856981983E+01  0.22650881455E+02  0.26726054756E+02  0.00000000000E+00 0.  1.
</event>
<event>
 7    1  0.1634068E-009  0.4778728E+02  0.7816164E-02  0.1312668E+00
        -11   -1    0    0    0    0  0.00000000000E+00  0.00000000000E+00  0.45593999997E+02  0.45594000000E+02  0.51100000000E-03 0.  1.
         11   -1    0    0    0    0 -0.00000000000E+00 -0.00000000000E+00 -0.45593999997E+02  0.45594000000E+02  0.51100000000E-03 0. -1.
    9900012    2    1    2    0    0  0.25453403838E+02 -0.27382631229E+02  0.22044009150E+02  0.47787278815E+02  0.20000035431E+02 0.  0.
         12    1    1    2    0    0 -0.25453403838E+02  0.27382631229E+02 -0.22044009150E+02  0.43400721185E+02  0.00000000000E+00 0. -1.
         11    1    3    3    0    0  0.12205524190E+02 -0.83622610718E+01  0.11623660038E+02  0.18815198748E+02  0.51100000000E-03 0.  1.
        -11    1    3    3    0    0 -0.15507719562E+01 -0.73416222786E+01  0.60034990304E+01  0.96096988616E+01  0.51100000000E-03 0. -1.
         12    1    3    3    0    0  0.14798651604E+02 -0.11678747879E+02  0.44168500809E+01  0.19362381206E+02  0.00000000000E+00 0. -1.
</event>
<event>
 7    1  0.1634068E-009  0.4778727E+02  0.7816164E-02  0.1312668E+00
        -11   -1    0    0    0    0  0.00000000000E+00  0.00000000000E+00  0.45593999997E+02  0.45594000000E+02  0.51100000000E-03 0.  1.
         11   -1    0    0    0    0 -0.00000000000E+00 -0.00000000000E+00 -0.45593999997E+02  0.45594000000E+02  0.51100000000E-03 0. -1.
    9900012    2    1    2    0    0  0.14021544176E+02 -0.34535165374E+02  0.22233798536E+02  0.47787272520E+02  0.20000006726E+02 0.  0.
         12    1    1    2    0    0 -0.14021544176E+02  0.34535165374E+02 -0.22233798536E+02  0.43400727480E+02  0.00000000000E+00 0. -1.
         11    1    3    3    0    0  0.72500912126E+01 -0.11530605925E+02  0.86248102420E+01  0.16121601892E+02  0.51100000000E-03 0. -1.
        -11    1    3    3    0    0  0.86297768146E+01 -0.24262652492E+02  0.10451174619E+02  0.27791660710E+02  0.51100000000E-03 0.  1.
         12    1    3    3    0    0 -0.18583238511E+01  0.12580930433E+01  0.31578136746E+01  0.38740099180E+01  0.00000000000E+00 0. -1.
</event>
<event>
 7    1  0.1634068E-009  0.4778727E+02  0.7816164E-02  0.1312668E+00
        -11   -1    0    0    0    0  0.00000000000E+00  0.00000000000E+00  0.45593999997E+02  0.45594000000E+02  0.51100000000E-03 0.  1.
         11   -1    0    0    0    0 -0.00000000000E+00 -0.00000000000E+00 -0.45593999997E+02  0.45594000000E+02  0.51100000000E-03 0. -1.
    9900012    2    1    2    0    0  0.76266385255E+01  0.32539414172E+02  0.27688339957E+02  0.47787271211E+02  0.20000000759E+02 0.  0.
         12    1    1    2    0    0 -0.76266385255E+01 -0.32539414172E+02 -0.27688339957E+02  0.43400728789E+02  0.00000000000E+00 0. -1.
         11    1    3    3    0    0 -0.22650826330E+01  0.60160252772E+01  0.18725196834E+01  0.66954827829E+01  0.51100000000E-03 0. -1.
        -11    1    3    3    0    0  0.61212090838E+01  0.75720535060E+01  0.17560821380E+02  0.20079532932E+02  0.51100000000E-03 0.  1.
         12    1    3    3    0    0  0.37705120747E+01  0.18951335388E+02  0.82549988937E+01  0.21012255496E+02  0.00000000000E+00 0. -1.
</event>
<event>
 7    1  0.1634068E-009  0.4778727E+02  0.7816164E-02  0.1312668E+00
        -11   -1    0    0    0    0  0.00000000000E+00  0.00000000000E+00  0.45593999997E+02  0.45594000000E+02  0.51100000000E-03 0. -1.
         11   -1    0    0    0    0 -0.00000000000E+00 -0.00000000000E+00 -0.45593999997E+02  0.45594000000E+02  0.51100000000E-03 0.  1.
    9900012    2    1    2    0    0  0.13684147252E+02  0.35953784412E+02 -0.20092109854E+02  0.47787269846E+02  0.19999994535E+02 0.  0.
         12    1    1    2    0    0 -0.13684147252E+02 -0.35953784412E+02  0.20092109854E+02  0.43400730154E+02  0.00000000000E+00 0. -1.
         11    1    3    3    0    0  0.10089739289E+01  0.22922447878E+02 -0.10413669432E+02  0.25197245017E+02  0.51100000000E-03 0. -1.
        -11    1    3    3    0    0  0.37972697344E+01  0.10267933494E+02 -0.37939914429E+01  0.11586375059E+02  0.51100000000E-03 0.  1.
        -12    1    3    3    0    0  0.88779035885E+01  0.27634030396E+01 -0.58844489790E+01  0.11003649771E+02  0.00000000000E+00 0.  1.
</event>
<event>
 7    1  0.1634068E-009  0.4778727E+02  0.7816164E-02  0.1312668E+00
        -11   -1    0    0    0    0  0.00000000000E+00  0.00000000000E+00  0.45593999997E+02  0.45594000000E+02  0.51100000000E-03 0. -1.
         11   -1    0    0    0    0 -0.00000000000E+00 -0.00000000000E+00 -0.45593999997E+02  0.45594000000E+02  0.51100000000E-03 0.  1.
    9900012    2    1    2    0    0 -0.36311630701E+02 -0.11258998112E+02 -0.20936188390E+02  0.47787267898E+02  0.19999985656E+02 0.  0.
         12    1    1    2    0    0  0.36311630701E+02  0.11258998112E+02  0.20936188390E+02  0.43400732102E+02  0.00000000000E+00 0. -1.
         11    1    3    3    0    0 -0.63391993856E+01  0.19962152448E+01  0.11304869271E+01  0.67415372956E+01  0.51100000000E-03 0. -1.
        -11    1    3    3    0    0 -0.41881594974E+01 -0.66058123226E+01 -0.67203244928E+01  0.10312138380E+02  0.51100000000E-03 0.  1.
         12    1    3    3    0    0 -0.25784271818E+02 -0.66494010341E+01 -0.15346350824E+02  0.30733592223E+02  0.00000000000E+00 0. -1.
</event>
<event>
 7    1  0.1634068E-009  0.4778727E+02  0.7816164E-02  0.1312668E+00
        -11   -1    0    0    0    0  0.00000000000E+00  0.00000000000E+00  0.45593999997E+02  0.45594000000E+02  0.51100000000E-03 0. -1.
         11   -1    0    0    0    0 -0.00000000000E+00 -0.00000000000E+00 -0.45593999997E+02  0.45594000000E+02  0.51100000000E-03 0.  1.
    9900012    2    1    2    0    0  0.23367246441E+02 -0.18756549949E+02  0.31397242243E+02  0.47787271980E+02  0.20000004265E+02 0.  0.
         12    1    1    2    0    0 -0.23367246441E+02  0.18756549949E+02 -0.31397242243E+02  0.43400728020E+02  0.00000000000E+00 0. -1.
         11    1    3    3    0    0  0.53140434432E+00  0.38435577992E+00  0.44765218293E+01  0.45243085541E+01  0.51100000000E-03 0. -1.
        -11    1    3    3    0    0  0.76909780124E+01 -0.75876282409E+01  0.20480110828E+02  0.23155089827E+02  0.51100000000E-03 0.  1.
        -12    1    3    3    0    0  0.15144864084E+02 -0.11553277488E+02  0.64406095857E+01  0.20107873599E+02  0.00000000000E+00 0.  1.
</event>
<event>
 7    1  0.1634068E-009  0.4778727E+02  0.7816164E-02  0.1312668E+00
        -11   -1    0    0    0    0  0.00000000000E+00  0.00000000000E+00  0.45593999997E+02  0.45594000000E+02  0.51100000000E-03 0.  1.
         11   -1    0    0    0    0 -0.00000000000E+00 -0.00000000000E+00 -0.45593999997E+02  0.45594000000E+02  0.51100000000E-03 0. -1.
    9900012    2    1    2    0    0 -0.15734773178E+02  0.13713542605E+02  0.38052318464E+02  0.47787270994E+02  0.19999999772E+02 0.  0.
         12    1    1    2    0    0  0.15734773178E+02 -0.13713542605E+02 -0.38052318464E+02  0.43400729006E+02  0.00000000000E+00 0. -1.
         11    1    3    3    0    0 -0.10825246566E+02  0.52463103572E+01  0.16483389404E+02  0.20406172157E+02  0.51100000000E-03 0. -1.
        -11    1    3    3    0    0 -0.52226854474E+01  0.61720772129E+01  0.29315040126E+01  0.86002730445E+01  0.51100000000E-03 0.  1.
         12    1    3    3    0    0  0.31315883555E+00  0.22951550350E+01  0.18637425047E+02  0.18780825793E+02  0.00000000000E+00 0. -1.
</event>
<event>
 7    1  0.1634068E-009  0.4778727E+02  0.7816164E-02  0.1312668E+00
        -11   -1    0    0    0    0  0.00000000000E+00  0.00000000000E+00  0.45593999997E+02  0.45594000000E+02  0.51100000000E-03 0.  1.
         11   -1    0    0    0    0 -0.00000000000E+00 -0.00000000000E+00 -0.45593999997E+02  0.45594000000E+02  0.51100000000E-03 0. -1.
    9900012    2    1    2    0    0  0.73063020193E+01  0.27460535824E+01  0.42693095307E+02  0.47787271361E+02  0.20000001444E+02 0.  0.
         12    1    1    2    0    0 -0.73063020193E+01 -0.27460535824E+01 -0.42693095307E+02  0.43400728639E+02  0.00000000000E+00 0. -1.
         11    1    3    3    0    0  0.51234392573E+01 -0.51317794398E+01  0.23206826749E+02  0.24313403671E+02  0.51100000000E-03 0. -1.
        -11    1    3    3    0    0  0.61352703577E+01  0.62058985746E+01  0.14169964107E+02  0.16641592548E+02  0.51100000000E-03 0.  1.
        -12    1    3    3    0    0 -0.39524075957E+01  0.16719344476E+01  0.53163044512E+01  0.68322751421E+01  0.00000000000E+00 0.  1.
</event>
<event>
 7    1  0.1634068E-009  0.4778726E+02  0.7816164E-02  0.1312668E+00
        -11   -1    0    0    0    0  0.00000000000E+00  0.00000000000E+00  0.45593999997E+02  0.45594000000E+02  0.51100000000E-03 0.  1.
         11   -1    0    0    0    0 -0.00000000000E+00 -0.00000000000E+00 -0.45593999997E+02  0.45594000000E+02  0.51100000000E-03 0. -1.
    9900012    2    1    2    0    0  0.13527275195E+02 -0.30069173634E+01  0.41129013486E+02  0.47787257189E+02  0.19999936826E+02 0.  0.
         12    1    1    2    0    0 -0.13527275195E+02  0.30069173634E+01 -0.41129013486E+02  0.43400742811E+02  0.00000000000E+00 0. -1.
         11    1    3    3    0    0  0.10640150636E+01  0.28521650490E+01  0.11510177989E+02  0.11905930082E+02  0.51100000000E-03 0.  1.
        -11    1    3    3    0    0  0.49008482511E+01  0.47228208386E+01  0.13917913469E+02  0.15492955362E+02  0.51100000000E-03 0. -1.
         12    1    3    3    0    0  0.75624118805E+01 -0.10581903251E+02  0.15700922028E+02  0.20388371744E+02  0.00000000000E+00 0. -1.
</event>
<event>
 7    1  0.1634068E-009  0.4778727E+02  0.7816164E-02  0.1312668E+00
        -11   -1    0    0    0    0  0.00000000000E+00  0.00000000000E+00  0.45593999997E+02  0.45594000000E+02  0.51100000000E-03 0. -1.
         11   -1    0    0    0    0 -0.00000000000E+00 -0.00000000000E+00 -0.45593999997E+02  0.45594000000E+02  0.51100000000E-03 0.  1.
    9900012    2    1    2    0    0 -0.34810740920E+02 -0.44217036478E+00 -0.25916023504E+02  0.47787268759E+02  0.19999989580E+02 0.  0.
         12    1    1    2    0    0  0.34810740920E+02  0.44217036478E+00  0.25916023504E+02  0.43400731241E+02  0.00000000000E+00 0. -1.
         11    1    3    3    0    0 -0.17971193804E+01 -0.25652493056E+01  0.94867118348E+00  0.32726318679E+01  0.51100000000E-03 0. -1.
        -11    1    3    3    0    0 -0.28075727972E+02 -0.31201214204E+01 -0.22272452265E+02  0.35972820143E+02  0.51100000000E-03 0.  1.
         12    1    3    3    0    0 -0.49378935671E+01  0.52432003612E+01 -0.45922424219E+01  0.85418167487E+01  0.00000000000E+00 0. -1.
</event>
<event>
 7    1  0.1634068E-009  0.4778727E+02  0.7816164E-02  0.1312668E+00
        -11   -1    0    0    0    0  0.00000000000E+00  0.00000000000E+00  0.45593999997E+02  0.45594000000E+02  0.51100000000E-03 0. -1.
         11   -1    0    0    0    0 -0.00000000000E+00 -0.00000000000E+00 -0.45593999997E+02  0.45594000000E+02  0.51100000000E-03 0.  1.
    9900012    2    1    2    0    0 -0.10917425462E+02  0.33489416273E+02 -0.25355310753E+02  0.47787274610E+02  0.20000016255E+02 0.  0.
         12    1    1    2    0    0  0.10917425462E+02 -0.33489416273E+02  0.25355310753E+02  0.43400725390E+02  0.00000000000E+00 0. -1.
         11    1    3    3    0    0  0.11253272189E+01  0.65687562423E+00 -0.78861730949E+01  0.79930953503E+01  0.51100000000E-03 0. -1.
        -11    1    3    3    0    0 -0.56534700616E+01  0.15440233287E+02 -0.12371144413E+02  0.20576873962E+02  0.51100000000E-03 0.  1.
         12    1    3    3    0    0 -0.63892826192E+01  0.17392307362E+02 -0.50979932450E+01  0.19217305297E+02  0.00000000000E+00 0. -1.
</event>
<event>
 7    1  0.1634068E-009  0.4778731E+02  0.7816164E-02  0.1312668E+00
        -11   -1    0    0    0    0  0.00000000000E+00  0.00000000000E+00  0.45593999997E+02  0.45594000000E+02  0.51100000000E-03 0. -1.
         11   -1    0    0    0    0 -0.00000000000E+00 -0.00000000000E+00 -0.45593999997E+02  0.45594000000E+02  0.51100000000E-03 0.  1.
    9900012    2    1    2    0    0  0.11603569205E+02 -0.26801602593E+01 -0.41734808142E+02  0.47787305444E+02  0.20000156840E+02 0.  0.
         12    1    1    2    0    0 -0.11603569205E+02  0.26801602593E+01  0.41734808142E+02  0.43400694556E+02  0.00000000000E+00 0. -1.
         11    1    3    3    0    0  0.26545869972E+01 -0.46055408305E+01 -0.23843183660E+02  0.24428574370E+02  0.51100000000E-03 0. -1.
        -11    1    3    3    0    0  0.10747815254E+02 -0.17692052029E+01 -0.12506929896E+02  0.16585201701E+02  0.51100000000E-03 0.  1.
        -12    1    3    3    0    0 -0.17988330461E+01  0.36945857742E+01 -0.53846945865E+01  0.67735293726E+01  0.00000000000E+00 0.  1.
</event>
<event>
 7    1  0.1634068E-009  0.4778727E+02  0.7816164E-02  0.1312668E+00
        -11   -1    0    0    0    0  0.00000000000E+00  0.00000000000E+00  0.45593999997E+02  0.45594000000E+02  0.51100000000E-03 0. -1.
         11   -1    0    0    0    0 -0.00000000000E+00 -0.00000000000E+00 -0.45593999997E+02  0.45594000000E+02  0.51100000000E-03 0.  1.
    9900012    2    1    2    0    0  0.42587547109E+02 -0.44669859237E+01  0.70689812904E+01  0.47787266959E+02  0.19999981373E+02 0.  0.
         12    1    1    2    0    0 -0.42587547109E+02  0.44669859237E+01 -0.70689812904E+01  0.43400733041E+02  0.00000000000E+00 0. -1.
         11    1    3    3    0    0  0.59403295614E+01 -0.70818966016E+01  0.18405922453E+01  0.94248901770E+01  0.51100000000E-03 0. -1.
        -11    1    3    3    0    0  0.14105686948E+02  0.12538691806E+01 -0.27232023168E+01  0.14420763618E+02  0.51100000000E-03 0.  1.
         12    1    3    3    0    0  0.22541530600E+02  0.13610414973E+01  0.79515913619E+01  0.23941613164E+02  0.00000000000E+00 0. -1.
</event>
<event>
 7    1  0.1634068E-009  0.4778728E+02  0.7816164E-02  0.1312668E+00
        -11   -1    0    0    0    0  0.00000000000E+00  0.00000000000E+00  0.45593999997E+02  0.45594000000E+02  0.51100000000E-03 0. -1.
         11   -1    0    0    0    0 -0.00000000000E+00 -0.00000000000E+00 -0.45593999997E+02  0.45594000000E+02  0.51100000000E-03 0.  1.
    9900012    2    1    2    0    0 -0.30415575280E+01 -0.10023423401E+02 -0.42117720599E+02  0.47787280221E+02  0.20000041841E+02 0.  0.
         12    1    1    2    0    0  0.30415575280E+01  0.10023423401E+02  0.42117720599E+02  0.43400719779E+02  0.00000000000E+00 0. -1.
         11    1    3    3    0    0 -0.51868749597E+01  0.44493805929E+01 -0.95167500690E+01  0.11716193565E+02  0.51100000000E-03 0. -1.
        -11    1    3    3    0    0  0.60103227083E+00 -0.71195662067E+01 -0.21584055806E+02  0.22735895145E+02  0.51100000000E-03 0.  1.
         12    1    3    3    0    0  0.15442851609E+01 -0.73532377873E+01 -0.11016914724E+02  0.13335191511E+02  0.00000000000E+00 0. -1.
</event>
<event>
 7    1  0.1634068E-009  0.4778727E+02  0.7816164E-02  0.1312668E+00
        -11   -1    0    0    0    0  0.00000000000E+00  0.00000000000E+00  0.45593999997E+02  0.45594000000E+02  0.51100000000E-03 0. -1.
         11   -1    0    0    0    0 -0.00000000000E+00 -0.00000000000E+00 -0.45593999997E+02  0.45594000000E+02  0.51100000000E-03 0.  1.
    9900012    2    1    2    0    0 -0.18159789902E+02 -0.22597336722E+02 -0.32298691188E+02  0.47787273639E+02  0.20000011829E+02 0.  0.
         12    1    1    2    0    0  0.18159789902E+02  0.22597336722E+02  0.32298691188E+02  0.43400726361E+02  0.00000000000E+00 0. -1.
         11    1    3    3    0    0 -0.58315253930E+01 -0.15272319337E+02 -0.21280158035E+02  0.26834596188E+02  0.51100000000E-03 0. -1.
        -11    1    3    3    0    0 -0.24598951398E+01  0.10402841953E+01 -0.68636156877E+01  0.73649505005E+01  0.51100000000E-03 0.  1.
         12    1    3    3    0    0 -0.98683693690E+01 -0.83653015796E+01 -0.41549174662E+01  0.13587726950E+02  0.00000000000E+00 0. -1.
</event>
<event>
 7    1  0.1634068E-009  0.4778727E+02  0.7816164E-02  0.1312668E+00
        -11   -1    0    0    0    0  0.00000000000E+00  0.00000000000E+00  0.45593999997E+02  0.45594000000E+02  0.51100000000E-03 0.  1.
         11   -1    0    0    0    0 -0.00000000000E+00 -0.00000000000E+00 -0.45593999997E+02  0.45594000000E+02  0.51100000000E-03 0. -1.
    9900012    2    1    2    0    0  0.90248148958E+01 -0.33840687046E+02  0.25631697086E+02  0.47787270984E+02  0.19999999723E+02 0.  0.
         12    1    1    2    0    0 -0.90248148958E+01  0.33840687046E+02 -0.25631697086E+02  0.43400729016E+02  0.00000000000E+00 0. -1.
         11    1    3    3    0    0  0.33945315878E+01 -0.20494633813E+01 -0.70433260232E+00  0.40273104583E+01  0.51100000000E-03 0. -1.
        -11    1    3    3    0    0  0.10019133374E+02 -0.22988237759E+02  0.19781584590E+02  0.31939837163E+02  0.51100000000E-03 0.  1.
         12    1    3    3    0    0 -0.43888500662E+01 -0.88029859049E+01  0.65544450983E+01  0.11820123362E+02  0.00000000000E+00 0. -1.
</event>
<event>
 7    1  0.1634068E-009  0.4778727E+02  0.7816164E-02  0.1312668E+00
        -11   -1    0    0    0    0  0.00000000000E+00  0.00000000000E+00  0.45593999997E+02  0.45594000000E+02  0.51100000000E-03 0.  1.
         11   -1    0    0    0    0 -0.00000000000E+00 -0.00000000000E+00 -0.45593999997E+02  0.45594000000E+02  0.51100000000E-03 0. -1.
    9900012    2    1    2    0    0 -0.15548032393E+02 -0.56466961963E+01  0.40124763834E+02  0.47787272334E+02  0.20000005880E+02 0.  0.
         12    1    1    2    0    0  0.15548032393E+02  0.56466961963E+01 -0.40124763834E+02  0.43400727666E+02  0.00000000000E+00 0. -1.
         11    1    3    3    0    0 -0.10423572986E+02  0.13625159477E+01  0.12362276618E+02  0.16227544698E+02  0.51100000000E-03 0. -1.
        -11    1    3    3    0    0  0.22085708183E+01  0.18381506708E+01  0.99965982720E+01  0.10401372997E+02  0.51100000000E-03 0.  1.
         12    1    3    3    0    0 -0.73330302251E+01 -0.88473628148E+01  0.17765888944E+02  0.21158354639E+02  0.00000000000E+00 0. -1.
</event>
<event>
 7    1  0.1634068E-009  0.4778727E+02  0.7816164E-02  0.1312668E+00
        -11   -1    0    0    0    0  0.00000000000E+00  0.00000000000E+00  0.45593999997E+02  0.45594000000E+02  0.51100000000E-03 0.  1.
         11   -1    0    0    0    0 -0.00000000000E+00 -0.00000000000E+00 -0.45593999997E+02  0.45594000000E+02  0.51100000000E-03 0. -1.
    9900012    2    1    2    0    0  0.11708088094E+02 -0.23668085921E+02  0.34443663541E+02  0.47787267562E+02  0.19999984123E+02 0.  0.
         12    1    1    2    0    0 -0.11708088094E+02  0.23668085921E+02 -0.34443663541E+02  0.43400732438E+02  0.00000000000E+00 0. -1.
         11    1    3    3    0    0  0.38014788216E+01 -0.28788452178E+01  0.19553406637E+02  0.20126467708E+02  0.51100000000E-03 0. -1.
        -11    1    3    3    0    0  0.62570753822E+01 -0.10769140770E+02  0.11507476035E+02  0.16957222361E+02  0.51100000000E-03 0.  1.
        -12    1    3    3    0    0  0.16495338901E+01 -0.10020099934E+02  0.33827808691E+01  0.10703577493E+02  0.00000000000E+00 0.  1.
</event>
<event>
 7    1  0.1634068E-009  0.4778726E+02  0.7816164E-02  0.1312668E+00
        -11   -1    0    0    0    0  0.00000000000E+00  0.00000000000E+00  0.45593999997E+02  0.45594000000E+02  0.51100000000E-03 0. -1.
         11   -1    0    0    0    0 -0.00000000000E+00 -0.00000000000E+00 -0.45593999997E+02  0.45594000000E+02  0.51100000000E-03 0.  1.
    9900012    2    1    2    0    0  0.24331891386E+02  0.30879849714E+02 -0.18385258932E+02  0.47787264951E+02  0.19999972218E+02 0.  0.
         12    1    1    2    0    0 -0.24331891386E+02 -0.30879849714E+02  0.18385258932E+02  0.43400735049E+02  0.00000000000E+00 0. -1.
         11    1    3    3    0    0  0.50935901384E+01  0.18120765937E+01 -0.61662169701E+01  0.82006410763E+01  0.51100000000E-03 0. -1.
        -11    1    3    3    0    0  0.42673163261E+00 -0.12617480484E+00 -0.38328877805E+01  0.38586330438E+01  0.51100000000E-03 0.  1.
        -12    1    3    3    0    0  0.18811569615E+02  0.29193947926E+02 -0.83861541812E+01  0.35727990831E+02  0.00000000000E+00 0.  1.
</event>
<event>
 7    1  0.1634068E-009  0.4778727E+02  0.7816164E-02  0.1312668E+00
        -11   -1    0    0    0    0  0.00000000000E+00  0.00000000000E+00  0.45593999997E+02  0.45594000000E+02  0.51100000000E-03 0.  1.
         11   -1    0    0    0    0 -0.00000000000E+00 -0.00000000000E+00 -0.45593999997E+02  0.45594000000E+02  0.51100000000E-03 0. -1.
    9900012    2    1    2    0    0  0.32142098399E+02 -0.16727738542E+02  0.23889155447E+02  0.47787268737E+02  0.19999989481E+02 0.  0.
         12    1    1    2    0    0 -0.32142098399E+02  0.16727738542E+02 -0.23889155447E+02  0.43400731263E+02  0.00000000000E+00 0. -1.
         11    1    3    3    0    0  0.88468919705E+01  0.61659377828E+00  0.68474410703E+01  0.11204246289E+02  0.51100000000E-03 0. -1.
        -11    1    3    3    0    0  0.12807279444E+02 -0.13013241885E+02  0.17412059626E+02  0.25229956238E+02  0.51100000000E-03 0.  1.
         12    1    3    3    0    0  0.10487926984E+02 -0.43310904351E+01 -0.37034524915E+00  0.11353066211E+02  0.00000000000E+00 0. -1.
</event>
<event>
 7    1  0.1634068E-009  0.4778726E+02  0.7816164E-02  0.1312668E+00
        -11   -1    0    0    0    0  0.00000000000E+00  0.00000000000E+00  0.45593999997E+02  0.45594000000E+02  0.51100000000E-03 0. -1.
         11   -1    0    0    0    0 -0.00000000000E+00 -0.00000000000E+00 -0.45593999997E+02  0.45594000000E+02  0.51100000000E-03 0.  1.
    9900012    2    1    2    0    0  0.25785450376E+02 -0.10073219625E+02 -0.33425512960E+02  0.47787261281E+02  0.19999955484E+02 0.  0.
         12    1    1    2    0    0 -0.25785450376E+02  0.10073219625E+02  0.33425512960E+02  0.43400738719E+02  0.00000000000E+00 0. -1.
         11    1    3    3    0    0  0.49609487873E+01 -0.50261858638E+01 -0.23308694714E+01  0.74368346735E+01  0.51100000000E-03 0. -1.
        -11    1    3    3    0    0  0.50351889628E+01  0.47597899330E+01 -0.63176891665E+01  0.93766691721E+01  0.51100000000E-03 0.  1.
         12    1    3    3    0    0  0.15789312626E+02 -0.98068236946E+01 -0.24776954323E+02  0.30973757435E+02  0.00000000000E+00 0. -1.
</event>
<event>
 7    1  0.1634068E-009  0.4778727E+02  0.7816164E-02  0.1312668E+00
        -11   -1    0    0    0    0  0.00000000000E+00  0.00000000000E+00  0.45593999997E+02  0.45594000000E+02  0.51100000000E-03 0. -1.
         11   -1    0    0    0    0 -0.00000000000E+00 -0.00000000000E+00 -0.45593999997E+02  0.45594000000E+02  0.51100000000E-03 0.  1.
    9900012    2    1    2    0    0  0.28264217322E+02  0.81816757529E+01 -0.31903253333E+02  0.47787269912E+02  0.19999994836E+02 0.  0.
         12    1    1    2    0    0 -0.28264217322E+02 -0.81816757529E+01  0.31903253333E+02  0.43400730088E+02  0.00000000000E+00 0. -1.
         11    1    3    3    0    0  0.12427381431E+02  0.71476790796E+01 -0.14960621897E+02  0.20720746446E+02  0.51100000000E-03 0. -1.
        -11    1    3    3    0    0  0.16990543890E+02  0.12017145288E+00 -0.18365307891E+02  0.25019543502E+02  0.51100000000E-03 0.  1.
         12    1    3    3    0    0 -0.11537079981E+01  0.91382522045E+00  0.14226764552E+01  0.20469799644E+01  0.00000000000E+00 0. -1.
</event>
<event>
 7    1  0.1634068E-009  0.4778728E+02  0.7816164E-02  0.1312668E+00
        -11   -1    0    0    0    0  0.00000000000E+00  0.00000000000E+00  0.45593999997E+02  0.45594000000E+02  0.51100000000E-03 0. -1.
         11   -1    0    0    0    0 -0.00000000000E+00 -0.00000000000E+00 -0.45593999997E+02  0.45594000000E+02  0.51100000000E-03 0.  1.
    9900012    2    1    2    0    0 -0.10542479251E+02 -0.41312820704E+02 -0.81073959892E+01  0.47787275432E+02  0.20000020005E+02 0.  0.
         12    1    1    2    0    0  0.10542479251E+02  0.41312820704E+02  0.81073959892E+01  0.43400724568E+02  0.00000000000E+00 0. -1.
         11    1    3    3    0    0 -0.58334518992E+01 -0.65972790717E+01 -0.44238347403E+01  0.98551289327E+01  0.51100000000E-03 0. -1.
        -11    1    3    3    0    0  0.48786094867E+01 -0.80278226646E+01 -0.10490233923E+01  0.94523657142E+01  0.51100000000E-03 0.  1.
        -12    1    3    3    0    0 -0.95876368382E+01 -0.26687718968E+02 -0.26345378566E+01  0.28479780785E+02  0.00000000000E+00 0.  1.
</event>
<event>
 7    1  0.1634068E-009  0.4778727E+02  0.7816164E-02  0.1312668E+00
        -11   -1    0    0    0    0  0.00000000000E+00  0.00000000000E+00  0.45593999997E+02  0.45594000000E+02  0.51100000000E-03 0.  1.
         11   -1    0    0    0    0 -0.00000000000E+00 -0.00000000000E+00 -0.45593999997E+02  0.45594000000E+02  0.51100000000E-03 0. -1.
    9900012    2    1    2    0    0 -0.17622353397E+02 -0.39412888923E+02 -0.44384703739E+01  0.47787272221E+02  0.20000005365E+02 0.  0.
         12    1    1    2    0    0  0.17622353397E+02  0.39412888923E+02  0.44384703739E+01  0.43400727779E+02  0.00000000000E+00 0. -1.
         11    1    3    3    0    0 -0.12692616663E+01 -0.21346669763E+01  0.19671109404E+01  0.31681783394E+01  0.51100000000E-03 0. -1.
        -11    1    3    3    0    0 -0.11980766751E+02 -0.14835373125E+02  0.40223564783E+01  0.19488622825E+02  0.51100000000E-03 0.  1.
         12    1    3    3    0    0 -0.43723249793E+01 -0.22442848821E+02 -0.10427937793E+02  0.25130471057E+02  0.00000000000E+00 0. -1.
</event>
<event>
 7    1  0.1634068E-009  0.4778727E+02  0.7816164E-02  0.1312668E+00
        -11   -1    0    0    0    0  0.00000000000E+00  0.00000000000E+00  0.45593999997E+02  0.45594000000E+02  0.51100000000E-03 0. -1.
         11   -1    0    0    0    0 -0.00000000000E+00 -0.00000000000E+00 -0.45593999997E+02  0.45594000000E+02  0.51100000000E-03 0.  1.
    9900012    2    1    2    0    0 -0.10088833418E+02  0.37917623407E+02 -0.18549726938E+02  0.47787273116E+02  0.20000009444E+02 0.  0.
         12    1    1    2    0    0  0.10088833418E+02 -0.37917623407E+02  0.18549726938E+02  0.43400726884E+02  0.00000000000E+00 0. -1.
         11    1    3    3    0    0  0.20638465762E+00  0.85714705165E+00  0.12816087582E+01  0.15555760879E+01  0.51100000000E-03 0. -1.
        -11    1    3    3    0    0 -0.18503756149E+01  0.23334376495E+02 -0.42019682470E+01  0.23781790381E+02  0.51100000000E-03 0.  1.
         12    1    3    3    0    0 -0.84448424607E+01  0.13726099861E+02 -0.15629367449E+02  0.22449906647E+02  0.00000000000E+00 0. -1.
</event>
<event>
 7    1  0.1634068E-009  0.4778727E+02  0.7816164E-02  0.1312668E+00
        -11   -1    0    0    0    0  0.00000000000E+00  0.00000000000E+00  0.45593999997E+02  0.45594000000E+02  0.51100000000E-03 0. -1.
         11   -1    0    0    0    0 -0.00000000000E+00 -0.00000000000E+00 -0.45593999997E+02  0.45594000000E+02  0.51100000000E-03 0.  1.
    9900012    2    1    2    0    0 -0.38027415702E+02  0.18593933532E+02 -0.95814607015E+01  0.47787273067E+02  0.20000009222E+02 0.  0.
         12    1    1    2    0    0  0.38027415702E+02 -0.18593933532E+02  0.95814607015E+01  0.43400726933E+02  0.00000000000E+00 0. -1.
         11    1    3    3    0    0 -0.90462222097E+01  0.10539038851E+02 -0.29898519942E+01  0.14207205614E+02  0.51100000000E-03 0. -1.
        -11    1    3    3    0    0 -0.23072356317E+02  0.11266904621E+02 -0.76044417780E+01  0.26778803199E+02  0.51100000000E-03 0.  1.
        -12    1    3    3    0    0 -0.59088371751E+01 -0.32120099400E+01  0.10128330707E+01  0.68012642535E+01  0.00000000000E+00 0.  1.
</event>
<event>
 7    1  0.1634068E-009  0.4778727E+02  0.7816164E-02  0.1312668E+00
        -11   -1    0    0    0    0  0.00000000000E+00  0.00000000000E+00  0.45593999997E+02  0.45594000000E+02  0.51100000000E-03 0. -1.
         11   -1    0    0    0    0 -0.00000000000E+00 -0.00000000000E+00 -0.45593999997E+02  0.45594000000E+02  0.51100000000E-03 0.  1.
    9900012    2    1    2    0    0  0.32221042252E+02  0.12312034567E+02 -0.26340865327E+02  0.47787274831E+02  0.20000017263E+02 0.  0.
         12    1    1    2    0    0 -0.32221042252E+02 -0.12312034567E+02  0.26340865327E+02  0.43400725169E+02  0.00000000000E+00 0. -1.
         11    1    3    3    0    0 -0.20480515777E+00 -0.20290217713E+01 -0.15170806447E+00  0.20449670166E+01  0.51100000000E-03 0. -1.
        -11    1    3    3    0    0  0.14954440260E+02  0.33936359538E+01 -0.17769860925E+02  0.23471685198E+02  0.51100000000E-03 0.  1.
         12    1    3    3    0    0  0.17471407150E+02  0.10947420385E+02 -0.84192963380E+01  0.22270622616E+02  0.00000000000E+00 0. -1.
</event>
<event>
 7    1  0.1634068E-009  0.4778728E+02  0.7816164E-02  0.1312668E+00
        -11   -1    0    0    0    0  0.00000000000E+00  0.00000000000E+00  0.45593999997E+02  0.45594000000E+02  0.51100000000E-03 0.  1.
         11   -1    0    0    0    0 -0.00000000000E+00 -0.00000000000E+00 -0.45593999997E+02  0.45594000000E+02  0.51100000000E-03 0. -1.
    9900012    2    1    2    0    0 -0.88135390292E+01  0.28805575214E+02  0.31243930657E+02  0.47787276083E+02  0.20000022972E+02 0.  0.
         12    1    1    2    0    0  0.88135390292E+01 -0.28805575214E+02 -0.31243930657E+02  0.43400723917E+02  0.00000000000E+00 0. -1.
         11    1    3    3    0    0 -0.49306065854E+01  0.21780531670E+02  0.97443505939E+01  0.24365032523E+02  0.51100000000E-03 0. -1.
        -11    1    3    3    0    0  0.77820485262E+00  0.68990463396E+00  0.54590304768E+01  0.55572101998E+01  0.51100000000E-03 0.  1.
        -12    1    3    3    0    0 -0.46611372964E+01  0.63351389108E+01  0.16040549586E+02  0.17865033360E+02  0.00000000000E+00 0.  1.
</event>
<event>
 7    1  0.1634068E-009  0.4778727E+02  0.7816164E-02  0.1312668E+00
        -11   -1    0    0    0    0  0.00000000000E+00  0.00000000000E+00  0.45593999997E+02  0.45594000000E+02  0.51100000000E-03 0.  1.
         11   -1    0    0    0    0 -0.00000000000E+00 -0.00000000000E+00 -0.45593999997E+02  0.45594000000E+02  0.51100000000E-03 0. -1.
    9900012    2    1    2    0    0 -0.41796880777E+02  0.44913744772E+01  0.10792207542E+02  0.47787269234E+02  0.19999991748E+02 0.  0.
         12    1    1    2    0    0  0.41796880777E+02 -0.44913744772E+01 -0.10792207542E+02  0.43400730766E+02  0.00000000000E+00 0. -1.
         11    1    3    3    0    0 -0.22413114930E+02 -0.24225009841E+01 -0.86526083198E+00  0.22560250629E+02  0.51100000000E-03 0. -1.
        -11    1    3    3    0    0 -0.14856313924E+02  0.62230081085E+01  0.44897421381E+01  0.16721054932E+02  0.51100000000E-03 0.  1.
        -12    1    3    3    0    0 -0.45274519231E+01  0.69086735275E+00  0.71677262361E+01  0.85059636733E+01  0.00000000000E+00 0.  1.
</event>
<event>
 7    1  0.1634068E-009  0.4778727E+02  0.7816164E-02  0.1312668E+00
        -11   -1    0    0    0    0  0.00000000000E+00  0.00000000000E+00  0.45593999997E+02  0.45594000000E+02  0.51100000000E-03 0.  1.
         11   -1    0    0    0    0 -0.00000000000E+00 -0.00000000000E+00 -0.45593999997E+02  0.45594000000E+02  0.51100000000E-03 0. -1.
    9900012    2    1    2    0    0 -0.33114565183E+02  0.17569412685E+02  0.21871545289E+02  0.47787272095E+02  0.20000004789E+02 0.  0.
         12    1    1    2    0    0  0.33114565183E+02 -0.17569412685E+02 -0.21871545289E+02  0.43400727905E+02  0.00000000000E+00 0. -1.
         11    1    3    3    0    0 -0.19740087560E+02  0.16794058973E+02  0.20661926293E+02  0.33145537740E+02  0.51100000000E-03 0. -1.
        -11    1    3    3    0    0 -0.93563789434E+01  0.27157869511E+01  0.23792760866E+01  0.10028872352E+02  0.51100000000E-03 0.  1.
         12    1    3    3    0    0 -0.40180986791E+01 -0.19404332389E+01 -0.11696570899E+01  0.46128620029E+01  0.00000000000E+00 0. -1.
</event>
<event>
 7    1  0.1634068E-009  0.4778727E+02  0.7816164E-02  0.1312668E+00
        -11   -1    0    0    0    0  0.00000000000E+00  0.00000000000E+00  0.45593999997E+02  0.45594000000E+02  0.51100000000E-03 0.  1.
         11   -1    0    0    0    0 -0.00000000000E+00 -0.00000000000E+00 -0.45593999997E+02  0.45594000000E+02  0.51100000000E-03 0. -1.
    9900012    2    1    2    0    0  0.33320002912E+02  0.27523085860E+02 -0.39850546346E+01  0.47787268326E+02  0.19999987607E+02 0.  0.
         12    1    1    2    0    0 -0.33320002912E+02 -0.27523085860E+02  0.39850546346E+01  0.43400731674E+02  0.00000000000E+00 0. -1.
         11    1    3    3    0    0  0.17134580839E+01 -0.51755125080E+00 -0.33006999706E+01  0.37547860737E+01  0.51100000000E-03 0.  1.
        -11    1    3    3    0    0 -0.42068071576E+00  0.36829292471E+01  0.69531815140E+00  0.37715259109E+01  0.51100000000E-03 0. -1.
        -12    1    3    3    0    0  0.32027225544E+02  0.24357707864E+02 -0.13796728154E+01  0.40260956342E+02  0.00000000000E+00 0.  1.
</event>
<event>
 7    1  0.1634068E-009  0.4778728E+02  0.7816164E-02  0.1312668E+00
        -11   -1    0    0    0    0  0.00000000000E+00  0.00000000000E+00  0.45593999997E+02  0.45594000000E+02  0.51100000000E-03 0.  1.
         11   -1    0    0    0    0 -0.00000000000E+00 -0.00000000000E+00 -0.45593999997E+02  0.45594000000E+02  0.51100000000E-03 0. -1.
    9900012    2    1    2    0    0  0.63350022234E+01  0.22922426038E+02  0.36304996532E+02  0.47787278326E+02  0.20000033199E+02 0.  0.
         12    1    1    2    0    0 -0.63350022234E+01 -0.22922426038E+02 -0.36304996532E+02  0.43400721674E+02  0.00000000000E+00 0. -1.
         11    1    3    3    0    0 -0.31946599464E+00  0.17624450185E+02  0.34018229431E+02  0.38314008362E+02  0.51100000000E-03 0. -1.
        -11    1    3    3    0    0  0.39412075571E+01  0.23306444615E+01  0.28796224365E+01  0.54089967880E+01  0.51100000000E-03 0.  1.
         12    1    3    3    0    0  0.27132606609E+01  0.29673313917E+01 -0.59285533565E+00  0.40642731763E+01  0.00000000000E+00 0. -1.
</event>
<event>
 7    1  0.1634068E-009  0.4778726E+02  0.7816164E-02  0.1312668E+00
        -11   -1    0    0    0    0  0.00000000000E+00  0.00000000000E+00  0.45593999997E+02  0.45594000000E+02  0.51100000000E-03 0.  1.
         11   -1    0    0    0    0 -0.00000000000E+00 -0.00000000000E+00 -0.45593999997E+02  0.45594000000E+02  0.51100000000E-03 0. -1.
    9900012    2    1    2    0    0 -0.21179998195E+02 -0.13198557268E+02  0.35508166412E+02  0.47787261303E+02  0.19999955584E+02 0.  0.
         12    1    1    2    0    0  0.21179998195E+02  0.13198557268E+02 -0.35508166412E+02  0.43400738697E+02  0.00000000000E+00 0. -1.
         11    1    3    3    0    0 -0.47865662438E+00 -0.26337105403E+01  0.67233007287E+00  0.27599948120E+01  0.51100000000E-03 0. -1.
        -11    1    3    3    0    0 -0.20720297989E+02 -0.60609984728E+01  0.19666337829E+02  0.29203275418E+02  0.51100000000E-03 0.  1.
        -12    1    3    3    0    0  0.18956418024E-01 -0.45038482544E+01  0.15169498510E+02  0.15823991073E+02  0.00000000000E+00 0.  1.
</event>
<event>
 7    1  0.1634068E-009  0.4778728E+02  0.7816164E-02  0.1312668E+00
        -11   -1    0    0    0    0  0.00000000000E+00  0.00000000000E+00  0.45593999997E+02  0.45594000000E+02  0.51100000000E-03 0.  1.
         11   -1    0    0    0    0 -0.00000000000E+00 -0.00000000000E+00 -0.45593999997E+02  0.45594000000E+02  0.51100000000E-03 0. -1.
    9900012    2    1    2    0    0  0.91028800844E+00 -0.26627162552E+01  0.43309398597E+02  0.47787277783E+02  0.20000030724E+02 0.  0.
         12    1    1    2    0    0 -0.91028800844E+00  0.26627162552E+01 -0.43309398597E+02  0.43400722217E+02  0.00000000000E+00 0. -1.
         11    1    3    3    0    0 -0.27051382558E+01  0.18279815512E+01  0.16681810047E+01  0.36663493642E+01  0.51100000000E-03 0. -1.
        -11    1    3    3    0    0 -0.31230379659E+01 -0.28460140188E+01  0.31808347823E+02  0.32087757064E+02  0.51100000000E-03 0.  1.
        -12    1    3    3    0    0  0.67384642301E+01 -0.16446837877E+01  0.98328697696E+01  0.12033171355E+02  0.00000000000E+00 0.  1.
</event>
<event>
 7    1  0.1634068E-009  0.4778727E+02  0.7816164E-02  0.1312668E+00
        -11   -1    0    0    0    0  0.00000000000E+00  0.00000000000E+00  0.45593999997E+02  0.45594000000E+02  0.51100000000E-03 0.  1.
         11   -1    0    0    0    0 -0.00000000000E+00 -0.00000000000E+00 -0.45593999997E+02  0.45594000000E+02  0.51100000000E-03 0. -1.
    9900012    2    1    2    0    0  0.18545061841E+02 -0.27215506330E+02  0.28266943472E+02  0.47787271933E+02  0.20000004053E+02 0.  0.
         12    1    1    2    0    0 -0.18545061841E+02  0.27215506330E+02 -0.28266943472E+02  0.43400728067E+02  0.00000000000E+00 0. -1.
         11    1    3    3    0    0  0.92309998409E+01 -0.25880258194E+01  0.10066248990E+02  0.13901028908E+02  0.51100000000E-03 0. -1.
        -11    1    3    3    0    0  0.77006130563E+01 -0.60307941306E+01  0.47170817143E+01  0.10859133458E+02  0.51100000000E-03 0.  1.
         12    1    3    3    0    0  0.16134489439E+01 -0.18596686380E+02  0.13483612767E+02  0.23027109568E+02  0.00000000000E+00 0. -1.
</event>
<event>
 7    1  0.1634068E-009  0.4778727E+02  0.7816164E-02  0.1312668E+00
        -11   -1    0    0    0    0  0.00000000000E+00  0.00000000000E+00  0.45593999997E+02  0.45594000000E+02  0.51100000000E-03 0.  1.
         11   -1    0    0    0    0 -0.00000000000E+00 -0.00000000000E+00 -0.45593999997E+02  0.45594000000E+02  0.51100000000E-03 0. -1.
    9900012    2    1    2    0    0 -0.30725153458E+02 -0.30465576911E+02  0.33818001518E+01  0.47787274155E+02  0.20000014184E+02 0.  0.
         12    1    1    2    0    0  0.30725153458E+02  0.30465576911E+02 -0.33818001518E+01  0.43400725845E+02  0.00000000000E+00 0. -1.
         11    1    3    3    0    0 -0.54314933302E+01 -0.14033169726E+02  0.26889211246E+01  0.15285982776E+02  0.51100000000E-03 0. -1.
        -11    1    3    3    0    0 -0.21177649299E+02 -0.15836338357E+02  0.45459065088E+01  0.26831841320E+02  0.51100000000E-03 0.  1.
         12    1    3    3    0    0 -0.41160108294E+01 -0.59606882761E+00 -0.38530274816E+01  0.56694500588E+01  0.00000000000E+00 0. -1.
</event>
<event>
 7    1  0.1634068E-009  0.4778728E+02  0.7816164E-02  0.1312668E+00
        -11   -1    0    0    0    0  0.00000000000E+00  0.00000000000E+00  0.45593999997E+02  0.45594000000E+02  0.51100000000E-03 0. -1.
         11   -1    0    0    0    0 -0.00000000000E+00 -0.00000000000E+00 -0.45593999997E+02  0.45594000000E+02  0.51100000000E-03 0.  1.
    9900012    2    1    2    0    0  0.92714572648E+01 -0.38941377983E+02 -0.16769974740E+02  0.47787275446E+02  0.20000020068E+02 0.  0.
         12    1    1    2    0    0 -0.92714572648E+01  0.38941377983E+02  0.16769974740E+02  0.43400724554E+02  0.00000000000E+00 0. -1.
         11    1    3    3    0    0  0.30509774583E+01 -0.40282908836E+01 -0.55656531727E+01  0.75174521211E+01  0.51100000000E-03 0. -1.
        -11    1    3    3    0    0  0.92380751297E+01 -0.21015272868E+02 -0.12230995928E+02  0.26011170436E+02  0.51100000000E-03 0.  1.
         12    1    3    3    0    0 -0.30175953232E+01 -0.13897814231E+02  0.10266743603E+01  0.14258652888E+02  0.00000000000E+00 0. -1.
</event>
<event>
 7    1  0.1634068E-009  0.4778728E+02  0.7816164E-02  0.1312668E+00
        -11   -1    0    0    0    0  0.00000000000E+00  0.00000000000E+00  0.45593999997E+02  0.45594000000E+02  0.51100000000E-03 0.  1.
         11   -1    0    0    0    0 -0.00000000000E+00 -0.00000000000E+00 -0.45593999997E+02  0.45594000000E+02  0.51100000000E-03 0. -1.
    9900012    2    1    2    0    0  0.88207314352E+01 -0.19838172595E+02  0.37580107150E+02  0.47787275946E+02  0.20000022349E+02 0.  0.
         12    1    1    2    0    0 -0.88207314352E+01  0.19838172595E+02 -0.37580107150E+02  0.43400724054E+02  0.00000000000E+00 0. -1.
         11    1    3    3    0    0  0.58427970606E+01 -0.28665561627E+01  0.40926205391E+01  0.76879753423E+01  0.51100000000E-03 0. -1.
        -11    1    3    3    0    0  0.28432352446E+01 -0.66228183592E+01  0.26858425633E+02  0.27808645013E+02  0.51100000000E-03 0.  1.
         12    1    3    3    0    0  0.13469913001E+00 -0.10348798073E+02  0.66290609776E+01  0.12290655591E+02  0.00000000000E+00 0. -1.
</event>
<event>
 7    1  0.1634068E-009  0.4778733E+02  0.7816164E-02  0.1312668E+00
        -11   -1    0    0    0    0  0.00000000000E+00  0.00000000000E+00  0.45593999997E+02  0.45594000000E+02  0.51100000000E-03 0.  1.
         11   -1    0    0    0    0 -0.00000000000E+00 -0.00000000000E+00 -0.45593999997E+02  0.45594000000E+02  0.51100000000E-03 0. -1.
    9900012    2    1    2    0    0 -0.18095220293E+00 -0.42087681973E+01  0.43195738050E+02  0.47787328818E+02  0.20000263409E+02 0.  0.
         12    1    1    2    0    0  0.18095220293E+00  0.42087681973E+01 -0.43195738050E+02  0.43400671182E+02  0.00000000000E+00 0. -1.
         11    1    3    3    0    0 -0.48813368720E+01  0.13087121995E+01  0.37005877734E+01  0.62637470741E+01  0.51100000000E-03 0. -1.
        -11    1    3    3    0    0 -0.31637132964E+01 -0.34334174254E+01  0.13439886353E+02  0.14227718808E+02  0.51100000000E-03 0.  1.
         12    1    3    3    0    0  0.78640979655E+01 -0.20840629714E+01  0.26055263924E+02  0.27295862936E+02  0.00000000000E+00 0. -1.
</event>
<event>
 7    1  0.1634068E-009  0.4778727E+02  0.7816164E-02  0.1312668E+00
        -11   -1    0    0    0    0  0.00000000000E+00  0.00000000000E+00  0.45593999997E+02  0.45594000000E+02  0.51100000000E-03 0.  1.
         11   -1    0    0    0    0 -0.00000000000E+00 -0.00000000000E+00 -0.45593999997E+02  0.45594000000E+02  0.51100000000E-03 0. -1.
    9900012    2    1    2    0    0 -0.63792422126E+01 -0.19589483538E+02  0.38199226307E+02  0.47787268590E+02  0.19999988808E+02 0.  0.
         12    1    1    2    0    0  0.63792422126E+01  0.19589483538E+02 -0.38199226307E+02  0.43400731410E+02  0.00000000000E+00 0. -1.
         11    1    3    3    0    0  0.25427229683E+01 -0.11795882808E+01  0.18438695340E+01  0.33551041303E+01  0.51100000000E-03 0. -1.
        -11    1    3    3    0    0  0.18924697702E+01 -0.45636904382E+01  0.19387980607E+02  0.20007561184E+02  0.51100000000E-03 0.  1.
         12    1    3    3    0    0 -0.10814434951E+02 -0.13846204819E+02  0.16967376166E+02  0.24424603275E+02  0.00000000000E+00 0. -1.
</event>
<event>
 7    1  0.1634068E-009  0.4778727E+02  0.7816164E-02  0.1312668E+00
        -11   -1    0    0    0    0  0.00000000000E+00  0.00000000000E+00  0.45593999997E+02  0.45594000000E+02  0.51100000000E-03 0. -1.
         11   -1    0    0    0    0 -0.00000000000E+00 -0.00000000000E+00 -0.45593999997E+02  0.45594000000E+02  0.51100000000E-03 0.  1.
    9900012    2    1    2    0    0 -0.18780320038E+02 -0.39086353978E+02  0.17831426215E+01  0.47787273213E+02  0.20000009889E+02 0.  0.
         12    1    1    2    0    0  0.18780320038E+02  0.39086353978E+02 -0.17831426215E+01  0.43400726787E+02  0.00000000000E+00 0. -1.
         11    1    3    3    0    0  0.14303646198E+01  0.25955621249E-01 -0.77645332766E+00  0.16277274560E+01  0.51100000000E-03 0. -1.
        -11    1    3    3    0    0  0.76101073857E+00  0.53206633731E+00 -0.74193438584E+00  0.11885700760E+01  0.51100000000E-03 0.  1.
        -12    1    3    3    0    0 -0.20971695396E+02 -0.39644375936E+02  0.33015303351E+01  0.44970975681E+02  0.00000000000E+00 0.  1.
</event>
<event>
 7    1  0.2893146E-009  0.4778727E+02  0.7816164E-02  0.1312668E+00
        -11   -1    0    0    0    0  0.00000000000E+00  0.00000000000E+00  0.45593999997E+02  0.45594000000E+02  0.51100000000E-03 0.  1.
         11   -1    0    0    0    0 -0.00000000000E+00 -0.00000000000E+00 -0.45593999997E+02  0.45594000000E+02  0.51100000000E-03 0. -1.
    9900012    2    1    2    0    0 -0.37127155113E+02  0.20302847808E+01  0.22384718693E+02  0.47787270352E+02  0.19999996841E+02 0.  0.
         12    1    1    2    0    0  0.37127155113E+02 -0.20302847808E+01 -0.22384718693E+02  0.43400729648E+02  0.00000000000E+00 0. -1.
         11    1    3    3    0    0 -0.76424585449E+01  0.28797853147E+01 -0.16252805491E+01  0.83271767841E+01  0.51100000000E-03 0. -1.
        -11    1    3    3    0    0 -0.41910398368E+01 -0.31709010703E+01  0.75286616934E+01  0.91815127112E+01  0.51100000000E-03 0.  1.
        -12    1    3    3    0    0 -0.25293656731E+02  0.23214005364E+01  0.16481337549E+02  0.30278580856E+02  0.00000000000E+00 0.  1.
</event>
<event>
 7    1  0.1634068E-009  0.4778727E+02  0.7816164E-02  0.1312668E+00
        -11   -1    0    0    0    0  0.00000000000E+00  0.00000000000E+00  0.45593999997E+02  0.45594000000E+02  0.51100000000E-03 0. -1.
         11   -1    0    0    0    0 -0.00000000000E+00 -0.00000000000E+00 -0.45593999997E+02  0.45594000000E+02  0.51100000000E-03 0.  1.
    9900012    2    1    2    0    0  0.26265058722E+02 -0.33971233079E+02  0.63028019360E+01  0.47787270757E+02  0.19999998690E+02 0.  0.
         12    1    1    2    0    0 -0.26265058722E+02  0.33971233079E+02 -0.63028019360E+01  0.43400729243E+02  0.00000000000E+00 0. -1.
         11    1    3    3    0    0 -0.65446552420E+00 -0.92636963019E+01  0.27705650466E+01  0.96912550908E+01  0.51100000000E-03 0. -1.
        -11    1    3    3    0    0  0.81636865458E+01 -0.80956974655E+01 -0.35970965911E+01  0.12046792088E+02  0.51100000000E-03 0.  1.
         12    1    3    3    0    0  0.18755837700E+02 -0.16611839312E+02  0.71293334805E+01  0.26049223578E+02  0.00000000000E+00 0. -1.
</event>
<event>
 7    1  0.1638241E-009  0.4778727E+02  0.7816164E-02  0.1312668E+00
        -11   -1    0    0    0    0  0.00000000000E+00  0.00000000000E+00  0.45593999997E+02  0.45594000000E+02  0.51100000000E-03 0. -1.
         11   -1    0    0    0    0 -0.00000000000E+00 -0.00000000000E+00 -0.45593999997E+02  0.45594000000E+02  0.51100000000E-03 0.  1.
    9900012    2    1    2    0    0 -0.31907386526E+02 -0.28769862850E+02  0.61511723544E+01  0.47787271381E+02  0.20000001534E+02 0.  0.
         12    1    1    2    0    0  0.31907386526E+02  0.28769862850E+02 -0.61511723544E+01  0.43400728619E+02  0.00000000000E+00 0. -1.
         11    1    3    3    0    0 -0.63219414634E+00 -0.39368949416E+01  0.27857332915E+01  0.48640642936E+01  0.51100000000E-03 0. -1.
        -11    1    3    3    0    0 -0.23271322251E+02 -0.88486854188E+01  0.25724770399E+01  0.25029408929E+02  0.51100000000E-03 0.  1.
        -12    1    3    3    0    0 -0.80038701280E+01 -0.15984282490E+02  0.79296202307E+00  0.17893798158E+02  0.00000000000E+00 0.  1.
</event>
<event>
 7    1  0.1634068E-009  0.4778728E+02  0.7816164E-02  0.1312668E+00
        -11   -1    0    0    0    0  0.00000000000E+00  0.00000000000E+00  0.45593999997E+02  0.45594000000E+02  0.51100000000E-03 0. -1.
         11   -1    0    0    0    0 -0.00000000000E+00 -0.00000000000E+00 -0.45593999997E+02  0.45594000000E+02  0.51100000000E-03 0.  1.
    9900012    2    1    2    0    0 -0.28987793539E+02  0.31912185697E+02 -0.49943053291E+01  0.47787275859E+02  0.20000021952E+02 0.  0.
         12    1    1    2    0    0  0.28987793539E+02 -0.31912185697E+02  0.49943053291E+01  0.43400724141E+02  0.00000000000E+00 0. -1.
         11    1    3    3    0    0 -0.68274849097E+01  0.47989647536E+01  0.26429216986E+01  0.87538362027E+01  0.51100000000E-03 0. -1.
        -11    1    3    3    0    0 -0.18597417159E+02  0.23118157921E+02  0.45044522770E-01  0.29670105829E+02  0.51100000000E-03 0.  1.
        -12    1    3    3    0    0 -0.35628914701E+01  0.39950630228E+01 -0.76822715505E+01  0.93633338272E+01  0.00000000000E+00 0.  1.
</event>
<event>
 7    1  0.1634068E-009  0.4778727E+02  0.7816164E-02  0.1312668E+00
        -11   -1    0    0    0    0  0.00000000000E+00  0.00000000000E+00  0.45593999997E+02  0.45594000000E+02  0.51100000000E-03 0. -1.
         11   -1    0    0    0    0 -0.00000000000E+00 -0.00000000000E+00 -0.45593999997E+02  0.45594000000E+02  0.51100000000E-03 0.  1.
    9900012    2    1    2    0    0  0.20265087856E+02 -0.38225362123E+02  0.34308869526E+01  0.47787273272E+02  0.20000010157E+02 0.  0.
         12    1    1    2    0    0 -0.20265087856E+02  0.38225362123E+02 -0.34308869526E+01  0.43400726728E+02  0.00000000000E+00 0. -1.
         11    1    3    3    0    0  0.76164407515E+01 -0.69015971216E+01  0.32742276222E+01  0.10787158075E+02  0.51100000000E-03 0. -1.
        -11    1    3    3    0    0  0.10476510723E+02 -0.99608539139E+01  0.44020997410E+01  0.15111398678E+02  0.51100000000E-03 0.  1.
        -12    1    3    3    0    0  0.21721363822E+01 -0.21362911087E+02 -0.42454404106E+01  0.21888716519E+02  0.00000000000E+00 0.  1.
</event>
<event>
 7    1  0.1634068E-009  0.4778727E+02  0.7816164E-02  0.1312668E+00
        -11   -1    0    0    0    0  0.00000000000E+00  0.00000000000E+00  0.45593999997E+02  0.45594000000E+02  0.51100000000E-03 0. -1.
         11   -1    0    0    0    0 -0.00000000000E+00 -0.00000000000E+00 -0.45593999997E+02  0.45594000000E+02  0.51100000000E-03 0.  1.
    9900012    2    1    2    0    0  0.26250101967E+02  0.28042018859E+02 -0.20203974350E+02  0.47787271268E+02  0.20000001020E+02 0.  0.
         12    1    1    2    0    0 -0.26250101967E+02 -0.28042018859E+02  0.20203974350E+02  0.43400728732E+02  0.00000000000E+00 0. -1.
         11    1    3    3    0    0  0.23135485075E+02  0.27043855540E+02 -0.13555583238E+02  0.38083784336E+02  0.51100000000E-03 0. -1.
        -11    1    3    3    0    0  0.40408952552E+01  0.97270124229E+00 -0.14178508140E+01  0.43915012652E+01  0.51100000000E-03 0.  1.
         12    1    3    3    0    0 -0.92627836388E+00  0.25462076355E-01 -0.52305402973E+01  0.53119856670E+01  0.00000000000E+00 0. -1.
</event>
<event>
 7    1  0.1634068E-009  0.4778727E+02  0.7816164E-02  0.1312668E+00
        -11   -1    0    0    0    0  0.00000000000E+00  0.00000000000E+00  0.45593999997E+02  0.45594000000E+02  0.51100000000E-03 0.  1.
         11   -1    0    0    0    0 -0.00000000000E+00 -0.00000000000E+00 -0.45593999997E+02  0.45594000000E+02  0.51100000000E-03 0. -1.
    9900012    2    1    2    0    0  0.37051030778E+02  0.19103075460E+02  0.12079601836E+02  0.47787272423E+02  0.20000006284E+02 0.  0.
         12    1    1    2    0    0 -0.37051030778E+02 -0.19103075460E+02 -0.12079601836E+02  0.43400727577E+02  0.00000000000E+00 0. -1.
         11    1    3    3    0    0  0.93850083881E+01  0.44168818771E+01 -0.32910388740E+01  0.10882011078E+02  0.51100000000E-03 0. -1.
        -11    1    3    3    0    0  0.23078144416E+02  0.14471376874E+02  0.83048627690E+01  0.28477925560E+02  0.51100000000E-03 0.  1.
        -12    1    3    3    0    0  0.45878779737E+01  0.21481670843E+00  0.70657779412E+01  0.84273357851E+01  0.00000000000E+00 0.  1.
</event>
<event>
 7    1  0.1634068E-009  0.4778727E+02  0.7816164E-02  0.1312668E+00
        -11   -1    0    0    0    0  0.00000000000E+00  0.00000000000E+00  0.45593999997E+02  0.45594000000E+02  0.51100000000E-03 0. -1.
         11   -1    0    0    0    0 -0.00000000000E+00 -0.00000000000E+00 -0.45593999997E+02  0.45594000000E+02  0.51100000000E-03 0.  1.
    9900012    2    1    2    0    0  0.26790720343E+02 -0.19918264305E+02 -0.27733435103E+02  0.47787269914E+02  0.19999994844E+02 0.  0.
         12    1    1    2    0    0 -0.26790720343E+02  0.19918264305E+02  0.27733435103E+02  0.43400730086E+02  0.00000000000E+00 0. -1.
         11    1    3    3    0    0  0.42396157746E+01 -0.53829227513E+01 -0.93053642846E+00  0.69149184788E+01  0.51100000000E-03 0. -1.
        -11    1    3    3    0    0  0.20332056897E+02 -0.16261399499E+02 -0.27608340447E+02  0.37947939520E+02  0.51100000000E-03 0.  1.
        -12    1    3    3    0    0  0.22190476712E+01  0.17260579447E+01  0.80544177280E+00  0.29244119144E+01  0.00000000000E+00 0.  1.
</event>
<event>
 7    1  0.1914615E-009  0.4778726E+02  0.7816164E-02  0.1312668E+00
        -11   -1    0    0    0    0  0.00000000000E+00  0.00000000000E+00  0.45593999997E+02  0.45594000000E+02  0.51100000000E-03 0. -1.
         11   -1    0    0    0    0 -0.00000000000E+00 -0.00000000000E+00 -0.45593999997E+02  0.45594000000E+02  0.51100000000E-03 0.  1.
    9900012    2    1    2    0    0 -0.30939666872E+02 -0.28355468880E+02 -0.11060208305E+02  0.47787264876E+02  0.19999971877E+02 0.  0.
         12    1    1    2    0    0  0.30939666872E+02  0.28355468880E+02  0.11060208305E+02  0.43400735124E+02  0.00000000000E+00 0. -1.
         11    1    3    3    0    0 -0.10373653259E+02 -0.11260149218E+01 -0.10709527098E+01  0.10489400912E+02  0.51100000000E-03 0. -1.
        -11    1    3    3    0    0 -0.14581128622E+02 -0.14447209249E+02 -0.10735345726E+02  0.23164170935E+02  0.51100000000E-03 0.  1.
        -12    1    3    3    0    0 -0.59848849910E+01 -0.12782244709E+02  0.74609013118E+00  0.14133693029E+02  0.00000000000E+00 0.  1.
</event>
<event>
 7    1  0.1634068E-009  0.4778728E+02  0.7816164E-02  0.1312668E+00
        -11   -1    0    0    0    0  0.00000000000E+00  0.00000000000E+00  0.45593999997E+02  0.45594000000E+02  0.51100000000E-03 0.  1.
         11   -1    0    0    0    0 -0.00000000000E+00 -0.00000000000E+00 -0.45593999997E+02  0.45594000000E+02  0.51100000000E-03 0. -1.
    9900012    2    1    2    0    0  0.68990748028E+01  0.40621276033E+01  0.42655887025E+02  0.47787276369E+02  0.20000024278E+02 0.  0.
         12    1    1    2    0    0 -0.68990748028E+01 -0.40621276033E+01 -0.42655887025E+02  0.43400723631E+02  0.00000000000E+00 0. -1.
         11    1    3    3    0    0 -0.84312981596E+00 -0.41066550530E+01  0.20974103905E+02  0.21388981240E+02  0.51100000000E-03 0.  1.
        -11    1    3    3    0    0  0.19760789110E+01 -0.22598780056E+01  0.30342743402E+01  0.42683436478E+01  0.51100000000E-03 0. -1.
        -12    1    3    3    0    0  0.57661257078E+01  0.10428660662E+02  0.18647508780E+02  0.22129951481E+02  0.00000000000E+00 0.  1.
</event>
<event>
 7    1  0.1634068E-009  0.4778727E+02  0.7816164E-02  0.1312668E+00
        -11   -1    0    0    0    0  0.00000000000E+00  0.00000000000E+00  0.45593999997E+02  0.45594000000E+02  0.51100000000E-03 0. -1.
         11   -1    0    0    0    0 -0.00000000000E+00 -0.00000000000E+00 -0.45593999997E+02  0.45594000000E+02  0.51100000000E-03 0.  1.
    9900012    2    1    2    0    0 -0.15316461718E+02  0.17295543635E+02 -0.36740896596E+02  0.47787270607E+02  0.19999998004E+02 0.  0.
         12    1    1    2    0    0  0.15316461718E+02 -0.17295543635E+02  0.36740896596E+02  0.43400729393E+02  0.00000000000E+00 0. -1.
         11    1    3    3    0    0 -0.15534565156E+02  0.59610008910E+01 -0.12049385900E+02  0.20543708211E+02  0.51100000000E-03 0. -1.
        -11    1    3    3    0    0 -0.87955167256E+00  0.40353763293E+01 -0.86642353990E+01  0.95982732080E+01  0.51100000000E-03 0.  1.
         12    1    3    3    0    0  0.10976551106E+01  0.72991664142E+01 -0.16027275297E+02  0.17645289188E+02  0.00000000000E+00 0. -1.
</event>
<event>
 7    1  0.1634068E-009  0.4778727E+02  0.7816164E-02  0.1312668E+00
        -11   -1    0    0    0    0  0.00000000000E+00  0.00000000000E+00  0.45593999997E+02  0.45594000000E+02  0.51100000000E-03 0.  1.
         11   -1    0    0    0    0 -0.00000000000E+00 -0.00000000000E+00 -0.45593999997E+02  0.45594000000E+02  0.51100000000E-03 0. -1.
    9900012    2    1    2    0    0  0.26595534775E+01  0.10648060003E+02  0.41990106693E+02  0.47787268823E+02  0.19999989874E+02 0.  0.
         12    1    1    2    0    0 -0.26595534775E+01 -0.10648060003E+02 -0.41990106693E+02  0.43400731177E+02  0.00000000000E+00 0. -1.
         11    1    3    3    0    0 -0.40245488059E+01  0.13391465385E+00  0.21743820179E+02  0.22113539799E+02  0.51100000000E-03 0. -1.
        -11    1    3    3    0    0  0.20149630944E+01 -0.30716354118E+00 -0.22664740246E+00  0.20508035057E+01  0.51100000000E-03 0.  1.
        -12    1    3    3    0    0  0.46691391889E+01  0.10821308891E+02  0.20472933917E+02  0.23622925518E+02  0.00000000000E+00 0.  1.
</event>
<event>
 7    1  0.1634068E-009  0.4778727E+02  0.7816164E-02  0.1312668E+00
        -11   -1    0    0    0    0  0.00000000000E+00  0.00000000000E+00  0.45593999997E+02  0.45594000000E+02  0.51100000000E-03 0. -1.
         11   -1    0    0    0    0 -0.00000000000E+00 -0.00000000000E+00 -0.45593999997E+02  0.45594000000E+02  0.51100000000E-03 0.  1.
    9900012    2    1    2    0    0  0.14076720508E+02  0.29895356016E+02 -0.28137821272E+02  0.47787270081E+02  0.19999995607E+02 0.  0.
         12    1    1    2    0    0 -0.14076720508E+02 -0.29895356016E+02  0.28137821272E+02  0.43400729919E+02  0.00000000000E+00 0. -1.
         11    1    3    3    0    0  0.70358062271E+01  0.12649889538E+01 -0.55887754568E+01  0.90739835622E+01  0.51100000000E-03 0. -1.
        -11    1    3    3    0    0  0.72033549031E+01  0.20658896508E+02 -0.21494543253E+02  0.30670730619E+02  0.51100000000E-03 0.  1.
         12    1    3    3    0    0 -0.16244062240E+00  0.79714705543E+01 -0.10545025624E+01  0.80425559002E+01  0.00000000000E+00 0. -1.
</event>
<event>
 7    1  0.1634068E-009  0.4778727E+02  0.7816164E-02  0.1312668E+00
        -11   -1    0    0    0    0  0.00000000000E+00  0.00000000000E+00  0.45593999997E+02  0.45594000000E+02  0.51100000000E-03 0. -1.
         11   -1    0    0    0    0 -0.00000000000E+00 -0.00000000000E+00 -0.45593999997E+02  0.45594000000E+02  0.51100000000E-03 0.  1.
    9900012    2    1    2    0    0  0.15128061748E+02 -0.17485039780E+01 -0.40641207769E+02  0.47787270889E+02  0.19999999292E+02 0.  0.
         12    1    1    2    0    0 -0.15128061748E+02  0.17485039780E+01  0.40641207769E+02  0.43400729111E+02  0.00000000000E+00 0. -1.
         11    1    3    3    0    0  0.23016680021E+01 -0.16119795498E+01 -0.58132709140E+01  0.64568004957E+01  0.51100000000E-03 0. -1.
        -11    1    3    3    0    0  0.15976116279E+02 -0.25026176474E+01 -0.33455675619E+02  0.37158869975E+02  0.51100000000E-03 0.  1.
         12    1    3    3    0    0 -0.31497225322E+01  0.23660932192E+01 -0.13722612360E+01  0.41716004185E+01  0.00000000000E+00 0. -1.
</event>
<event>
 7    1  0.1634068E-009  0.4778727E+02  0.7816164E-02  0.1312668E+00
        -11   -1    0    0    0    0  0.00000000000E+00  0.00000000000E+00  0.45593999997E+02  0.45594000000E+02  0.51100000000E-03 0.  1.
         11   -1    0    0    0    0 -0.00000000000E+00 -0.00000000000E+00 -0.45593999997E+02  0.45594000000E+02  0.51100000000E-03 0. -1.
    9900012    2    1    2    0    0  0.33053105097E+02 -0.15751540221E+02 -0.23302462566E+02  0.47787268007E+02  0.19999986150E+02 0.  0.
         12    1    1    2    0    0 -0.33053105097E+02  0.15751540221E+02  0.23302462566E+02  0.43400731993E+02  0.00000000000E+00 0. -1.
         11    1    3    3    0    0  0.23877836545E+02 -0.93251143188E+01 -0.24284435207E+02  0.35310658854E+02  0.51100000000E-03 0. -1.
        -11    1    3    3    0    0  0.54289694408E+00 -0.21329464908E+01 -0.13173379640E+01  0.25650686925E+01  0.51100000000E-03 0.  1.
         12    1    3    3    0    0  0.86323716083E+01 -0.42934794115E+01  0.22993106047E+01  0.99115404604E+01  0.00000000000E+00 0. -1.
</event>
<event>
 7    1  0.1634068E-009  0.4778727E+02  0.7816164E-02  0.1312668E+00
        -11   -1    0    0    0    0  0.00000000000E+00  0.00000000000E+00  0.45593999997E+02  0.45594000000E+02  0.51100000000E-03 0. -1.
         11   -1    0    0    0    0 -0.00000000000E+00 -0.00000000000E+00 -0.45593999997E+02  0.45594000000E+02  0.51100000000E-03 0.  1.
    9900012    2    1    2    0    0 -0.79858592187E+01  0.23361076626E+02 -0.35694673873E+02  0.47787267386E+02  0.19999983318E+02 0.  0.
         12    1    1    2    0    0  0.79858592187E+01 -0.23361076626E+02  0.35694673873E+02  0.43400732614E+02  0.00000000000E+00 0. -1.
         11    1    3    3    0    0 -0.19049791029E+01  0.11112922692E+01 -0.78465956809E+01  0.81506429152E+01  0.51100000000E-03 0. -1.
        -11    1    3    3    0    0 -0.45353188887E+01  0.10061806985E+02 -0.24548932068E+02  0.26915778703E+02  0.51100000000E-03 0.  1.
         12    1    3    3    0    0 -0.15455612270E+01  0.12187977371E+02 -0.32991461241E+01  0.12720845768E+02  0.00000000000E+00 0. -1.
</event>
<event>
 7    1  0.1634068E-009  0.4778727E+02  0.7816164E-02  0.1312668E+00
        -11   -1    0    0    0    0  0.00000000000E+00  0.00000000000E+00  0.45593999997E+02  0.45594000000E+02  0.51100000000E-03 0. -1.
         11   -1    0    0    0    0 -0.00000000000E+00 -0.00000000000E+00 -0.45593999997E+02  0.45594000000E+02  0.51100000000E-03 0.  1.
    9900012    2    1    2    0    0  0.57266168979E+01  0.23744302085E+02 -0.35875306510E+02  0.47787266829E+02  0.19999980781E+02 0.  0.
         12    1    1    2    0    0 -0.57266168979E+01 -0.23744302085E+02  0.35875306510E+02  0.43400733171E+02  0.00000000000E+00 0. -1.
         11    1    3    3    0    0  0.21251440464E+01 -0.25981080620E+01 -0.29090485813E+01  0.44417301392E+01  0.51100000000E-03 0. -1.
        -11    1    3    3    0    0  0.23701994143E+01  0.15628774338E+02 -0.12279396907E+02  0.20016493730E+02  0.51100000000E-03 0.  1.
        -12    1    3    3    0    0  0.12312734372E+01  0.10713635809E+02 -0.20686861021E+02  0.23329042960E+02  0.00000000000E+00 0.  1.
</event>
<event>
 7    1  0.1634068E-009  0.4778727E+02  0.7816164E-02  0.1312668E+00
        -11   -1    0    0    0    0  0.00000000000E+00  0.00000000000E+00  0.45593999997E+02  0.45594000000E+02  0.51100000000E-03 0. -1.
         11   -1    0    0    0    0 -0.00000000000E+00 -0.00000000000E+00 -0.45593999997E+02  0.45594000000E+02  0.51100000000E-03 0.  1.
    9900012    2    1    2    0    0 -0.23646337923E+02  0.33037935167E+02 -0.15263314781E+02  0.47787271489E+02  0.20000002025E+02 0.  0.
         12    1    1    2    0    0  0.23646337923E+02 -0.33037935167E+02  0.15263314781E+02  0.43400728511E+02  0.00000000000E+00 0. -1.
         11    1    3    3    0    0 -0.22903034403E+01  0.35639835027E+01  0.44412349031E+01  0.61377549626E+01  0.51100000000E-03 0. -1.
        -11    1    3    3    0    0 -0.11727872930E+02  0.12356896102E+02 -0.98055475983E+01  0.19656669319E+02  0.51100000000E-03 0.  1.
        -12    1    3    3    0    0 -0.96281615524E+01  0.17117055562E+02 -0.98990020858E+01  0.21992847207E+02  0.00000000000E+00 0.  1.
</event>
<event>
 7    1  0.1634068E-009  0.4778727E+02  0.7816164E-02  0.1312668E+00
        -11   -1    0    0    0    0  0.00000000000E+00  0.00000000000E+00  0.45593999997E+02  0.45594000000E+02  0.51100000000E-03 0. -1.
         11   -1    0    0    0    0 -0.00000000000E+00 -0.00000000000E+00 -0.45593999997E+02  0.45594000000E+02  0.51100000000E-03 0.  1.
    9900012    2    1    2    0    0  0.23282430812E+02 -0.33909838264E+02 -0.13844659249E+02  0.47787270682E+02  0.19999998350E+02 0.  0.
         12    1    1    2    0    0 -0.23282430812E+02  0.33909838264E+02  0.13844659249E+02  0.43400729318E+02  0.00000000000E+00 0. -1.
         11    1    3    3    0    0  0.29748632132E+01 -0.11490842143E+02  0.35051946146E+01  0.12376415225E+02  0.51100000000E-03 0. -1.
        -11    1    3    3    0    0  0.11375676417E+02 -0.94906742278E+01 -0.58027811942E+01  0.15910725348E+02  0.51100000000E-03 0.  1.
         12    1    3    3    0    0  0.89318911821E+01 -0.12928321893E+02 -0.11547072669E+02  0.19500130110E+02  0.00000000000E+00 0. -1.
</event>
<event>
 7    1  0.1634068E-009  0.4778727E+02  0.7816164E-02  0.1312668E+00
        -11   -1    0    0    0    0  0.00000000000E+00  0.00000000000E+00  0.45593999997E+02  0.45594000000E+02  0.51100000000E-03 0. -1.
         11   -1    0    0    0    0 -0.00000000000E+00 -0.00000000000E+00 -0.45593999997E+02  0.45594000000E+02  0.51100000000E-03 0.  1.
    9900012    2    1    2    0    0  0.31624511456E+02 -0.23398204889E+02 -0.18331325540E+02  0.47787271747E+02  0.20000003202E+02 0.  0.
         12    1    1    2    0    0 -0.31624511456E+02  0.23398204889E+02  0.18331325540E+02  0.43400728253E+02  0.00000000000E+00 0. -1.
         11    1    3    3    0    0 -0.14555026921E+01 -0.35196311183E+01 -0.28169845010E+01  0.47372664307E+01  0.51100000000E-03 0. -1.
        -11    1    3    3    0    0  0.17945941673E+02 -0.17050125196E+02 -0.99586445950E+01  0.26682169967E+02  0.51100000000E-03 0.  1.
        -12    1    3    3    0    0  0.15134072475E+02 -0.28284485748E+01 -0.55556964437E+01  0.16367835349E+02  0.00000000000E+00 0.  1.
</event>
<event>
 7    1  0.1634068E-009  0.4778728E+02  0.7816164E-02  0.1312668E+00
        -11   -1    0    0    0    0  0.00000000000E+00  0.00000000000E+00  0.45593999997E+02  0.45594000000E+02  0.51100000000E-03 0. -1.
         11   -1    0    0    0    0 -0.00000000000E+00 -0.00000000000E+00 -0.45593999997E+02  0.45594000000E+02  0.51100000000E-03 0.  1.
    9900012    2    1    2    0    0  0.68535279444E+01 -0.42299265086E+02 -0.68865204562E+01  0.47787276088E+02  0.20000022996E+02 0.  0.
         12    1    1    2    0    0 -0.68535279444E+01  0.42299265086E+02  0.68865204562E+01  0.43400723912E+02  0.00000000000E+00 0. -1.
         11    1    3    3    0    0  0.73481054266E+01 -0.64764635075E+01  0.23956910907E+00  0.97977868186E+01  0.51100000000E-03 0. -1.
        -11    1    3    3    0    0  0.25900403404E+01 -0.20500237227E+02 -0.84051470966E+01  0.22307275344E+02  0.51100000000E-03 0.  1.
         12    1    3    3    0    0 -0.30846178226E+01 -0.15322564352E+02  0.12790575313E+01  0.15682213925E+02  0.00000000000E+00 0. -1.
</event>
<event>
 7    1  0.1634068E-009  0.4778727E+02  0.7816164E-02  0.1312668E+00
        -11   -1    0    0    0    0  0.00000000000E+00  0.00000000000E+00  0.45593999997E+02  0.45594000000E+02  0.51100000000E-03 0.  1.
         11   -1    0    0    0    0 -0.00000000000E+00 -0.00000000000E+00 -0.45593999997E+02  0.45594000000E+02  0.51100000000E-03 0. -1.
    9900012    2    1    2    0    0  0.37484498161E+01 -0.25510175752E+02  0.34911367238E+02  0.47787268378E+02  0.19999987841E+02 0.  0.
         12    1    1    2    0    0 -0.37484498161E+01  0.25510175752E+02 -0.34911367238E+02  0.43400731622E+02  0.00000000000E+00 0. -1.
         11    1    3    3    0    0  0.51753072167E+01 -0.91704696253E+01  0.65080699476E+01  0.12378864756E+02  0.51100000000E-03 0. -1.
        -11    1    3    3    0    0  0.43930094807E+01 -0.80388010503E+01  0.20825876899E+02  0.22751659357E+02  0.51100000000E-03 0.  1.
         12    1    3    3    0    0 -0.58198668814E+01 -0.83009050763E+01  0.75774203917E+01  0.12656744265E+02  0.00000000000E+00 0. -1.
</event>
<event>
 7    1  0.1634068E-009  0.4778727E+02  0.7816164E-02  0.1312668E+00
        -11   -1    0    0    0    0  0.00000000000E+00  0.00000000000E+00  0.45593999997E+02  0.45594000000E+02  0.51100000000E-03 0.  1.
         11   -1    0    0    0    0 -0.00000000000E+00 -0.00000000000E+00 -0.45593999997E+02  0.45594000000E+02  0.51100000000E-03 0. -1.
    9900012    2    1    2    0    0  0.14907833006E+02  0.39161191460E+02  0.11304028591E+02  0.47787268855E+02  0.19999990018E+02 0.  0.
         12    1    1    2    0    0 -0.14907833006E+02 -0.39161191460E+02 -0.11304028591E+02  0.43400731145E+02  0.00000000000E+00 0. -1.
         11    1    3    3    0    0  0.12437802718E+01 -0.11748571188E+01  0.25003650629E+01  0.30297036692E+01  0.51100000000E-03 0. -1.
        -11    1    3    3    0    0  0.11278523517E+02  0.16852323135E+02  0.41644717485E+01  0.20701418139E+02  0.51100000000E-03 0.  1.
        -12    1    3    3    0    0  0.23855292175E+01  0.23483725444E+02  0.46391917794E+01  0.24056147047E+02  0.00000000000E+00 0.  1.
</event>
<event>
 7    1  0.1634068E-009  0.4778727E+02  0.7816164E-02  0.1312668E+00
        -11   -1    0    0    0    0  0.00000000000E+00  0.00000000000E+00  0.45593999997E+02  0.45594000000E+02  0.51100000000E-03 0.  1.
         11   -1    0    0    0    0 -0.00000000000E+00 -0.00000000000E+00 -0.45593999997E+02  0.45594000000E+02  0.51100000000E-03 0. -1.
    9900012    2    1    2    0    0  0.32818985978E+02 -0.14582174221E+02  0.24370014163E+02  0.47787271481E+02  0.20000001993E+02 0.  0.
         12    1    1    2    0    0 -0.32818985978E+02  0.14582174221E+02 -0.24370014163E+02  0.43400728519E+02  0.00000000000E+00 0. -1.
         11    1    3    3    0    0  0.63013657870E+01 -0.71628246799E+00  0.89256884301E+00  0.64044477323E+01  0.51100000000E-03 0. -1.
        -11    1    3    3    0    0  0.15097614955E+02  0.23962017733E-01  0.58186329949E+01  0.16180081635E+02  0.51100000000E-03 0.  1.
         12    1    3    3    0    0  0.11420005236E+02 -0.13889853770E+02  0.17658812325E+02  0.25202742114E+02  0.00000000000E+00 0. -1.
</event>
<event>
 7    1  0.1634068E-009  0.4778727E+02  0.7816164E-02  0.1312668E+00
        -11   -1    0    0    0    0  0.00000000000E+00  0.00000000000E+00  0.45593999997E+02  0.45594000000E+02  0.51100000000E-03 0. -1.
         11   -1    0    0    0    0 -0.00000000000E+00 -0.00000000000E+00 -0.45593999997E+02  0.45594000000E+02  0.51100000000E-03 0.  1.
    9900012    2    1    2    0    0  0.30532855226E+02 -0.29045699079E+02 -0.10378593110E+02  0.47787273299E+02  0.20000010280E+02 0.  0.
         12    1    1    2    0    0 -0.30532855226E+02  0.29045699079E+02  0.10378593110E+02  0.43400726701E+02  0.00000000000E+00 0. -1.
         11    1    3    3    0    0  0.56853195247E+01 -0.21305973337E+01 -0.80287089161E+01  0.10065906329E+02  0.51100000000E-03 0. -1.
        -11    1    3    3    0    0  0.30372407288E+01 -0.74985673976E+01  0.16228816337E+01  0.82514901272E+01  0.51100000000E-03 0.  1.
        -12    1    3    3    0    0  0.21810294972E+02 -0.19416534348E+02 -0.39727658275E+01  0.29469876843E+02  0.00000000000E+00 0.  1.
</event>
<event>
 7    1  0.1634068E-009  0.4778727E+02  0.7816164E-02  0.1312668E+00
        -11   -1    0    0    0    0  0.00000000000E+00  0.00000000000E+00  0.45593999997E+02  0.45594000000E+02  0.51100000000E-03 0.  1.
         11   -1    0    0    0    0 -0.00000000000E+00 -0.00000000000E+00 -0.45593999997E+02  0.45594000000E+02  0.51100000000E-03 0. -1.
    9900012    2    1    2    0    0  0.27559294978E+02  0.25697740019E+02  0.21534493454E+02  0.47787274314E+02  0.20000014906E+02 0.  0.
         12    1    1    2    0    0 -0.27559294978E+02 -0.25697740019E+02 -0.21534493454E+02  0.43400725686E+02  0.00000000000E+00 0. -1.
         11    1    3    3    0    0  0.31174536271E+01  0.59209040443E+01  0.11340106681E+02  0.13167142500E+02  0.51100000000E-03 0. -1.
        -11    1    3    3    0    0  0.43222377176E+01  0.90463678568E+00 -0.14922715873E+01  0.46612210152E+01  0.51100000000E-03 0.  1.
        -12    1    3    3    0    0  0.20119603634E+02  0.18872199189E+02  0.11686658360E+02  0.29958910799E+02  0.00000000000E+00 0.  1.
</event>
<event>
 7    1  0.1634068E-009  0.4778727E+02  0.7816164E-02  0.1312668E+00
        -11   -1    0    0    0    0  0.00000000000E+00  0.00000000000E+00  0.45593999997E+02  0.45594000000E+02  0.51100000000E-03 0. -1.
         11   -1    0    0    0    0 -0.00000000000E+00 -0.00000000000E+00 -0.45593999997E+02  0.45594000000E+02  0.51100000000E-03 0.  1.
    9900012    2    1    2    0    0  0.72753186620E+01 -0.58404958815E+01 -0.42386099541E+02  0.47787273185E+02  0.20000009761E+02 0.  0.
         12    1    1    2    0    0 -0.72753186620E+01  0.58404958815E+01  0.42386099541E+02  0.43400726815E+02  0.00000000000E+00 0. -1.
         11    1    3    3    0    0  0.13393665009E+01  0.37055288748E+01 -0.16011593559E+02  0.16489268493E+02  0.51100000000E-03 0.  1.
        -11    1    3    3    0    0  0.80310075211E+00 -0.42809517129E+01 -0.48264326638E+00  0.43822897177E+01  0.51100000000E-03 0. -1.
         12    1    3    3    0    0  0.51328514090E+01 -0.52650730433E+01 -0.25891862715E+02  0.26915714975E+02  0.00000000000E+00 0. -1.
</event>
<event>
 7    1  0.1634068E-009  0.4778727E+02  0.7816164E-02  0.1312668E+00
        -11   -1    0    0    0    0  0.00000000000E+00  0.00000000000E+00  0.45593999997E+02  0.45594000000E+02  0.51100000000E-03 0.  1.
         11   -1    0    0    0    0 -0.00000000000E+00 -0.00000000000E+00 -0.45593999997E+02  0.45594000000E+02  0.51100000000E-03 0. -1.
    9900012    2    1    2    0    0  0.32733879410E+02 -0.82524601357E+00  0.28485706984E+02  0.47787269654E+02  0.19999993661E+02 0.  0.
         12    1    1    2    0    0 -0.32733879410E+02  0.82524601357E+00 -0.28485706984E+02  0.43400730346E+02  0.00000000000E+00 0. -1.
         11    1    3    3    0    0  0.32417895877E+01 -0.45848781004E+01  0.36269125114E+01  0.66846691431E+01  0.51100000000E-03 0. -1.
        -11    1    3    3    0    0  0.83680207166E+01 -0.45131599390E+01  0.41062871930E+01  0.10356349652E+02  0.51100000000E-03 0.  1.
         12    1    3    3    0    0  0.21124069105E+02  0.82727920259E+01  0.20752507279E+02  0.30746250859E+02  0.00000000000E+00 0. -1.
</event>
<event>
 7    1  0.1634068E-009  0.4778727E+02  0.7816164E-02  0.1312668E+00
        -11   -1    0    0    0    0  0.00000000000E+00  0.00000000000E+00  0.45593999997E+02  0.45594000000E+02  0.51100000000E-03 0.  1.
         11   -1    0    0    0    0 -0.00000000000E+00 -0.00000000000E+00 -0.45593999997E+02  0.45594000000E+02  0.51100000000E-03 0. -1.
    9900012    2    1    2    0    0 -0.25451282736E+02 -0.29320962334E+02  0.19394242204E+02  0.47787271254E+02  0.20000000953E+02 0.  0.
         12    1    1    2    0    0  0.25451282736E+02  0.29320962334E+02 -0.19394242204E+02  0.43400728746E+02  0.00000000000E+00 0. -1.
         11    1    3    3    0    0 -0.15215279446E+02 -0.73270029101E+01  0.14855330883E+02  0.22491566334E+02  0.51100000000E-03 0. -1.
        -11    1    3    3    0    0 -0.90529404050E+00 -0.24654254091E+01  0.23814300248E+01  0.35452910983E+01  0.51100000000E-03 0.  1.
         12    1    3    3    0    0 -0.93307092496E+01 -0.19528534015E+02  0.21574812962E+01  0.21750413821E+02  0.00000000000E+00 0. -1.
</event>
<event>
 7    1  0.1634068E-009  0.4778727E+02  0.7816164E-02  0.1312668E+00
        -11   -1    0    0    0    0  0.00000000000E+00  0.00000000000E+00  0.45593999997E+02  0.45594000000E+02  0.51100000000E-03 0.  1.
         11   -1    0    0    0    0 -0.00000000000E+00 -0.00000000000E+00 -0.45593999997E+02  0.45594000000E+02  0.51100000000E-03 0. -1.
    9900012    2    1    2    0    0  0.29421466521E+02 -0.18195912875E+02  0.26208962665E+02  0.47787266578E+02  0.19999979634E+02 0.  0.
         12    1    1    2    0    0 -0.29421466521E+02  0.18195912875E+02 -0.26208962665E+02  0.43400733422E+02  0.00000000000E+00 0. -1.
         11    1    3    3    0    0  0.23991480637E+02 -0.69891420526E+01  0.13048820836E+02  0.28190618568E+02  0.51100000000E-03 0. -1.
        -11    1    3    3    0    0  0.53878169334E+01 -0.49192907883E+01  0.10461759982E+02  0.12754466486E+02  0.51100000000E-03 0.  1.
        -12    1    3    3    0    0  0.42168950106E-01 -0.62874800343E+01  0.26983818481E+01  0.68421815235E+01  0.00000000000E+00 0.  1.
</event>
<event>
 7    1  0.1634068E-009  0.4778728E+02  0.7816164E-02  0.1312668E+00
        -11   -1    0    0    0    0  0.00000000000E+00  0.00000000000E+00  0.45593999997E+02  0.45594000000E+02  0.51100000000E-03 0.  1.
         11   -1    0    0    0    0 -0.00000000000E+00 -0.00000000000E+00 -0.45593999997E+02  0.45594000000E+02  0.51100000000E-03 0. -1.
    9900012    2    1    2    0    0 -0.42732743216E+02  0.67632709916E+01  0.34342013748E+01  0.47787275163E+02  0.20000018778E+02 0.  0.
         12    1    1    2    0    0  0.42732743216E+02 -0.67632709916E+01 -0.34342013748E+01  0.43400724837E+02  0.00000000000E+00 0. -1.
         11    1    3    3    0    0 -0.58848234520E+01  0.52354319807E+01 -0.12759909644E+01  0.79792887082E+01  0.51100000000E-03 0. -1.
        -11    1    3    3    0    0 -0.16537320887E+02  0.73239442071E+01 -0.34571550242E+00  0.18089849649E+02  0.51100000000E-03 0.  1.
        -12    1    3    3    0    0 -0.20310598878E+02 -0.57961051962E+01  0.50559078417E+01  0.21718136806E+02  0.00000000000E+00 0.  1.
</event>
<event>
 7    1  0.1634068E-009  0.4778727E+02  0.7816164E-02  0.1312668E+00
        -11   -1    0    0    0    0  0.00000000000E+00  0.00000000000E+00  0.45593999997E+02  0.45594000000E+02  0.51100000000E-03 0.  1.
         11   -1    0    0    0    0 -0.00000000000E+00 -0.00000000000E+00 -0.45593999997E+02  0.45594000000E+02  0.51100000000E-03 0. -1.
    9900012    2    1    2    0    0 -0.27351197154E+02  0.97205733675E+01  0.32265246356E+02  0.47787266656E+02  0.19999979992E+02 0.  0.
         12    1    1    2    0    0  0.27351197154E+02 -0.97205733675E+01 -0.32265246356E+02  0.43400733344E+02  0.00000000000E+00 0. -1.
         11    1    3    3    0    0 -0.74579549474E+01 -0.11821847656E+01  0.37819208770E+01  0.84452103940E+01  0.51100000000E-03 0. -1.
        -11    1    3    3    0    0 -0.96621455238E+00  0.47603943784E+01  0.33301339600E+00  0.48688626374E+01  0.51100000000E-03 0.  1.
         12    1    3    3    0    0 -0.18927027655E+02  0.61423637547E+01  0.28150312083E+02  0.34473193625E+02  0.00000000000E+00 0. -1.
</event>
<event>
 7    1  0.1634068E-009  0.4778727E+02  0.7816164E-02  0.1312668E+00
        -11   -1    0    0    0    0  0.00000000000E+00  0.00000000000E+00  0.45593999997E+02  0.45594000000E+02  0.51100000000E-03 0.  1.
         11   -1    0    0    0    0 -0.00000000000E+00 -0.00000000000E+00 -0.45593999997E+02  0.45594000000E+02  0.51100000000E-03 0. -1.
    9900012    2    1    2    0    0  0.23118733535E+02  0.25864254583E+02 -0.26080405311E+02  0.47787273663E+02  0.20000011939E+02 0.  0.
         12    1    1    2    0    0 -0.23118733535E+02 -0.25864254583E+02  0.26080405311E+02  0.43400726337E+02  0.00000000000E+00 0. -1.
         11    1    3    3    0    0  0.15717150712E+02  0.15331980309E+02 -0.16260393454E+02  0.27322130998E+02  0.51100000000E-03 0. -1.
        -11    1    3    3    0    0  0.85048863593E+01  0.12369027505E+01 -0.46491478205E+01  0.97712637932E+01  0.51100000000E-03 0.  1.
         12    1    3    3    0    0 -0.11033035367E+01  0.92953715230E+01 -0.51708640369E+01  0.10693878872E+02  0.00000000000E+00 0. -1.
</event>
<event>
 7    1  0.1634068E-009  0.4778727E+02  0.7816164E-02  0.1312668E+00
        -11   -1    0    0    0    0  0.00000000000E+00  0.00000000000E+00  0.45593999997E+02  0.45594000000E+02  0.51100000000E-03 0.  1.
         11   -1    0    0    0    0 -0.00000000000E+00 -0.00000000000E+00 -0.45593999997E+02  0.45594000000E+02  0.51100000000E-03 0. -1.
    9900012    2    1    2    0    0  0.23938624661E+02 -0.27850412875E+02  0.23128335803E+02  0.47787272299E+02  0.20000005718E+02 0.  0.
         12    1    1    2    0    0 -0.23938624661E+02  0.27850412875E+02 -0.23128335803E+02  0.43400727701E+02  0.00000000000E+00 0. -1.
         11    1    3    3    0    0 -0.27772063512E+01 -0.25541161222E+01  0.27299767576E+01  0.46571619728E+01  0.51100000000E-03 0. -1.
        -11    1    3    3    0    0  0.12580194117E+02 -0.10671386771E+02  0.39275283847E+01  0.16957749235E+02  0.51100000000E-03 0.  1.
        -12    1    3    3    0    0  0.14135636895E+02 -0.14624909982E+02  0.16470830661E+02  0.26172361091E+02  0.00000000000E+00 0.  1.
</event>
<event>
 7    1  0.1634068E-009  0.4778729E+02  0.7816164E-02  0.1312668E+00
        -11   -1    0    0    0    0  0.00000000000E+00  0.00000000000E+00  0.45593999997E+02  0.45594000000E+02  0.51100000000E-03 0.  1.
         11   -1    0    0    0    0 -0.00000000000E+00 -0.00000000000E+00 -0.45593999997E+02  0.45594000000E+02  0.51100000000E-03 0. -1.
    9900012    2    1    2    0    0 -0.42755117061E+02 -0.30330837100E+01  0.68133689663E+01  0.47787290001E+02  0.20000086432E+02 0.  0.
         12    1    1    2    0    0  0.42755117061E+02  0.30330837100E+01 -0.68133689663E+01  0.43400709999E+02  0.00000000000E+00 0. -1.
         11    1    3    3    0    0 -0.55027520386E+01 -0.40910929794E+01 -0.36036762354E+01  0.77462122638E+01  0.51100000000E-03 0. -1.
        -11    1    3    3    0    0 -0.19923872553E+02  0.29137450958E+01  0.83526987134E+00  0.20153120949E+02  0.51100000000E-03 0.  1.
        -12    1    3    3    0    0 -0.17328492470E+02 -0.18557358264E+01  0.95817753303E+01  0.19887956789E+02  0.00000000000E+00 0.  1.
</event>
<event>
 7    1  0.1634068E-009  0.4778728E+02  0.7816164E-02  0.1312668E+00
        -11   -1    0    0    0    0  0.00000000000E+00  0.00000000000E+00  0.45593999997E+02  0.45594000000E+02  0.51100000000E-03 0.  1.
         11   -1    0    0    0    0 -0.00000000000E+00 -0.00000000000E+00 -0.45593999997E+02  0.45594000000E+02  0.51100000000E-03 0. -1.
    9900012    2    1    2    0    0  0.15286949702E+02 -0.71329288777E+01  0.39988163732E+02  0.47787277147E+02  0.20000027822E+02 0.  0.
         12    1    1    2    0    0 -0.15286949702E+02  0.71329288777E+01 -0.39988163732E+02  0.43400722853E+02  0.00000000000E+00 0. -1.
         11    1    3    3    0    0  0.53266410356E+01 -0.78998509119E+01  0.10411393223E+02  0.14113038591E+02  0.51100000000E-03 0. -1.
        -11    1    3    3    0    0  0.44875767963E+01 -0.50032128024E+01  0.20662760410E+02  0.21728326025E+02  0.51100000000E-03 0.  1.
        -12    1    3    3    0    0  0.54727318698E+01  0.57701348366E+01  0.89140100992E+01  0.11945912531E+02  0.00000000000E+00 0.  1.
</event>
<event>
 7    1  0.1634068E-009  0.4778727E+02  0.7816164E-02  0.1312668E+00
        -11   -1    0    0    0    0  0.00000000000E+00  0.00000000000E+00  0.45593999997E+02  0.45594000000E+02  0.51100000000E-03 0.  1.
         11   -1    0    0    0    0 -0.00000000000E+00 -0.00000000000E+00 -0.45593999997E+02  0.45594000000E+02  0.51100000000E-03 0. -1.
    9900012    2    1    2    0    0 -0.15256017389E+02  0.23064699958E+02  0.33449920822E+02  0.47787266668E+02  0.19999980046E+02 0.  0.
         12    1    1    2    0    0  0.15256017389E+02 -0.23064699958E+02 -0.33449920822E+02  0.43400733332E+02  0.00000000000E+00 0. -1.
         11    1    3    3    0    0 -0.18801465584E+01  0.78651568239E+01  0.59626116672E+01  0.10047307157E+02  0.51100000000E-03 0.  1.
        -11    1    3    3    0    0 -0.94702099275E+00  0.22955084540E+01 -0.20323258103E+01  0.32088247512E+01  0.51100000000E-03 0. -1.
         12    1    3    3    0    0 -0.12428849838E+02  0.12904034680E+02  0.29519634966E+02  0.34531134760E+02  0.00000000000E+00 0. -1.
</event>
<event>
 7    1  0.1634068E-009  0.4778728E+02  0.7816164E-02  0.1312668E+00
        -11   -1    0    0    0    0  0.00000000000E+00  0.00000000000E+00  0.45593999997E+02  0.45594000000E+02  0.51100000000E-03 0. -1.
         11   -1    0    0    0    0 -0.00000000000E+00 -0.00000000000E+00 -0.45593999997E+02  0.45594000000E+02  0.51100000000E-03 0.  1.
    9900012    2    1    2    0    0  0.39728706665E+02  0.14485001443E+02 -0.97692068045E+01  0.47787276484E+02  0.20000024803E+02 0.  0.
         12    1    1    2    0    0 -0.39728706665E+02 -0.14485001443E+02  0.97692068045E+01  0.43400723516E+02  0.00000000000E+00 0. -1.
         11    1    3    3    0    0  0.24777940329E+02  0.52072358735E+01 -0.40602955758E+01  0.25642691606E+02  0.51100000000E-03 0. -1.
        -11    1    3    3    0    0  0.13937902329E+02  0.49340858516E+01 -0.83306963621E+01  0.16970881729E+02  0.51100000000E-03 0.  1.
         12    1    3    3    0    0  0.10128640070E+01  0.43436797179E+01  0.26217851334E+01  0.51737031490E+01  0.00000000000E+00 0. -1.
</event>
<event>
 7    1  0.1634068E-009  0.4778727E+02  0.7816164E-02  0.1312668E+00
        -11   -1    0    0    0    0  0.00000000000E+00  0.00000000000E+00  0.45593999997E+02  0.45594000000E+02  0.51100000000E-03 0.  1.
         11   -1    0    0    0    0 -0.00000000000E+00 -0.00000000000E+00 -0.45593999997E+02  0.45594000000E+02  0.51100000000E-03 0. -1.
    9900012    2    1    2    0    0 -0.17850731693E+02  0.19372258737E+02  0.34491887935E+02  0.47787270008E+02  0.19999995275E+02 0.  0.
         12    1    1    2    0    0  0.17850731693E+02 -0.19372258737E+02 -0.34491887935E+02  0.43400729992E+02  0.00000000000E+00 0. -1.
         11    1    3    3    0    0 -0.87303354514E+01  0.13503447676E+02  0.28683106233E+02  0.32882859360E+02  0.51100000000E-03 0. -1.
        -11    1    3    3    0    0 -0.58644890983E+01 -0.26031485118E+00  0.53607775172E+01  0.79497127027E+01  0.51100000000E-03 0.  1.
         12    1    3    3    0    0 -0.32559071434E+01  0.61291259116E+01  0.44800418435E+00  0.69546979457E+01  0.00000000000E+00 0. -1.
</event>
<event>
 7    1  0.1634068E-009  0.4778726E+02  0.7816164E-02  0.1312668E+00
        -11   -1    0    0    0    0  0.00000000000E+00  0.00000000000E+00  0.45593999997E+02  0.45594000000E+02  0.51100000000E-03 0.  1.
         11   -1    0    0    0    0 -0.00000000000E+00 -0.00000000000E+00 -0.45593999997E+02  0.45594000000E+02  0.51100000000E-03 0. -1.
    9900012    2    1    2    0    0 -0.23750434473E+01  0.12353582487E+02  0.41537599754E+02  0.47787262392E+02  0.19999960549E+02 0.  0.
         12    1    1    2    0    0  0.23750434473E+01 -0.12353582487E+02 -0.41537599754E+02  0.43400737608E+02  0.00000000000E+00 0. -1.
         11    1    3    3    0    0  0.44820702058E+01  0.69433141442E+01  0.86537085346E+01  0.11966003355E+02  0.51100000000E-03 0.  1.
        -11    1    3    3    0    0 -0.17022594996E+01  0.77893469226E+01  0.14100756168E+02  0.16198856060E+02  0.51100000000E-03 0. -1.
         12    1    3    3    0    0 -0.51548541535E+01 -0.23790785794E+01  0.18783135051E+02  0.19622402977E+02  0.00000000000E+00 0. -1.
</event>
<event>
 7    1  0.1634068E-009  0.4778727E+02  0.7816164E-02  0.1312668E+00
        -11   -1    0    0    0    0  0.00000000000E+00  0.00000000000E+00  0.45593999997E+02  0.45594000000E+02  0.51100000000E-03 0.  1.
         11   -1    0    0    0    0 -0.00000000000E+00 -0.00000000000E+00 -0.45593999997E+02  0.45594000000E+02  0.51100000000E-03 0. -1.
    9900012    2    1    2    0    0 -0.54400921237E+01  0.35529605884E+02  0.24324387280E+02  0.47787270592E+02  0.19999997937E+02 0.  0.
         12    1    1    2    0    0  0.54400921237E+01 -0.35529605884E+02 -0.24324387280E+02  0.43400729408E+02  0.00000000000E+00 0. -1.
         11    1    3    3    0    0 -0.16282882577E+01  0.71019586151E+01 -0.23528671479E+00  0.72900273607E+01  0.51100000000E-03 0. -1.
        -11    1    3    3    0    0  0.44593265088E+01  0.11836121668E+02  0.15057930073E+02  0.19665213637E+02  0.51100000000E-03 0.  1.
        -12    1    3    3    0    0 -0.82711303748E+01  0.16591525601E+02  0.95017439217E+01  0.20832029594E+02  0.00000000000E+00 0.  1.
</event>
<event>
 7    1  0.1634068E-009  0.4778727E+02  0.7816164E-02  0.1312668E+00
        -11   -1    0    0    0    0  0.00000000000E+00  0.00000000000E+00  0.45593999997E+02  0.45594000000E+02  0.51100000000E-03 0. -1.
         11   -1    0    0    0    0 -0.00000000000E+00 -0.00000000000E+00 -0.45593999997E+02  0.45594000000E+02  0.51100000000E-03 0.  1.
    9900012    2    1    2    0    0 -0.13779838502E+01  0.35559096954E+02 -0.24845018826E+02  0.47787272171E+02  0.20000005135E+02 0.  0.
         12    1    1    2    0    0  0.13779838502E+01 -0.35559096954E+02  0.24845018826E+02  0.43400727829E+02  0.00000000000E+00 0. -1.
         11    1    3    3    0    0 -0.23758507277E+01  0.53537436788E+01 -0.12218080208E+02  0.13549491587E+02  0.51100000000E-03 0. -1.
        -11    1    3    3    0    0  0.50174822201E+01  0.17755358571E+02 -0.96445544255E+01  0.20819349561E+02  0.51100000000E-03 0.  1.
        -12    1    3    3    0    0 -0.40196153427E+01  0.12449994704E+02 -0.29823841931E+01  0.13418431022E+02  0.00000000000E+00 0.  1.
</event>
<event>
 7    1  0.1634068E-009  0.4778726E+02  0.7816164E-02  0.1312668E+00
        -11   -1    0    0    0    0  0.00000000000E+00  0.00000000000E+00  0.45593999997E+02  0.45594000000E+02  0.51100000000E-03 0.  1.
         11   -1    0    0    0    0 -0.00000000000E+00 -0.00000000000E+00 -0.45593999997E+02  0.45594000000E+02  0.51100000000E-03 0. -1.
    9900012    2    1    2    0    0  0.39763232725E+02 -0.12560501848E+02  0.12030928017E+02  0.47787261384E+02  0.19999955956E+02 0.  0.
         12    1    1    2    0    0 -0.39763232725E+02  0.12560501848E+02 -0.12030928017E+02  0.43400738616E+02  0.00000000000E+00 0. -1.
         11    1    3    3    0    0  0.12176053991E+02  0.19114482905E+01  0.13275203091E+01  0.12396460615E+02  0.51100000000E-03 0. -1.
        -11    1    3    3    0    0  0.13596537158E+02 -0.62310521545E+01  0.11895088438E+02  0.19109813260E+02  0.51100000000E-03 0.  1.
        -12    1    3    3    0    0  0.13990641577E+02 -0.82408979840E+01 -0.11916807298E+01  0.16280987509E+02  0.00000000000E+00 0.  1.
</event>
<event>
 7    1  0.1634068E-009  0.4778727E+02  0.7816164E-02  0.1312668E+00
        -11   -1    0    0    0    0  0.00000000000E+00  0.00000000000E+00  0.45593999997E+02  0.45594000000E+02  0.51100000000E-03 0.  1.
         11   -1    0    0    0    0 -0.00000000000E+00 -0.00000000000E+00 -0.45593999997E+02  0.45594000000E+02  0.51100000000E-03 0. -1.
    9900012    2    1    2    0    0 -0.18116568782E+02 -0.35386522830E+02  0.17412850280E+02  0.47787269392E+02  0.19999992465E+02 0.  0.
         12    1    1    2    0    0  0.18116568782E+02  0.35386522830E+02 -0.17412850280E+02  0.43400730608E+02  0.00000000000E+00 0. -1.
         11    1    3    3    0    0  0.11697608039E+01 -0.20614845804E+00 -0.22532878159E+01  0.25471834970E+01  0.51100000000E-03 0. -1.
        -11    1    3    3    0    0 -0.11766909794E+02 -0.16684981906E+02  0.12939578543E+02  0.24171915118E+02  0.51100000000E-03 0.  1.
        -12    1    3    3    0    0 -0.75194197916E+01 -0.18495392466E+02  0.67265595531E+01  0.21068170777E+02  0.00000000000E+00 0.  1.
</event>
<event>
 7    1  0.1634068E-009  0.4778727E+02  0.7816164E-02  0.1312668E+00
        -11   -1    0    0    0    0  0.00000000000E+00  0.00000000000E+00  0.45593999997E+02  0.45594000000E+02  0.51100000000E-03 0. -1.
         11   -1    0    0    0    0 -0.00000000000E+00 -0.00000000000E+00 -0.45593999997E+02  0.45594000000E+02  0.51100000000E-03 0.  1.
    9900012    2    1    2    0    0 -0.38457344387E+02 -0.99672261357E+01 -0.17473132523E+02  0.47787270809E+02  0.19999998927E+02 0.  0.
         12    1    1    2    0    0  0.38457344387E+02  0.99672261357E+01  0.17473132523E+02  0.43400729191E+02  0.00000000000E+00 0. -1.
         11    1    3    3    0    0 -0.95302216149E+01 -0.49161034218E+01 -0.23471843518E+01  0.10977361774E+02  0.51100000000E-03 0. -1.
        -11    1    3    3    0    0 -0.24784172837E+02 -0.39390357935E+01 -0.46940330992E+01  0.25530475381E+02  0.51100000000E-03 0.  1.
         12    1    3    3    0    0 -0.41429499354E+01 -0.11120869204E+01 -0.10431915072E+02  0.11279433654E+02  0.00000000000E+00 0. -1.
</event>
<event>
 7    1  0.1634068E-009  0.4778727E+02  0.7816164E-02  0.1312668E+00
        -11   -1    0    0    0    0  0.00000000000E+00  0.00000000000E+00  0.45593999997E+02  0.45594000000E+02  0.51100000000E-03 0.  1.
         11   -1    0    0    0    0 -0.00000000000E+00 -0.00000000000E+00 -0.45593999997E+02  0.45594000000E+02  0.51100000000E-03 0. -1.
    9900012    2    1    2    0    0  0.16317388378E+02 -0.11696730548E+02  0.38477952495E+02  0.47787268471E+02  0.19999988268E+02 0.  0.
         12    1    1    2    0    0 -0.16317388378E+02  0.11696730548E+02 -0.38477952495E+02  0.43400731529E+02  0.00000000000E+00 0. -1.
         11    1    3    3    0    0  0.68212450154E+01 -0.15129094652E+01  0.10947034438E+02  0.12986756402E+02  0.51100000000E-03 0. -1.
        -11    1    3    3    0    0  0.98502136888E-01 -0.53625608587E+01  0.54322453980E-01  0.53637405627E+01  0.51100000000E-03 0.  1.
        -12    1    3    3    0    0  0.93976412254E+01 -0.48212602240E+01  0.27476595604E+02  0.29436771506E+02  0.00000000000E+00 0.  1.
</event>
<event>
 7    1  0.1634068E-009  0.4778727E+02  0.7816164E-02  0.1312668E+00
        -11   -1    0    0    0    0  0.00000000000E+00  0.00000000000E+00  0.45593999997E+02  0.45594000000E+02  0.51100000000E-03 0.  1.
         11   -1    0    0    0    0 -0.00000000000E+00 -0.00000000000E+00 -0.45593999997E+02  0.45594000000E+02  0.51100000000E-03 0. -1.
    9900012    2    1    2    0    0 -0.42100080182E+02 -0.89792944445E+01 -0.55297979036E+01  0.47787272530E+02  0.20000006773E+02 0.  0.
         12    1    1    2    0    0  0.42100080182E+02  0.89792944445E+01  0.55297979036E+01  0.43400727470E+02  0.00000000000E+00 0. -1.
         11    1    3    3    0    0 -0.55119503626E+00 -0.30296788793E+00  0.24473458048E+01  0.25268769773E+01  0.51100000000E-03 0. -1.
        -11    1    3    3    0    0 -0.24701438486E+02 -0.60205139189E+01 -0.11402399317E+02  0.27864356471E+02  0.51100000000E-03 0.  1.
         12    1    3    3    0    0 -0.16847446660E+02 -0.26558126377E+01  0.34252556085E+01  0.17396039081E+02  0.00000000000E+00 0. -1.
</event>
<event>
 7    1  0.1634068E-009  0.4778727E+02  0.7816164E-02  0.1312668E+00
        -11   -1    0    0    0    0  0.00000000000E+00  0.00000000000E+00  0.45593999997E+02  0.45594000000E+02  0.51100000000E-03 0.  1.
         11   -1    0    0    0    0 -0.00000000000E+00 -0.00000000000E+00 -0.45593999997E+02  0.45594000000E+02  0.51100000000E-03 0. -1.
    9900012    2    1    2    0    0  0.26359368298E+02  0.23253390124E+02  0.25457552122E+02  0.47787269484E+02  0.19999992884E+02 0.  0.
         12    1    1    2    0    0 -0.26359368298E+02 -0.23253390124E+02 -0.25457552122E+02  0.43400730516E+02  0.00000000000E+00 0. -1.
         11    1    3    3    0    0  0.62750229119E+00  0.33414284099E+01 -0.54410195241E+00  0.34431018196E+01  0.51100000000E-03 0. -1.
        -11    1    3    3    0    0  0.27308487793E+02  0.19762024748E+02  0.22577089867E+02  0.40571124150E+02  0.51100000000E-03 0.  1.
        -12    1    3    3    0    0 -0.15766217862E+01  0.14993696605E+00  0.34245642068E+01  0.37730435138E+01  0.00000000000E+00 0.  1.
</event>
<event>
 7    1  0.1634068E-009  0.4778729E+02  0.7816164E-02  0.1312668E+00
        -11   -1    0    0    0    0  0.00000000000E+00  0.00000000000E+00  0.45593999997E+02  0.45594000000E+02  0.51100000000E-03 0. -1.
         11   -1    0    0    0    0 -0.00000000000E+00 -0.00000000000E+00 -0.45593999997E+02  0.45594000000E+02  0.51100000000E-03 0.  1.
    9900012    2    1    2    0    0 -0.59814599948E+01 -0.16366182062E+02 -0.39749112601E+02  0.47787288813E+02  0.20000081015E+02 0.  0.
         12    1    1    2    0    0  0.59814599948E+01  0.16366182062E+02  0.39749112601E+02  0.43400711187E+02  0.00000000000E+00 0. -1.
         11    1    3    3    0    0 -0.66806816996E+01 -0.70437993656E+01 -0.84817155649E+01  0.12891319430E+02  0.51100000000E-03 0. -1.
        -11    1    3    3    0    0  0.39041713070E+01 -0.81780372394E+01 -0.10579931292E+02  0.13930462774E+02  0.51100000000E-03 0.  1.
        -12    1    3    3    0    0 -0.32049496022E+01 -0.11443454574E+01 -0.20687465744E+02  0.20965506609E+02  0.00000000000E+00 0.  1.
</event>
<event>
 7    1  0.1634068E-009  0.4778727E+02  0.7816164E-02  0.1312668E+00
        -11   -1    0    0    0    0  0.00000000000E+00  0.00000000000E+00  0.45593999997E+02  0.45594000000E+02  0.51100000000E-03 0.  1.
         11   -1    0    0    0    0 -0.00000000000E+00 -0.00000000000E+00 -0.45593999997E+02  0.45594000000E+02  0.51100000000E-03 0. -1.
    9900012    2    1    2    0    0 -0.18354655426E+02  0.26636319191E+02  0.28935043967E+02  0.47787266767E+02  0.19999980495E+02 0.  0.
         12    1    1    2    0    0  0.18354655426E+02 -0.26636319191E+02 -0.28935043967E+02  0.43400733233E+02  0.00000000000E+00 0. -1.
         11    1    3    3    0    0 -0.59063218493E+01  0.38896132250E+01  0.12674264292E+02  0.14513810817E+02  0.51100000000E-03 0.  1.
        -11    1    3    3    0    0 -0.14377645822E+02  0.20029989353E+02  0.16884943989E+02  0.29883415244E+02  0.51100000000E-03 0. -1.
        -12    1    3    3    0    0  0.19293122453E+01  0.27167166126E+01 -0.62416431423E+00  0.33900407054E+01  0.00000000000E+00 0.  1.
</event>
<event>
 7    1  0.1634068E-009  0.4778727E+02  0.7816164E-02  0.1312668E+00
        -11   -1    0    0    0    0  0.00000000000E+00  0.00000000000E+00  0.45593999997E+02  0.45594000000E+02  0.51100000000E-03 0.  1.
         11   -1    0    0    0    0 -0.00000000000E+00 -0.00000000000E+00 -0.45593999997E+02  0.45594000000E+02  0.51100000000E-03 0. -1.
    9900012    2    1    2    0    0  0.13568900183E+01 -0.34282290118E+02  0.26580194921E+02  0.47787270417E+02  0.19999997139E+02 0.  0.
         12    1    1    2    0    0 -0.13568900183E+01  0.34282290118E+02 -0.26580194921E+02  0.43400729583E+02  0.00000000000E+00 0. -1.
         11    1    3    3    0    0  0.14744223161E+01 -0.26948168651E+01 -0.93427454638E+00  0.32107364096E+01  0.51100000000E-03 0. -1.
        -11    1    3    3    0    0 -0.25837395579E+01 -0.14683346843E+02  0.38638484538E+01  0.15401484011E+02  0.51100000000E-03 0.  1.
        -12    1    3    3    0    0  0.24662072601E+01 -0.16904126411E+02  0.23650621014E+02  0.29175049996E+02  0.00000000000E+00 0.  1.
</event>
<event>
 7    1  0.1634068E-009  0.4778727E+02  0.7816164E-02  0.1312668E+00
        -11   -1    0    0    0    0  0.00000000000E+00  0.00000000000E+00  0.45593999997E+02  0.45594000000E+02  0.51100000000E-03 0. -1.
         11   -1    0    0    0    0 -0.00000000000E+00 -0.00000000000E+00 -0.45593999997E+02  0.45594000000E+02  0.51100000000E-03 0.  1.
    9900012    2    1    2    0    0  0.38260748692E+02 -0.90359318260E+01 -0.18387229204E+02  0.47787272446E+02  0.20000006389E+02 0.  0.
         12    1    1    2    0    0 -0.38260748692E+02  0.90359318260E+01  0.18387229204E+02  0.43400727554E+02  0.00000000000E+00 0. -1.
         11    1    3    3    0    0  0.57274629018E+01 -0.85880037920E+01 -0.90248408359E+01  0.13711505854E+02  0.51100000000E-03 0. -1.
        -11    1    3    3    0    0  0.92854105871E+01  0.11418502909E+01 -0.39390786757E+01  0.10150813412E+02  0.51100000000E-03 0.  1.
         12    1    3    3    0    0  0.23247875203E+02 -0.15897783248E+01 -0.54233096924E+01  0.23924953179E+02  0.00000000000E+00 0. -1.
</event>
<event>
 7    1  0.1634068E-009  0.4778728E+02  0.7816164E-02  0.1312668E+00
        -11   -1    0    0    0    0  0.00000000000E+00  0.00000000000E+00  0.45593999997E+02  0.45594000000E+02  0.51100000000E-03 0.  1.
         11   -1    0    0    0    0 -0.00000000000E+00 -0.00000000000E+00 -0.45593999997E+02  0.45594000000E+02  0.51100000000E-03 0. -1.
    9900012    2    1    2    0    0  0.25456915558E+02 -0.10743396665E+02  0.33468608034E+02  0.47787275981E+02  0.20000022508E+02 0.  0.
         12    1    1    2    0    0 -0.25456915558E+02  0.10743396665E+02 -0.33468608034E+02  0.43400724019E+02  0.00000000000E+00 0. -1.
         11    1    3    3    0    0 -0.31062424100E+00 -0.24011938273E+01 -0.26889252078E+00  0.24360875732E+01  0.51100000000E-03 0. -1.
        -11    1    3    3    0    0  0.19859371468E+02 -0.85733251982E+00  0.17318462584E+02  0.26363967848E+02  0.51100000000E-03 0.  1.
         12    1    3    3    0    0  0.59081683310E+01 -0.74848703182E+01  0.16419037971E+02  0.18987220560E+02  0.00000000000E+00 0. -1.
</event>
<event>
 7    1  0.1634068E-009  0.4778727E+02  0.7816164E-02  0.1312668E+00
        -11   -1    0    0    0    0  0.00000000000E+00  0.00000000000E+00  0.45593999997E+02  0.45594000000E+02  0.51100000000E-03 0.  1.
         11   -1    0    0    0    0 -0.00000000000E+00 -0.00000000000E+00 -0.45593999997E+02  0.45594000000E+02  0.51100000000E-03 0. -1.
    9900012    2    1    2    0    0 -0.33667943391E+02 -0.33679064837E+01  0.27179960777E+02  0.47787268738E+02  0.19999989484E+02 0.  0.
         12    1    1    2    0    0  0.33667943391E+02  0.33679064837E+01 -0.27179960777E+02  0.43400731262E+02  0.00000000000E+00 0. -1.
         11    1    3    3    0    0 -0.26171028146E+02  0.48847475677E+01  0.13125479919E+02  0.29682683443E+02  0.51100000000E-03 0. -1.
        -11    1    3    3    0    0 -0.41965299595E+01 -0.28201616664E+01  0.62003427976E+01  0.80005266448E+01  0.51100000000E-03 0.  1.
         12    1    3    3    0    0 -0.33003852860E+01 -0.54324923850E+01  0.78541380597E+01  0.10104058650E+02  0.00000000000E+00 0. -1.
</event>
<event>
 7    1  0.1634068E-009  0.4778727E+02  0.7816164E-02  0.1312668E+00
        -11   -1    0    0    0    0  0.00000000000E+00  0.00000000000E+00  0.45593999997E+02  0.45594000000E+02  0.51100000000E-03 0.  1.
         11   -1    0    0    0    0 -0.00000000000E+00 -0.00000000000E+00 -0.45593999997E+02  0.45594000000E+02  0.51100000000E-03 0. -1.
    9900012    2    1    2    0    0 -0.31202559895E+02  0.10235121447E+02  0.28377206822E+02  0.47787270489E+02  0.19999997468E+02 0.  0.
         12    1    1    2    0    0  0.31202559895E+02 -0.10235121447E+02 -0.28377206822E+02  0.43400729511E+02  0.00000000000E+00 0. -1.
         11    1    3    3    0    0 -0.28285944537E+02  0.24643444233E+01  0.23590707806E+02  0.36914619690E+02  0.51100000000E-03 0. -1.
        -11    1    3    3    0    0  0.32862339321E+00  0.13593671624E+01  0.32304269743E+01  0.35201606660E+01  0.51100000000E-03 0.  1.
         12    1    3    3    0    0 -0.32452387512E+01  0.64114098611E+01  0.15560720416E+01  0.73524901332E+01  0.00000000000E+00 0. -1.
</event>
<event>
 7    1  0.1634068E-009  0.4778727E+02  0.7816164E-02  0.1312668E+00
        -11   -1    0    0    0    0  0.00000000000E+00  0.00000000000E+00  0.45593999997E+02  0.45594000000E+02  0.51100000000E-03 0.  1.
         11   -1    0    0    0    0 -0.00000000000E+00 -0.00000000000E+00 -0.45593999997E+02  0.45594000000E+02  0.51100000000E-03 0. -1.
    9900012    2    1    2    0    0  0.41045059254E+02  0.53481732037E+01  0.13050803833E+02  0.47787270439E+02  0.19999997238E+02 0.  0.
         12    1    1    2    0    0 -0.41045059254E+02 -0.53481732037E+01 -0.13050803833E+02  0.43400729561E+02  0.00000000000E+00 0. -1.
         11    1    3    3    0    0  0.23732082808E+02  0.99891896318E+01  0.81863840303E+01  0.27018744376E+02  0.51100000000E-03 0. -1.
        -11    1    3    3    0    0  0.18980224639E+01 -0.13871082641E+01  0.44215509759E+01  0.50076613207E+01  0.51100000000E-03 0.  1.
        -12    1    3    3    0    0  0.15414953982E+02 -0.32539081641E+01  0.44286882649E+00  0.15760864742E+02  0.00000000000E+00 0.  1.
</event>
<event>
 7    1  0.1634068E-009  0.4778727E+02  0.7816164E-02  0.1312668E+00
        -11   -1    0    0    0    0  0.00000000000E+00  0.00000000000E+00  0.45593999997E+02  0.45594000000E+02  0.51100000000E-03 0.  1.
         11   -1    0    0    0    0 -0.00000000000E+00 -0.00000000000E+00 -0.45593999997E+02  0.45594000000E+02  0.51100000000E-03 0. -1.
    9900012    2    1    2    0    0 -0.14382905264E+02 -0.70398198029E+01  0.40338521170E+02  0.47787270549E+02  0.19999997740E+02 0.  0.
         12    1    1    2    0    0  0.14382905264E+02  0.70398198029E+01 -0.40338521170E+02  0.43400729451E+02  0.00000000000E+00 0. -1.
         11    1    3    3    0    0 -0.39311404610E+01 -0.11420865486E+02  0.23447881928E+02  0.26375996681E+02  0.51100000000E-03 0. -1.
        -11    1    3    3    0    0 -0.87872431527E+00  0.22068054737E+01  0.69883062211E+00  0.24759869387E+01  0.51100000000E-03 0.  1.
         12    1    3    3    0    0 -0.95730404881E+01  0.21742402095E+01  0.16191808620E+02  0.18935286929E+02  0.00000000000E+00 0. -1.
</event>
<event>
 7    1  0.1634068E-009  0.4778728E+02  0.7816164E-02  0.1312668E+00
        -11   -1    0    0    0    0  0.00000000000E+00  0.00000000000E+00  0.45593999997E+02  0.45594000000E+02  0.51100000000E-03 0. -1.
         11   -1    0    0    0    0 -0.00000000000E+00 -0.00000000000E+00 -0.45593999997E+02  0.45594000000E+02  0.51100000000E-03 0.  1.
    9900012    2    1    2    0    0 -0.26854304618E+02 -0.17485070271E+02 -0.29270137387E+02  0.47787282245E+02  0.20000051070E+02 0.  0.
         12    1    1    2    0    0  0.26854304618E+02  0.17485070271E+02  0.29270137387E+02  0.43400717755E+02  0.00000000000E+00 0. -1.
         11    1    3    3    0    0 -0.13702642057E+02 -0.31638424359E+00 -0.94776115581E+01  0.16663961697E+02  0.51100000000E-03 0. -1.
        -11    1    3    3    0    0 -0.45957118228E+01 -0.10851821798E+01 -0.77015117783E+00  0.47844874981E+01  0.51100000000E-03 0.  1.
        -12    1    3    3    0    0 -0.85559507382E+01 -0.16083503848E+02 -0.19022374652E+02  0.26338833050E+02  0.00000000000E+00 0.  1.
</event>
<event>
 7    1  0.1634068E-009  0.4778727E+02  0.7816164E-02  0.1312668E+00
        -11   -1    0    0    0    0  0.00000000000E+00  0.00000000000E+00  0.45593999997E+02  0.45594000000E+02  0.51100000000E-03 0.  1.
         11   -1    0    0    0    0 -0.00000000000E+00 -0.00000000000E+00 -0.45593999997E+02  0.45594000000E+02  0.51100000000E-03 0. -1.
    9900012    2    1    2    0    0 -0.31992041124E+02  0.27070709196E+02  0.11283128767E+02  0.47787274356E+02  0.20000015100E+02 0.  0.
         12    1    1    2    0    0  0.31992041124E+02 -0.27070709196E+02 -0.11283128767E+02  0.43400725644E+02  0.00000000000E+00 0. -1.
         11    1    3    3    0    0 -0.41715989480E+01  0.20062258102E+01 -0.22540220731E+01  0.51485721857E+01  0.51100000000E-03 0. -1.
        -11    1    3    3    0    0 -0.24522875358E+02  0.27104584211E+02  0.12399526174E+02  0.38597644367E+02  0.51100000000E-03 0.  1.
         12    1    3    3    0    0 -0.32975668176E+01 -0.20401008249E+01  0.11376246657E+01  0.40410578036E+01  0.00000000000E+00 0. -1.
</event>
<event>
 7    1  0.1634068E-009  0.4778727E+02  0.7816164E-02  0.1312668E+00
        -11   -1    0    0    0    0  0.00000000000E+00  0.00000000000E+00  0.45593999997E+02  0.45594000000E+02  0.51100000000E-03 0.  1.
         11   -1    0    0    0    0 -0.00000000000E+00 -0.00000000000E+00 -0.45593999997E+02  0.45594000000E+02  0.51100000000E-03 0. -1.
    9900012    2    1    2    0    0 -0.66507384853E+01 -0.39966926865E+02  0.15557485959E+02  0.47787274951E+02  0.20000017811E+02 0.  0.
         12    1    1    2    0    0  0.66507384853E+01  0.39966926865E+02 -0.15557485959E+02  0.43400725049E+02  0.00000000000E+00 0. -1.
         11    1    3    3    0    0 -0.43714837487E+01 -0.89678019551E+01 -0.39253735080E+01  0.10721002729E+02  0.51100000000E-03 0. -1.
        -11    1    3    3    0    0 -0.14140942924E+01 -0.74104165547E+01  0.73226242343E+01  0.10513551356E+02  0.51100000000E-03 0.  1.
        -12    1    3    3    0    0 -0.86516044417E+00 -0.23588708355E+02  0.12160235233E+02  0.26552720866E+02  0.00000000000E+00 0.  1.
</event>
<event>
 7    1  0.1634068E-009  0.4778727E+02  0.7816164E-02  0.1312668E+00
        -11   -1    0    0    0    0  0.00000000000E+00  0.00000000000E+00  0.45593999997E+02  0.45594000000E+02  0.51100000000E-03 0.  1.
         11   -1    0    0    0    0 -0.00000000000E+00 -0.00000000000E+00 -0.45593999997E+02  0.45594000000E+02  0.51100000000E-03 0. -1.
    9900012    2    1    2    0    0  0.32039757299E+02 -0.21227752124E+00  0.29275110396E+02  0.47787271916E+02  0.20000003972E+02 0.  0.
         12    1    1    2    0    0 -0.32039757299E+02  0.21227752124E+00 -0.29275110396E+02  0.43400728084E+02  0.00000000000E+00 0. -1.
         11    1    3    3    0    0  0.39247752964E+01 -0.51495236220E+01  0.44222239536E+01  0.78407601428E+01  0.51100000000E-03 0. -1.
        -11    1    3    3    0    0  0.11688845055E+02  0.58963839333E+01  0.46550371261E+01  0.13894812454E+02  0.51100000000E-03 0.  1.
         12    1    3    3    0    0  0.16426136948E+02 -0.95913783257E+00  0.20197849316E+02  0.26051699319E+02  0.00000000000E+00 0. -1.
</event>
<event>
 7    1  0.1634068E-009  0.4778727E+02  0.7816164E-02  0.1312668E+00
        -11   -1    0    0    0    0  0.00000000000E+00  0.00000000000E+00  0.45593999997E+02  0.45594000000E+02  0.51100000000E-03 0.  1.
         11   -1    0    0    0    0 -0.00000000000E+00 -0.00000000000E+00 -0.45593999997E+02  0.45594000000E+02  0.51100000000E-03 0. -1.
    9900012    2    1    2    0    0 -0.33334216419E+02  0.24356680772E+02  0.13386763044E+02  0.47787270659E+02  0.19999998244E+02 0.  0.
         12    1    1    2    0    0  0.33334216419E+02 -0.24356680772E+02 -0.13386763044E+02  0.43400729341E+02  0.00000000000E+00 0. -1.
         11    1    3    3    0    0 -0.63719619246E+01  0.31241735310E+01 -0.30118991405E+01  0.77093382150E+01  0.51100000000E-03 0. -1.
        -11    1    3    3    0    0 -0.10958437831E+02  0.30975894305E+01  0.97565781924E+01  0.14995774013E+02  0.51100000000E-03 0.  1.
         12    1    3    3    0    0 -0.16003816664E+02  0.18134917810E+02  0.66420839923E+01  0.25082158431E+02  0.00000000000E+00 0. -1.
</event>
<event>
 7    1  0.1634068E-009  0.4778727E+02  0.7816164E-02  0.1312668E+00
        -11   -1    0    0    0    0  0.00000000000E+00  0.00000000000E+00  0.45593999997E+02  0.45594000000E+02  0.51100000000E-03 0.  1.
         11   -1    0    0    0    0 -0.00000000000E+00 -0.00000000000E+00 -0.45593999997E+02  0.45594000000E+02  0.51100000000E-03 0. -1.
    9900012    2    1    2    0    0 -0.36101548132E+02  0.24072567537E+02  0.90165357482E+00  0.47787271152E+02  0.20000000490E+02 0.  0.
         12    1    1    2    0    0  0.36101548132E+02 -0.24072567537E+02 -0.90165357482E+00  0.43400728848E+02  0.00000000000E+00 0. -1.
         11    1    3    3    0    0  0.10613267598E+01  0.10387153377E+01 -0.24566607440E+01  0.28706316929E+01  0.51100000000E-03 0. -1.
        -11    1    3    3    0    0 -0.16104556726E+02  0.52584752822E+01 -0.12038548132E+01  0.16984038869E+02  0.51100000000E-03 0.  1.
         12    1    3    3    0    0 -0.21058318166E+02  0.17775376917E+02  0.45621691320E+01  0.27932600590E+02  0.00000000000E+00 0. -1.
</event>
<event>
 7    1  0.1634068E-009  0.4778727E+02  0.7816164E-02  0.1312668E+00
        -11   -1    0    0    0    0  0.00000000000E+00  0.00000000000E+00  0.45593999997E+02  0.45594000000E+02  0.51100000000E-03 0. -1.
         11   -1    0    0    0    0 -0.00000000000E+00 -0.00000000000E+00 -0.45593999997E+02  0.45594000000E+02  0.51100000000E-03 0.  1.
    9900012    2    1    2    0    0 -0.17748990095E+02 -0.27748972030E+01 -0.39508183832E+02  0.47787270817E+02  0.19999998963E+02 0.  0.
         12    1    1    2    0    0  0.17748990095E+02  0.27748972030E+01  0.39508183832E+02  0.43400729183E+02  0.00000000000E+00 0. -1.
         11    1    3    3    0    0 -0.21619316114E+01  0.17323332325E+01 -0.84787933243E+01  0.89199138570E+01  0.51100000000E-03 0. -1.
        -11    1    3    3    0    0 -0.86983628102E+01  0.61926354601E+01 -0.14466658849E+02  0.17980391209E+02  0.51100000000E-03 0.  1.
         12    1    3    3    0    0 -0.68886956739E+01 -0.10699865896E+02 -0.16562731659E+02  0.20886965751E+02  0.00000000000E+00 0. -1.
</event>
<event>
 7    1  0.1634068E-009  0.4778728E+02  0.7816164E-02  0.1312668E+00
        -11   -1    0    0    0    0  0.00000000000E+00  0.00000000000E+00  0.45593999997E+02  0.45594000000E+02  0.51100000000E-03 0.  1.
         11   -1    0    0    0    0 -0.00000000000E+00 -0.00000000000E+00 -0.45593999997E+02  0.45594000000E+02  0.51100000000E-03 0. -1.
    9900012    2    1    2    0    0 -0.18199021613E+02 -0.30479591175E+01  0.39282669060E+02  0.47787279603E+02  0.20000039022E+02 0.  0.
         12    1    1    2    0    0  0.18199021613E+02  0.30479591175E+01 -0.39282669060E+02  0.43400720397E+02  0.00000000000E+00 0. -1.
         11    1    3    3    0    0 -0.35848979869E+01  0.25504616866E+01  0.11490893536E+02  0.12304348130E+02  0.51100000000E-03 0. -1.
        -11    1    3    3    0    0 -0.37256306151E+01  0.42132103758E+01  0.15033074039E+02  0.16050694081E+02  0.51100000000E-03 0.  1.
        -12    1    3    3    0    0 -0.10888493011E+02 -0.98116311799E+01  0.12758701485E+02  0.19432237392E+02  0.00000000000E+00 0.  1.
</event>
<event>
 7    1  0.1634068E-009  0.4778727E+02  0.7816164E-02  0.1312668E+00
        -11   -1    0    0    0    0  0.00000000000E+00  0.00000000000E+00  0.45593999997E+02  0.45594000000E+02  0.51100000000E-03 0.  1.
         11   -1    0    0    0    0 -0.00000000000E+00 -0.00000000000E+00 -0.45593999997E+02  0.45594000000E+02  0.51100000000E-03 0. -1.
    9900012    2    1    2    0    0 -0.34072503339E+02  0.14187584596E+02  0.22834186876E+02  0.47787272693E+02  0.20000007517E+02 0.  0.
         12    1    1    2    0    0  0.34072503339E+02 -0.14187584596E+02 -0.22834186876E+02  0.43400727307E+02  0.00000000000E+00 0. -1.
         11    1    3    3    0    0 -0.12907227427E+02  0.42298854011E+00  0.14900254420E+02  0.19717835105E+02  0.51100000000E-03 0. -1.
        -11    1    3    3    0    0 -0.32995973962E+00  0.34180927405E+01 -0.16269486170E+00  0.34378338080E+01  0.51100000000E-03 0.  1.
        -12    1    3    3    0    0 -0.20835316173E+02  0.10346503316E+02  0.80966273172E+01  0.24631603780E+02  0.00000000000E+00 0.  1.
</event>
<event>
 7    1  0.1634068E-009  0.4778726E+02  0.7816164E-02  0.1312668E+00
        -11   -1    0    0    0    0  0.00000000000E+00  0.00000000000E+00  0.45593999997E+02  0.45594000000E+02  0.51100000000E-03 0.  1.
         11   -1    0    0    0    0 -0.00000000000E+00 -0.00000000000E+00 -0.45593999997E+02  0.45594000000E+02  0.51100000000E-03 0. -1.
    9900012    2    1    2    0    0  0.37355658811E+02 -0.11524314118E+02  0.18851227201E+02  0.47787264660E+02  0.19999970892E+02 0.  0.
         12    1    1    2    0    0 -0.37355658811E+02  0.11524314118E+02 -0.18851227201E+02  0.43400735340E+02  0.00000000000E+00 0. -1.
         11    1    3    3    0    0 -0.29972873244E+00 -0.18138908980E+01 -0.11380836905E+01  0.21622377877E+01  0.51100000000E-03 0. -1.
        -11    1    3    3    0    0  0.16749063309E+02  0.18584777315E+01  0.57276657853E+01  0.17798629634E+02  0.51100000000E-03 0.  1.
         12    1    3    3    0    0  0.20906324234E+02 -0.11568900951E+02  0.14261645106E+02  0.27826397239E+02  0.00000000000E+00 0. -1.
</event>
<event>
 7    1  0.1634068E-009  0.4778727E+02  0.7816164E-02  0.1312668E+00
        -11   -1    0    0    0    0  0.00000000000E+00  0.00000000000E+00  0.45593999997E+02  0.45594000000E+02  0.51100000000E-03 0.  1.
         11   -1    0    0    0    0 -0.00000000000E+00 -0.00000000000E+00 -0.45593999997E+02  0.45594000000E+02  0.51100000000E-03 0. -1.
    9900012    2    1    2    0    0 -0.26048614996E+02  0.20599130652E+02  0.27942240281E+02  0.47787270527E+02  0.19999997642E+02 0.  0.
         12    1    1    2    0    0  0.26048614996E+02 -0.20599130652E+02 -0.27942240281E+02  0.43400729473E+02  0.00000000000E+00 0. -1.
         11    1    3    3    0    0 -0.54343009679E+01  0.40726758669E+01 -0.44253928054E+00  0.68054505363E+01  0.51100000000E-03 0.  1.
        -11    1    3    3    0    0 -0.22320174317E+02  0.14983158969E+02  0.27656310999E+02  0.38568857548E+02  0.51100000000E-03 0. -1.
         12    1    3    3    0    0  0.17058602891E+01  0.15432958165E+01  0.72846856231E+00  0.24129624426E+01  0.00000000000E+00 0. -1.
</event>
<event>
 7    1  0.1634068E-009  0.4778727E+02  0.7816164E-02  0.1312668E+00
        -11   -1    0    0    0    0  0.00000000000E+00  0.00000000000E+00  0.45593999997E+02  0.45594000000E+02  0.51100000000E-03 0.  1.
         11   -1    0    0    0    0 -0.00000000000E+00 -0.00000000000E+00 -0.45593999997E+02  0.45594000000E+02  0.51100000000E-03 0. -1.
    9900012    2    1    2    0    0  0.33753919460E+02 -0.38671386937E+01  0.27006326812E+02  0.47787268112E+02  0.19999986628E+02 0.  0.
         12    1    1    2    0    0 -0.33753919460E+02  0.38671386937E+01 -0.27006326812E+02  0.43400731888E+02  0.00000000000E+00 0. -1.
         11    1    3    3    0    0  0.12188163258E+02 -0.11010664310E+02  0.10020502520E+02  0.19240491761E+02  0.51100000000E-03 0.  1.
        -11    1    3    3    0    0  0.91818596104E+01  0.43330269924E+01  0.62873619288E+01  0.11942051294E+02  0.51100000000E-03 0. -1.
        -12    1    3    3    0    0  0.12383896591E+02  0.28104986244E+01  0.10698462363E+02  0.16604725057E+02  0.00000000000E+00 0.  1.
</event>
<event>
 7    1  0.1634068E-009  0.4778727E+02  0.7816164E-02  0.1312668E+00
        -11   -1    0    0    0    0  0.00000000000E+00  0.00000000000E+00  0.45593999997E+02  0.45594000000E+02  0.51100000000E-03 0. -1.
         11   -1    0    0    0    0 -0.00000000000E+00 -0.00000000000E+00 -0.45593999997E+02  0.45594000000E+02  0.51100000000E-03 0.  1.
    9900012    2    1    2    0    0  0.27405468937E+01  0.39088971528E+02 -0.18659181324E+02  0.47787270282E+02  0.19999996524E+02 0.  0.
         12    1    1    2    0    0 -0.27405468937E+01 -0.39088971528E+02  0.18659181324E+02  0.43400729718E+02  0.00000000000E+00 0. -1.
         11    1    3    3    0    0 -0.58158846363E+01  0.31173814261E+01 -0.29210364575E+01  0.72163034378E+01  0.51100000000E-03 0. -1.
        -11    1    3    3    0    0  0.26452210105E+00  0.82072484539E+01 -0.17533479278E+01  0.83966140999E+01  0.51100000000E-03 0.  1.
         12    1    3    3    0    0  0.82919094290E+01  0.27764341648E+02 -0.13984796939E+02  0.32174352744E+02  0.00000000000E+00 0. -1.
</event>
<event>
 7    1  0.1634068E-009  0.4778729E+02  0.7816164E-02  0.1312668E+00
        -11   -1    0    0    0    0  0.00000000000E+00  0.00000000000E+00  0.45593999997E+02  0.45594000000E+02  0.51100000000E-03 0. -1.
         11   -1    0    0    0    0 -0.00000000000E+00 -0.00000000000E+00 -0.45593999997E+02  0.45594000000E+02  0.51100000000E-03 0.  1.
    9900012    2    1    2    0    0 -0.20097958118E+02 -0.35841882700E+02 -0.13966149515E+02  0.47787287929E+02  0.20000076982E+02 0.  0.
         12    1    1    2    0    0  0.20097958118E+02  0.35841882700E+02  0.13966149515E+02  0.43400712071E+02  0.00000000000E+00 0. -1.
         11    1    3    3    0    0 -0.16789036412E+02 -0.25166933932E+02 -0.12163243201E+02  0.32606606579E+02  0.51100000000E-03 0. -1.
        -11    1    3    3    0    0 -0.47861968997E+01 -0.19357410331E+01 -0.33902789142E+01  0.61764686907E+01  0.51100000000E-03 0.  1.
         12    1    3    3    0    0  0.14772751932E+01 -0.87392077352E+01  0.15873726001E+01  0.90042126589E+01  0.00000000000E+00 0. -1.
</event>
<event>
 7    1  0.1634068E-009  0.4778728E+02  0.7816164E-02  0.1312668E+00
        -11   -1    0    0    0    0  0.00000000000E+00  0.00000000000E+00  0.45593999997E+02  0.45594000000E+02  0.51100000000E-03 0.  1.
         11   -1    0    0    0    0 -0.00000000000E+00 -0.00000000000E+00 -0.45593999997E+02  0.45594000000E+02  0.51100000000E-03 0. -1.
    9900012    2    1    2    0    0 -0.12938892029E+01 -0.24224497944E+02  0.35987809746E+02  0.47787275349E+02  0.20000019624E+02 0.  0.
         12    1    1    2    0    0  0.12938892029E+01  0.24224497944E+02 -0.35987809746E+02  0.43400724651E+02  0.00000000000E+00 0. -1.
         11    1    3    3    0    0  0.71576958134E+00 -0.83196251015E+01  0.17649681676E+02  0.19525361750E+02  0.51100000000E-03 0. -1.
        -11    1    3    3    0    0  0.49903484117E+01 -0.80717762527E+01  0.13961937966E+02  0.16881731581E+02  0.51100000000E-03 0.  1.
         12    1    3    3    0    0 -0.70000071959E+01 -0.78330965901E+01  0.43761901041E+01  0.11380182018E+02  0.00000000000E+00 0. -1.
</event>
<event>
 7    1  0.1634068E-009  0.4778728E+02  0.7816164E-02  0.1312668E+00
        -11   -1    0    0    0    0  0.00000000000E+00  0.00000000000E+00  0.45593999997E+02  0.45594000000E+02  0.51100000000E-03 0.  1.
         11   -1    0    0    0    0 -0.00000000000E+00 -0.00000000000E+00 -0.45593999997E+02  0.45594000000E+02  0.51100000000E-03 0. -1.
    9900012    2    1    2    0    0 -0.29824961733E+02 -0.12095309516E+02  0.29116966743E+02  0.47787278727E+02  0.20000035028E+02 0.  0.
         12    1    1    2    0    0  0.29824961733E+02  0.12095309516E+02 -0.29116966743E+02  0.43400721273E+02  0.00000000000E+00 0. -1.
         11    1    3    3    0    0 -0.85241565321E+01 -0.99715808426E+00  0.19302707921E+02  0.21124632593E+02  0.51100000000E-03 0. -1.
        -11    1    3    3    0    0 -0.37360746130E+01 -0.40327882784E+01  0.41908606676E+01  0.69126657816E+01  0.51100000000E-03 0.  1.
        -12    1    3    3    0    0 -0.17564730588E+02 -0.70653631532E+01  0.56233981544E+01  0.19749980353E+02  0.00000000000E+00 0.  1.
</event>
<event>
 7    1  0.1634068E-009  0.4778727E+02  0.7816164E-02  0.1312668E+00
        -11   -1    0    0    0    0  0.00000000000E+00  0.00000000000E+00  0.45593999997E+02  0.45594000000E+02  0.51100000000E-03 0.  1.
         11   -1    0    0    0    0 -0.00000000000E+00 -0.00000000000E+00 -0.45593999997E+02  0.45594000000E+02  0.51100000000E-03 0. -1.
    9900012    2    1    2    0    0 -0.33676518368E+02 -0.10891786191E+02  0.25117405501E+02  0.47787274719E+02  0.20000016754E+02 0.  0.
         12    1    1    2    0    0  0.33676518368E+02  0.10891786191E+02 -0.25117405501E+02  0.43400725281E+02  0.00000000000E+00 0. -1.
         11    1    3    3    0    0 -0.18811408401E+02 -0.16674061748E+01  0.16208653739E+02  0.24887140970E+02  0.51100000000E-03 0. -1.
        -11    1    3    3    0    0 -0.90871105625E+01 -0.10123481204E+02  0.10086580724E+02  0.16935157543E+02  0.51100000000E-03 0.  1.
         12    1    3    3    0    0 -0.57779994046E+01  0.89910118771E+00 -0.11778289620E+01  0.59649762053E+01  0.00000000000E+00 0. -1.
</event>
<event>
 7    1  0.1634068E-009  0.4778728E+02  0.7816164E-02  0.1312668E+00
        -11   -1    0    0    0    0  0.00000000000E+00  0.00000000000E+00  0.45593999997E+02  0.45594000000E+02  0.51100000000E-03 0.  1.
         11   -1    0    0    0    0 -0.00000000000E+00 -0.00000000000E+00 -0.45593999997E+02  0.45594000000E+02  0.51100000000E-03 0. -1.
    9900012    2    1    2    0    0  0.50900758454E+01 -0.23754702124E+02  0.35964262097E+02  0.47787275429E+02  0.20000019991E+02 0.  0.
         12    1    1    2    0    0 -0.50900758454E+01  0.23754702124E+02 -0.35964262097E+02  0.43400724571E+02  0.00000000000E+00 0. -1.
         11    1    3    3    0    0 -0.32340687105E+01 -0.11449900194E+02  0.16040359502E+02  0.19971293100E+02  0.51100000000E-03 0. -1.
        -11    1    3    3    0    0  0.15089910147E+01 -0.12050338475E+02  0.97808461071E+01  0.15593353138E+02  0.51100000000E-03 0.  1.
         12    1    3    3    0    0  0.68151535412E+01 -0.25446345541E+00  0.10143056487E+02  0.12222629191E+02  0.00000000000E+00 0. -1.
</event>
<event>
 7    1  0.1634068E-009  0.4778727E+02  0.7816164E-02  0.1312668E+00
        -11   -1    0    0    0    0  0.00000000000E+00  0.00000000000E+00  0.45593999997E+02  0.45594000000E+02  0.51100000000E-03 0. -1.
         11   -1    0    0    0    0 -0.00000000000E+00 -0.00000000000E+00 -0.45593999997E+02  0.45594000000E+02  0.51100000000E-03 0.  1.
    9900012    2    1    2    0    0  0.10738629434E+02 -0.33954426279E+02  0.24807302506E+02  0.47787268627E+02  0.19999988978E+02 0.  0.
         12    1    1    2    0    0 -0.10738629434E+02  0.33954426279E+02 -0.24807302506E+02  0.43400731373E+02  0.00000000000E+00 0. -1.
         11    1    3    3    0    0  0.13666390730E+01 -0.80099718025E+01  0.12925601657E+02  0.15267564609E+02  0.51100000000E-03 0. -1.
        -11    1    3    3    0    0 -0.12218261356E+00 -0.14861962161E+01 -0.22654542063E+01  0.27121929883E+01  0.51100000000E-03 0.  1.
        -12    1    3    3    0    0  0.94941729747E+01 -0.24458258261E+02  0.14147155056E+02  0.29807511030E+02  0.00000000000E+00 0.  1.
</event>
<event>
 7    1  0.1634068E-009  0.4778727E+02  0.7816164E-02  0.1312668E+00
        -11   -1    0    0    0    0  0.00000000000E+00  0.00000000000E+00  0.45593999997E+02  0.45594000000E+02  0.51100000000E-03 0.  1.
         11   -1    0    0    0    0 -0.00000000000E+00 -0.00000000000E+00 -0.45593999997E+02  0.45594000000E+02  0.51100000000E-03 0. -1.
    9900012    2    1    2    0    0  0.32526042380E+02 -0.17040949080E+02  0.23136244138E+02  0.47787272227E+02  0.20000005390E+02 0.  0.
         12    1    1    2    0    0 -0.32526042380E+02  0.17040949080E+02 -0.23136244138E+02  0.43400727773E+02  0.00000000000E+00 0. -1.
         11    1    3    3    0    0  0.56430804907E+01 -0.55158503776E+01  0.53485667725E+01  0.95328972298E+01  0.51100000000E-03 0. -1.
        -11    1    3    3    0    0  0.17776671506E+02 -0.14041308603E+02  0.17795103578E+02  0.28806841353E+02  0.51100000000E-03 0.  1.
         12    1    3    3    0    0  0.91062903831E+01  0.25162099006E+01 -0.74262122519E-02  0.94475336440E+01  0.00000000000E+00 0. -1.
</event>
<event>
 7    1  0.1634068E-009  0.4778727E+02  0.7816164E-02  0.1312668E+00
        -11   -1    0    0    0    0  0.00000000000E+00  0.00000000000E+00  0.45593999997E+02  0.45594000000E+02  0.51100000000E-03 0.  1.
         11   -1    0    0    0    0 -0.00000000000E+00 -0.00000000000E+00 -0.45593999997E+02  0.45594000000E+02  0.51100000000E-03 0. -1.
    9900012    2    1    2    0    0 -0.28742312708E+02  0.26276649909E+01  0.32412931534E+02  0.47787270816E+02  0.19999998959E+02 0.  0.
         12    1    1    2    0    0  0.28742312708E+02 -0.26276649909E+01 -0.32412931534E+02  0.43400729184E+02  0.00000000000E+00 0. -1.
         11    1    3    3    0    0 -0.99223256367E+01  0.44503764942E-01  0.34887565586E+01  0.10517887108E+02  0.51100000000E-03 0. -1.
        -11    1    3    3    0    0 -0.34878674838E+01 -0.46725586886E+01  0.11823316653E+02  0.13182899576E+02  0.51100000000E-03 0.  1.
        -12    1    3    3    0    0 -0.15332119587E+02  0.72557199146E+01  0.17100858322E+02  0.24086484132E+02  0.00000000000E+00 0.  1.
</event>
<event>
 7    1  0.1785284E-009  0.4778726E+02  0.7816164E-02  0.1312668E+00
        -11   -1    0    0    0    0  0.00000000000E+00  0.00000000000E+00  0.45593999997E+02  0.45594000000E+02  0.51100000000E-03 0.  1.
         11   -1    0    0    0    0 -0.00000000000E+00 -0.00000000000E+00 -0.45593999997E+02  0.45594000000E+02  0.51100000000E-03 0. -1.
    9900012    2    1    2    0    0  0.36809127017E+02  0.15707631615E+02  0.16792330247E+02  0.47787264087E+02  0.19999968276E+02 0.  0.
         12    1    1    2    0    0 -0.36809127017E+02 -0.15707631615E+02 -0.16792330247E+02  0.43400735913E+02  0.00000000000E+00 0. -1.
         11    1    3    3    0    0  0.30736186294E+01 -0.24521837191E+01 -0.17036468899E+00  0.39356525329E+01  0.51100000000E-03 0. -1.
        -11    1    3    3    0    0  0.30523885248E+02  0.10985060151E+02  0.12188125639E+02  0.34654430077E+02  0.51100000000E-03 0.  1.
         12    1    3    3    0    0  0.32116231396E+01  0.71747551835E+01  0.47745692970E+01  0.91971814762E+01  0.00000000000E+00 0. -1.
</event>
<event>
 7    1  0.4091473E-009  0.4778727E+02  0.7816164E-02  0.1312668E+00
        -11   -1    0    0    0    0  0.00000000000E+00  0.00000000000E+00  0.45593999997E+02  0.45594000000E+02  0.51100000000E-03 0. -1.
         11   -1    0    0    0    0 -0.00000000000E+00 -0.00000000000E+00 -0.45593999997E+02  0.45594000000E+02  0.51100000000E-03 0.  1.
    9900012    2    1    2    0    0 -0.22382501355E+02 -0.35463333693E+01 -0.37014459575E+02  0.47787273452E+02  0.20000010976E+02 0.  0.
         12    1    1    2    0    0  0.22382501355E+02  0.35463333693E+01  0.37014459575E+02  0.43400726548E+02  0.00000000000E+00 0. -1.
         11    1    3    3    0    0 -0.66653968189E+01 -0.27773996336E+01 -0.26976003794E+01  0.77083403885E+01  0.51100000000E-03 0. -1.
        -11    1    3    3    0    0 -0.10955228580E+01 -0.39421874916E+01 -0.15541868039E+02  0.16071424173E+02  0.51100000000E-03 0.  1.
        -12    1    3    3    0    0 -0.14621581678E+02  0.31732537559E+01 -0.18774991157E+02  0.24007508890E+02  0.00000000000E+00 0.  1.
</event>
<event>
 7    1  0.1634068E-009  0.4778727E+02  0.7816164E-02  0.1312668E+00
        -11   -1    0    0    0    0  0.00000000000E+00  0.00000000000E+00  0.45593999997E+02  0.45594000000E+02  0.51100000000E-03 0.  1.
         11   -1    0    0    0    0 -0.00000000000E+00 -0.00000000000E+00 -0.45593999997E+02  0.45594000000E+02  0.51100000000E-03 0. -1.
    9900012    2    1    2    0    0 -0.20395636211E+01  0.17960254552E+02  0.39457482804E+02  0.47787268295E+02  0.19999987462E+02 0.  0.
         12    1    1    2    0    0  0.20395636211E+01 -0.17960254552E+02 -0.39457482804E+02  0.43400731705E+02  0.00000000000E+00 0. -1.
         11    1    3    3    0    0  0.36416233627E+01  0.31221001671E+01  0.11178388394E+02  0.12164098714E+02  0.51100000000E-03 0. -1.
        -11    1    3    3    0    0  0.24587395155E+01  0.10313554757E+01  0.13698869437E+02  0.13955934875E+02  0.51100000000E-03 0.  1.
         12    1    3    3    0    0 -0.81399264992E+01  0.13806798909E+02  0.14580224973E+02  0.21667234706E+02  0.00000000000E+00 0. -1.
</event>
<event>
 7    1  0.1634068E-009  0.4778727E+02  0.7816164E-02  0.1312668E+00
        -11   -1    0    0    0    0  0.00000000000E+00  0.00000000000E+00  0.45593999997E+02  0.45594000000E+02  0.51100000000E-03 0.  1.
         11   -1    0    0    0    0 -0.00000000000E+00 -0.00000000000E+00 -0.45593999997E+02  0.45594000000E+02  0.51100000000E-03 0. -1.
    9900012    2    1    2    0    0 -0.21127347986E+02  0.97649358469E+01  0.36632015173E+02  0.47787270275E+02  0.19999996493E+02 0.  0.
         12    1    1    2    0    0  0.21127347986E+02 -0.97649358469E+01 -0.36632015173E+02  0.43400729725E+02  0.00000000000E+00 0. -1.
         11    1    3    3    0    0 -0.24088935610E+01 -0.40613128463E+01  0.16053232520E+01  0.49873934303E+01  0.51100000000E-03 0. -1.
        -11    1    3    3    0    0 -0.10785160165E+02  0.55413065910E+01  0.11923304596E+02  0.17005615286E+02  0.51100000000E-03 0.  1.
         12    1    3    3    0    0 -0.79332942599E+01  0.82849421023E+01  0.23103387325E+02  0.25794261558E+02  0.00000000000E+00 0. -1.
</event>
<event>
 7    1  0.1634068E-009  0.4778727E+02  0.7816164E-02  0.1312668E+00
        -11   -1    0    0    0    0  0.00000000000E+00  0.00000000000E+00  0.45593999997E+02  0.45594000000E+02  0.51100000000E-03 0. -1.
         11   -1    0    0    0    0 -0.00000000000E+00 -0.00000000000E+00 -0.45593999997E+02  0.45594000000E+02  0.51100000000E-03 0.  1.
    9900012    2    1    2    0    0 -0.11979184790E+02 -0.30171503029E+02 -0.28806304030E+02  0.47787267113E+02  0.19999982074E+02 0.  0.
         12    1    1    2    0    0  0.11979184790E+02  0.30171503029E+02  0.28806304030E+02  0.43400732887E+02  0.00000000000E+00 0. -1.
         11    1    3    3    0    0 -0.34030099765E+01 -0.97740275805E+01 -0.26964991689E+01  0.10695008185E+02  0.51100000000E-03 0. -1.
        -11    1    3    3    0    0 -0.22375777118E+01 -0.66977550259E+00 -0.11509508466E+02  0.11744110806E+02  0.51100000000E-03 0.  1.
        -12    1    3    3    0    0 -0.63385971020E+01 -0.19727699946E+02 -0.14600296395E+02  0.25348148122E+02  0.00000000000E+00 0.  1.
</event>
<event>
 7    1  0.1634068E-009  0.4778727E+02  0.7816164E-02  0.1312668E+00
        -11   -1    0    0    0    0  0.00000000000E+00  0.00000000000E+00  0.45593999997E+02  0.45594000000E+02  0.51100000000E-03 0. -1.
         11   -1    0    0    0    0 -0.00000000000E+00 -0.00000000000E+00 -0.45593999997E+02  0.45594000000E+02  0.51100000000E-03 0.  1.
    9900012    2    1    2    0    0 -0.38766211534E+02  0.18826273136E+02 -0.51356827196E+01  0.47787274730E+02  0.20000016806E+02 0.  0.
         12    1    1    2    0    0  0.38766211534E+02 -0.18826273136E+02  0.51356827196E+01  0.43400725270E+02  0.00000000000E+00 0. -1.
         11    1    3    3    0    0 -0.20544494471E+01  0.87981598175E+01 -0.42618096249E-01  0.90349430141E+01  0.51100000000E-03 0. -1.
        -11    1    3    3    0    0 -0.16892968049E+02  0.25439983075E+01 -0.39647308619E+01  0.17537485224E+02  0.51100000000E-03 0.  1.
         12    1    3    3    0    0 -0.19818794038E+02  0.74841150112E+01 -0.11283337614E+01  0.21214846493E+02  0.00000000000E+00 0. -1.
</event>
<event>
 7    1  0.1634068E-009  0.4778727E+02  0.7816164E-02  0.1312668E+00
        -11   -1    0    0    0    0  0.00000000000E+00  0.00000000000E+00  0.45593999997E+02  0.45594000000E+02  0.51100000000E-03 0. -1.
         11   -1    0    0    0    0 -0.00000000000E+00 -0.00000000000E+00 -0.45593999997E+02  0.45594000000E+02  0.51100000000E-03 0.  1.
    9900012    2    1    2    0    0  0.16874884209E+02 -0.38409910929E+02  0.11114863677E+02  0.47787272250E+02  0.20000005497E+02 0.  0.
         12    1    1    2    0    0 -0.16874884209E+02  0.38409910929E+02 -0.11114863677E+02  0.43400727750E+02  0.00000000000E+00 0. -1.
         11    1    3    3    0    0  0.63274650015E+01 -0.76350382097E+01  0.38761378291E+01  0.10646833639E+02  0.51100000000E-03 0. -1.
        -11    1    3    3    0    0 -0.31116891486E+01 -0.15714029065E+02  0.19950843017E+01  0.16142914249E+02  0.51100000000E-03 0.  1.
        -12    1    3    3    0    0  0.13659108356E+02 -0.15060843654E+02  0.52436415466E+01  0.20997524362E+02  0.00000000000E+00 0.  1.
</event>
<event>
 7    1  0.1634068E-009  0.4778727E+02  0.7816164E-02  0.1312668E+00
        -11   -1    0    0    0    0  0.00000000000E+00  0.00000000000E+00  0.45593999997E+02  0.45594000000E+02  0.51100000000E-03 0.  1.
         11   -1    0    0    0    0 -0.00000000000E+00 -0.00000000000E+00 -0.45593999997E+02  0.45594000000E+02  0.51100000000E-03 0. -1.
    9900012    2    1    2    0    0 -0.27978712419E+02 -0.11850259464E+02  0.30990098963E+02  0.47787271530E+02  0.20000002215E+02 0.  0.
         12    1    1    2    0    0  0.27978712419E+02  0.11850259464E+02 -0.30990098963E+02  0.43400728470E+02  0.00000000000E+00 0. -1.
         11    1    3    3    0    0 -0.23616788645E+01  0.28255928689E+01  0.65851615749E+01  0.75449224879E+01  0.51100000000E-03 0. -1.
        -11    1    3    3    0    0 -0.11885343448E+02 -0.94841160431E+01  0.19576974823E+02  0.24788460813E+02  0.51100000000E-03 0.  1.
         12    1    3    3    0    0 -0.13731690106E+02 -0.51917362897E+01  0.48279625654E+01  0.15453888230E+02  0.00000000000E+00 0. -1.
</event>
<event>
 7    1  0.1634068E-009  0.4778727E+02  0.7816164E-02  0.1312668E+00
        -11   -1    0    0    0    0  0.00000000000E+00  0.00000000000E+00  0.45593999997E+02  0.45594000000E+02  0.51100000000E-03 0.  1.
         11   -1    0    0    0    0 -0.00000000000E+00 -0.00000000000E+00 -0.45593999997E+02  0.45594000000E+02  0.51100000000E-03 0. -1.
    9900012    2    1    2    0    0  0.75511777337E+01 -0.42682724954E+02  0.21881462283E+01  0.47787270990E+02  0.19999999753E+02 0.  0.
         12    1    1    2    0    0 -0.75511777337E+01  0.42682724954E+02 -0.21881462283E+01  0.43400729010E+02  0.00000000000E+00 0. -1.
         11    1    3    3    0    0 -0.41535456284E+00  0.77091087822E+00  0.12209708668E+01  0.15025289061E+01  0.51100000000E-03 0. -1.
        -11    1    3    3    0    0  0.27134032748E+01 -0.19651437028E+01 -0.27023720560E+01  0.43043190047E+01  0.51100000000E-03 0.  1.
        -12    1    3    3    0    0  0.52531290218E+01 -0.41488492129E+02  0.36695474175E+01  0.41980423080E+02  0.00000000000E+00 0.  1.
</event>
<event>
 7    1  0.1634068E-009  0.4778727E+02  0.7816164E-02  0.1312668E+00
        -11   -1    0    0    0    0  0.00000000000E+00  0.00000000000E+00  0.45593999997E+02  0.45594000000E+02  0.51100000000E-03 0.  1.
         11   -1    0    0    0    0 -0.00000000000E+00 -0.00000000000E+00 -0.45593999997E+02  0.45594000000E+02  0.51100000000E-03 0. -1.
    9900012    2    1    2    0    0 -0.32417186761E+02 -0.66752433948E+01  0.28074730103E+02  0.47787270257E+02  0.19999996409E+02 0.  0.
         12    1    1    2    0    0  0.32417186761E+02  0.66752433948E+01 -0.28074730103E+02  0.43400729743E+02  0.00000000000E+00 0. -1.
         11    1    3    3    0    0 -0.17133268717E+01  0.61086239039E+00  0.64351244506E+01  0.66872616806E+01  0.51100000000E-03 0.  1.
        -11    1    3    3    0    0 -0.19634392993E+02  0.52743656613E-02  0.58564500472E+01  0.20489202606E+02  0.51100000000E-03 0. -1.
        -12    1    3    3    0    0 -0.11069466896E+02 -0.72913801508E+01  0.15783155605E+02  0.20610805970E+02  0.00000000000E+00 0.  1.
</event>
<event>
 7    1  0.1634068E-009  0.4778726E+02  0.7816164E-02  0.1312668E+00
        -11   -1    0    0    0    0  0.00000000000E+00  0.00000000000E+00  0.45593999997E+02  0.45594000000E+02  0.51100000000E-03 0.  1.
         11   -1    0    0    0    0 -0.00000000000E+00 -0.00000000000E+00 -0.45593999997E+02  0.45594000000E+02  0.51100000000E-03 0. -1.
    9900012    2    1    2    0    0 -0.29262081768E+02 -0.32017260304E+02 -0.15000608943E+01  0.47787256118E+02  0.19999931944E+02 0.  0.
         12    1    1    2    0    0  0.29262081768E+02  0.32017260304E+02  0.15000608943E+01  0.43400743882E+02  0.00000000000E+00 0. -1.
         11    1    3    3    0    0 -0.57371362884E+01 -0.65938354340E+00  0.67858925877E+00  0.58146369699E+01  0.51100000000E-03 0. -1.
        -11    1    3    3    0    0 -0.23531422218E+02 -0.28394203850E+02  0.19050937753E+01  0.36926792799E+02  0.51100000000E-03 0.  1.
         12    1    3    3    0    0  0.64767378268E-02 -0.29636729115E+01 -0.40837439284E+01  0.50458263493E+01  0.00000000000E+00 0. -1.
</event>
<event>
 7    1  0.1634068E-009  0.4778727E+02  0.7816164E-02  0.1312668E+00
        -11   -1    0    0    0    0  0.00000000000E+00  0.00000000000E+00  0.45593999997E+02  0.45594000000E+02  0.51100000000E-03 0. -1.
         11   -1    0    0    0    0 -0.00000000000E+00 -0.00000000000E+00 -0.45593999997E+02  0.45594000000E+02  0.51100000000E-03 0.  1.
    9900012    2    1    2    0    0 -0.25404189960E+02  0.10377723478E+02 -0.33623698413E+02  0.47787272966E+02  0.20000008761E+02 0.  0.
         12    1    1    2    0    0  0.25404189960E+02 -0.10377723478E+02  0.33623698413E+02  0.43400727034E+02  0.00000000000E+00 0. -1.
         11    1    3    3    0    0 -0.61329960431E+01  0.25439578222E+01 -0.11882885800E+02  0.13612065863E+02  0.51100000000E-03 0. -1.
        -11    1    3    3    0    0 -0.10608512261E+02  0.93115209279E+01 -0.44854003590E+01  0.14810934171E+02  0.51100000000E-03 0.  1.
         12    1    3    3    0    0 -0.86626816560E+01 -0.14777552718E+01 -0.17255412254E+02  0.19364272932E+02  0.00000000000E+00 0. -1.
</event>
<event>
 7    1  0.1634068E-009  0.4778727E+02  0.7816164E-02  0.1312668E+00
        -11   -1    0    0    0    0  0.00000000000E+00  0.00000000000E+00  0.45593999997E+02  0.45594000000E+02  0.51100000000E-03 0. -1.
         11   -1    0    0    0    0 -0.00000000000E+00 -0.00000000000E+00 -0.45593999997E+02  0.45594000000E+02  0.51100000000E-03 0.  1.
    9900012    2    1    2    0    0 -0.15819845346E+02 -0.39912515182E+02 -0.63518977505E+01  0.47787274430E+02  0.20000015437E+02 0.  0.
         12    1    1    2    0    0  0.15819845346E+02  0.39912515182E+02  0.63518977505E+01  0.43400725570E+02  0.00000000000E+00 0. -1.
         11    1    3    3    0    0  0.10079129619E+00 -0.79979203440E+01  0.13499067790E+01  0.81116667392E+01  0.51100000000E-03 0.  1.
        -11    1    3    3    0    0 -0.74441581276E+01 -0.32776701050E+01 -0.53126771450E+01  0.97150990862E+01  0.51100000000E-03 0. -1.
         12    1    3    3    0    0 -0.84764785150E+01 -0.28636924733E+02 -0.23891273846E+01  0.29960508605E+02  0.00000000000E+00 0. -1.
</event>
<event>
 7    1  0.1634068E-009  0.4778727E+02  0.7816164E-02  0.1312668E+00
        -11   -1    0    0    0    0  0.00000000000E+00  0.00000000000E+00  0.45593999997E+02  0.45594000000E+02  0.51100000000E-03 0.  1.
         11   -1    0    0    0    0 -0.00000000000E+00 -0.00000000000E+00 -0.45593999997E+02  0.45594000000E+02  0.51100000000E-03 0. -1.
    9900012    2    1    2    0    0 -0.21071632617E+02 -0.67153555847E+01  0.37343187042E+02  0.47787270510E+02  0.19999997564E+02 0.  0.
         12    1    1    2    0    0  0.21071632617E+02  0.67153555847E+01 -0.37343187042E+02  0.43400729490E+02  0.00000000000E+00 0. -1.
         11    1    3    3    0    0 -0.82532174147E+01  0.14871225865E+01  0.10914554197E+02  0.13764251700E+02  0.51100000000E-03 0. -1.
        -11    1    3    3    0    0 -0.11802836625E+02  0.12959876805E+01  0.14599634081E+02  0.18818497603E+02  0.51100000000E-03 0.  1.
         12    1    3    3    0    0 -0.10155785771E+01 -0.94984658517E+01  0.11828998765E+02  0.15204521208E+02  0.00000000000E+00 0. -1.
</event>
<event>
 7    1  0.1634068E-009  0.4778727E+02  0.7816164E-02  0.1312668E+00
        -11   -1    0    0    0    0  0.00000000000E+00  0.00000000000E+00  0.45593999997E+02  0.45594000000E+02  0.51100000000E-03 0.  1.
         11   -1    0    0    0    0 -0.00000000000E+00 -0.00000000000E+00 -0.45593999997E+02  0.45594000000E+02  0.51100000000E-03 0. -1.
    9900012    2    1    2    0    0  0.27874010389E+02  0.21872275400E+02  0.25065236795E+02  0.47787274408E+02  0.20000015335E+02 0.  0.
         12    1    1    2    0    0 -0.27874010389E+02 -0.21872275400E+02 -0.25065236795E+02  0.43400725592E+02  0.00000000000E+00 0. -1.
         11    1    3    3    0    0  0.26942372412E+01 -0.28433162275E+01 -0.39496908230E+00  0.39369229505E+01  0.51100000000E-03 0. -1.
        -11    1    3    3    0    0  0.17562957919E+02  0.14430998729E+02  0.14185963644E+02  0.26794640881E+02  0.51100000000E-03 0.  1.
        -12    1    3    3    0    0  0.76168152283E+01  0.10284592899E+02  0.11274242234E+02  0.17055710576E+02  0.00000000000E+00 0.  1.
</event>
<event>
 7    1  0.1634068E-009  0.4778727E+02  0.7816164E-02  0.1312668E+00
        -11   -1    0    0    0    0  0.00000000000E+00  0.00000000000E+00  0.45593999997E+02  0.45594000000E+02  0.51100000000E-03 0.  1.
         11   -1    0    0    0    0 -0.00000000000E+00 -0.00000000000E+00 -0.45593999997E+02  0.45594000000E+02  0.51100000000E-03 0. -1.
    9900012    2    1    2    0    0  0.11610127213E+02  0.45029432070E+01  0.41575855181E+02  0.47787270911E+02  0.19999999393E+02 0.  0.
         12    1    1    2    0    0 -0.11610127213E+02 -0.45029432070E+01 -0.41575855181E+02  0.43400729089E+02  0.00000000000E+00 0. -1.
         11    1    3    3    0    0 -0.79839753021E+00 -0.24526193884E+01  0.42771135232E+00  0.26145205569E+01  0.51100000000E-03 0. -1.
        -11    1    3    3    0    0  0.74667498882E+01 -0.11995121432E+01  0.27517900058E+02  0.28538150030E+02  0.51100000000E-03 0.  1.
         12    1    3    3    0    0  0.49417748553E+01  0.81550747386E+01  0.13630243770E+02  0.16634600324E+02  0.00000000000E+00 0. -1.
</event>
<event>
 7    1  0.1634068E-009  0.4778727E+02  0.7816164E-02  0.1312668E+00
        -11   -1    0    0    0    0  0.00000000000E+00  0.00000000000E+00  0.45593999997E+02  0.45594000000E+02  0.51100000000E-03 0.  1.
         11   -1    0    0    0    0 -0.00000000000E+00 -0.00000000000E+00 -0.45593999997E+02  0.45594000000E+02  0.51100000000E-03 0. -1.
    9900012    2    1    2    0    0 -0.11619802097E+01 -0.39531257764E+02 -0.17876031692E+02  0.47787273653E+02  0.20000011892E+02 0.  0.
         12    1    1    2    0    0  0.11619802097E+01  0.39531257764E+02  0.17876031692E+02  0.43400726347E+02  0.00000000000E+00 0. -1.
         11    1    3    3    0    0 -0.99606833573E+00 -0.19015197318E+02 -0.12999600521E+02  0.23055574058E+02  0.51100000000E-03 0. -1.
        -11    1    3    3    0    0  0.47141481839E+01 -0.17106923521E+02 -0.13115121914E+01  0.17792978670E+02  0.51100000000E-03 0.  1.
         12    1    3    3    0    0 -0.48800600579E+01 -0.34091369253E+01 -0.35649189797E+01  0.69387209251E+01  0.00000000000E+00 0. -1.
</event>
<event>
 7    1  0.1634068E-009  0.4778727E+02  0.7816164E-02  0.1312668E+00
        -11   -1    0    0    0    0  0.00000000000E+00  0.00000000000E+00  0.45593999997E+02  0.45594000000E+02  0.51100000000E-03 0.  1.
         11   -1    0    0    0    0 -0.00000000000E+00 -0.00000000000E+00 -0.45593999997E+02  0.45594000000E+02  0.51100000000E-03 0. -1.
    9900012    2    1    2    0    0 -0.25465865248E+02  0.10941507408E+01  0.35127138641E+02  0.47787270423E+02  0.19999997168E+02 0.  0.
         12    1    1    2    0    0  0.25465865248E+02 -0.10941507408E+01 -0.35127138641E+02  0.43400729577E+02  0.00000000000E+00 0. -1.
         11    1    3    3    0    0  0.57999220670E+00 -0.29465081491E+01  0.34964613681E+01  0.46090718797E+01  0.51100000000E-03 0. -1.
        -11    1    3    3    0    0 -0.87312788892E+01  0.75937430977E+01  0.14638889513E+02  0.18660044258E+02  0.51100000000E-03 0.  1.
         12    1    3    3    0    0 -0.17314578565E+02 -0.35530842077E+01  0.16991787760E+02  0.24518154286E+02  0.00000000000E+00 0. -1.
</event>
<event>
 7    1  0.1634068E-009  0.4778727E+02  0.7816164E-02  0.1312668E+00
        -11   -1    0    0    0    0  0.00000000000E+00  0.00000000000E+00  0.45593999997E+02  0.45594000000E+02  0.51100000000E-03 0.  1.
         11   -1    0    0    0    0 -0.00000000000E+00 -0.00000000000E+00 -0.45593999997E+02  0.45594000000E+02  0.51100000000E-03 0. -1.
    9900012    2    1    2    0    0 -0.11263180765E+01  0.87851120722E+01  0.42487369115E+02  0.47787270503E+02  0.19999997531E+02 0.  0.
         12    1    1    2    0    0  0.11263180765E+01 -0.87851120722E+01 -0.42487369115E+02  0.43400729497E+02  0.00000000000E+00 0. -1.
         11    1    3    3    0    0 -0.14326345154E+01  0.27447551034E+00 -0.32384361105E-01  0.14590501940E+01  0.51100000000E-03 0. -1.
        -11    1    3    3    0    0  0.45990080518E+01  0.71802167597E+01  0.40523154441E+02  0.41410535300E+02  0.51100000000E-03 0.  1.
        -12    1    3    3    0    0 -0.42926916129E+01  0.13304198021E+01  0.19965990360E+01  0.49176850086E+01  0.00000000000E+00 0.  1.
</event>
<event>
 7    1  0.1634068E-009  0.4778727E+02  0.7816164E-02  0.1312668E+00
        -11   -1    0    0    0    0  0.00000000000E+00  0.00000000000E+00  0.45593999997E+02  0.45594000000E+02  0.51100000000E-03 0.  1.
         11   -1    0    0    0    0 -0.00000000000E+00 -0.00000000000E+00 -0.45593999997E+02  0.45594000000E+02  0.51100000000E-03 0. -1.
    9900012    2    1    2    0    0  0.25740355906E+01 -0.11188255969E+02  0.41854757702E+02  0.47787268749E+02  0.19999989534E+02 0.  0.
         12    1    1    2    0    0 -0.25740355906E+01  0.11188255969E+02 -0.41854757702E+02  0.43400731251E+02  0.00000000000E+00 0. -1.
         11    1    3    3    0    0  0.13182734848E+01 -0.72108145866E+01  0.85038533720E+01  0.11227164131E+02  0.51100000000E-03 0. -1.
        -11    1    3    3    0    0  0.38748788684E+01 -0.33820543668E+01  0.33478372887E+02  0.33871144495E+02  0.51100000000E-03 0.  1.
         12    1    3    3    0    0 -0.26191167626E+01 -0.59538701519E+00 -0.12746855672E+00  0.26889601237E+01  0.00000000000E+00 0. -1.
</event>
<event>
 7    1  0.1634068E-009  0.4778728E+02  0.7816164E-02  0.1312668E+00
        -11   -1    0    0    0    0  0.00000000000E+00  0.00000000000E+00  0.45593999997E+02  0.45594000000E+02  0.51100000000E-03 0. -1.
         11   -1    0    0    0    0 -0.00000000000E+00 -0.00000000000E+00 -0.45593999997E+02  0.45594000000E+02  0.51100000000E-03 0.  1.
    9900012    2    1    2    0    0 -0.77502349911E+01 -0.21307577616E+02 -0.37007344970E+02  0.47787278946E+02  0.20000036026E+02 0.  0.
         12    1    1    2    0    0  0.77502349911E+01  0.21307577616E+02  0.37007344970E+02  0.43400721054E+02  0.00000000000E+00 0. -1.
         11    1    3    3    0    0 -0.80048323570E+01 -0.61787126313E+01 -0.70877791905E+01  0.12348702157E+02  0.51100000000E-03 0. -1.
        -11    1    3    3    0    0 -0.12633787380E+01 -0.16005135765E+02 -0.21469128934E+02  0.26808282193E+02  0.51100000000E-03 0.  1.
         12    1    3    3    0    0  0.15179761040E+01  0.87627078004E+00 -0.84504368460E+01  0.86302945964E+01  0.00000000000E+00 0. -1.
</event>
<event>
 7    1  0.1634068E-009  0.4778728E+02  0.7816164E-02  0.1312668E+00
        -11   -1    0    0    0    0  0.00000000000E+00  0.00000000000E+00  0.45593999997E+02  0.45594000000E+02  0.51100000000E-03 0. -1.
         11   -1    0    0    0    0 -0.00000000000E+00 -0.00000000000E+00 -0.45593999997E+02  0.45594000000E+02  0.51100000000E-03 0.  1.
    9900012    2    1    2    0    0  0.39430342625E+02  0.17921947374E+02 -0.27702978836E+01  0.47787278029E+02  0.20000031847E+02 0.  0.
         12    1    1    2    0    0 -0.39430342625E+02 -0.17921947374E+02  0.27702978836E+01  0.43400721971E+02  0.00000000000E+00 0. -1.
         11    1    3    3    0    0  0.23119630099E+01  0.42850861471E+01  0.87646948256E+00  0.49472553261E+01  0.51100000000E-03 0. -1.
        -11    1    3    3    0    0  0.32510378757E+02  0.51666266238E+01 -0.14492662022E+01  0.32950252357E+02  0.51100000000E-03 0.  1.
        -12    1    3    3    0    0  0.46080008586E+01  0.84702346029E+01 -0.21975011640E+01  0.98897703465E+01  0.00000000000E+00 0.  1.
</event>
<event>
 7    1  0.1634068E-009  0.4778727E+02  0.7816164E-02  0.1312668E+00
        -11   -1    0    0    0    0  0.00000000000E+00  0.00000000000E+00  0.45593999997E+02  0.45594000000E+02  0.51100000000E-03 0.  1.
         11   -1    0    0    0    0 -0.00000000000E+00 -0.00000000000E+00 -0.45593999997E+02  0.45594000000E+02  0.51100000000E-03 0. -1.
    9900012    2    1    2    0    0  0.63700512921E+01 -0.35996510008E+02  0.23394382955E+02  0.47787269130E+02  0.19999991270E+02 0.  0.
         12    1    1    2    0    0 -0.63700512921E+01  0.35996510008E+02 -0.23394382955E+02  0.43400730870E+02  0.00000000000E+00 0. -1.
         11    1    3    3    0    0 -0.35252422229E+01 -0.16565343905E+02  0.77564501264E+01  0.18627948633E+02  0.51100000000E-03 0. -1.
        -11    1    3    3    0    0  0.80558277827E+01 -0.16217748912E+02  0.63984106394E+01  0.19205504420E+02  0.51100000000E-03 0.  1.
         12    1    3    3    0    0  0.18394657322E+01 -0.32134171906E+01  0.92395221891E+01  0.99538160774E+01  0.00000000000E+00 0. -1.
</event>
<event>
 7    1  0.1634068E-009  0.4778726E+02  0.7816164E-02  0.1312668E+00
        -11   -1    0    0    0    0  0.00000000000E+00  0.00000000000E+00  0.45593999997E+02  0.45594000000E+02  0.51100000000E-03 0.  1.
         11   -1    0    0    0    0 -0.00000000000E+00 -0.00000000000E+00 -0.45593999997E+02  0.45594000000E+02  0.51100000000E-03 0. -1.
    9900012    2    1    2    0    0  0.29181550785E+02 -0.14463809200E+02  0.28685525520E+02  0.47787262020E+02  0.19999958854E+02 0.  0.
         12    1    1    2    0    0 -0.29181550785E+02  0.14463809200E+02 -0.28685525520E+02  0.43400737980E+02  0.00000000000E+00 0. -1.
         11    1    3    3    0    0  0.34172654045E+01  0.10785418821E+01 -0.12371120667E+01  0.37909631972E+01  0.51100000000E-03 0. -1.
        -11    1    3    3    0    0  0.15201320261E+02 -0.30410177804E+01  0.17952515677E+02  0.23719627868E+02  0.51100000000E-03 0.  1.
         12    1    3    3    0    0  0.10562965120E+02 -0.12501333302E+02  0.11970121910E+02  0.20276670954E+02  0.00000000000E+00 0. -1.
</event>
<event>
 7    1  0.1634068E-009  0.4778727E+02  0.7816164E-02  0.1312668E+00
        -11   -1    0    0    0    0  0.00000000000E+00  0.00000000000E+00  0.45593999997E+02  0.45594000000E+02  0.51100000000E-03 0.  1.
         11   -1    0    0    0    0 -0.00000000000E+00 -0.00000000000E+00 -0.45593999997E+02  0.45594000000E+02  0.51100000000E-03 0. -1.
    9900012    2    1    2    0    0 -0.32610277881E+02  0.27148117470E+02  0.91199152095E+01  0.47787270063E+02  0.19999995525E+02 0.  0.
         12    1    1    2    0    0  0.32610277881E+02 -0.27148117470E+02 -0.91199152095E+01  0.43400729937E+02  0.00000000000E+00 0. -1.
         11    1    3    3    0    0 -0.30911046552E+01 -0.86061733061E+00 -0.16588178225E+01  0.36121000828E+01  0.51100000000E-03 0. -1.
        -11    1    3    3    0    0 -0.41037035427E+01  0.12388996057E+01  0.53651201226E+01  0.68672970804E+01  0.51100000000E-03 0.  1.
        -12    1    3    3    0    0 -0.25415469683E+02  0.26769835195E+02  0.54136129093E+01  0.37307872900E+02  0.00000000000E+00 0.  1.
</event>
<event>
 7    1  0.1634068E-009  0.4778727E+02  0.7816164E-02  0.1312668E+00
        -11   -1    0    0    0    0  0.00000000000E+00  0.00000000000E+00  0.45593999997E+02  0.45594000000E+02  0.51100000000E-03 0.  1.
         11   -1    0    0    0    0 -0.00000000000E+00 -0.00000000000E+00 -0.45593999997E+02  0.45594000000E+02  0.51100000000E-03 0. -1.
    9900012    2    1    2    0    0 -0.13148518091E+02 -0.14169413651E+02  0.38858302289E+02  0.47787268808E+02  0.19999989803E+02 0.  0.
         12    1    1    2    0    0  0.13148518091E+02  0.14169413651E+02 -0.38858302289E+02  0.43400731192E+02  0.00000000000E+00 0. -1.
         11    1    3    3    0    0  0.29034367928E+01 -0.22950845619E+01  0.67873675801E+01  0.77308290167E+01  0.51100000000E-03 0. -1.
        -11    1    3    3    0    0  0.63532761188E+00 -0.57115546059E+01  0.11534206547E+02  0.12886559592E+02  0.51100000000E-03 0.  1.
         12    1    3    3    0    0 -0.16687282496E+02 -0.61627744830E+01  0.20536728162E+02  0.27169880199E+02  0.00000000000E+00 0. -1.
</event>
<event>
 7    1  0.1634068E-009  0.4778727E+02  0.7816164E-02  0.1312668E+00
        -11   -1    0    0    0    0  0.00000000000E+00  0.00000000000E+00  0.45593999997E+02  0.45594000000E+02  0.51100000000E-03 0.  1.
         11   -1    0    0    0    0 -0.00000000000E+00 -0.00000000000E+00 -0.45593999997E+02  0.45594000000E+02  0.51100000000E-03 0. -1.
    9900012    2    1    2    0    0  0.41660679280E+02  0.65725153771E+01  0.10237836814E+02  0.47787268911E+02  0.19999990273E+02 0.  0.
         12    1    1    2    0    0 -0.41660679280E+02 -0.65725153771E+01 -0.10237836814E+02  0.43400731089E+02  0.00000000000E+00 0. -1.
         11    1    3    3    0    0  0.20519710436E+01  0.10015668024E+01 -0.27585700695E+01  0.35809817526E+01  0.51100000000E-03 0. -1.
        -11    1    3    3    0    0  0.28148044576E+01 -0.16201574168E+01  0.48570571573E+01  0.58428621993E+01  0.51100000000E-03 0.  1.
        -12    1    3    3    0    0  0.36793903778E+02  0.71911059915E+01  0.81393497266E+01  0.38363424959E+02  0.00000000000E+00 0.  1.
</event>
<event>
 7    1  0.1634068E-009  0.4778729E+02  0.7816164E-02  0.1312668E+00
        -11   -1    0    0    0    0  0.00000000000E+00  0.00000000000E+00  0.45593999997E+02  0.45594000000E+02  0.51100000000E-03 0.  1.
         11   -1    0    0    0    0 -0.00000000000E+00 -0.00000000000E+00 -0.45593999997E+02  0.45594000000E+02  0.51100000000E-03 0. -1.
    9900012    2    1    2    0    0 -0.25823309712E+02 -0.12965240639E+02  0.32383345485E+02  0.47787287401E+02  0.20000074575E+02 0.  0.
         12    1    1    2    0    0  0.25823309712E+02  0.12965240639E+02 -0.32383345485E+02  0.43400712599E+02  0.00000000000E+00 0. -1.
         11    1    3    3    0    0  0.53221158877E+00 -0.66499298314E+01  0.31070130986E+01  0.73592354626E+01  0.51100000000E-03 0. -1.
        -11    1    3    3    0    0 -0.10352478991E+02 -0.47721616988E+01  0.88384298118E+01  0.14424464993E+02  0.51100000000E-03 0.  1.
         12    1    3    3    0    0 -0.16003042310E+02 -0.15431491084E+01  0.20437902575E+02  0.26003586945E+02  0.00000000000E+00 0. -1.
</event>
<event>
 7    1  0.1634068E-009  0.4778727E+02  0.7816164E-02  0.1312668E+00
        -11   -1    0    0    0    0  0.00000000000E+00  0.00000000000E+00  0.45593999997E+02  0.45594000000E+02  0.51100000000E-03 0.  1.
         11   -1    0    0    0    0 -0.00000000000E+00 -0.00000000000E+00 -0.45593999997E+02  0.45594000000E+02  0.51100000000E-03 0. -1.
    9900012    2    1    2    0    0 -0.18018159844E+02 -0.16179910883E+02  0.36016379895E+02  0.47787271652E+02  0.20000002772E+02 0.  0.
         12    1    1    2    0    0  0.18018159844E+02  0.16179910883E+02 -0.36016379895E+02  0.43400728348E+02  0.00000000000E+00 0. -1.
         11    1    3    3    0    0 -0.64714311268E+00  0.24656614353E+01  0.35822094467E+01  0.43966470524E+01  0.51100000000E-03 0. -1.
        -11    1    3    3    0    0 -0.15324821436E+02 -0.18007299344E+02  0.20589194504E+02  0.31353275942E+02  0.51100000000E-03 0.  1.
        -12    1    3    3    0    0 -0.20461952956E+01 -0.63827297362E+00  0.11844975945E+02  0.12037348658E+02  0.00000000000E+00 0.  1.
</event>
<event>
 7    1  0.1634068E-009  0.4778727E+02  0.7816164E-02  0.1312668E+00
        -11   -1    0    0    0    0  0.00000000000E+00  0.00000000000E+00  0.45593999997E+02  0.45594000000E+02  0.51100000000E-03 0. -1.
         11   -1    0    0    0    0 -0.00000000000E+00 -0.00000000000E+00 -0.45593999997E+02  0.45594000000E+02  0.51100000000E-03 0.  1.
    9900012    2    1    2    0    0  0.32770940588E+02  0.11773187231E+02 -0.25905223928E+02  0.47787272916E+02  0.20000008535E+02 0.  0.
         12    1    1    2    0    0 -0.32770940588E+02 -0.11773187231E+02  0.25905223928E+02  0.43400727084E+02  0.00000000000E+00 0. -1.
         11    1    3    3    0    0  0.20548860517E+01 -0.17620042646E+01 -0.39081427396E+01  0.47540294118E+01  0.51100000000E-03 0. -1.
        -11    1    3    3    0    0  0.29806487560E+02  0.12603407446E+02 -0.14565411668E+02  0.35488361433E+02  0.51100000000E-03 0.  1.
        -12    1    3    3    0    0  0.90956697687E+00  0.93178404913E+00 -0.74316695211E+01  0.75448820713E+01  0.00000000000E+00 0.  1.
</event>
<event>
 7    1  0.1634068E-009  0.4778727E+02  0.7816164E-02  0.1312668E+00
        -11   -1    0    0    0    0  0.00000000000E+00  0.00000000000E+00  0.45593999997E+02  0.45594000000E+02  0.51100000000E-03 0.  1.
         11   -1    0    0    0    0 -0.00000000000E+00 -0.00000000000E+00 -0.45593999997E+02  0.45594000000E+02  0.51100000000E-03 0. -1.
    9900012    2    1    2    0    0  0.23308263856E+02 -0.24131030662E+02  0.27532553829E+02  0.47787270454E+02  0.19999997307E+02 0.  0.
         12    1    1    2    0    0 -0.23308263856E+02  0.24131030662E+02 -0.27532553829E+02  0.43400729546E+02  0.00000000000E+00 0. -1.
         11    1    3    3    0    0  0.12202140106E+01 -0.72230414936E+01  0.35991402437E+01  0.81618050335E+01  0.51100000000E-03 0. -1.
        -11    1    3    3    0    0  0.23066070390E+02 -0.15579535793E+02  0.17261140901E+02  0.32752290366E+02  0.51100000000E-03 0.  1.
        -12    1    3    3    0    0 -0.97802054420E+00 -0.13284533758E+01  0.66722726843E+01  0.68731750545E+01  0.00000000000E+00 0.  1.
</event>
<event>
 7    1  0.1634068E-009  0.4778727E+02  0.7816164E-02  0.1312668E+00
        -11   -1    0    0    0    0  0.00000000000E+00  0.00000000000E+00  0.45593999997E+02  0.45594000000E+02  0.51100000000E-03 0.  1.
         11   -1    0    0    0    0 -0.00000000000E+00 -0.00000000000E+00 -0.45593999997E+02  0.45594000000E+02  0.51100000000E-03 0. -1.
    9900012    2    1    2    0    0  0.26278919538E+02  0.13613170290E+02  0.31744653135E+02  0.47787273968E+02  0.20000013331E+02 0.  0.
         12    1    1    2    0    0 -0.26278919538E+02 -0.13613170290E+02 -0.31744653135E+02  0.43400726032E+02  0.00000000000E+00 0. -1.
         11    1    3    3    0    0  0.48089962557E+01 -0.99456212905E+00  0.13262519617E+02  0.14142490080E+02  0.51100000000E-03 0. -1.
        -11    1    3    3    0    0  0.16827042770E+01  0.65254044738E+01  0.43345683507E+01  0.80125451811E+01  0.51100000000E-03 0.  1.
         12    1    3    3    0    0  0.19787219005E+02  0.80823279453E+01  0.14147565167E+02  0.25632238707E+02  0.00000000000E+00 0. -1.
</event>
<event>
 7    1  0.1634068E-009  0.4778726E+02  0.7816164E-02  0.1312668E+00
        -11   -1    0    0    0    0  0.00000000000E+00  0.00000000000E+00  0.45593999997E+02  0.45594000000E+02  0.51100000000E-03 0.  1.
         11   -1    0    0    0    0 -0.00000000000E+00 -0.00000000000E+00 -0.45593999997E+02  0.45594000000E+02  0.51100000000E-03 0. -1.
    9900012    2    1    2    0    0 -0.25942468716E+02  0.41742515353E+01  0.34542551329E+02  0.47787263701E+02  0.19999966519E+02 0.  0.
         12    1    1    2    0    0  0.25942468716E+02 -0.41742515353E+01 -0.34542551329E+02  0.43400736299E+02  0.00000000000E+00 0. -1.
         11    1    3    3    0    0 -0.79197350250E+01 -0.59909313331E+01  0.12310030735E+02  0.15816141061E+02  0.51100000000E-03 0. -1.
        -11    1    3    3    0    0 -0.15035595196E+02  0.37128165304E+01  0.17791185121E+02  0.23587717095E+02  0.51100000000E-03 0.  1.
        -12    1    3    3    0    0 -0.29871384944E+01  0.64523663380E+01  0.44413354736E+01  0.83834055451E+01  0.00000000000E+00 0.  1.
</event>
<event>
 7    1  0.1634068E-009  0.4778727E+02  0.7816164E-02  0.1312668E+00
        -11   -1    0    0    0    0  0.00000000000E+00  0.00000000000E+00  0.45593999997E+02  0.45594000000E+02  0.51100000000E-03 0.  1.
         11   -1    0    0    0    0 -0.00000000000E+00 -0.00000000000E+00 -0.45593999997E+02  0.45594000000E+02  0.51100000000E-03 0. -1.
    9900012    2    1    2    0    0 -0.35088588386E+02 -0.17034518414E+02  0.19032586388E+02  0.47787271928E+02  0.20000004029E+02 0.  0.
         12    1    1    2    0    0  0.35088588386E+02  0.17034518414E+02 -0.19032586388E+02  0.43400728072E+02  0.00000000000E+00 0. -1.
         11    1    3    3    0    0 -0.11882027608E+02  0.37622968627E+01  0.41372851311E+01  0.13132196552E+02  0.51100000000E-03 0. -1.
        -11    1    3    3    0    0 -0.28291222432E-02 -0.27277417550E+00  0.31640055541E+00  0.41775989197E+00  0.51100000000E-03 0.  1.
         12    1    3    3    0    0 -0.23203731656E+02 -0.20524041101E+02  0.14578900702E+02  0.34237315484E+02  0.00000000000E+00 0. -1.
</event>
<event>
 7    1  0.1634068E-009  0.4778727E+02  0.7816164E-02  0.1312668E+00
        -11   -1    0    0    0    0  0.00000000000E+00  0.00000000000E+00  0.45593999997E+02  0.45594000000E+02  0.51100000000E-03 0.  1.
         11   -1    0    0    0    0 -0.00000000000E+00 -0.00000000000E+00 -0.45593999997E+02  0.45594000000E+02  0.51100000000E-03 0. -1.
    9900012    2    1    2    0    0 -0.20198152749E+02  0.13711363551E+01  0.38389814936E+02  0.47787270972E+02  0.19999999668E+02 0.  0.
         12    1    1    2    0    0  0.20198152749E+02 -0.13711363551E+01 -0.38389814936E+02  0.43400729028E+02  0.00000000000E+00 0. -1.
         11    1    3    3    0    0 -0.59355111237E+01  0.23243263959E+01  0.10402552277E+02  0.12200240966E+02  0.51100000000E-03 0. -1.
        -11    1    3    3    0    0 -0.13769223468E+02  0.57591987502E+01  0.21962318218E+02  0.26553781405E+02  0.51100000000E-03 0.  1.
         12    1    3    3    0    0 -0.49341815791E+00 -0.67123887910E+01  0.60249444414E+01  0.90332486007E+01  0.00000000000E+00 0. -1.
</event>
<event>
 7    1  0.1634068E-009  0.4778727E+02  0.7816164E-02  0.1312668E+00
        -11   -1    0    0    0    0  0.00000000000E+00  0.00000000000E+00  0.45593999997E+02  0.45594000000E+02  0.51100000000E-03 0. -1.
         11   -1    0    0    0    0 -0.00000000000E+00 -0.00000000000E+00 -0.45593999997E+02  0.45594000000E+02  0.51100000000E-03 0.  1.
    9900012    2    1    2    0    0 -0.63844924922E+01  0.26141581206E+02 -0.34051127916E+02  0.47787270459E+02  0.19999997330E+02 0.  0.
         12    1    1    2    0    0  0.63844924922E+01 -0.26141581206E+02  0.34051127916E+02  0.43400729541E+02  0.00000000000E+00 0. -1.
         11    1    3    3    0    0  0.42650340766E+01  0.13122406173E+02 -0.10124794279E+02  0.17114307433E+02  0.51100000000E-03 0. -1.
        -11    1    3    3    0    0 -0.18098148378E+01 -0.85398765872E+00 -0.60836252209E+01  0.64043126687E+01  0.51100000000E-03 0.  1.
        -12    1    3    3    0    0 -0.88397117310E+01  0.13873162692E+02 -0.17842708416E+02  0.24268650357E+02  0.00000000000E+00 0.  1.
</event>
<event>
 7    1  0.1634068E-009  0.4778727E+02  0.7816164E-02  0.1312668E+00
        -11   -1    0    0    0    0  0.00000000000E+00  0.00000000000E+00  0.45593999997E+02  0.45594000000E+02  0.51100000000E-03 0. -1.
         11   -1    0    0    0    0 -0.00000000000E+00 -0.00000000000E+00 -0.45593999997E+02  0.45594000000E+02  0.51100000000E-03 0.  1.
    9900012    2    1    2    0    0 -0.39549339302E+02 -0.16815182076E+02 -0.60599275820E+01  0.47787270631E+02  0.19999998114E+02 0.  0.
         12    1    1    2    0    0  0.39549339302E+02  0.16815182076E+02  0.60599275820E+01  0.43400729369E+02  0.00000000000E+00 0. -1.
         11    1    3    3    0    0 -0.55018762289E+01 -0.20593828907E+01 -0.51895818776E+01  0.78385878993E+01  0.51100000000E-03 0. -1.
        -11    1    3    3    0    0 -0.31375570027E+02 -0.75855490989E+01 -0.39284235865E+00  0.32281903212E+02  0.51100000000E-03 0.  1.
         12    1    3    3    0    0 -0.26718930468E+01 -0.71702500862E+01 -0.47750334574E+00  0.76667795192E+01  0.00000000000E+00 0. -1.
</event>
<event>
 7    1  0.1634068E-009  0.4778727E+02  0.7816164E-02  0.1312668E+00
        -11   -1    0    0    0    0  0.00000000000E+00  0.00000000000E+00  0.45593999997E+02  0.45594000000E+02  0.51100000000E-03 0.  1.
         11   -1    0    0    0    0 -0.00000000000E+00 -0.00000000000E+00 -0.45593999997E+02  0.45594000000E+02  0.51100000000E-03 0. -1.
    9900012    2    1    2    0    0 -0.24288818539E+02  0.29532254341E+02  0.20531013975E+02  0.47787270890E+02  0.19999999294E+02 0.  0.
         12    1    1    2    0    0  0.24288818539E+02 -0.29532254341E+02 -0.20531013975E+02  0.43400729110E+02  0.00000000000E+00 0. -1.
         11    1    3    3    0    0 -0.43485829569E+01  0.10920765984E+02  0.16099989559E+02  0.19934466822E+02  0.51100000000E-03 0.  1.
        -11    1    3    3    0    0 -0.41474908037E+01  0.42614528131E+01 -0.44845968700E+00  0.59634533952E+01  0.51100000000E-03 0. -1.
        -12    1    3    3    0    0 -0.15792744779E+02  0.14350035544E+02  0.48794841027E+01  0.21889350673E+02  0.00000000000E+00 0.  1.
</event>
<event>
 7    1  0.1634068E-009  0.4778725E+02  0.7816164E-02  0.1312668E+00
        -11   -1    0    0    0    0  0.00000000000E+00  0.00000000000E+00  0.45593999997E+02  0.45594000000E+02  0.51100000000E-03 0.  1.
         11   -1    0    0    0    0 -0.00000000000E+00 -0.00000000000E+00 -0.45593999997E+02  0.45594000000E+02  0.51100000000E-03 0. -1.
    9900012    2    1    2    0    0  0.95594581271E+00 -0.34109973056E+02  0.26818297865E+02  0.47787248916E+02  0.19999899107E+02 0.  0.
         12    1    1    2    0    0 -0.95594581271E+00  0.34109973056E+02 -0.26818297865E+02  0.43400751084E+02  0.00000000000E+00 0. -1.
         11    1    3    3    0    0 -0.26010259025E+01 -0.38062406462E+01  0.30515467420E+01  0.55285388107E+01  0.51100000000E-03 0. -1.
        -11    1    3    3    0    0 -0.36689599494E+01 -0.80132943815E+01  0.14687514718E+02  0.17128842425E+02  0.51100000000E-03 0.  1.
         12    1    3    3    0    0  0.72259316646E+01 -0.22290438029E+02  0.90792364043E+01  0.25129867680E+02  0.00000000000E+00 0. -1.
</event>
<event>
 7    1  0.1634068E-009  0.4778727E+02  0.7816164E-02  0.1312668E+00
        -11   -1    0    0    0    0  0.00000000000E+00  0.00000000000E+00  0.45593999997E+02  0.45594000000E+02  0.51100000000E-03 0.  1.
         11   -1    0    0    0    0 -0.00000000000E+00 -0.00000000000E+00 -0.45593999997E+02  0.45594000000E+02  0.51100000000E-03 0. -1.
    9900012    2    1    2    0    0 -0.15479035288E+02 -0.11685400442E+02  0.38826203612E+02  0.47787271851E+02  0.20000003676E+02 0.  0.
         12    1    1    2    0    0  0.15479035288E+02  0.11685400442E+02 -0.38826203612E+02  0.43400728149E+02  0.00000000000E+00 0. -1.
         11    1    3    3    0    0  0.10708382892E+00 -0.51979082382E+01  0.99776700476E+01  0.11250938487E+02  0.51100000000E-03 0. -1.
        -11    1    3    3    0    0 -0.89811883170E+01  0.41273870957E+01  0.13741346776E+02  0.16926951270E+02  0.51100000000E-03 0.  1.
        -12    1    3    3    0    0 -0.66049308000E+01 -0.10614879300E+02  0.15107186789E+02  0.19609382094E+02  0.00000000000E+00 0.  1.
</event>
<event>
 7    1  0.1634068E-009  0.4778727E+02  0.7816164E-02  0.1312668E+00
        -11   -1    0    0    0    0  0.00000000000E+00  0.00000000000E+00  0.45593999997E+02  0.45594000000E+02  0.51100000000E-03 0.  1.
         11   -1    0    0    0    0 -0.00000000000E+00 -0.00000000000E+00 -0.45593999997E+02  0.45594000000E+02  0.51100000000E-03 0. -1.
    9900012    2    1    2    0    0 -0.28603147975E+02  0.23615628395E+02  0.22534102342E+02  0.47787265595E+02  0.19999975153E+02 0.  0.
         12    1    1    2    0    0  0.28603147975E+02 -0.23615628395E+02 -0.22534102342E+02  0.43400734405E+02  0.00000000000E+00 0. -1.
         11    1    3    3    0    0 -0.21916608949E+00  0.54264274800E+01  0.25503983034E+00  0.54368368144E+01  0.51100000000E-03 0. -1.
        -11    1    3    3    0    0 -0.21604997326E+02  0.19189058796E+02  0.15867398198E+02  0.32966198034E+02  0.51100000000E-03 0.  1.
         12    1    3    3    0    0 -0.67789845594E+01 -0.99985788166E+00  0.64116643133E+01  0.93842307467E+01  0.00000000000E+00 0. -1.
</event>
<event>
 7    1  0.1634068E-009  0.4778727E+02  0.7816164E-02  0.1312668E+00
        -11   -1    0    0    0    0  0.00000000000E+00  0.00000000000E+00  0.45593999997E+02  0.45594000000E+02  0.51100000000E-03 0.  1.
         11   -1    0    0    0    0 -0.00000000000E+00 -0.00000000000E+00 -0.45593999997E+02  0.45594000000E+02  0.51100000000E-03 0. -1.
    9900012    2    1    2    0    0 -0.76944368505E+01  0.17691170226E+02  0.38877264800E+02  0.47787267509E+02  0.19999983879E+02 0.  0.
         12    1    1    2    0    0  0.76944368505E+01 -0.17691170226E+02 -0.38877264800E+02  0.43400732491E+02  0.00000000000E+00 0. -1.
         11    1    3    3    0    0 -0.23690251384E+01  0.28102391372E+01 -0.17789355072E+01  0.40834220838E+01  0.51100000000E-03 0. -1.
        -11    1    3    3    0    0 -0.29600540409E+01  0.83171538053E+01  0.18984898256E+02  0.20937128012E+02  0.51100000000E-03 0.  1.
         12    1    3    3    0    0 -0.23653576713E+01  0.65637772835E+01  0.21671302052E+02  0.22766717413E+02  0.00000000000E+00 0. -1.
</event>
<event>
 7    1  0.1634068E-009  0.4778727E+02  0.7816164E-02  0.1312668E+00
        -11   -1    0    0    0    0  0.00000000000E+00  0.00000000000E+00  0.45593999997E+02  0.45594000000E+02  0.51100000000E-03 0. -1.
         11   -1    0    0    0    0 -0.00000000000E+00 -0.00000000000E+00 -0.45593999997E+02  0.45594000000E+02  0.51100000000E-03 0.  1.
    9900012    2    1    2    0    0  0.29011066264E+02  0.18842066054E+02 -0.26209880111E+02  0.47787271499E+02  0.20000002075E+02 0.  0.
         12    1    1    2    0    0 -0.29011066264E+02 -0.18842066054E+02  0.26209880111E+02  0.43400728501E+02  0.00000000000E+00 0. -1.
         11    1    3    3    0    0  0.57219832687E+01  0.54208921337E+01 -0.92075245154E+01  0.12120465008E+02  0.51100000000E-03 0.  1.
        -11    1    3    3    0    0  0.25432245482E+02  0.13302284907E+02 -0.17281551274E+02  0.33502267217E+02  0.51100000000E-03 0. -1.
         12    1    3    3    0    0 -0.21431624868E+01  0.11888901245E+00  0.27919567782E+00  0.21645392740E+01  0.00000000000E+00 0. -1.
</event>
<event>
 7    1  0.1634068E-009  0.4778733E+02  0.7816164E-02  0.1312668E+00
        -11   -1    0    0    0    0  0.00000000000E+00  0.00000000000E+00  0.45593999997E+02  0.45594000000E+02  0.51100000000E-03 0.  1.
         11   -1    0    0    0    0 -0.00000000000E+00 -0.00000000000E+00 -0.45593999997E+02  0.45594000000E+02  0.51100000000E-03 0. -1.
    9900012    2    1    2    0    0  0.43386983865E+01  0.41613528801E+02  0.11537254799E+02  0.47787327986E+02  0.20000259617E+02 0.  0.
         12    1    1    2    0    0 -0.43386983865E+01 -0.41613528801E+02 -0.11537254799E+02  0.43400672014E+02  0.00000000000E+00 0. -1.
         11    1    3    3    0    0  0.15036438236E+01 -0.12642484698E+01 -0.19179504209E+01  0.27455059679E+01  0.51100000000E-03 0. -1.
        -11    1    3    3    0    0  0.44276239483E+00  0.12787549194E+02  0.36996434635E+01  0.13319339884E+02  0.51100000000E-03 0.  1.
         12    1    3    3    0    0  0.23922921681E+01  0.30090228078E+02  0.97555617561E+01  0.31722482134E+02  0.00000000000E+00 0. -1.
</event>
<event>
 7    1  0.1634068E-009  0.4778727E+02  0.7816164E-02  0.1312668E+00
        -11   -1    0    0    0    0  0.00000000000E+00  0.00000000000E+00  0.45593999997E+02  0.45594000000E+02  0.51100000000E-03 0. -1.
         11   -1    0    0    0    0 -0.00000000000E+00 -0.00000000000E+00 -0.45593999997E+02  0.45594000000E+02  0.51100000000E-03 0.  1.
    9900012    2    1    2    0    0  0.39668830638E+02  0.17606643136E+02 -0.11611751191E+00  0.47787268555E+02  0.19999988649E+02 0.  0.
         12    1    1    2    0    0 -0.39668830638E+02 -0.17606643136E+02  0.11611751191E+00  0.43400731445E+02  0.00000000000E+00 0. -1.
         11    1    3    3    0    0  0.41758802044E+01 -0.10946835039E+00 -0.34980911007E+01  0.54485411269E+01  0.51100000000E-03 0.  1.
        -11    1    3    3    0    0  0.16693982607E+02  0.66077328952E+01  0.85708368338E+01  0.19894985137E+02  0.51100000000E-03 0. -1.
         12    1    3    3    0    0  0.18798967826E+02  0.11108378591E+02 -0.51888632450E+01  0.22443742291E+02  0.00000000000E+00 0. -1.
</event>
<event>
 7    1  0.1634068E-009  0.4778727E+02  0.7816164E-02  0.1312668E+00
        -11   -1    0    0    0    0  0.00000000000E+00  0.00000000000E+00  0.45593999997E+02  0.45594000000E+02  0.51100000000E-03 0. -1.
         11   -1    0    0    0    0 -0.00000000000E+00 -0.00000000000E+00 -0.45593999997E+02  0.45594000000E+02  0.51100000000E-03 0.  1.
    9900012    2    1    2    0    0 -0.20849165092E+02 -0.37630939440E+02 -0.57313380998E+01  0.47787268156E+02  0.19999986830E+02 0.  0.
         12    1    1    2    0    0  0.20849165092E+02  0.37630939440E+02  0.57313380998E+01  0.43400731844E+02  0.00000000000E+00 0. -1.
         11    1    3    3    0    0 -0.68942033269E+01 -0.71800359648E+01  0.42566815241E+01  0.10826000823E+02  0.51100000000E-03 0. -1.
        -11    1    3    3    0    0  0.14971403174E+01 -0.67195321663E-01 -0.38961195285E+00  0.15484644252E+01  0.51100000000E-03 0.  1.
         12    1    3    3    0    0 -0.15452102083E+02 -0.30383708153E+02 -0.95984076711E+01  0.35412802907E+02  0.00000000000E+00 0. -1.
</event>
<event>
 7    1  0.1634068E-009  0.4778727E+02  0.7816164E-02  0.1312668E+00
        -11   -1    0    0    0    0  0.00000000000E+00  0.00000000000E+00  0.45593999997E+02  0.45594000000E+02  0.51100000000E-03 0.  1.
         11   -1    0    0    0    0 -0.00000000000E+00 -0.00000000000E+00 -0.45593999997E+02  0.45594000000E+02  0.51100000000E-03 0. -1.
    9900012    2    1    2    0    0  0.76489947519E+01  0.31812463357E+02  0.28514616913E+02  0.47787270475E+02  0.19999997404E+02 0.  0.
         12    1    1    2    0    0 -0.76489947519E+01 -0.31812463357E+02 -0.28514616913E+02  0.43400729525E+02  0.00000000000E+00 0. -1.
         11    1    3    3    0    0  0.86212943100E+01  0.16301269083E+02  0.23617245305E+02  0.29963850976E+02  0.51100000000E-03 0. -1.
        -11    1    3    3    0    0  0.76919910973E+00  0.15468913513E+01 -0.15714254003E+01  0.23353625357E+01  0.51100000000E-03 0.  1.
        -12    1    3    3    0    0 -0.17414986679E+01  0.13964302924E+02  0.64687970090E+01  0.15488056963E+02  0.00000000000E+00 0.  1.
</event>
<event>
 7    1  0.1634068E-009  0.4778728E+02  0.7816164E-02  0.1312668E+00
        -11   -1    0    0    0    0  0.00000000000E+00  0.00000000000E+00  0.45593999997E+02  0.45594000000E+02  0.51100000000E-03 0. -1.
         11   -1    0    0    0    0 -0.00000000000E+00 -0.00000000000E+00 -0.45593999997E+02  0.45594000000E+02  0.51100000000E-03 0.  1.
    9900012    2    1    2    0    0  0.17584752595E+02 -0.30645642389E+02 -0.25204031464E+02  0.47787284299E+02  0.20000060435E+02 0.  0.
         12    1    1    2    0    0 -0.17584752595E+02  0.30645642389E+02  0.25204031464E+02  0.43400715701E+02  0.00000000000E+00 0. -1.
         11    1    3    3    0    0  0.32051708737E+01  0.90430603110E+00 -0.78983551489E+00  0.34226787943E+01  0.51100000000E-03 0. -1.
        -11    1    3    3    0    0  0.15717077098E+02 -0.20104688842E+02 -0.16925292136E+02  0.30621733133E+02  0.51100000000E-03 0.  1.
        -12    1    3    3    0    0 -0.13374953769E+01 -0.11445259578E+02 -0.74889038139E+01  0.13742872372E+02  0.00000000000E+00 0.  1.
</event>
<event>
 7    1  0.1634068E-009  0.4778727E+02  0.7816164E-02  0.1312668E+00
        -11   -1    0    0    0    0  0.00000000000E+00  0.00000000000E+00  0.45593999997E+02  0.45594000000E+02  0.51100000000E-03 0. -1.
         11   -1    0    0    0    0 -0.00000000000E+00 -0.00000000000E+00 -0.45593999997E+02  0.45594000000E+02  0.51100000000E-03 0.  1.
    9900012    2    1    2    0    0  0.38666292178E+01  0.24141398403E+02 -0.35858964299E+02  0.47787271217E+02  0.20000000785E+02 0.  0.
         12    1    1    2    0    0 -0.38666292178E+01 -0.24141398403E+02  0.35858964299E+02  0.43400728783E+02  0.00000000000E+00 0. -1.
         11    1    3    3    0    0 -0.86346359197E+00 -0.24470428284E+01 -0.19538396895E+01  0.32482422588E+01  0.51100000000E-03 0. -1.
        -11    1    3    3    0    0  0.72283197558E+01  0.11476323648E+02 -0.16167874303E+02  0.21103430307E+02  0.51100000000E-03 0.  1.
         12    1    3    3    0    0 -0.24982269461E+01  0.15112117583E+02 -0.17737250306E+02  0.23435598651E+02  0.00000000000E+00 0. -1.
</event>
<event>
 7    1  0.1634068E-009  0.4778727E+02  0.7816164E-02  0.1312668E+00
        -11   -1    0    0    0    0  0.00000000000E+00  0.00000000000E+00  0.45593999997E+02  0.45594000000E+02  0.51100000000E-03 0. -1.
         11   -1    0    0    0    0 -0.00000000000E+00 -0.00000000000E+00 -0.45593999997E+02  0.45594000000E+02  0.51100000000E-03 0.  1.
    9900012    2    1    2    0    0  0.11313332599E+02 -0.15792716804E+02 -0.38810072843E+02  0.47787272441E+02  0.20000006366E+02 0.  0.
         12    1    1    2    0    0 -0.11313332599E+02  0.15792716804E+02  0.38810072843E+02  0.43400727559E+02  0.00000000000E+00 0. -1.
         11    1    3    3    0    0 -0.19608636955E+01 -0.30861446120E+01 -0.13878735131E+02  0.14352301700E+02  0.51100000000E-03 0. -1.
        -11    1    3    3    0    0  0.11422684625E+02 -0.11923052388E+02 -0.26263850046E+02  0.31023003107E+02  0.51100000000E-03 0.  1.
        -12    1    3    3    0    0  0.18515116703E+01 -0.78351980437E+00  0.13325123331E+01  0.24119676339E+01  0.00000000000E+00 0.  1.
</event>
<event>
 7    1  0.1634068E-009  0.4778727E+02  0.7816164E-02  0.1312668E+00
        -11   -1    0    0    0    0  0.00000000000E+00  0.00000000000E+00  0.45593999997E+02  0.45594000000E+02  0.51100000000E-03 0.  1.
         11   -1    0    0    0    0 -0.00000000000E+00 -0.00000000000E+00 -0.45593999997E+02  0.45594000000E+02  0.51100000000E-03 0. -1.
    9900012    2    1    2    0    0 -0.37147757865E+01 -0.17460729243E+02  0.39559406281E+02  0.47787271318E+02  0.20000001248E+02 0.  0.
         12    1    1    2    0    0  0.37147757865E+01  0.17460729243E+02 -0.39559406281E+02  0.43400728682E+02  0.00000000000E+00 0. -1.
         11    1    3    3    0    0 -0.19765177646E+01 -0.44241820008E+01 -0.11145603802E+01  0.49721478208E+01  0.51100000000E-03 0. -1.
        -11    1    3    3    0    0  0.42758279785E+00 -0.58200168185E+01  0.17740918021E+02  0.18676070124E+02  0.51100000000E-03 0.  1.
        -12    1    3    3    0    0 -0.21658408198E+01 -0.72165304233E+01  0.22933048640E+02  0.24139053373E+02  0.00000000000E+00 0.  1.
</event>
<event>
 7    1  0.1634068E-009  0.4778727E+02  0.7816164E-02  0.1312668E+00
        -11   -1    0    0    0    0  0.00000000000E+00  0.00000000000E+00  0.45593999997E+02  0.45594000000E+02  0.51100000000E-03 0.  1.
         11   -1    0    0    0    0 -0.00000000000E+00 -0.00000000000E+00 -0.45593999997E+02  0.45594000000E+02  0.51100000000E-03 0. -1.
    9900012    2    1    2    0    0  0.33419369182E+02  0.16606619176E+02  0.22158277040E+02  0.47787270993E+02  0.19999999766E+02 0.  0.
         12    1    1    2    0    0 -0.33419369182E+02 -0.16606619176E+02 -0.22158277040E+02  0.43400729007E+02  0.00000000000E+00 0. -1.
         11    1    3    3    0    0  0.17080739005E+01  0.54941855248E+01  0.65267223326E+01  0.87006721406E+01  0.51100000000E-03 0.  1.
        -11    1    3    3    0    0  0.60963207089E+01 -0.18185559875E+01 -0.10132192499E+00  0.63625889746E+01  0.51100000000E-03 0. -1.
        -12    1    3    3    0    0  0.25614974572E+02  0.12930989639E+02  0.15732876633E+02  0.32724009878E+02  0.00000000000E+00 0.  1.
</event>
<event>
 7    1  0.1634068E-009  0.4778728E+02  0.7816164E-02  0.1312668E+00
        -11   -1    0    0    0    0  0.00000000000E+00  0.00000000000E+00  0.45593999997E+02  0.45594000000E+02  0.51100000000E-03 0.  1.
         11   -1    0    0    0    0 -0.00000000000E+00 -0.00000000000E+00 -0.45593999997E+02  0.45594000000E+02  0.51100000000E-03 0. -1.
    9900012    2    1    2    0    0 -0.33287443644E+02  0.27656716483E+02 -0.32672539905E+01  0.47787276278E+02  0.20000023860E+02 0.  0.
         12    1    1    2    0    0  0.33287443644E+02 -0.27656716483E+02  0.32672539905E+01  0.43400723722E+02  0.00000000000E+00 0. -1.
         11    1    3    3    0    0 -0.61066985622E+01 -0.10586148558E+01  0.39093469142E+01  0.73277163085E+01  0.51100000000E-03 0. -1.
        -11    1    3    3    0    0 -0.11819973081E+02  0.97856416055E+01 -0.14163949658E+01  0.15410279693E+02  0.51100000000E-03 0.  1.
         12    1    3    3    0    0 -0.15360772001E+02  0.18929689733E+02 -0.57602059389E+01  0.25049280276E+02  0.00000000000E+00 0. -1.
</event>
<event>
 7    1  0.1784662E-009  0.4778727E+02  0.7816164E-02  0.1312668E+00
        -11   -1    0    0    0    0  0.00000000000E+00  0.00000000000E+00  0.45593999997E+02  0.45594000000E+02  0.51100000000E-03 0.  1.
         11   -1    0    0    0    0 -0.00000000000E+00 -0.00000000000E+00 -0.45593999997E+02  0.45594000000E+02  0.51100000000E-03 0. -1.
    9900012    2    1    2    0    0  0.64018096113E+01 -0.34230840660E+02  0.25901533309E+02  0.47787273666E+02  0.20000011952E+02 0.  0.
         12    1    1    2    0    0 -0.64018096113E+01  0.34230840660E+02 -0.25901533309E+02  0.43400726334E+02  0.00000000000E+00 0. -1.
         11    1    3    3    0    0  0.22495685090E+01 -0.12610570656E+01 -0.17946597988E+01  0.31419146159E+01  0.51100000000E-03 0. -1.
        -11    1    3    3    0    0  0.69765809407E+01 -0.13583515011E+02  0.14227756406E+02  0.20871358707E+02  0.51100000000E-03 0.  1.
        -12    1    3    3    0    0 -0.28243398384E+01 -0.19386268583E+02  0.13468436702E+02  0.23774000343E+02  0.00000000000E+00 0.  1.
</event>
<event>
 7    1 -0.1634068E-009  0.4778727E+02  0.7816164E-02  0.1312668E+00
        -11   -1    0    0    0    0  0.00000000000E+00  0.00000000000E+00  0.45593999997E+02  0.45594000000E+02  0.51100000000E-03 0.  1.
         11   -1    0    0    0    0 -0.00000000000E+00 -0.00000000000E+00 -0.45593999997E+02  0.45594000000E+02  0.51100000000E-03 0. -1.
    9900012    2    1    2    0    0 -0.37853713023E+02 -0.21135953097E+02  0.19977357983E+01  0.47787273609E+02  0.20000011693E+02 0.  0.
         12    1    1    2    0    0  0.37853713023E+02  0.21135953097E+02 -0.19977357983E+01  0.43400726391E+02  0.00000000000E+00 0. -1.
         11    1    3    3    0    0 -0.30009568478E+02 -0.13464797520E+02 -0.22722209253E+01  0.32970258730E+02  0.51100000000E-03 0. -1.
        -11    1    3    3    0    0 -0.91186623613E+01 -0.48482840240E+01  0.52275441321E+01  0.11575106010E+02  0.51100000000E-03 0.  1.
         12    1    3    3    0    0  0.12745178166E+01 -0.28228715527E+01 -0.95758740850E+00  0.32419088687E+01  0.00000000000E+00 0. -1.
</event>
<event>
 7    1  0.1634068E-009  0.4778727E+02  0.7816164E-02  0.1312668E+00
        -11   -1    0    0    0    0  0.00000000000E+00  0.00000000000E+00  0.45593999997E+02  0.45594000000E+02  0.51100000000E-03 0.  1.
         11   -1    0    0    0    0 -0.00000000000E+00 -0.00000000000E+00 -0.45593999997E+02  0.45594000000E+02  0.51100000000E-03 0. -1.
    9900012    2    1    2    0    0  0.31905434636E+02 -0.18643777796E+02  0.22761290648E+02  0.47787267728E+02  0.19999984879E+02 0.  0.
         12    1    1    2    0    0 -0.31905434636E+02  0.18643777796E+02 -0.22761290648E+02  0.43400732272E+02  0.00000000000E+00 0. -1.
         11    1    3    3    0    0  0.13736806152E+02 -0.83878287430E+01  0.43219184032E+01  0.16665368080E+02  0.51100000000E-03 0. -1.
        -11    1    3    3    0    0  0.19156158223E+02 -0.62782304568E+01  0.11913997653E+02  0.23416189183E+02  0.51100000000E-03 0.  1.
        -12    1    3    3    0    0 -0.98752973912E+00 -0.39777185959E+01  0.65253745916E+01  0.77057104652E+01  0.00000000000E+00 0.  1.
</event>
<event>
 7    1  0.1634068E-009  0.4778728E+02  0.7816164E-02  0.1312668E+00
        -11   -1    0    0    0    0  0.00000000000E+00  0.00000000000E+00  0.45593999997E+02  0.45594000000E+02  0.51100000000E-03 0.  1.
         11   -1    0    0    0    0 -0.00000000000E+00 -0.00000000000E+00 -0.45593999997E+02  0.45594000000E+02  0.51100000000E-03 0. -1.
    9900012    2    1    2    0    0 -0.91108039145E+01 -0.23385831475E+02  0.35407892023E+02  0.47787277895E+02  0.20000031235E+02 0.  0.
         12    1    1    2    0    0  0.91108039145E+01  0.23385831475E+02 -0.35407892023E+02  0.43400722105E+02  0.00000000000E+00 0. -1.
         11    1    3    3    0    0  0.35348499000E+01 -0.10632710887E+01  0.36503796093E+01  0.51914334029E+01  0.51100000000E-03 0. -1.
        -11    1    3    3    0    0 -0.51899340807E+01 -0.19409640719E+02  0.25325677845E+02  0.32327380457E+02  0.51100000000E-03 0.  1.
         12    1    3    3    0    0 -0.74557197339E+01 -0.29129196673E+01  0.64318345678E+01  0.10268464035E+02  0.00000000000E+00 0. -1.
</event>
<event>
 7    1  0.1634068E-009  0.4778727E+02  0.7816164E-02  0.1312668E+00
        -11   -1    0    0    0    0  0.00000000000E+00  0.00000000000E+00  0.45593999997E+02  0.45594000000E+02  0.51100000000E-03 0.  1.
         11   -1    0    0    0    0 -0.00000000000E+00 -0.00000000000E+00 -0.45593999997E+02  0.45594000000E+02  0.51100000000E-03 0. -1.
    9900012    2    1    2    0    0 -0.80444076810E+01 -0.33104901152E+02  0.26888216376E+02  0.47787272413E+02  0.20000006241E+02 0.  0.
         12    1    1    2    0    0  0.80444076810E+01  0.33104901152E+02 -0.26888216376E+02  0.43400727587E+02  0.00000000000E+00 0. -1.
         11    1    3    3    0    0 -0.45721756830E+01 -0.10149226162E+01  0.41873151284E+01  0.62823933846E+01  0.51100000000E-03 0. -1.
        -11    1    3    3    0    0  0.31358904338E+01 -0.21811405972E+01  0.94614470854E+00  0.39352729497E+01  0.51100000000E-03 0.  1.
        -12    1    3    3    0    0 -0.66081224318E+01 -0.29908837938E+02  0.21754756539E+02  0.37569606079E+02  0.00000000000E+00 0.  1.
</event>
<event>
 7    1  0.1634068E-009  0.4778727E+02  0.7816164E-02  0.1312668E+00
        -11   -1    0    0    0    0  0.00000000000E+00  0.00000000000E+00  0.45593999997E+02  0.45594000000E+02  0.51100000000E-03 0.  1.
         11   -1    0    0    0    0 -0.00000000000E+00 -0.00000000000E+00 -0.45593999997E+02  0.45594000000E+02  0.51100000000E-03 0. -1.
    9900012    2    1    2    0    0  0.29963432696E+02  0.10979584806E+02 -0.29415380180E+02  0.47787272211E+02  0.20000005321E+02 0.  0.
         12    1    1    2    0    0 -0.29963432696E+02 -0.10979584806E+02  0.29415380180E+02  0.43400727789E+02  0.00000000000E+00 0. -1.
         11    1    3    3    0    0  0.12578668369E+02 -0.11561400462E+01 -0.19092100108E+02  0.22892528138E+02  0.51100000000E-03 0. -1.
        -11    1    3    3    0    0  0.19850721307E+01  0.49510447275E+01 -0.73921668573E+00  0.53851459430E+01  0.51100000000E-03 0.  1.
        -12    1    3    3    0    0  0.15399692196E+02  0.71846801247E+01 -0.95840633864E+01  0.19509598131E+02  0.00000000000E+00 0.  1.
</event>
<event>
 7    1  0.1634068E-009  0.4778727E+02  0.7816164E-02  0.1312668E+00
        -11   -1    0    0    0    0  0.00000000000E+00  0.00000000000E+00  0.45593999997E+02  0.45594000000E+02  0.51100000000E-03 0.  1.
         11   -1    0    0    0    0 -0.00000000000E+00 -0.00000000000E+00 -0.45593999997E+02  0.45594000000E+02  0.51100000000E-03 0. -1.
    9900012    2    1    2    0    0 -0.43181578292E+02 -0.43453500378E+01 -0.30491047093E+00  0.47787265662E+02  0.19999975457E+02 0.  0.
         12    1    1    2    0    0  0.43181578292E+02  0.43453500378E+01  0.30491047093E+00  0.43400734338E+02  0.00000000000E+00 0. -1.
         11    1    3    3    0    0 -0.57956360177E+01  0.28725219664E+01 -0.32785846213E+01  0.72518891798E+01  0.51100000000E-03 0. -1.
        -11    1    3    3    0    0 -0.34463258015E+02 -0.55193903562E+01 -0.14922972811E+01  0.34934320866E+02  0.51100000000E-03 0.  1.
         12    1    3    3    0    0 -0.29226842588E+01 -0.16984816480E+01  0.44659714314E+01  0.56010556158E+01  0.00000000000E+00 0. -1.
</event>
<event>
 7    1  0.1634068E-009  0.4778726E+02  0.7816164E-02  0.1312668E+00
        -11   -1    0    0    0    0  0.00000000000E+00  0.00000000000E+00  0.45593999997E+02  0.45594000000E+02  0.51100000000E-03 0.  1.
         11   -1    0    0    0    0 -0.00000000000E+00 -0.00000000000E+00 -0.45593999997E+02  0.45594000000E+02  0.51100000000E-03 0. -1.
    9900012    2    1    2    0    0 -0.35094978882E+02 -0.25269018375E+02  0.36664979713E+01  0.47787262221E+02  0.19999959772E+02 0.  0.
         12    1    1    2    0    0  0.35094978882E+02  0.25269018375E+02 -0.36664979713E+01  0.43400737779E+02  0.00000000000E+00 0. -1.
         11    1    3    3    0    0 -0.16496951198E+02 -0.68251241502E+01  0.34452361775E+01  0.18182446785E+02  0.51100000000E-03 0. -1.
        -11    1    3    3    0    0 -0.96893465988E+01 -0.25170758156E+01  0.43165074664E+01  0.10901896401E+02  0.51100000000E-03 0.  1.
         12    1    3    3    0    0 -0.89086810845E+01 -0.15926818410E+02 -0.40952456726E+01  0.18702919035E+02  0.00000000000E+00 0. -1.
</event>
<event>
 7    1  0.1634068E-009  0.4778727E+02  0.7816164E-02  0.1312668E+00
        -11   -1    0    0    0    0  0.00000000000E+00  0.00000000000E+00  0.45593999997E+02  0.45594000000E+02  0.51100000000E-03 0.  1.
         11   -1    0    0    0    0 -0.00000000000E+00 -0.00000000000E+00 -0.45593999997E+02  0.45594000000E+02  0.51100000000E-03 0. -1.
    9900012    2    1    2    0    0  0.29263133029E+02 -0.21930732076E+02  0.23373815558E+02  0.47787271691E+02  0.20000002946E+02 0.  0.
         12    1    1    2    0    0 -0.29263133029E+02  0.21930732076E+02 -0.23373815558E+02  0.43400728309E+02  0.00000000000E+00 0. -1.
         11    1    3    3    0    0  0.78449801377E+01 -0.10126593314E+02  0.67760800831E+01  0.14491613680E+02  0.51100000000E-03 0.  1.
        -11    1    3    3    0    0  0.12098332591E+02 -0.59298412147E+01  0.11943863901E+00  0.13473935363E+02  0.51100000000E-03 0. -1.
         12    1    3    3    0    0  0.93198203002E+01 -0.58742975476E+01  0.16478296836E+02  0.19821722647E+02  0.00000000000E+00 0. -1.
</event>
<event>
 7    1  0.1634068E-009  0.4778727E+02  0.7816164E-02  0.1312668E+00
        -11   -1    0    0    0    0  0.00000000000E+00  0.00000000000E+00  0.45593999997E+02  0.45594000000E+02  0.51100000000E-03 0.  1.
         11   -1    0    0    0    0 -0.00000000000E+00 -0.00000000000E+00 -0.45593999997E+02  0.45594000000E+02  0.51100000000E-03 0. -1.
    9900012    2    1    2    0    0  0.19586294750E+01  0.43322752160E+02  0.17106309870E+01  0.47787270254E+02  0.19999996395E+02 0.  0.
         12    1    1    2    0    0 -0.19586294750E+01 -0.43322752160E+02 -0.17106309870E+01  0.43400729746E+02  0.00000000000E+00 0. -1.
         11    1    3    3    0    0  0.69900197625E+01  0.17742753561E+02 -0.47929078179E+01  0.19663103667E+02  0.51100000000E-03 0.  1.
        -11    1    3    3    0    0 -0.39446466840E+01  0.21092785112E+02  0.18008228963E+01  0.21533898500E+02  0.51100000000E-03 0. -1.
        -12    1    3    3    0    0 -0.10867436035E+01  0.44872134864E+01  0.47027159086E+01  0.65902680863E+01  0.00000000000E+00 0.  1.
</event>
<event>
 7    1  0.1634068E-009  0.4778727E+02  0.7816164E-02  0.1312668E+00
        -11   -1    0    0    0    0  0.00000000000E+00  0.00000000000E+00  0.45593999997E+02  0.45594000000E+02  0.51100000000E-03 0.  1.
         11   -1    0    0    0    0 -0.00000000000E+00 -0.00000000000E+00 -0.45593999997E+02  0.45594000000E+02  0.51100000000E-03 0. -1.
    9900012    2    1    2    0    0 -0.11498928406E+02 -0.12797314940E+02  0.39845033542E+02  0.47787270489E+02  0.19999997467E+02 0.  0.
         12    1    1    2    0    0  0.11498928406E+02  0.12797314940E+02 -0.39845033542E+02  0.43400729511E+02  0.00000000000E+00 0. -1.
         11    1    3    3    0    0 -0.23870748409E+01 -0.24041984883E+01 -0.16996768272E+01  0.37904087174E+01  0.51100000000E-03 0. -1.
        -11    1    3    3    0    0 -0.85649408437E+00 -0.28489235788E+01  0.13081371440E+02  0.13415372774E+02  0.51100000000E-03 0.  1.
         12    1    3    3    0    0 -0.82553594807E+01 -0.75441928726E+01  0.28463338930E+02  0.30581488997E+02  0.00000000000E+00 0. -1.
</event>
<event>
 7    1  0.1634068E-009  0.4778727E+02  0.7816164E-02  0.1312668E+00
        -11   -1    0    0    0    0  0.00000000000E+00  0.00000000000E+00  0.45593999997E+02  0.45594000000E+02  0.51100000000E-03 0.  1.
         11   -1    0    0    0    0 -0.00000000000E+00 -0.00000000000E+00 -0.45593999997E+02  0.45594000000E+02  0.51100000000E-03 0. -1.
    9900012    2    1    2    0    0 -0.31993820710E+02 -0.15819341828E+02  0.24693464097E+02  0.47787270644E+02  0.19999998176E+02 0.  0.
         12    1    1    2    0    0  0.31993820710E+02  0.15819341828E+02 -0.24693464097E+02  0.43400729356E+02  0.00000000000E+00 0. -1.
         11    1    3    3    0    0 -0.10931952071E+02 -0.60066426103E+01  0.23339200987E+01  0.12689937542E+02  0.51100000000E-03 0. -1.
        -11    1    3    3    0    0 -0.22038436227E+02 -0.88996532960E+01  0.23437609039E+02  0.33379904402E+02  0.51100000000E-03 0.  1.
         12    1    3    3    0    0  0.97656758799E+00 -0.91304592139E+00 -0.10780650413E+01  0.17174287006E+01  0.00000000000E+00 0. -1.
</event>
<event>
 7    1  0.1634068E-009  0.4778727E+02  0.7816164E-02  0.1312668E+00
        -11   -1    0    0    0    0  0.00000000000E+00  0.00000000000E+00  0.45593999997E+02  0.45594000000E+02  0.51100000000E-03 0.  1.
         11   -1    0    0    0    0 -0.00000000000E+00 -0.00000000000E+00 -0.45593999997E+02  0.45594000000E+02  0.51100000000E-03 0. -1.
    9900012    2    1    2    0    0 -0.40568867996E+02 -0.15277320668E+02 -0.20961364129E+01  0.47787269993E+02  0.19999995206E+02 0.  0.
         12    1    1    2    0    0  0.40568867996E+02  0.15277320668E+02  0.20961364129E+01  0.43400730007E+02  0.00000000000E+00 0. -1.
         11    1    3    3    0    0 -0.93559272803E+01 -0.38984759552E+01 -0.22305672213E+01  0.10378194469E+02  0.51100000000E-03 0. -1.
        -11    1    3    3    0    0 -0.29321290349E+02 -0.93292817169E+01 -0.53733738321E+01  0.31235343950E+02  0.51100000000E-03 0.  1.
         12    1    3    3    0    0 -0.18916503667E+01 -0.20495629961E+01  0.55078046406E+01  0.61737315737E+01  0.00000000000E+00 0. -1.
</event>
<event>
 7    1  0.1634068E-009  0.4778728E+02  0.7816164E-02  0.1312668E+00
        -11   -1    0    0    0    0  0.00000000000E+00  0.00000000000E+00  0.45593999997E+02  0.45594000000E+02  0.51100000000E-03 0. -1.
         11   -1    0    0    0    0 -0.00000000000E+00 -0.00000000000E+00 -0.45593999997E+02  0.45594000000E+02  0.51100000000E-03 0.  1.
    9900012    2    1    2    0    0 -0.81919326231E+01  0.18390644910E+02 -0.38448658548E+02  0.47787275070E+02  0.20000018355E+02 0.  0.
         12    1    1    2    0    0  0.81919326231E+01 -0.18390644910E+02  0.38448658548E+02  0.43400724930E+02  0.00000000000E+00 0. -1.
         11    1    3    3    0    0 -0.12039269182E+01  0.96628357903E+01 -0.94275514896E+01  0.13553544292E+02  0.51100000000E-03 0. -1.
        -11    1    3    3    0    0  0.36000508124E+01  0.60336467981E+01 -0.89140978560E+01  0.11350171822E+02  0.51100000000E-03 0.  1.
         12    1    3    3    0    0 -0.10588056517E+02  0.26941623213E+01 -0.20107009202E+02  0.22883558956E+02  0.00000000000E+00 0. -1.
</event>
<event>
 7    1  0.1634068E-009  0.4778727E+02  0.7816164E-02  0.1312668E+00
        -11   -1    0    0    0    0  0.00000000000E+00  0.00000000000E+00  0.45593999997E+02  0.45594000000E+02  0.51100000000E-03 0.  1.
         11   -1    0    0    0    0 -0.00000000000E+00 -0.00000000000E+00 -0.45593999997E+02  0.45594000000E+02  0.51100000000E-03 0. -1.
    9900012    2    1    2    0    0 -0.36276939548E+02 -0.30839347212E+01  0.23624060394E+02  0.47787271598E+02  0.20000002524E+02 0.  0.
         12    1    1    2    0    0  0.36276939548E+02  0.30839347212E+01 -0.23624060394E+02  0.43400728402E+02  0.00000000000E+00 0. -1.
         11    1    3    3    0    0 -0.90734597596E+01 -0.21479503906E+01 -0.35640983598E+00  0.93310444819E+01  0.51100000000E-03 0. -1.
        -11    1    3    3    0    0 -0.95137833480E+01  0.25395751572E+01  0.20343219551E+01  0.10054848664E+02  0.51100000000E-03 0.  1.
        -12    1    3    3    0    0 -0.17689696440E+02 -0.34755594877E+01  0.21946148275E+02  0.28401378453E+02  0.00000000000E+00 0.  1.
</event>
<event>
 7    1  0.1848583E-009  0.4778728E+02  0.7816164E-02  0.1312668E+00
        -11   -1    0    0    0    0  0.00000000000E+00  0.00000000000E+00  0.45593999997E+02  0.45594000000E+02  0.51100000000E-03 0.  1.
         11   -1    0    0    0    0 -0.00000000000E+00 -0.00000000000E+00 -0.45593999997E+02  0.45594000000E+02  0.51100000000E-03 0. -1.
    9900012    2    1    2    0    0 -0.35918918061E+02  0.13605515452E+02  0.20207514600E+02  0.47787281438E+02  0.20000047388E+02 0.  0.
         12    1    1    2    0    0  0.35918918061E+02 -0.13605515452E+02 -0.20207514600E+02  0.43400718562E+02  0.00000000000E+00 0. -1.
         11    1    3    3    0    0 -0.67365539319E+01 -0.12297099960E+01 -0.94970205885E+00  0.69134130365E+01  0.51100000000E-03 0. -1.
        -11    1    3    3    0    0 -0.26267507323E+02  0.93092850373E+01  0.13425981423E+02  0.30933827864E+02  0.51100000000E-03 0.  1.
        -12    1    3    3    0    0 -0.29148568060E+01  0.55259404105E+01  0.77312352354E+01  0.99400405374E+01  0.00000000000E+00 0.  1.
</event>
<event>
 7    1  0.1634068E-009  0.4778727E+02  0.7816164E-02  0.1312668E+00
        -11   -1    0    0    0    0  0.00000000000E+00  0.00000000000E+00  0.45593999997E+02  0.45594000000E+02  0.51100000000E-03 0. -1.
         11   -1    0    0    0    0 -0.00000000000E+00 -0.00000000000E+00 -0.45593999997E+02  0.45594000000E+02  0.51100000000E-03 0.  1.
    9900012    2    1    2    0    0 -0.28926184682E+02  0.93880386064E+01 -0.30963908717E+02  0.47787273368E+02  0.20000010594E+02 0.  0.
         12    1    1    2    0    0  0.28926184682E+02 -0.93880386064E+01  0.30963908717E+02  0.43400726632E+02  0.00000000000E+00 0. -1.
         11    1    3    3    0    0 -0.13827953524E+02  0.70648155044E+01 -0.17922107582E+02  0.23713410914E+02  0.51100000000E-03 0.  1.
        -11    1    3    3    0    0 -0.13158044399E+02  0.21982274341E+01 -0.27767587066E+01  0.13626324722E+02  0.51100000000E-03 0. -1.
         12    1    3    3    0    0 -0.19401867591E+01  0.12499566782E+00 -0.10265042429E+02  0.10447537731E+02  0.00000000000E+00 0. -1.
</event>
<event>
 7    1  0.1634068E-009  0.4778728E+02  0.7816164E-02  0.1312668E+00
        -11   -1    0    0    0    0  0.00000000000E+00  0.00000000000E+00  0.45593999997E+02  0.45594000000E+02  0.51100000000E-03 0.  1.
         11   -1    0    0    0    0 -0.00000000000E+00 -0.00000000000E+00 -0.45593999997E+02  0.45594000000E+02  0.51100000000E-03 0. -1.
    9900012    2    1    2    0    0 -0.17352053947E+02  0.16782480294E+02  0.36067678259E+02  0.47787276089E+02  0.20000023002E+02 0.  0.
         12    1    1    2    0    0  0.17352053947E+02 -0.16782480294E+02 -0.36067678259E+02  0.43400723911E+02  0.00000000000E+00 0. -1.
         11    1    3    3    0    0 -0.70366705989E+00  0.96752219916E+01  0.18634542145E+02  0.21008360934E+02  0.51100000000E-03 0.  1.
        -11    1    3    3    0    0 -0.20614379750E+01 -0.21373141831E+01  0.17259859592E+01  0.34346275249E+01  0.51100000000E-03 0. -1.
        -12    1    3    3    0    0 -0.14586948912E+02  0.92445724852E+01  0.15707150154E+02  0.23344287631E+02  0.00000000000E+00 0.  1.
</event>
<event>
 7    1  0.1634068E-009  0.4778728E+02  0.7816164E-02  0.1312668E+00
        -11   -1    0    0    0    0  0.00000000000E+00  0.00000000000E+00  0.45593999997E+02  0.45594000000E+02  0.51100000000E-03 0.  1.
         11   -1    0    0    0    0 -0.00000000000E+00 -0.00000000000E+00 -0.45593999997E+02  0.45594000000E+02  0.51100000000E-03 0. -1.
    9900012    2    1    2    0    0  0.21131477656E+02 -0.29154139764E+02  0.24230550832E+02  0.47787276424E+02  0.20000024528E+02 0.  0.
         12    1    1    2    0    0 -0.21131477656E+02  0.29154139764E+02 -0.24230550832E+02  0.43400723576E+02  0.00000000000E+00 0. -1.
         11    1    3    3    0    0  0.12844097570E+01  0.75595851442E-01 -0.23710762002E+01  0.26976704329E+01  0.51100000000E-03 0. -1.
        -11    1    3    3    0    0  0.15709103014E+02 -0.16607194798E+02  0.14164440356E+02  0.26892493514E+02  0.51100000000E-03 0.  1.
        -12    1    3    3    0    0  0.41379648856E+01 -0.12622540818E+02  0.12437186676E+02  0.18197112477E+02  0.00000000000E+00 0.  1.
</event>
<event>
 7    1  0.1634068E-009  0.4778727E+02  0.7816164E-02  0.1312668E+00
        -11   -1    0    0    0    0  0.00000000000E+00  0.00000000000E+00  0.45593999997E+02  0.45594000000E+02  0.51100000000E-03 0.  1.
         11   -1    0    0    0    0 -0.00000000000E+00 -0.00000000000E+00 -0.45593999997E+02  0.45594000000E+02  0.51100000000E-03 0. -1.
    9900012    2    1    2    0    0 -0.27156590435E+02  0.18683805668E+02  0.28232225671E+02  0.47787267695E+02  0.19999984728E+02 0.  0.
         12    1    1    2    0    0  0.27156590435E+02 -0.18683805668E+02 -0.28232225671E+02  0.43400732305E+02  0.00000000000E+00 0. -1.
         11    1    3    3    0    0 -0.11616181333E+02  0.32313353011E+01  0.65759306374E+01  0.13733901871E+02  0.51100000000E-03 0. -1.
        -11    1    3    3    0    0 -0.13263223199E+02  0.43588493331E+01  0.72582972749E+01  0.15735168786E+02  0.51100000000E-03 0.  1.
         12    1    3    3    0    0 -0.22771859038E+01  0.11093621033E+02  0.14397997758E+02  0.18318197038E+02  0.00000000000E+00 0. -1.
</event>
<event>
 7    1  0.1634068E-009  0.4778727E+02  0.7816164E-02  0.1312668E+00
        -11   -1    0    0    0    0  0.00000000000E+00  0.00000000000E+00  0.45593999997E+02  0.45594000000E+02  0.51100000000E-03 0.  1.
         11   -1    0    0    0    0 -0.00000000000E+00 -0.00000000000E+00 -0.45593999997E+02  0.45594000000E+02  0.51100000000E-03 0. -1.
    9900012    2    1    2    0    0  0.92197739277E+01 -0.22778686859E+02  0.35773595723E+02  0.47787274692E+02  0.20000016629E+02 0.  0.
         12    1    1    2    0    0 -0.92197739277E+01  0.22778686859E+02 -0.35773595723E+02  0.43400725308E+02  0.00000000000E+00 0. -1.
         11    1    3    3    0    0  0.10465448972E+02 -0.13741016143E+02  0.25343670736E+02  0.30669900448E+02  0.51100000000E-03 0. -1.
        -11    1    3    3    0    0 -0.26041561886E+01 -0.88896869030E+01  0.11919602087E+02  0.15095862906E+02  0.51100000000E-03 0.  1.
         12    1    3    3    0    0  0.13584811442E+01 -0.14798381321E+00 -0.14896771001E+01  0.20215113382E+01  0.00000000000E+00 0. -1.
</event>
<event>
 7    1  0.1634068E-009  0.4778727E+02  0.7816164E-02  0.1312668E+00
        -11   -1    0    0    0    0  0.00000000000E+00  0.00000000000E+00  0.45593999997E+02  0.45594000000E+02  0.51100000000E-03 0.  1.
         11   -1    0    0    0    0 -0.00000000000E+00 -0.00000000000E+00 -0.45593999997E+02  0.45594000000E+02  0.51100000000E-03 0. -1.
    9900012    2    1    2    0    0 -0.33143997544E+02 -0.27802989348E+02  0.34774318196E+01  0.47787270491E+02  0.19999997476E+02 0.  0.
         12    1    1    2    0    0  0.33143997544E+02  0.27802989348E+02 -0.34774318196E+01  0.43400729509E+02  0.00000000000E+00 0. -1.
         11    1    3    3    0    0 -0.36125999101E+01 -0.10068262392E+02 -0.38305997971E+01  0.11361966413E+02  0.51100000000E-03 0. -1.
        -11    1    3    3    0    0  0.64037874919E+00  0.17727239888E-01 -0.84953820887E-01  0.64623262859E+00  0.51100000000E-03 0.  1.
        -12    1    3    3    0    0 -0.30171776383E+02 -0.17752454195E+02  0.73929854376E+01  0.35779071449E+02  0.00000000000E+00 0.  1.
</event>
<event>
 7    1  0.1634068E-009  0.4778727E+02  0.7816164E-02  0.1312668E+00
        -11   -1    0    0    0    0  0.00000000000E+00  0.00000000000E+00  0.45593999997E+02  0.45594000000E+02  0.51100000000E-03 0.  1.
         11   -1    0    0    0    0 -0.00000000000E+00 -0.00000000000E+00 -0.45593999997E+02  0.45594000000E+02  0.51100000000E-03 0. -1.
    9900012    2    1    2    0    0 -0.24283886860E+02  0.32021481735E+02  0.16387217601E+02  0.47787270119E+02  0.19999995780E+02 0.  0.
         12    1    1    2    0    0  0.24283886860E+02 -0.32021481735E+02 -0.16387217601E+02  0.43400729881E+02  0.00000000000E+00 0. -1.
         11    1    3    3    0    0 -0.13130836504E+02  0.53364228257E+01  0.50467231629E+01  0.15045454158E+02  0.51100000000E-03 0. -1.
        -11    1    3    3    0    0 -0.43331966157E+01  0.97020149521E+01  0.96655179317E+01  0.14364119332E+02  0.51100000000E-03 0.  1.
        -12    1    3    3    0    0 -0.68198537401E+01  0.16983043957E+02  0.16749765066E+01  0.18377696629E+02  0.00000000000E+00 0.  1.
</event>
<event>
 7    1  0.1634068E-009  0.4778727E+02  0.7816164E-02  0.1312668E+00
        -11   -1    0    0    0    0  0.00000000000E+00  0.00000000000E+00  0.45593999997E+02  0.45594000000E+02  0.51100000000E-03 0.  1.
         11   -1    0    0    0    0 -0.00000000000E+00 -0.00000000000E+00 -0.45593999997E+02  0.45594000000E+02  0.51100000000E-03 0. -1.
    9900012    2    1    2    0    0  0.95321206330E+01  0.23796667297E+02  0.35021146074E+02  0.47787269931E+02  0.19999994924E+02 0.  0.
         12    1    1    2    0    0 -0.95321206330E+01 -0.23796667297E+02 -0.35021146074E+02  0.43400730069E+02  0.00000000000E+00 0. -1.
         11    1    3    3    0    0  0.35224557664E+01  0.13073870261E+00  0.34072094874E+01  0.49024344960E+01  0.51100000000E-03 0. -1.
        -11    1    3    3    0    0 -0.35224627793E+01  0.97796751030E+01  0.19633905641E+02  0.22215761074E+02  0.51100000000E-03 0.  1.
         12    1    3    3    0    0  0.95321276459E+01  0.13886253491E+02  0.11980030946E+02  0.20669074361E+02  0.00000000000E+00 0. -1.
</event>
<event>
 7    1  0.1634068E-009  0.4778727E+02  0.7816164E-02  0.1312668E+00
        -11   -1    0    0    0    0  0.00000000000E+00  0.00000000000E+00  0.45593999997E+02  0.45594000000E+02  0.51100000000E-03 0.  1.
         11   -1    0    0    0    0 -0.00000000000E+00 -0.00000000000E+00 -0.45593999997E+02  0.45594000000E+02  0.51100000000E-03 0. -1.
    9900012    2    1    2    0    0  0.31375286290E+01  0.25860829351E+02  0.34713065391E+02  0.47787268561E+02  0.19999988677E+02 0.  0.
         12    1    1    2    0    0 -0.31375286290E+01 -0.25860829351E+02 -0.34713065391E+02  0.43400731439E+02  0.00000000000E+00 0. -1.
         11    1    3    3    0    0 -0.35988669050E+01  0.91996674440E+01  0.12541354449E+02  0.15964689028E+02  0.51100000000E-03 0.  1.
        -11    1    3    3    0    0  0.10762709119E+02  0.14433201765E+02  0.19321627273E+02  0.26409818279E+02  0.51100000000E-03 0. -1.
         12    1    3    3    0    0 -0.40263135848E+01  0.22279601414E+01  0.28500836685E+01  0.54127612540E+01  0.00000000000E+00 0. -1.
</event>
<event>
 7    1  0.1634068E-009  0.4778727E+02  0.7816164E-02  0.1312668E+00
        -11   -1    0    0    0    0  0.00000000000E+00  0.00000000000E+00  0.45593999997E+02  0.45594000000E+02  0.51100000000E-03 0.  1.
         11   -1    0    0    0    0 -0.00000000000E+00 -0.00000000000E+00 -0.45593999997E+02  0.45594000000E+02  0.51100000000E-03 0. -1.
    9900012    2    1    2    0    0 -0.39647904455E+02  0.47073660226E+01  0.17014922640E+02  0.47787271723E+02  0.20000003094E+02 0.  0.
         12    1    1    2    0    0  0.39647904455E+02 -0.47073660226E+01 -0.17014922640E+02  0.43400728277E+02  0.00000000000E+00 0. -1.
         11    1    3    3    0    0  0.13275714222E+01  0.44798267823E+00  0.86897968297E+00  0.16487147453E+01  0.51100000000E-03 0. -1.
        -11    1    3    3    0    0 -0.27023623917E+02 -0.71749540712E+00  0.15820183699E+02  0.31322025186E+02  0.51100000000E-03 0.  1.
         12    1    3    3    0    0 -0.13951851960E+02  0.49768787515E+01  0.32575925856E+00  0.14816531791E+02  0.00000000000E+00 0. -1.
</event>
<event>
 7    1  0.1634068E-009  0.4778727E+02  0.7816164E-02  0.1312668E+00
        -11   -1    0    0    0    0  0.00000000000E+00  0.00000000000E+00  0.45593999997E+02  0.45594000000E+02  0.51100000000E-03 0.  1.
         11   -1    0    0    0    0 -0.00000000000E+00 -0.00000000000E+00 -0.45593999997E+02  0.45594000000E+02  0.51100000000E-03 0. -1.
    9900012    2    1    2    0    0  0.38860281352E+02  0.10504390029E+02  0.16222193102E+02  0.47787271600E+02  0.20000002533E+02 0.  0.
         12    1    1    2    0    0 -0.38860281352E+02 -0.10504390029E+02 -0.16222193102E+02  0.43400728400E+02  0.00000000000E+00 0. -1.
         11    1    3    3    0    0  0.95656934105E+01  0.67011463659E+01  0.22050278812E+01  0.11885705753E+02  0.51100000000E-03 0. -1.
        -11    1    3    3    0    0  0.19227710626E+01 -0.12267176373E+01  0.67691795566E+01  0.71430859473E+01  0.51100000000E-03 0.  1.
         12    1    3    3    0    0  0.27371816879E+02  0.50299613001E+01  0.72479856639E+01  0.28758479899E+02  0.00000000000E+00 0. -1.
</event>
<event>
 7    1  0.1634068E-009  0.4778727E+02  0.7816164E-02  0.1312668E+00
        -11   -1    0    0    0    0  0.00000000000E+00  0.00000000000E+00  0.45593999997E+02  0.45594000000E+02  0.51100000000E-03 0.  1.
         11   -1    0    0    0    0 -0.00000000000E+00 -0.00000000000E+00 -0.45593999997E+02  0.45594000000E+02  0.51100000000E-03 0. -1.
    9900012    2    1    2    0    0 -0.29973579684E+02  0.22201839181E+01  0.31309402963E+02  0.47787269481E+02  0.19999992873E+02 0.  0.
         12    1    1    2    0    0  0.29973579684E+02 -0.22201839181E+01 -0.31309402963E+02  0.43400730519E+02  0.00000000000E+00 0. -1.
         11    1    3    3    0    0 -0.17769542927E+02  0.58948717990E+01  0.14482546714E+02  0.23669607706E+02  0.51100000000E-03 0. -1.
        -11    1    3    3    0    0 -0.12854570993E+02 -0.35303491772E+01  0.18218505437E+02  0.22574704901E+02  0.51100000000E-03 0.  1.
         12    1    3    3    0    0  0.65053423576E+00 -0.14433870373E+00 -0.13916491889E+01  0.15429568750E+01  0.00000000000E+00 0. -1.
</event>
<event>
 7    1  0.1634068E-009  0.4778727E+02  0.7816164E-02  0.1312668E+00
        -11   -1    0    0    0    0  0.00000000000E+00  0.00000000000E+00  0.45593999997E+02  0.45594000000E+02  0.51100000000E-03 0.  1.
         11   -1    0    0    0    0 -0.00000000000E+00 -0.00000000000E+00 -0.45593999997E+02  0.45594000000E+02  0.51100000000E-03 0. -1.
    9900012    2    1    2    0    0  0.27319070804E+02  0.30629321150E+02  0.14111565134E+02  0.47787271732E+02  0.20000003133E+02 0.  0.
         12    1    1    2    0    0 -0.27319070804E+02 -0.30629321150E+02 -0.14111565134E+02  0.43400728268E+02  0.00000000000E+00 0. -1.
         11    1    3    3    0    0  0.11386871086E+02  0.21862545254E+02  0.62789604122E+01  0.25437316334E+02  0.51100000000E-03 0. -1.
        -11    1    3    3    0    0  0.14813735399E+02  0.73166962278E+01  0.24981660735E+01  0.16709926216E+02  0.51100000000E-03 0.  1.
         12    1    3    3    0    0  0.11184643181E+01  0.14500796675E+01  0.53344386486E+01  0.56400291815E+01  0.00000000000E+00 0. -1.
</event>
<event>
 7    1  0.1634068E-009  0.4778727E+02  0.7816164E-02  0.1312668E+00
        -11   -1    0    0    0    0  0.00000000000E+00  0.00000000000E+00  0.45593999997E+02  0.45594000000E+02  0.51100000000E-03 0.  1.
         11   -1    0    0    0    0 -0.00000000000E+00 -0.00000000000E+00 -0.45593999997E+02  0.45594000000E+02  0.51100000000E-03 0. -1.
    9900012    2    1    2    0    0 -0.14624632643E+01  0.13070190505E+02  0.41360060954E+02  0.47787270505E+02  0.19999997538E+02 0.  0.
         12    1    1    2    0    0  0.14624632643E+01 -0.13070190505E+02 -0.41360060954E+02  0.43400729495E+02  0.00000000000E+00 0. -1.
         11    1    3    3    0    0  0.53074050692E+00  0.91886906758E+01  0.63805417009E+01  0.11199331876E+02  0.51100000000E-03 0. -1.
        -11    1    3    3    0    0  0.35971632483E+01  0.35653465064E+01  0.18630931484E+02  0.19307068327E+02  0.51100000000E-03 0.  1.
        -12    1    3    3    0    0 -0.55903670195E+01  0.31615332285E+00  0.16348587768E+02  0.17280870301E+02  0.00000000000E+00 0.  1.
</event>
<event>
 7    1  0.1634068E-009  0.4778727E+02  0.7816164E-02  0.1312668E+00
        -11   -1    0    0    0    0  0.00000000000E+00  0.00000000000E+00  0.45593999997E+02  0.45594000000E+02  0.51100000000E-03 0.  1.
         11   -1    0    0    0    0 -0.00000000000E+00 -0.00000000000E+00 -0.45593999997E+02  0.45594000000E+02  0.51100000000E-03 0. -1.
    9900012    2    1    2    0    0  0.25482194096E+02 -0.28709538423E+02  0.20249521649E+02  0.47787274898E+02  0.20000017569E+02 0.  0.
         12    1    1    2    0    0 -0.25482194096E+02  0.28709538423E+02 -0.20249521649E+02  0.43400725102E+02  0.00000000000E+00 0. -1.
         11    1    3    3    0    0 -0.14087150046E+01 -0.24884067974E+01 -0.12717130003E+01  0.31295208211E+01  0.51100000000E-03 0. -1.
        -11    1    3    3    0    0  0.11848695130E+02 -0.15399107253E+02  0.16416932000E+02  0.25436975784E+02  0.51100000000E-03 0.  1.
         12    1    3    3    0    0  0.15042213971E+02 -0.10822024372E+02  0.51043026500E+01  0.19220778293E+02  0.00000000000E+00 0. -1.
</event>
<event>
 7    1  0.1679302E-009  0.4778727E+02  0.7816164E-02  0.1312668E+00
        -11   -1    0    0    0    0  0.00000000000E+00  0.00000000000E+00  0.45593999997E+02  0.45594000000E+02  0.51100000000E-03 0.  1.
         11   -1    0    0    0    0 -0.00000000000E+00 -0.00000000000E+00 -0.45593999997E+02  0.45594000000E+02  0.51100000000E-03 0. -1.
    9900012    2    1    2    0    0  0.82869569066E+01  0.36687506560E+02  0.21655866646E+02  0.47787270138E+02  0.19999995866E+02 0.  0.
         12    1    1    2    0    0 -0.82869569066E+01 -0.36687506560E+02 -0.21655866646E+02  0.43400729862E+02  0.00000000000E+00 0. -1.
         11    1    3    3    0    0  0.67903824015E+01  0.11074618572E+02 -0.20201099030E+00  0.12992200675E+02  0.51100000000E-03 0. -1.
        -11    1    3    3    0    0  0.26526810010E+01  0.72556871884E+01  0.10980754342E+02  0.13426044810E+02  0.51100000000E-03 0.  1.
        -12    1    3    3    0    0 -0.11561064959E+01  0.18357200800E+02  0.10877123294E+02  0.21369024652E+02  0.00000000000E+00 0.  1.
</event>
<event>
 7    1  0.1634068E-009  0.4778727E+02  0.7816164E-02  0.1312668E+00
        -11   -1    0    0    0    0  0.00000000000E+00  0.00000000000E+00  0.45593999997E+02  0.45594000000E+02  0.51100000000E-03 0. -1.
         11   -1    0    0    0    0 -0.00000000000E+00 -0.00000000000E+00 -0.45593999997E+02  0.45594000000E+02  0.51100000000E-03 0.  1.
    9900012    2    1    2    0    0 -0.82966249267E+01 -0.41750110647E+02 -0.84686175251E+01  0.47787271815E+02  0.20000003513E+02 0.  0.
         12    1    1    2    0    0  0.82966249267E+01  0.41750110647E+02  0.84686175251E+01  0.43400728185E+02  0.00000000000E+00 0. -1.
         11    1    3    3    0    0 -0.16018171122E+01 -0.11538871231E+02 -0.93407881611E+01  0.14931901791E+02  0.51100000000E-03 0. -1.
        -11    1    3    3    0    0 -0.69705933889E+01 -0.27078384070E+02 -0.27056580805E+01  0.28091789582E+02  0.51100000000E-03 0.  1.
         12    1    3    3    0    0  0.27578557438E+00 -0.31328553456E+01  0.35778287165E+01  0.47635804417E+01  0.00000000000E+00 0. -1.
</event>
<event>
 7    1  0.1634068E-009  0.4778727E+02  0.7816164E-02  0.1312668E+00
        -11   -1    0    0    0    0  0.00000000000E+00  0.00000000000E+00  0.45593999997E+02  0.45594000000E+02  0.51100000000E-03 0.  1.
         11   -1    0    0    0    0 -0.00000000000E+00 -0.00000000000E+00 -0.45593999997E+02  0.45594000000E+02  0.51100000000E-03 0. -1.
    9900012    2    1    2    0    0  0.36004552849E+02 -0.18129402090E+02  0.16081678246E+02  0.47787269347E+02  0.19999992261E+02 0.  0.
         12    1    1    2    0    0 -0.36004552849E+02  0.18129402090E+02 -0.16081678246E+02  0.43400730653E+02  0.00000000000E+00 0. -1.
         11    1    3    3    0    0  0.13828972557E+02 -0.53858521915E+01  0.54774319380E+00  0.14850855487E+02  0.51100000000E-03 0. -1.
        -11    1    3    3    0    0  0.70452732306E+01  0.16609024554E+01  0.78491556397E+01  0.10677252286E+02  0.51100000000E-03 0.  1.
         12    1    3    3    0    0  0.15130307061E+02 -0.14404452354E+02  0.76847794126E+01  0.22259161574E+02  0.00000000000E+00 0. -1.
</event>
<event>
 7    1  0.1634068E-009  0.4778727E+02  0.7816164E-02  0.1312668E+00
        -11   -1    0    0    0    0  0.00000000000E+00  0.00000000000E+00  0.45593999997E+02  0.45594000000E+02  0.51100000000E-03 0.  1.
         11   -1    0    0    0    0 -0.00000000000E+00 -0.00000000000E+00 -0.45593999997E+02  0.45594000000E+02  0.51100000000E-03 0. -1.
    9900012    2    1    2    0    0 -0.10515654817E+02  0.41339452474E+02  0.80058619882E+01  0.47787272434E+02  0.20000006335E+02 0.  0.
         12    1    1    2    0    0  0.10515654817E+02 -0.41339452474E+02 -0.80058619882E+01  0.43400727566E+02  0.00000000000E+00 0. -1.
         11    1    3    3    0    0 -0.22189358274E+01  0.61275731416E+01 -0.42993743601E+01  0.78073970670E+01  0.51100000000E-03 0. -1.
        -11    1    3    3    0    0  0.21712425472E+01  0.10730582088E+02  0.64889563533E+01  0.12726595812E+02  0.51100000000E-03 0.  1.
        -12    1    3    3    0    0 -0.10467961536E+02  0.24481297244E+02  0.58162799950E+01  0.27253279554E+02  0.00000000000E+00 0.  1.
</event>
<event>
 7    1  0.1634068E-009  0.4778727E+02  0.7816164E-02  0.1312668E+00
        -11   -1    0    0    0    0  0.00000000000E+00  0.00000000000E+00  0.45593999997E+02  0.45594000000E+02  0.51100000000E-03 0.  1.
         11   -1    0    0    0    0 -0.00000000000E+00 -0.00000000000E+00 -0.45593999997E+02  0.45594000000E+02  0.51100000000E-03 0. -1.
    9900012    2    1    2    0    0  0.23513956260E+02 -0.74459416729E+01  0.35710991701E+02  0.47787272879E+02  0.20000008364E+02 0.  0.
         12    1    1    2    0    0 -0.23513956260E+02  0.74459416729E+01 -0.35710991701E+02  0.43400727121E+02  0.00000000000E+00 0. -1.
         11    1    3    3    0    0  0.50966925737E+01  0.29506279981E+01  0.14279591523E+02  0.15446333387E+02  0.51100000000E-03 0.  1.
        -11    1    3    3    0    0  0.86235558951E+01 -0.86011878400E+01  0.18148710212E+02  0.21856848610E+02  0.51100000000E-03 0. -1.
        -12    1    3    3    0    0  0.97937077908E+01 -0.17953818311E+01  0.32826899659E+01  0.10484090882E+02  0.00000000000E+00 0.  1.
</event>
<event>
 7    1  0.1634068E-009  0.4778727E+02  0.7816164E-02  0.1312668E+00
        -11   -1    0    0    0    0  0.00000000000E+00  0.00000000000E+00  0.45593999997E+02  0.45594000000E+02  0.51100000000E-03 0.  1.
         11   -1    0    0    0    0 -0.00000000000E+00 -0.00000000000E+00 -0.45593999997E+02  0.45594000000E+02  0.51100000000E-03 0. -1.
    9900012    2    1    2    0    0  0.35336095198E+02 -0.21888782929E+01  0.25103633407E+02  0.47787271639E+02  0.20000002709E+02 0.  0.
         12    1    1    2    0    0 -0.35336095198E+02  0.21888782929E+01 -0.25103633407E+02  0.43400728361E+02  0.00000000000E+00 0. -1.
         11    1    3    3    0    0  0.11532698352E+01 -0.56892801021E+00 -0.10481160149E+01  0.16589930185E+01  0.51100000000E-03 0. -1.
        -11    1    3    3    0    0  0.31500982802E+02 -0.12283454743E+01  0.28533362239E+02  0.42520271766E+02  0.51100000000E-03 0.  1.
        -12    1    3    3    0    0  0.26818425610E+01 -0.39160480831E+00 -0.23816128172E+01  0.36080068541E+01  0.00000000000E+00 0.  1.
</event>
<event>
 7    1  0.1634068E-009  0.4778728E+02  0.7816164E-02  0.1312668E+00
        -11   -1    0    0    0    0  0.00000000000E+00  0.00000000000E+00  0.45593999997E+02  0.45594000000E+02  0.51100000000E-03 0.  1.
         11   -1    0    0    0    0 -0.00000000000E+00 -0.00000000000E+00 -0.45593999997E+02  0.45594000000E+02  0.51100000000E-03 0. -1.
    9900012    2    1    2    0    0 -0.27296008422E+02  0.50697220286E+01  0.33359382332E+02  0.47787279421E+02  0.20000038192E+02 0.  0.
         12    1    1    2    0    0  0.27296008422E+02 -0.50697220286E+01 -0.33359382332E+02  0.43400720579E+02  0.00000000000E+00 0. -1.
         11    1    3    3    0    0 -0.14400203295E+02  0.21993941982E+01  0.55806625513E+01  0.15599582833E+02  0.51100000000E-03 0. -1.
        -11    1    3    3    0    0 -0.53250941570E+01  0.60305375088E+01  0.14349811288E+02  0.16451173049E+02  0.51100000000E-03 0.  1.
        -12    1    3    3    0    0 -0.75707109702E+01 -0.31602096784E+01  0.13428908492E+02  0.15736523539E+02  0.00000000000E+00 0.  1.
</event>
<event>
 7    1  0.1634068E-009  0.4778727E+02  0.7816164E-02  0.1312668E+00
        -11   -1    0    0    0    0  0.00000000000E+00  0.00000000000E+00  0.45593999997E+02  0.45594000000E+02  0.51100000000E-03 0. -1.
         11   -1    0    0    0    0 -0.00000000000E+00 -0.00000000000E+00 -0.45593999997E+02  0.45594000000E+02  0.51100000000E-03 0.  1.
    9900012    2    1    2    0    0 -0.27341019940E+02  0.31750314187E+02  0.11314129037E+02  0.47787270304E+02  0.19999996624E+02 0.  0.
         12    1    1    2    0    0  0.27341019940E+02 -0.31750314187E+02 -0.11314129037E+02  0.43400729696E+02  0.00000000000E+00 0. -1.
         11    1    3    3    0    0 -0.83352122024E+01  0.19975127088E+02  0.10629420194E+02  0.24113606917E+02  0.51100000000E-03 0. -1.
        -11    1    3    3    0    0 -0.42812792575E+01  0.36776572478E+01 -0.31131286078E+01  0.64456252531E+01  0.51100000000E-03 0.  1.
        -12    1    3    3    0    0 -0.14724528480E+02  0.80975298510E+01  0.37978374508E+01  0.17228038134E+02  0.00000000000E+00 0.  1.
</event>
<event>
 7    1  0.1634068E-009  0.4778729E+02  0.7816164E-02  0.1312668E+00
        -11   -1    0    0    0    0  0.00000000000E+00  0.00000000000E+00  0.45593999997E+02  0.45594000000E+02  0.51100000000E-03 0.  1.
         11   -1    0    0    0    0 -0.00000000000E+00 -0.00000000000E+00 -0.45593999997E+02  0.45594000000E+02  0.51100000000E-03 0. -1.
    9900012    2    1    2    0    0  0.54813263148E+01  0.12903781246E+01  0.43033845118E+02  0.47787287569E+02  0.20000075343E+02 0.  0.
         12    1    1    2    0    0 -0.54813263148E+01 -0.12903781246E+01 -0.43033845118E+02  0.43400712431E+02  0.00000000000E+00 0. -1.
         11    1    3    3    0    0  0.59767543566E+01 -0.17351040911E+01  0.12509577880E+02  0.13972176560E+02  0.51100000000E-03 0. -1.
        -11    1    3    3    0    0 -0.46125894522E+01 -0.40393803020E+01  0.16196809526E+02  0.17318464532E+02  0.51100000000E-03 0.  1.
         12    1    3    3    0    0  0.41171614105E+01  0.70648625178E+01  0.14327457713E+02  0.16496646477E+02  0.00000000000E+00 0. -1.
</event>
<event>
 7    1  0.1634068E-009  0.4778727E+02  0.7816164E-02  0.1312668E+00
        -11   -1    0    0    0    0  0.00000000000E+00  0.00000000000E+00  0.45593999997E+02  0.45594000000E+02  0.51100000000E-03 0. -1.
         11   -1    0    0    0    0 -0.00000000000E+00 -0.00000000000E+00 -0.45593999997E+02  0.45594000000E+02  0.51100000000E-03 0.  1.
    9900012    2    1    2    0    0 -0.24518285230E+02 -0.31375147123E+02 -0.17264921400E+02  0.47787266383E+02  0.19999978746E+02 0.  0.
         12    1    1    2    0    0  0.24518285230E+02  0.31375147123E+02  0.17264921400E+02  0.43400733617E+02  0.00000000000E+00 0. -1.
         11    1    3    3    0    0 -0.39427338165E+01 -0.14156896377E+02 -0.96163541726E+01  0.17562378336E+02  0.51100000000E-03 0. -1.
        -11    1    3    3    0    0 -0.15490682867E+02 -0.90824108612E+01 -0.97065988277E+01  0.20412484018E+02  0.51100000000E-03 0.  1.
         12    1    3    3    0    0 -0.50848685462E+01 -0.81358398843E+01  0.20580316006E+01  0.98124040288E+01  0.00000000000E+00 0. -1.
</event>
<event>
 7    1  0.1634068E-009  0.4778728E+02  0.7816164E-02  0.1312668E+00
        -11   -1    0    0    0    0  0.00000000000E+00  0.00000000000E+00  0.45593999997E+02  0.45594000000E+02  0.51100000000E-03 0. -1.
         11   -1    0    0    0    0 -0.00000000000E+00 -0.00000000000E+00 -0.45593999997E+02  0.45594000000E+02  0.51100000000E-03 0.  1.
    9900012    2    1    2    0    0 -0.32451508181E+02  0.27432112834E+02 -0.88318460277E+01  0.47787277633E+02  0.20000030038E+02 0.  0.
         12    1    1    2    0    0  0.32451508181E+02 -0.27432112834E+02  0.88318460277E+01  0.43400722367E+02  0.00000000000E+00 0. -1.
         11    1    3    3    0    0 -0.23464494523E+00  0.19681744657E+01 -0.36200874842E+01  0.41272027612E+01  0.51100000000E-03 0. -1.
        -11    1    3    3    0    0 -0.14103955940E+02  0.17847664582E+02  0.17480698122E+01  0.22814829662E+02  0.51100000000E-03 0.  1.
        -12    1    3    3    0    0 -0.18112907296E+02  0.76162737861E+01 -0.69598283556E+01  0.20845245209E+02  0.00000000000E+00 0.  1.
</event>
<event>
 7    1  0.1634068E-009  0.4778727E+02  0.7816164E-02  0.1312668E+00
        -11   -1    0    0    0    0  0.00000000000E+00  0.00000000000E+00  0.45593999997E+02  0.45594000000E+02  0.51100000000E-03 0.  1.
         11   -1    0    0    0    0 -0.00000000000E+00 -0.00000000000E+00 -0.45593999997E+02  0.45594000000E+02  0.51100000000E-03 0. -1.
    9900012    2    1    2    0    0 -0.98607390232E+01 -0.19709514211E+02  0.37388824890E+02  0.47787270154E+02  0.19999995939E+02 0.  0.
         12    1    1    2    0    0  0.98607390232E+01  0.19709514211E+02 -0.37388824890E+02  0.43400729846E+02  0.00000000000E+00 0. -1.
         11    1    3    3    0    0 -0.11920678660E+01 -0.52341574923E+01  0.25226866812E+02  0.25791708743E+02  0.51100000000E-03 0. -1.
        -11    1    3    3    0    0  0.40538743384E+00 -0.54773084011E+01  0.28821711058E+01  0.62025927511E+01  0.51100000000E-03 0.  1.
        -12    1    3    3    0    0 -0.90740585910E+01 -0.89980483178E+01  0.92797869724E+01  0.15792968660E+02  0.00000000000E+00 0.  1.
</event>
<event>
 7    1  0.1634068E-009  0.4778727E+02  0.7816164E-02  0.1312668E+00
        -11   -1    0    0    0    0  0.00000000000E+00  0.00000000000E+00  0.45593999997E+02  0.45594000000E+02  0.51100000000E-03 0.  1.
         11   -1    0    0    0    0 -0.00000000000E+00 -0.00000000000E+00 -0.45593999997E+02  0.45594000000E+02  0.51100000000E-03 0. -1.
    9900012    2    1    2    0    0 -0.32692692032E+02 -0.14540190673E+00  0.28544534072E+02  0.47787266372E+02  0.19999978698E+02 0.  0.
         12    1    1    2    0    0  0.32692692032E+02  0.14540190673E+00 -0.28544534072E+02  0.43400733628E+02  0.00000000000E+00 0. -1.
         11    1    3    3    0    0 -0.11314040981E+02  0.20340992149E+01  0.69012911652E+01  0.13407941787E+02  0.51100000000E-03 0. -1.
        -11    1    3    3    0    0 -0.16884809932E+02  0.17431262851E+01  0.22676008073E+02  0.28325547445E+02  0.51100000000E-03 0.  1.
         12    1    3    3    0    0 -0.44938411191E+01 -0.39226274067E+01 -0.10327651667E+01  0.60537771404E+01  0.00000000000E+00 0. -1.
</event>
<event>
 7    1  0.1634068E-009  0.4778727E+02  0.7816164E-02  0.1312668E+00
        -11   -1    0    0    0    0  0.00000000000E+00  0.00000000000E+00  0.45593999997E+02  0.45594000000E+02  0.51100000000E-03 0.  1.
         11   -1    0    0    0    0 -0.00000000000E+00 -0.00000000000E+00 -0.45593999997E+02  0.45594000000E+02  0.51100000000E-03 0. -1.
    9900012    2    1    2    0    0 -0.38704296520E+01  0.25755736610E+02  0.34717215637E+02  0.47787271255E+02  0.20000000960E+02 0.  0.
         12    1    1    2    0    0  0.38704296520E+01 -0.25755736610E+02 -0.34717215637E+02  0.43400728745E+02  0.00000000000E+00 0. -1.
         11    1    3    3    0    0 -0.30790749659E+01  0.11369161685E+02  0.14935286631E+02  0.19021075865E+02  0.51100000000E-03 0. -1.
        -11    1    3    3    0    0 -0.19637681943E+01  0.13615153930E+02  0.22114593043E+02  0.26043886572E+02  0.51100000000E-03 0.  1.
        -12    1    3    3    0    0  0.11724135082E+01  0.77142099564E+00 -0.23326640375E+01  0.27223088176E+01  0.00000000000E+00 0.  1.
</event>
<event>
 7    1  0.1634068E-009  0.4778727E+02  0.7816164E-02  0.1312668E+00
        -11   -1    0    0    0    0  0.00000000000E+00  0.00000000000E+00  0.45593999997E+02  0.45594000000E+02  0.51100000000E-03 0. -1.
         11   -1    0    0    0    0 -0.00000000000E+00 -0.00000000000E+00 -0.45593999997E+02  0.45594000000E+02  0.51100000000E-03 0.  1.
    9900012    2    1    2    0    0  0.12673341372E+02  0.39348370588E+02  0.13217999773E+02  0.47787269966E+02  0.19999995085E+02 0.  0.
         12    1    1    2    0    0 -0.12673341372E+02 -0.39348370588E+02 -0.13217999773E+02  0.43400730034E+02  0.00000000000E+00 0. -1.
         11    1    3    3    0    0  0.80990912679E+01  0.98762167082E+01  0.59870821010E+01  0.14106030206E+02  0.51100000000E-03 0. -1.
        -11    1    3    3    0    0 -0.12367608545E+01  0.21085217298E+01 -0.30226681056E+01  0.38874109680E+01  0.51100000000E-03 0.  1.
        -12    1    3    3    0    0  0.58110109583E+01  0.27363632150E+02  0.10253585777E+02  0.29793828792E+02  0.00000000000E+00 0.  1.
</event>
<event>
 7    1  0.1634068E-009  0.4778724E+02  0.7816164E-02  0.1312668E+00
        -11   -1    0    0    0    0  0.00000000000E+00  0.00000000000E+00  0.45593999997E+02  0.45594000000E+02  0.51100000000E-03 0. -1.
         11   -1    0    0    0    0 -0.00000000000E+00 -0.00000000000E+00 -0.45593999997E+02  0.45594000000E+02  0.51100000000E-03 0.  1.
    9900012    2    1    2    0    0  0.11265464327E+02  0.41911441883E+02  0.38206502452E+00  0.47787244006E+02  0.19999876719E+02 0.  0.
         12    1    1    2    0    0 -0.11265464327E+02 -0.41911441883E+02 -0.38206502452E+00  0.43400755994E+02  0.00000000000E+00 0. -1.
         11    1    3    3    0    0 -0.37959459271E+01  0.18165962048E+01 -0.97566096248E+00  0.43198543757E+01  0.51100000000E-03 0. -1.
        -11    1    3    3    0    0  0.20125699401E+01  0.28483004138E+01  0.19521343599E+01  0.39967589159E+01  0.51100000000E-03 0.  1.
        -12    1    3    3    0    0  0.13048840314E+02  0.37246545264E+02 -0.59440837293E+00  0.39470630714E+02  0.00000000000E+00 0.  1.
</event>
<event>
 7    1  0.1634068E-009  0.4778727E+02  0.7816164E-02  0.1312668E+00
        -11   -1    0    0    0    0  0.00000000000E+00  0.00000000000E+00  0.45593999997E+02  0.45594000000E+02  0.51100000000E-03 0.  1.
         11   -1    0    0    0    0 -0.00000000000E+00 -0.00000000000E+00 -0.45593999997E+02  0.45594000000E+02  0.51100000000E-03 0. -1.
    9900012    2    1    2    0    0 -0.27592596141E+02  0.31664510008E+02 -0.10937578696E+02  0.47787272085E+02  0.20000004744E+02 0.  0.
         12    1    1    2    0    0  0.27592596141E+02 -0.31664510008E+02  0.10937578696E+02  0.43400727915E+02  0.00000000000E+00 0. -1.
         11    1    3    3    0    0 -0.36445575180E+01  0.54965042506E+01 -0.35206507182E+01  0.74759173497E+01  0.51100000000E-03 0. -1.
        -11    1    3    3    0    0 -0.21639901385E+02  0.16945503187E+02  0.11565889400E+01  0.27509509419E+02  0.51100000000E-03 0.  1.
        -12    1    3    3    0    0 -0.23081372378E+01  0.92225025703E+01 -0.85735169180E+01  0.12801845317E+02  0.00000000000E+00 0.  1.
</event>
<event>
 7    1  0.1634068E-009  0.4778727E+02  0.7816164E-02  0.1312668E+00
        -11   -1    0    0    0    0  0.00000000000E+00  0.00000000000E+00  0.45593999997E+02  0.45594000000E+02  0.51100000000E-03 0.  1.
         11   -1    0    0    0    0 -0.00000000000E+00 -0.00000000000E+00 -0.45593999997E+02  0.45594000000E+02  0.51100000000E-03 0. -1.
    9900012    2    1    2    0    0 -0.61210274157E+01 -0.18909873199E+02  0.38582028969E+02  0.47787271430E+02  0.20000001759E+02 0.  0.
         12    1    1    2    0    0  0.61210274157E+01  0.18909873199E+02 -0.38582028969E+02  0.43400728570E+02  0.00000000000E+00 0. -1.
         11    1    3    3    0    0  0.15208609653E+01 -0.20551557236E+01 -0.29017635978E+00  0.25731081798E+01  0.51100000000E-03 0. -1.
        -11    1    3    3    0    0  0.16037163669E+01  0.82285116325E+00  0.97442071082E+01  0.99095187901E+01  0.51100000000E-03 0.  1.
        -12    1    3    3    0    0 -0.92456047479E+01 -0.17677568639E+02  0.29127998221E+02  0.35304644460E+02  0.00000000000E+00 0.  1.
</event>
<event>
 7    1  0.1650330E-009  0.4778728E+02  0.7816164E-02  0.1312668E+00
        -11   -1    0    0    0    0  0.00000000000E+00  0.00000000000E+00  0.45593999997E+02  0.45594000000E+02  0.51100000000E-03 0. -1.
         11   -1    0    0    0    0 -0.00000000000E+00 -0.00000000000E+00 -0.45593999997E+02  0.45594000000E+02  0.51100000000E-03 0.  1.
    9900012    2    1    2    0    0  0.28377109776E+02 -0.13573058020E+02  0.29902081926E+02  0.47787276887E+02  0.20000026637E+02 0.  0.
         12    1    1    2    0    0 -0.28377109776E+02  0.13573058020E+02 -0.29902081926E+02  0.43400723113E+02  0.00000000000E+00 0. -1.
         11    1    3    3    0    0  0.19000560088E+01  0.26916502183E+01  0.40486065288E+01  0.52198092705E+01  0.51100000000E-03 0.  1.
        -11    1    3    3    0    0  0.14682033537E+02 -0.10485632384E+02  0.22813616070E+02  0.29085592202E+02  0.51100000000E-03 0. -1.
        -12    1    3    3    0    0  0.11795020230E+02 -0.57790758542E+01  0.30398593270E+01  0.13481875414E+02  0.00000000000E+00 0.  1.
</event>
<event>
 7    1  0.1634068E-009  0.4778727E+02  0.7816164E-02  0.1312668E+00
        -11   -1    0    0    0    0  0.00000000000E+00  0.00000000000E+00  0.45593999997E+02  0.45594000000E+02  0.51100000000E-03 0.  1.
         11   -1    0    0    0    0 -0.00000000000E+00 -0.00000000000E+00 -0.45593999997E+02  0.45594000000E+02  0.51100000000E-03 0. -1.
    9900012    2    1    2    0    0  0.75739475045E+01 -0.19685541616E+02  0.37930698886E+02  0.47787272500E+02  0.20000006637E+02 0.  0.
         12    1    1    2    0    0 -0.75739475045E+01  0.19685541616E+02 -0.37930698886E+02  0.43400727500E+02  0.00000000000E+00 0. -1.
         11    1    3    3    0    0 -0.36220915175E+01 -0.40154692020E+01  0.19017297732E+01  0.57323744003E+01  0.51100000000E-03 0. -1.
        -11    1    3    3    0    0  0.22809282192E+01 -0.11672135045E+02  0.20842271258E+02  0.23996700638E+02  0.51100000000E-03 0.  1.
        -12    1    3    3    0    0  0.89151108028E+01 -0.39979373694E+01  0.15186697855E+02  0.18058197462E+02  0.00000000000E+00 0.  1.
</event>
<event>
 7    1  0.1691326E-009  0.4778727E+02  0.7816164E-02  0.1312668E+00
        -11   -1    0    0    0    0  0.00000000000E+00  0.00000000000E+00  0.45593999997E+02  0.45594000000E+02  0.51100000000E-03 0.  1.
         11   -1    0    0    0    0 -0.00000000000E+00 -0.00000000000E+00 -0.45593999997E+02  0.45594000000E+02  0.51100000000E-03 0. -1.
    9900012    2    1    2    0    0 -0.21007475276E+02  0.88367035619E+01  0.36935374581E+02  0.47787271403E+02  0.20000001633E+02 0.  0.
         12    1    1    2    0    0  0.21007475276E+02 -0.88367035619E+01 -0.36935374581E+02  0.43400728597E+02  0.00000000000E+00 0. -1.
         11    1    3    3    0    0  0.14669470435E+01 -0.61947328971E+00  0.11554141673E+02  0.11663355900E+02  0.51100000000E-03 0. -1.
        -11    1    3    3    0    0 -0.12879648854E+02  0.44773819941E+01  0.19567858393E+02  0.23850228226E+02  0.51100000000E-03 0.  1.
        -12    1    3    3    0    0 -0.95947734661E+01  0.49787948575E+01  0.58133745154E+01  0.12273687276E+02  0.00000000000E+00 0.  1.
</event>
<event>
 7    1  0.1634068E-009  0.4778727E+02  0.7816164E-02  0.1312668E+00
        -11   -1    0    0    0    0  0.00000000000E+00  0.00000000000E+00  0.45593999997E+02  0.45594000000E+02  0.51100000000E-03 0.  1.
         11   -1    0    0    0    0 -0.00000000000E+00 -0.00000000000E+00 -0.45593999997E+02  0.45594000000E+02  0.51100000000E-03 0. -1.
    9900012    2    1    2    0    0  0.38731360716E+02  0.60081046301E+01 -0.18638874027E+02  0.47787271329E+02  0.20000001299E+02 0.  0.
         12    1    1    2    0    0 -0.38731360716E+02 -0.60081046301E+01  0.18638874027E+02  0.43400728671E+02  0.00000000000E+00 0. -1.
         11    1    3    3    0    0  0.47049104487E+01 -0.11914352542E+01  0.31494810456E+01  0.57857524500E+01  0.51100000000E-03 0. -1.
        -11    1    3    3    0    0  0.17140775186E+02 -0.83325851213E+00 -0.93419854652E+01  0.19539017028E+02  0.51100000000E-03 0.  1.
        -12    1    3    3    0    0  0.16885675081E+02  0.80327983964E+01 -0.12446369607E+02  0.22462501852E+02  0.00000000000E+00 0.  1.
</event>
<event>
 7    1  0.1634068E-009  0.4778727E+02  0.7816164E-02  0.1312668E+00
        -11   -1    0    0    0    0  0.00000000000E+00  0.00000000000E+00  0.45593999997E+02  0.45594000000E+02  0.51100000000E-03 0.  1.
         11   -1    0    0    0    0 -0.00000000000E+00 -0.00000000000E+00 -0.45593999997E+02  0.45594000000E+02  0.51100000000E-03 0. -1.
    9900012    2    1    2    0    0 -0.23857717325E+02 -0.88857987686E+01  0.35149325501E+02  0.47787272139E+02  0.20000004989E+02 0.  0.
         12    1    1    2    0    0  0.23857717325E+02  0.88857987686E+01 -0.35149325501E+02  0.43400727861E+02  0.00000000000E+00 0. -1.
         11    1    3    3    0    0 -0.16355860380E+02 -0.78062348070E+01  0.17942790983E+02  0.25502847275E+02  0.51100000000E-03 0.  1.
        -11    1    3    3    0    0 -0.79574149208E+00 -0.46117885165E+01  0.16194621131E+01  0.49522172449E+01  0.51100000000E-03 0. -1.
        -12    1    3    3    0    0 -0.67061154525E+01  0.35322245549E+01  0.15587072405E+02  0.17332207618E+02  0.00000000000E+00 0.  1.
</event>
<event>
 7    1  0.1634068E-009  0.4778728E+02  0.7816164E-02  0.1312668E+00
        -11   -1    0    0    0    0  0.00000000000E+00  0.00000000000E+00  0.45593999997E+02  0.45594000000E+02  0.51100000000E-03 0.  1.
         11   -1    0    0    0    0 -0.00000000000E+00 -0.00000000000E+00 -0.45593999997E+02  0.45594000000E+02  0.51100000000E-03 0. -1.
    9900012    2    1    2    0    0  0.37677082799E+02 -0.21037847350E+02 -0.46334388013E+01  0.47787281751E+02  0.20000048815E+02 0.  0.
         12    1    1    2    0    0 -0.37677082799E+02  0.21037847350E+02  0.46334388013E+01  0.43400718249E+02  0.00000000000E+00 0. -1.
         11    1    3    3    0    0  0.13838785723E+02 -0.15383556204E+01 -0.27805775451E+01  0.14198948554E+02  0.51100000000E-03 0. -1.
        -11    1    3    3    0    0  0.27010021760E+01  0.15165490484E+01  0.17606995496E+01  0.35630600523E+01  0.51100000000E-03 0.  1.
        -12    1    3    3    0    0  0.21137294900E+02 -0.21016040778E+02 -0.36135608058E+01  0.30025273144E+02  0.00000000000E+00 0.  1.
</event>
<event>
 7    1  0.1634068E-009  0.4778729E+02  0.7816164E-02  0.1312668E+00
        -11   -1    0    0    0    0  0.00000000000E+00  0.00000000000E+00  0.45593999997E+02  0.45594000000E+02  0.51100000000E-03 0. -1.
         11   -1    0    0    0    0 -0.00000000000E+00 -0.00000000000E+00 -0.45593999997E+02  0.45594000000E+02  0.51100000000E-03 0.  1.
    9900012    2    1    2    0    0 -0.18917811658E+01  0.33448137455E+02  0.27591030863E+02  0.47787288955E+02  0.20000081659E+02 0.  0.
         12    1    1    2    0    0  0.18917811658E+01 -0.33448137455E+02 -0.27591030863E+02  0.43400711045E+02  0.00000000000E+00 0. -1.
         11    1    3    3    0    0  0.49410358341E+01  0.46370119789E+01  0.34759364086E+01  0.76156319097E+01  0.51100000000E-03 0. -1.
        -11    1    3    3    0    0 -0.53198741019E+01  0.13680293492E+02  0.44998403270E+01  0.15352525972E+02  0.51100000000E-03 0.  1.
         12    1    3    3    0    0 -0.15129428981E+01  0.15130831983E+02  0.19615254128E+02  0.24819131073E+02  0.00000000000E+00 0. -1.
</event>
<event>
 7    1  0.1634068E-009  0.4778727E+02  0.7816164E-02  0.1312668E+00
        -11   -1    0    0    0    0  0.00000000000E+00  0.00000000000E+00  0.45593999997E+02  0.45594000000E+02  0.51100000000E-03 0.  1.
         11   -1    0    0    0    0 -0.00000000000E+00 -0.00000000000E+00 -0.45593999997E+02  0.45594000000E+02  0.51100000000E-03 0. -1.
    9900012    2    1    2    0    0  0.29233983658E+02  0.29790388565E+02  0.11896641529E+02  0.47787272690E+02  0.20000007503E+02 0.  0.
         12    1    1    2    0    0 -0.29233983658E+02 -0.29790388565E+02 -0.11896641529E+02  0.43400727310E+02  0.00000000000E+00 0. -1.
         11    1    3    3    0    0  0.13977308165E+01  0.44522925579E+01  0.66860802075E+01  0.81535409031E+01  0.51100000000E-03 0.  1.
        -11    1    3    3    0    0  0.48644479274E+01  0.10637819306E+02  0.38971590843E+01  0.12329391811E+02  0.51100000000E-03 0. -1.
        -12    1    3    3    0    0  0.22971804914E+02  0.14700276700E+02  0.13134022368E+01  0.27304339976E+02  0.00000000000E+00 0.  1.
</event>
<event>
 7    1  0.1634068E-009  0.4778727E+02  0.7816164E-02  0.1312668E+00
        -11   -1    0    0    0    0  0.00000000000E+00  0.00000000000E+00  0.45593999997E+02  0.45594000000E+02  0.51100000000E-03 0. -1.
         11   -1    0    0    0    0 -0.00000000000E+00 -0.00000000000E+00 -0.45593999997E+02  0.45594000000E+02  0.51100000000E-03 0.  1.
    9900012    2    1    2    0    0  0.72895413518E+01 -0.38396733013E+02 -0.18872643495E+02  0.47787271991E+02  0.20000004317E+02 0.  0.
         12    1    1    2    0    0 -0.72895413518E+01  0.38396733013E+02  0.18872643495E+02  0.43400728009E+02  0.00000000000E+00 0. -1.
         11    1    3    3    0    0  0.11923715884E+02 -0.17391614277E+02 -0.71182688115E+01  0.22255628474E+02  0.51100000000E-03 0. -1.
        -11    1    3    3    0    0 -0.14351053478E+01 -0.72533039566E+01 -0.38476579351E+00  0.74039172486E+01  0.51100000000E-03 0.  1.
         12    1    3    3    0    0 -0.31990691840E+01 -0.13751814780E+02 -0.11369608890E+02  0.18127726269E+02  0.00000000000E+00 0. -1.
</event>
<event>
 7    1  0.1634068E-009  0.4778728E+02  0.7816164E-02  0.1312668E+00
        -11   -1    0    0    0    0  0.00000000000E+00  0.00000000000E+00  0.45593999997E+02  0.45594000000E+02  0.51100000000E-03 0.  1.
         11   -1    0    0    0    0 -0.00000000000E+00 -0.00000000000E+00 -0.45593999997E+02  0.45594000000E+02  0.51100000000E-03 0. -1.
    9900012    2    1    2    0    0  0.34375204136E+02  0.29414225845E+00  0.26493050446E+02  0.47787275340E+02  0.20000019585E+02 0.  0.
         12    1    1    2    0    0 -0.34375204136E+02 -0.29414225845E+00 -0.26493050446E+02  0.43400724660E+02  0.00000000000E+00 0. -1.
         11    1    3    3    0    0  0.37824275274E+00  0.79273253224E-01 -0.22497914403E+01  0.22827425642E+01  0.51100000000E-03 0. -1.
        -11    1    3    3    0    0  0.14324893751E+02  0.44129179128E+01  0.10064285873E+02  0.18054536157E+02  0.51100000000E-03 0.  1.
         12    1    3    3    0    0  0.19672067633E+02 -0.41980489076E+01  0.18678556014E+02  0.27449996618E+02  0.00000000000E+00 0. -1.
</event>
<event>
 7    1  0.2347225E-009  0.4778727E+02  0.7816164E-02  0.1312668E+00
        -11   -1    0    0    0    0  0.00000000000E+00  0.00000000000E+00  0.45593999997E+02  0.45594000000E+02  0.51100000000E-03 0.  1.
         11   -1    0    0    0    0 -0.00000000000E+00 -0.00000000000E+00 -0.45593999997E+02  0.45594000000E+02  0.51100000000E-03 0. -1.
    9900012    2    1    2    0    0 -0.16359223131E+00 -0.40560334307E+02  0.15442023848E+02  0.47787267494E+02  0.19999983813E+02 0.  0.
         12    1    1    2    0    0  0.16359223131E+00  0.40560334307E+02 -0.15442023848E+02  0.43400732506E+02  0.00000000000E+00 0. -1.
         11    1    3    3    0    0  0.56698457146E+00  0.19331146666E+00  0.33252088307E+01  0.33787356890E+01  0.51100000000E-03 0. -1.
        -11    1    3    3    0    0  0.58603294037E+01 -0.24344557823E+02  0.70233570384E+01  0.26006316553E+02  0.51100000000E-03 0.  1.
        -12    1    3    3    0    0 -0.65909062065E+01 -0.16409087951E+02  0.50934579784E+01  0.18402215252E+02  0.00000000000E+00 0.  1.
</event>
<event>
 7    1  0.1634068E-009  0.4778727E+02  0.7816164E-02  0.1312668E+00
        -11   -1    0    0    0    0  0.00000000000E+00  0.00000000000E+00  0.45593999997E+02  0.45594000000E+02  0.51100000000E-03 0. -1.
         11   -1    0    0    0    0 -0.00000000000E+00 -0.00000000000E+00 -0.45593999997E+02  0.45594000000E+02  0.51100000000E-03 0.  1.
    9900012    2    1    2    0    0  0.29206743402E+02 -0.25331767898E+02 -0.19720317763E+02  0.47787271231E+02  0.20000000852E+02 0.  0.
         12    1    1    2    0    0 -0.29206743402E+02  0.25331767898E+02  0.19720317763E+02  0.43400728769E+02  0.00000000000E+00 0. -1.
         11    1    3    3    0    0  0.70618578094E+01 -0.67985656914E+01  0.70568998857E+00  0.98279361924E+01  0.51100000000E-03 0. -1.
        -11    1    3    3    0    0  0.34609625757E-02  0.15467000172E+00  0.15728068171E+01  0.15803975237E+01  0.51100000000E-03 0.  1.
        -12    1    3    3    0    0  0.22141424630E+02 -0.18687872208E+02 -0.21998814569E+02  0.36378937515E+02  0.00000000000E+00 0.  1.
</event>
<event>
 7    1  0.1634068E-009  0.4778727E+02  0.7816164E-02  0.1312668E+00
        -11   -1    0    0    0    0  0.00000000000E+00  0.00000000000E+00  0.45593999997E+02  0.45594000000E+02  0.51100000000E-03 0.  1.
         11   -1    0    0    0    0 -0.00000000000E+00 -0.00000000000E+00 -0.45593999997E+02  0.45594000000E+02  0.51100000000E-03 0. -1.
    9900012    2    1    2    0    0 -0.12123190296E+02 -0.40086431588E+02  0.11389909731E+02  0.47787265167E+02  0.19999973203E+02 0.  0.
         12    1    1    2    0    0  0.12123190296E+02  0.40086431588E+02 -0.11389909731E+02  0.43400734833E+02  0.00000000000E+00 0. -1.
         11    1    3    3    0    0 -0.68466436257E+01 -0.18577195014E+02  0.21366678442E+00  0.19799857507E+02  0.51100000000E-03 0. -1.
        -11    1    3    3    0    0  0.36814986162E+01 -0.28139836978E+01  0.47604500682E+00  0.46581708236E+01  0.51100000000E-03 0.  1.
        -12    1    3    3    0    0 -0.89580452861E+01 -0.18695252875E+02  0.10700197940E+02  0.23329236836E+02  0.00000000000E+00 0.  1.
</event>
<event>
 7    1  0.1634068E-009  0.4778727E+02  0.7816164E-02  0.1312668E+00
        -11   -1    0    0    0    0  0.00000000000E+00  0.00000000000E+00  0.45593999997E+02  0.45594000000E+02  0.51100000000E-03 0.  1.
         11   -1    0    0    0    0 -0.00000000000E+00 -0.00000000000E+00 -0.45593999997E+02  0.45594000000E+02  0.51100000000E-03 0. -1.
    9900012    2    1    2    0    0  0.31053701620E+02 -0.28360923125E+02  0.10721429217E+02  0.47787269715E+02  0.19999993938E+02 0.  0.
         12    1    1    2    0    0 -0.31053701620E+02  0.28360923125E+02 -0.10721429217E+02  0.43400730285E+02  0.00000000000E+00 0. -1.
         11    1    3    3    0    0  0.15349800401E+02 -0.10218849406E+02  0.24905724211E+01  0.18607638398E+02  0.51100000000E-03 0. -1.
        -11    1    3    3    0    0 -0.21609470118E+00 -0.79600288689E+01 -0.12110554506E+01  0.80545274274E+01  0.51100000000E-03 0.  1.
         12    1    3    3    0    0  0.15919995921E+02 -0.10182044851E+02  0.94419122467E+01  0.21125103889E+02  0.00000000000E+00 0. -1.
</event>
<event>
 7    1  0.1634068E-009  0.4778727E+02  0.7816164E-02  0.1312668E+00
        -11   -1    0    0    0    0  0.00000000000E+00  0.00000000000E+00  0.45593999997E+02  0.45594000000E+02  0.51100000000E-03 0.  1.
         11   -1    0    0    0    0 -0.00000000000E+00 -0.00000000000E+00 -0.45593999997E+02  0.45594000000E+02  0.51100000000E-03 0. -1.
    9900012    2    1    2    0    0  0.22191737587E+02  0.18119226664E+01  0.37254086927E+02  0.47787271047E+02  0.20000000012E+02 0.  0.
         12    1    1    2    0    0 -0.22191737587E+02 -0.18119226664E+01 -0.37254086927E+02  0.43400728953E+02  0.00000000000E+00 0. -1.
         11    1    3    3    0    0  0.12956264524E+02  0.47928533598E+01  0.31769322191E+02  0.34642835717E+02  0.51100000000E-03 0. -1.
        -11    1    3    3    0    0  0.51573982138E+01  0.70683295953E+00  0.55989541336E+01  0.76450413223E+01  0.51100000000E-03 0.  1.
        -12    1    3    3    0    0  0.40780748490E+01 -0.36877636528E+01 -0.11418939802E+00  0.54993940077E+01  0.00000000000E+00 0.  1.
</event>
<event>
 7    1  0.1634068E-009  0.4778727E+02  0.7816164E-02  0.1312668E+00
        -11   -1    0    0    0    0  0.00000000000E+00  0.00000000000E+00  0.45593999997E+02  0.45594000000E+02  0.51100000000E-03 0. -1.
         11   -1    0    0    0    0 -0.00000000000E+00 -0.00000000000E+00 -0.45593999997E+02  0.45594000000E+02  0.51100000000E-03 0.  1.
    9900012    2    1    2    0    0 -0.20462345755E+02 -0.37592663045E+02  0.71907641780E+01  0.47787274222E+02  0.20000014488E+02 0.  0.
         12    1    1    2    0    0  0.20462345755E+02  0.37592663045E+02 -0.71907641780E+01  0.43400725778E+02  0.00000000000E+00 0. -1.
         11    1    3    3    0    0 -0.11960530820E+01 -0.15821059851E+02 -0.14365251261E+01  0.15931104245E+02  0.51100000000E-03 0. -1.
        -11    1    3    3    0    0 -0.75156775034E+01 -0.44372496100E+01 -0.10422456354E+01  0.87898161905E+01  0.51100000000E-03 0.  1.
        -12    1    3    3    0    0 -0.11750615170E+02 -0.17334353584E+02  0.96695349395E+01  0.23066353786E+02  0.00000000000E+00 0.  1.
</event>
<event>
 7    1  0.1634068E-009  0.4778728E+02  0.7816164E-02  0.1312668E+00
        -11   -1    0    0    0    0  0.00000000000E+00  0.00000000000E+00  0.45593999997E+02  0.45594000000E+02  0.51100000000E-03 0. -1.
         11   -1    0    0    0    0 -0.00000000000E+00 -0.00000000000E+00 -0.45593999997E+02  0.45594000000E+02  0.51100000000E-03 0.  1.
    9900012    2    1    2    0    0 -0.42197227916E+02 -0.98552734743E+01 -0.24269787169E+01  0.47787277832E+02  0.20000030947E+02 0.  0.
         12    1    1    2    0    0  0.42197227916E+02  0.98552734743E+01  0.24269787169E+01  0.43400722168E+02  0.00000000000E+00 0. -1.
         11    1    3    3    0    0 -0.13846171495E+02 -0.36182327701E+01 -0.27319337730E+01  0.14569541374E+02  0.51100000000E-03 0. -1.
        -11    1    3    3    0    0 -0.25919444185E+02 -0.10030640297E+02 -0.25083272992E+01  0.27905609431E+02  0.51100000000E-03 0.  1.
         12    1    3    3    0    0 -0.24316122351E+01  0.37935995928E+01  0.28132823552E+01  0.53121270262E+01  0.00000000000E+00 0. -1.
</event>
<event>
 7    1  0.1634068E-009  0.4778727E+02  0.7816164E-02  0.1312668E+00
        -11   -1    0    0    0    0  0.00000000000E+00  0.00000000000E+00  0.45593999997E+02  0.45594000000E+02  0.51100000000E-03 0.  1.
         11   -1    0    0    0    0 -0.00000000000E+00 -0.00000000000E+00 -0.45593999997E+02  0.45594000000E+02  0.51100000000E-03 0. -1.
    9900012    2    1    2    0    0 -0.31975010177E+02  0.15388082883E+02  0.24988579835E+02  0.47787268523E+02  0.19999988502E+02 0.  0.
         12    1    1    2    0    0  0.31975010177E+02 -0.15388082883E+02 -0.24988579835E+02  0.43400731477E+02  0.00000000000E+00 0. -1.
         11    1    3    3    0    0 -0.19473036129E+02  0.30219184502E+01  0.92670483275E+01  0.21776347540E+02  0.51100000000E-03 0. -1.
        -11    1    3    3    0    0 -0.12079968680E+02  0.13418269289E+02  0.10970362212E+02  0.21126392057E+02  0.51100000000E-03 0.  1.
        -12    1    3    3    0    0 -0.42200536785E+00 -0.10521048559E+01  0.47511692951E+01  0.48845289260E+01  0.00000000000E+00 0.  1.
</event>
<event>
 7    1  0.1634068E-009  0.4778727E+02  0.7816164E-02  0.1312668E+00
        -11   -1    0    0    0    0  0.00000000000E+00  0.00000000000E+00  0.45593999997E+02  0.45594000000E+02  0.51100000000E-03 0.  1.
         11   -1    0    0    0    0 -0.00000000000E+00 -0.00000000000E+00 -0.45593999997E+02  0.45594000000E+02  0.51100000000E-03 0. -1.
    9900012    2    1    2    0    0 -0.22050986993E+02 -0.43664093322E+01  0.37125621753E+02  0.47787270186E+02  0.19999996088E+02 0.  0.
         12    1    1    2    0    0  0.22050986993E+02  0.43664093322E+01 -0.37125621753E+02  0.43400729814E+02  0.00000000000E+00 0. -1.
         11    1    3    3    0    0 -0.14267642451E+01  0.25203104316E+01  0.38980987561E+01  0.48562120069E+01  0.51100000000E-03 0. -1.
        -11    1    3    3    0    0 -0.15948565240E+02 -0.76225304805E+01  0.12449101587E+02  0.21620356951E+02  0.51100000000E-03 0.  1.
        -12    1    3    3    0    0 -0.46756575081E+01  0.73581071674E+00  0.20778421410E+02  0.21310701228E+02  0.00000000000E+00 0.  1.
</event>
<event>
 7    1  0.1634068E-009  0.4778727E+02  0.7816164E-02  0.1312668E+00
        -11   -1    0    0    0    0  0.00000000000E+00  0.00000000000E+00  0.45593999997E+02  0.45594000000E+02  0.51100000000E-03 0.  1.
         11   -1    0    0    0    0 -0.00000000000E+00 -0.00000000000E+00 -0.45593999997E+02  0.45594000000E+02  0.51100000000E-03 0. -1.
    9900012    2    1    2    0    0 -0.29528407144E+02 -0.31226388227E+02  0.60505505011E+01  0.47787270611E+02  0.19999998022E+02 0.  0.
         12    1    1    2    0    0  0.29528407144E+02  0.31226388227E+02 -0.60505505011E+01  0.43400729389E+02  0.00000000000E+00 0. -1.
         11    1    3    3    0    0  0.15672514373E+00  0.83458393609E+00 -0.27229208060E+00  0.89176025664E+00  0.51100000000E-03 0. -1.
        -11    1    3    3    0    0 -0.24701802527E+02 -0.25899610241E+02  0.11306751162E+02  0.37534137539E+02  0.51100000000E-03 0.  1.
         12    1    3    3    0    0 -0.49833297606E+01 -0.61613619223E+01 -0.49839085802E+01  0.93613728147E+01  0.00000000000E+00 0. -1.
</event>
<event>
 7    1  0.1634068E-009  0.4778727E+02  0.7816164E-02  0.1312668E+00
        -11   -1    0    0    0    0  0.00000000000E+00  0.00000000000E+00  0.45593999997E+02  0.45594000000E+02  0.51100000000E-03 0.  1.
         11   -1    0    0    0    0 -0.00000000000E+00 -0.00000000000E+00 -0.45593999997E+02  0.45594000000E+02  0.51100000000E-03 0. -1.
    9900012    2    1    2    0    0  0.29715755056E+02 -0.14886860322E+02  0.27910183478E+02  0.47787273617E+02  0.20000011727E+02 0.  0.
         12    1    1    2    0    0 -0.29715755056E+02  0.14886860322E+02 -0.27910183478E+02  0.43400726383E+02  0.00000000000E+00 0. -1.
         11    1    3    3    0    0  0.44305654884E+01 -0.77766773708E+01  0.93361935291E+01  0.12933334116E+02  0.51100000000E-03 0. -1.
        -11    1    3    3    0    0  0.23067129139E+02 -0.97288720503E+01  0.12751334746E+02  0.28095194183E+02  0.51100000000E-03 0.  1.
         12    1    3    3    0    0  0.22180604287E+01  0.26186890989E+01  0.58226552027E+01  0.67587453178E+01  0.00000000000E+00 0. -1.
</event>
<event>
 7    1  0.1634068E-009  0.4778727E+02  0.7816164E-02  0.1312668E+00
        -11   -1    0    0    0    0  0.00000000000E+00  0.00000000000E+00  0.45593999997E+02  0.45594000000E+02  0.51100000000E-03 0.  1.
         11   -1    0    0    0    0 -0.00000000000E+00 -0.00000000000E+00 -0.45593999997E+02  0.45594000000E+02  0.51100000000E-03 0. -1.
    9900012    2    1    2    0    0  0.28627921383E+02  0.83423787290E+01  0.31535220099E+02  0.47787271063E+02  0.20000000083E+02 0.  0.
         12    1    1    2    0    0 -0.28627921383E+02 -0.83423787290E+01 -0.31535220099E+02  0.43400728937E+02  0.00000000000E+00 0. -1.
         11    1    3    3    0    0  0.22341289817E+02  0.24753496431E+01  0.28992568194E+02  0.36685550253E+02  0.51100000000E-03 0. -1.
        -11    1    3    3    0    0  0.73070553760E+01  0.34722198789E+01  0.26010122261E+01  0.84979193934E+01  0.51100000000E-03 0.  1.
        -12    1    3    3    0    0 -0.10204238103E+01  0.23948092071E+01 -0.58360321196E-01  0.26038014167E+01  0.00000000000E+00 0.  1.
</event>
<event>
 7    1  0.1634068E-009  0.4778729E+02  0.7816164E-02  0.1312668E+00
        -11   -1    0    0    0    0  0.00000000000E+00  0.00000000000E+00  0.45593999997E+02  0.45594000000E+02  0.51100000000E-03 0.  1.
         11   -1    0    0    0    0 -0.00000000000E+00 -0.00000000000E+00 -0.45593999997E+02  0.45594000000E+02  0.51100000000E-03 0. -1.
    9900012    2    1    2    0    0  0.35682674775E+02  0.11583669415E+02  0.21821711051E+02  0.47787288607E+02  0.20000080073E+02 0.  0.
         12    1    1    2    0    0 -0.35682674775E+02 -0.11583669415E+02 -0.21821711051E+02  0.43400711393E+02  0.00000000000E+00 0. -1.
         11    1    3    3    0    0  0.45587270127E+01 -0.47479154694E+01  0.38468329086E+01  0.76238321708E+01  0.51100000000E-03 0. -1.
        -11    1    3    3    0    0  0.16852535145E+02  0.53315134899E+01  0.66721358266E+01  0.18893130330E+02  0.51100000000E-03 0.  1.
        -12    1    3    3    0    0  0.14271412618E+02  0.11000071395E+02  0.11302742316E+02  0.21270326106E+02  0.00000000000E+00 0.  1.
</event>
<event>
 7    1  0.1634068E-009  0.4778727E+02  0.7816164E-02  0.1312668E+00
        -11   -1    0    0    0    0  0.00000000000E+00  0.00000000000E+00  0.45593999997E+02  0.45594000000E+02  0.51100000000E-03 0. -1.
         11   -1    0    0    0    0 -0.00000000000E+00 -0.00000000000E+00 -0.45593999997E+02  0.45594000000E+02  0.51100000000E-03 0.  1.
    9900012    2    1    2    0    0 -0.81324623764E-02  0.30026810197E+01 -0.43296736568E+02  0.47787267784E+02  0.19999985133E+02 0.  0.
         12    1    1    2    0    0  0.81324623764E-02 -0.30026810197E+01  0.43296736568E+02  0.43400732216E+02  0.00000000000E+00 0. -1.
         11    1    3    3    0    0 -0.37616702212E+01 -0.28892610056E+01 -0.17935755757E+02  0.18552340198E+02  0.51100000000E-03 0. -1.
        -11    1    3    3    0    0  0.15015751859E+01 -0.39765644112E+01 -0.96613368431E+01  0.10555056722E+02  0.51100000000E-03 0.  1.
        -12    1    3    3    0    0  0.22519625729E+01  0.98685064366E+01 -0.15699643969E+02  0.18679870863E+02  0.00000000000E+00 0.  1.
</event>
<event>
 7    1  0.1675970E-009  0.4778727E+02  0.7816164E-02  0.1312668E+00
        -11   -1    0    0    0    0  0.00000000000E+00  0.00000000000E+00  0.45593999997E+02  0.45594000000E+02  0.51100000000E-03 0. -1.
         11   -1    0    0    0    0 -0.00000000000E+00 -0.00000000000E+00 -0.45593999997E+02  0.45594000000E+02  0.51100000000E-03 0.  1.
    9900012    2    1    2    0    0  0.17401625165E+02 -0.10880064218E+02 -0.38241741836E+02  0.47787272190E+02  0.20000005225E+02 0.  0.
         12    1    1    2    0    0 -0.17401625165E+02  0.10880064218E+02  0.38241741836E+02  0.43400727810E+02  0.00000000000E+00 0. -1.
         11    1    3    3    0    0  0.24823132826E+01  0.32260568688E+01 -0.66631136641E+01  0.78080987517E+01  0.51100000000E-03 0. -1.
        -11    1    3    3    0    0  0.93271112306E+01 -0.94209238173E+01 -0.29580006191E+02  0.32414897439E+02  0.51100000000E-03 0.  1.
         12    1    3    3    0    0  0.55922006513E+01 -0.46851972693E+01 -0.19986219810E+01  0.75642759997E+01  0.00000000000E+00 0. -1.
</event>
<event>
 7    1  0.1634068E-009  0.4778727E+02  0.7816164E-02  0.1312668E+00
        -11   -1    0    0    0    0  0.00000000000E+00  0.00000000000E+00  0.45593999997E+02  0.45594000000E+02  0.51100000000E-03 0.  1.
         11   -1    0    0    0    0 -0.00000000000E+00 -0.00000000000E+00 -0.45593999997E+02  0.45594000000E+02  0.51100000000E-03 0. -1.
    9900012    2    1    2    0    0 -0.31341268431E+02 -0.29771700246E+01 -0.29874477657E+02  0.47787273468E+02  0.20000011048E+02 0.  0.
         12    1    1    2    0    0  0.31341268431E+02  0.29771700246E+01  0.29874477657E+02  0.43400726532E+02  0.00000000000E+00 0. -1.
         11    1    3    3    0    0 -0.20645961389E+01  0.36516000397E+01 -0.29689950440E+01  0.51392287261E+01  0.51100000000E-03 0. -1.
        -11    1    3    3    0    0 -0.26175057989E+02 -0.27489366303E+01 -0.26965315954E+02  0.37680480067E+02  0.51100000000E-03 0.  1.
         12    1    3    3    0    0 -0.31016143035E+01 -0.38798334340E+01  0.59833341093E-01  0.49675646741E+01  0.00000000000E+00 0. -1.
</event>
<event>
 7    1  0.1634068E-009  0.4778727E+02  0.7816164E-02  0.1312668E+00
        -11   -1    0    0    0    0  0.00000000000E+00  0.00000000000E+00  0.45593999997E+02  0.45594000000E+02  0.51100000000E-03 0.  1.
         11   -1    0    0    0    0 -0.00000000000E+00 -0.00000000000E+00 -0.45593999997E+02  0.45594000000E+02  0.51100000000E-03 0. -1.
    9900012    2    1    2    0    0 -0.15946020492E+01 -0.33485027310E+02 -0.27565076564E+02  0.47787271255E+02  0.20000000958E+02 0.  0.
         12    1    1    2    0    0  0.15946020492E+01  0.33485027310E+02  0.27565076564E+02  0.43400728745E+02  0.00000000000E+00 0. -1.
         11    1    3    3    0    0 -0.10589693212E+01 -0.45645985000E+01 -0.76823294155E+01  0.89986199497E+01  0.51100000000E-03 0. -1.
        -11    1    3    3    0    0  0.65070045996E+01 -0.94378207169E+01 -0.12074551586E+02  0.16649575521E+02  0.51100000000E-03 0.  1.
         12    1    3    3    0    0 -0.70426373275E+01 -0.19482608093E+02 -0.78081955616E+01  0.22139075784E+02  0.00000000000E+00 0. -1.
</event>
<event>
 7    1  0.1634068E-009  0.4778727E+02  0.7816164E-02  0.1312668E+00
        -11   -1    0    0    0    0  0.00000000000E+00  0.00000000000E+00  0.45593999997E+02  0.45594000000E+02  0.51100000000E-03 0.  1.
         11   -1    0    0    0    0 -0.00000000000E+00 -0.00000000000E+00 -0.45593999997E+02  0.45594000000E+02  0.51100000000E-03 0. -1.
    9900012    2    1    2    0    0  0.34450534346E+02 -0.26372459802E+02  0.11301879383E+01  0.47787271003E+02  0.19999999810E+02 0.  0.
         12    1    1    2    0    0 -0.34450534346E+02  0.26372459802E+02 -0.11301879383E+01  0.43400728997E+02  0.00000000000E+00 0. -1.
         11    1    3    3    0    0  0.10360168047E+02 -0.18612898183E+00  0.56555899841E+01  0.11804805135E+02  0.51100000000E-03 0. -1.
        -11    1    3    3    0    0  0.79324280434E+01 -0.72257702853E+01 -0.22827900428E+01  0.10970246192E+02  0.51100000000E-03 0.  1.
         12    1    3    3    0    0  0.16157938255E+02 -0.18960560535E+02 -0.22426120030E+01  0.25012219675E+02  0.00000000000E+00 0. -1.
</event>
<event>
 7    1  0.1634068E-009  0.4778727E+02  0.7816164E-02  0.1312668E+00
        -11   -1    0    0    0    0  0.00000000000E+00  0.00000000000E+00  0.45593999997E+02  0.45594000000E+02  0.51100000000E-03 0.  1.
         11   -1    0    0    0    0 -0.00000000000E+00 -0.00000000000E+00 -0.45593999997E+02  0.45594000000E+02  0.51100000000E-03 0. -1.
    9900012    2    1    2    0    0  0.91115416658E+01 -0.41797289799E+02 -0.73204800312E+01  0.47787273578E+02  0.20000011550E+02 0.  0.
         12    1    1    2    0    0 -0.91115416658E+01  0.41797289799E+02  0.73204800312E+01  0.43400726422E+02  0.00000000000E+00 0. -1.
         11    1    3    3    0    0  0.29560132736E+01 -0.28608897009E+02 -0.59835260778E+01  0.29377024817E+02  0.51100000000E-03 0. -1.
        -11    1    3    3    0    0 -0.69547218526E+00 -0.11177545566E+02 -0.12600751257E+01  0.11269826796E+02  0.51100000000E-03 0.  1.
         12    1    3    3    0    0  0.68510005774E+01 -0.20108472251E+01 -0.76878827691E-01  0.71404219643E+01  0.00000000000E+00 0. -1.
</event>
<event>
 7    1  0.1634068E-009  0.4778727E+02  0.7816164E-02  0.1312668E+00
        -11   -1    0    0    0    0  0.00000000000E+00  0.00000000000E+00  0.45593999997E+02  0.45594000000E+02  0.51100000000E-03 0.  1.
         11   -1    0    0    0    0 -0.00000000000E+00 -0.00000000000E+00 -0.45593999997E+02  0.45594000000E+02  0.51100000000E-03 0. -1.
    9900012    2    1    2    0    0 -0.17342119213E+02  0.26645027762E+02  0.29545164360E+02  0.47787270279E+02  0.19999996512E+02 0.  0.
         12    1    1    2    0    0  0.17342119213E+02 -0.26645027762E+02 -0.29545164360E+02  0.43400729721E+02  0.00000000000E+00 0. -1.
         11    1    3    3    0    0 -0.10931184335E+02  0.72206854725E+01  0.22824359979E+01  0.13298067679E+02  0.51100000000E-03 0. -1.
        -11    1    3    3    0    0  0.72863329256E+00  0.30822798737E+01  0.55645197987E+01  0.64027522634E+01  0.51100000000E-03 0.  1.
         12    1    3    3    0    0 -0.71395681706E+01  0.16342062416E+02  0.21698208563E+02  0.28086450337E+02  0.00000000000E+00 0. -1.
</event>
<event>
 7    1  0.1634068E-009  0.4778727E+02  0.7816164E-02  0.1312668E+00
        -11   -1    0    0    0    0  0.00000000000E+00  0.00000000000E+00  0.45593999997E+02  0.45594000000E+02  0.51100000000E-03 0.  1.
         11   -1    0    0    0    0 -0.00000000000E+00 -0.00000000000E+00 -0.45593999997E+02  0.45594000000E+02  0.51100000000E-03 0. -1.
    9900012    2    1    2    0    0 -0.16977033884E+02 -0.14560889729E+02  0.37193869374E+02  0.47787272953E+02  0.20000008702E+02 0.  0.
         12    1    1    2    0    0  0.16977033884E+02  0.14560889729E+02 -0.37193869374E+02  0.43400727047E+02  0.00000000000E+00 0. -1.
         11    1    3    3    0    0 -0.10690010054E+02 -0.42056741221E+01  0.12432992486E+02  0.16927590265E+02  0.51100000000E-03 0. -1.
        -11    1    3    3    0    0 -0.10710767772E+02 -0.80003701131E+01  0.17109002973E+02  0.21712771615E+02  0.51100000000E-03 0.  1.
         12    1    3    3    0    0  0.44237439420E+01 -0.23548454941E+01  0.76518739149E+01  0.91469110729E+01  0.00000000000E+00 0. -1.
</event>
<event>
 7    1  0.1634068E-009  0.4778727E+02  0.7816164E-02  0.1312668E+00
        -11   -1    0    0    0    0  0.00000000000E+00  0.00000000000E+00  0.45593999997E+02  0.45594000000E+02  0.51100000000E-03 0. -1.
         11   -1    0    0    0    0 -0.00000000000E+00 -0.00000000000E+00 -0.45593999997E+02  0.45594000000E+02  0.51100000000E-03 0.  1.
    9900012    2    1    2    0    0 -0.34402225727E+02  0.95991890243E+01 -0.24656957048E+02  0.47787273097E+02  0.20000009357E+02 0.  0.
         12    1    1    2    0    0  0.34402225727E+02 -0.95991890243E+01  0.24656957048E+02  0.43400726903E+02  0.00000000000E+00 0. -1.
         11    1    3    3    0    0 -0.30272037598E+01  0.38780047797E+00 -0.17766707389E+01  0.35314177025E+01  0.51100000000E-03 0. -1.
        -11    1    3    3    0    0 -0.30457243699E+02  0.54018734662E+01 -0.25025845521E+02  0.39788401262E+02  0.51100000000E-03 0.  1.
         12    1    3    3    0    0 -0.91777826830E+00  0.38095150801E+01  0.21455592120E+01  0.44674541327E+01  0.00000000000E+00 0. -1.
</event>
<event>
 7    1  0.1634068E-009  0.4778727E+02  0.7816164E-02  0.1312668E+00
        -11   -1    0    0    0    0  0.00000000000E+00  0.00000000000E+00  0.45593999997E+02  0.45594000000E+02  0.51100000000E-03 0. -1.
         11   -1    0    0    0    0 -0.00000000000E+00 -0.00000000000E+00 -0.45593999997E+02  0.45594000000E+02  0.51100000000E-03 0.  1.
    9900012    2    1    2    0    0 -0.38278563564E+02  0.16361295985E+02  0.12275299434E+02  0.47787269464E+02  0.19999992795E+02 0.  0.
         12    1    1    2    0    0  0.38278563564E+02 -0.16361295985E+02 -0.12275299434E+02  0.43400730536E+02  0.00000000000E+00 0. -1.
         11    1    3    3    0    0 -0.82609417462E+01  0.65304723606E+01  0.75185771851E+01  0.12939058348E+02  0.51100000000E-03 0. -1.
        -11    1    3    3    0    0 -0.23686502547E+02  0.10720651677E+02 -0.13126205543E+01  0.26032782185E+02  0.51100000000E-03 0.  1.
        -12    1    3    3    0    0 -0.63311192708E+01 -0.88982805288E+00  0.60693428027E+01  0.88154289313E+01  0.00000000000E+00 0.  1.
</event>
<event>
 7    1  0.1634068E-009  0.4778727E+02  0.7816164E-02  0.1312668E+00
        -11   -1    0    0    0    0  0.00000000000E+00  0.00000000000E+00  0.45593999997E+02  0.45594000000E+02  0.51100000000E-03 0.  1.
         11   -1    0    0    0    0 -0.00000000000E+00 -0.00000000000E+00 -0.45593999997E+02  0.45594000000E+02  0.51100000000E-03 0. -1.
    9900012    2    1    2    0    0  0.39331606996E+02  0.12459427049E+02  0.13468877804E+02  0.47787270737E+02  0.19999998596E+02 0.  0.
         12    1    1    2    0    0 -0.39331606996E+02 -0.12459427049E+02 -0.13468877804E+02  0.43400729263E+02  0.00000000000E+00 0. -1.
         11    1    3    3    0    0  0.18720021305E+02  0.55924242273E+01 -0.15737825507E+01  0.19600795855E+02  0.51100000000E-03 0. -1.
        -11    1    3    3    0    0  0.87255016978E+01 -0.20522510871E+01  0.61097770625E+01  0.10847833443E+02  0.51100000000E-03 0.  1.
        -12    1    3    3    0    0  0.11886083994E+02  0.89192539089E+01  0.89328832918E+01  0.17338641438E+02  0.00000000000E+00 0.  1.
</event>
<event>
 7    1  0.1634068E-009  0.4778728E+02  0.7816164E-02  0.1312668E+00
        -11   -1    0    0    0    0  0.00000000000E+00  0.00000000000E+00  0.45593999997E+02  0.45594000000E+02  0.51100000000E-03 0.  1.
         11   -1    0    0    0    0 -0.00000000000E+00 -0.00000000000E+00 -0.45593999997E+02  0.45594000000E+02  0.51100000000E-03 0. -1.
    9900012    2    1    2    0    0  0.28695465335E+02  0.21000565826E+01  0.32492808418E+02  0.47787279184E+02  0.20000037113E+02 0.  0.
         12    1    1    2    0    0 -0.28695465335E+02 -0.21000565826E+01 -0.32492808418E+02  0.43400720816E+02  0.00000000000E+00 0. -1.
         11    1    3    3    0    0 -0.16734351946E+01 -0.13734684127E+01 -0.23744520506E+00  0.21778845970E+01  0.51100000000E-03 0. -1.
        -11    1    3    3    0    0  0.13693380876E+02  0.16965453224E+01  0.87201853744E+01  0.16322640077E+02  0.51100000000E-03 0.  1.
         12    1    3    3    0    0  0.16675519653E+02  0.17769796730E+01  0.24010068248E+02  0.29286754511E+02  0.00000000000E+00 0. -1.
</event>
<event>
 7    1  0.1634068E-009  0.4778728E+02  0.7816164E-02  0.1312668E+00
        -11   -1    0    0    0    0  0.00000000000E+00  0.00000000000E+00  0.45593999997E+02  0.45594000000E+02  0.51100000000E-03 0.  1.
         11   -1    0    0    0    0 -0.00000000000E+00 -0.00000000000E+00 -0.45593999997E+02  0.45594000000E+02  0.51100000000E-03 0. -1.
    9900012    2    1    2    0    0 -0.35559519646E+02 -0.21990488078E+02  0.11643104649E+02  0.47787275475E+02  0.20000020202E+02 0.  0.
         12    1    1    2    0    0  0.35559519646E+02  0.21990488078E+02 -0.11643104649E+02  0.43400724525E+02  0.00000000000E+00 0. -1.
         11    1    3    3    0    0 -0.85803932894E+01 -0.20252874121E+00  0.82490978404E+01  0.11904275800E+02  0.51100000000E-03 0.  1.
        -11    1    3    3    0    0 -0.13851162023E+02 -0.13875108660E+02  0.56173150103E+01  0.20394302094E+02  0.51100000000E-03 0. -1.
        -12    1    3    3    0    0 -0.13127964334E+02 -0.79128506775E+01 -0.22233082018E+01  0.15488697581E+02  0.00000000000E+00 0.  1.
</event>
<event>
 7    1  0.1634068E-009  0.4778727E+02  0.7816164E-02  0.1312668E+00
        -11   -1    0    0    0    0  0.00000000000E+00  0.00000000000E+00  0.45593999997E+02  0.45594000000E+02  0.51100000000E-03 0. -1.
         11   -1    0    0    0    0 -0.00000000000E+00 -0.00000000000E+00 -0.45593999997E+02  0.45594000000E+02  0.51100000000E-03 0.  1.
    9900012    2    1    2    0    0 -0.30117999476E+02  0.20398226972E+02 -0.23673651164E+02  0.47787270565E+02  0.19999997815E+02 0.  0.
         12    1    1    2    0    0  0.30117999476E+02 -0.20398226972E+02  0.23673651164E+02  0.43400729435E+02  0.00000000000E+00 0. -1.
         11    1    3    3    0    0  0.46774115380E+00 -0.14181986887E+01 -0.10008942508E+01  0.17977371526E+01  0.51100000000E-03 0. -1.
        -11    1    3    3    0    0 -0.28161383400E+02  0.14280102329E+02 -0.20933725541E+02  0.37884108843E+02  0.51100000000E-03 0.  1.
         12    1    3    3    0    0 -0.24243572292E+01  0.75363233318E+01 -0.17390313721E+01  0.81054245694E+01  0.00000000000E+00 0. -1.
</event>
<event>
 7    1  0.1634068E-009  0.4778727E+02  0.7816164E-02  0.1312668E+00
        -11   -1    0    0    0    0  0.00000000000E+00  0.00000000000E+00  0.45593999997E+02  0.45594000000E+02  0.51100000000E-03 0. -1.
         11   -1    0    0    0    0 -0.00000000000E+00 -0.00000000000E+00 -0.45593999997E+02  0.45594000000E+02  0.51100000000E-03 0.  1.
    9900012    2    1    2    0    0  0.23362307561E+02  0.36206276666E+02 -0.51895564896E+01  0.47787269809E+02  0.19999994368E+02 0.  0.
         12    1    1    2    0    0 -0.23362307561E+02 -0.36206276666E+02  0.51895564896E+01  0.43400730191E+02  0.00000000000E+00 0. -1.
         11    1    3    3    0    0  0.42574231720E+01  0.12875656441E+02 -0.96629049134E+01  0.16651724009E+02  0.51100000000E-03 0. -1.
        -11    1    3    3    0    0  0.13050532515E+02  0.18550708047E+02  0.10764184004E+01  0.22706911829E+02  0.51100000000E-03 0.  1.
        -12    1    3    3    0    0  0.60543518732E+01  0.47799121779E+01  0.33969300233E+01  0.84286339710E+01  0.00000000000E+00 0.  1.
</event>
<event>
 7    1  0.1634068E-009  0.4778729E+02  0.7816164E-02  0.1312668E+00
        -11   -1    0    0    0    0  0.00000000000E+00  0.00000000000E+00  0.45593999997E+02  0.45594000000E+02  0.51100000000E-03 0.  1.
         11   -1    0    0    0    0 -0.00000000000E+00 -0.00000000000E+00 -0.45593999997E+02  0.45594000000E+02  0.51100000000E-03 0. -1.
    9900012    2    1    2    0    0 -0.15114449888E+02  0.28913729697E+02  0.28621166903E+02  0.47787290843E+02  0.20000090269E+02 0.  0.
         12    1    1    2    0    0  0.15114449888E+02 -0.28913729697E+02 -0.28621166903E+02  0.43400709157E+02  0.00000000000E+00 0. -1.
         11    1    3    3    0    0 -0.64383774801E+01  0.92563188719E+01  0.17938702476E+02  0.21187949179E+02  0.51100000000E-03 0. -1.
        -11    1    3    3    0    0 -0.93104719405E+01  0.93041211413E+01  0.93411260658E+01  0.16140266243E+02  0.51100000000E-03 0.  1.
         12    1    3    3    0    0  0.63439953244E+00  0.10353289684E+02  0.13413383614E+01  0.10459075420E+02  0.00000000000E+00 0. -1.
</event>
<event>
 7    1  0.1634068E-009  0.4778728E+02  0.7816164E-02  0.1312668E+00
        -11   -1    0    0    0    0  0.00000000000E+00  0.00000000000E+00  0.45593999997E+02  0.45594000000E+02  0.51100000000E-03 0.  1.
         11   -1    0    0    0    0 -0.00000000000E+00 -0.00000000000E+00 -0.45593999997E+02  0.45594000000E+02  0.51100000000E-03 0. -1.
    9900012    2    1    2    0    0  0.53422437449E+01  0.27793400504E+01  0.42980907507E+02  0.47787277547E+02  0.20000029646E+02 0.  0.
         12    1    1    2    0    0 -0.53422437449E+01 -0.27793400504E+01 -0.42980907507E+02  0.43400722453E+02  0.00000000000E+00 0. -1.
         11    1    3    3    0    0 -0.10859250364E+01 -0.19089822714E+01  0.23112355946E+01  0.31882999753E+01  0.51100000000E-03 0. -1.
        -11    1    3    3    0    0  0.11474047680E+02  0.61534414535E+01  0.27790877717E+02  0.30689599158E+02  0.51100000000E-03 0.  1.
        -12    1    3    3    0    0 -0.50458788992E+01 -0.14651191317E+01  0.12878794195E+02  0.13909378414E+02  0.00000000000E+00 0.  1.
</event>
<event>
 7    1  0.1634068E-009  0.4778727E+02  0.7816164E-02  0.1312668E+00
        -11   -1    0    0    0    0  0.00000000000E+00  0.00000000000E+00  0.45593999997E+02  0.45594000000E+02  0.51100000000E-03 0.  1.
         11   -1    0    0    0    0 -0.00000000000E+00 -0.00000000000E+00 -0.45593999997E+02  0.45594000000E+02  0.51100000000E-03 0. -1.
    9900012    2    1    2    0    0  0.61203405344E+01  0.13738387961E+02  0.40711439076E+02  0.47787272545E+02  0.20000006841E+02 0.  0.
         12    1    1    2    0    0 -0.61203405344E+01 -0.13738387961E+02 -0.40711439076E+02  0.43400727455E+02  0.00000000000E+00 0. -1.
         11    1    3    3    0    0  0.14760376809E+01  0.15362530592E+02  0.20950829488E+02  0.26021592763E+02  0.51100000000E-03 0. -1.
        -11    1    3    3    0    0 -0.14710308994E+01 -0.16927834866E+01  0.99920459383E+01  0.10240626452E+02  0.51100000000E-03 0.  1.
         12    1    3    3    0    0  0.61153337528E+01  0.68640855492E-01  0.97685636497E+01  0.11525053330E+02  0.00000000000E+00 0. -1.
</event>
<event>
 7    1  0.1634068E-009  0.4778727E+02  0.7816164E-02  0.1312668E+00
        -11   -1    0    0    0    0  0.00000000000E+00  0.00000000000E+00  0.45593999997E+02  0.45594000000E+02  0.51100000000E-03 0. -1.
         11   -1    0    0    0    0 -0.00000000000E+00 -0.00000000000E+00 -0.45593999997E+02  0.45594000000E+02  0.51100000000E-03 0.  1.
    9900012    2    1    2    0    0  0.36758041909E+02  0.16024937108E+02 -0.16603352625E+02  0.47787267602E+02  0.19999984306E+02 0.  0.
         12    1    1    2    0    0 -0.36758041909E+02 -0.16024937108E+02  0.16603352625E+02  0.43400732398E+02  0.00000000000E+00 0. -1.
         11    1    3    3    0    0 -0.18386587790E+01  0.26436624593E+01 -0.85149178015E+00  0.33308641246E+01  0.51100000000E-03 0. -1.
        -11    1    3    3    0    0  0.23209245734E+02  0.11637899890E+02 -0.82035727461E+01  0.27228815756E+02  0.51100000000E-03 0.  1.
        -12    1    3    3    0    0  0.15387454954E+02  0.17433747590E+01 -0.75482880987E+01  0.17227587722E+02  0.00000000000E+00 0.  1.
</event>
<event>
 7    1  0.1634068E-009  0.4778727E+02  0.7816164E-02  0.1312668E+00
        -11   -1    0    0    0    0  0.00000000000E+00  0.00000000000E+00  0.45593999997E+02  0.45594000000E+02  0.51100000000E-03 0. -1.
         11   -1    0    0    0    0 -0.00000000000E+00 -0.00000000000E+00 -0.45593999997E+02  0.45594000000E+02  0.51100000000E-03 0.  1.
    9900012    2    1    2    0    0  0.38720400214E+02  0.93519741276E+01 -0.17230624421E+02  0.47787271541E+02  0.20000002263E+02 0.  0.
         12    1    1    2    0    0 -0.38720400214E+02 -0.93519741276E+01  0.17230624421E+02  0.43400728459E+02  0.00000000000E+00 0. -1.
         11    1    3    3    0    0  0.60204061634E+01  0.20041326495E+00  0.18000006842E+01  0.62869275941E+01  0.51100000000E-03 0. -1.
        -11    1    3    3    0    0  0.52229158220E+01  0.54652994584E+01 -0.95952674708E+01  0.12215461758E+02  0.51100000000E-03 0.  1.
        -12    1    3    3    0    0  0.27477078229E+02  0.36862614043E+01 -0.94353576344E+01  0.29284882189E+02  0.00000000000E+00 0.  1.
</event>
<event>
 7    1  0.1634068E-009  0.4778727E+02  0.7816164E-02  0.1312668E+00
        -11   -1    0    0    0    0  0.00000000000E+00  0.00000000000E+00  0.45593999997E+02  0.45594000000E+02  0.51100000000E-03 0.  1.
         11   -1    0    0    0    0 -0.00000000000E+00 -0.00000000000E+00 -0.45593999997E+02  0.45594000000E+02  0.51100000000E-03 0. -1.
    9900012    2    1    2    0    0 -0.11355280205E+02 -0.11388662833E+02  0.40311032533E+02  0.47787269896E+02  0.19999994763E+02 0.  0.
         12    1    1    2    0    0  0.11355280205E+02  0.11388662833E+02 -0.40311032533E+02  0.43400730104E+02  0.00000000000E+00 0. -1.
         11    1    3    3    0    0  0.14139920809E+01 -0.13554240751E+01  0.26865616583E+00  0.19770494239E+01  0.51100000000E-03 0. -1.
        -11    1    3    3    0    0 -0.52756519527E+01 -0.86083472578E+00  0.29415995774E+02  0.29897731479E+02  0.51100000000E-03 0.  1.
         12    1    3    3    0    0 -0.74936203331E+01 -0.91724040325E+01  0.10626380594E+02  0.15912488993E+02  0.00000000000E+00 0. -1.
</event>
<event>
 7    1  0.1998841E-009  0.4778727E+02  0.7816164E-02  0.1312668E+00
        -11   -1    0    0    0    0  0.00000000000E+00  0.00000000000E+00  0.45593999997E+02  0.45594000000E+02  0.51100000000E-03 0.  1.
         11   -1    0    0    0    0 -0.00000000000E+00 -0.00000000000E+00 -0.45593999997E+02  0.45594000000E+02  0.51100000000E-03 0. -1.
    9900012    2    1    2    0    0  0.10812376008E+02  0.30519908030E+02  0.28900706194E+02  0.47787273282E+02  0.20000010203E+02 0.  0.
         12    1    1    2    0    0 -0.10812376008E+02 -0.30519908030E+02 -0.28900706194E+02  0.43400726718E+02  0.00000000000E+00 0. -1.
         11    1    3    3    0    0 -0.17203917321E+01  0.21138675731E+01 -0.86115450984E+00  0.28582811582E+01  0.51100000000E-03 0. -1.
        -11    1    3    3    0    0  0.11351428603E+02  0.17151456351E+02  0.11836356963E+02  0.23730291458E+02  0.51100000000E-03 0.  1.
        -12    1    3    3    0    0  0.11813391375E+01  0.11254584107E+02  0.17925503741E+02  0.21198700666E+02  0.00000000000E+00 0.  1.
</event>
<event>
 7    1  0.2046872E-009  0.4778728E+02  0.7816164E-02  0.1312668E+00
        -11   -1    0    0    0    0  0.00000000000E+00  0.00000000000E+00  0.45593999997E+02  0.45594000000E+02  0.51100000000E-03 0. -1.
         11   -1    0    0    0    0 -0.00000000000E+00 -0.00000000000E+00 -0.45593999997E+02  0.45594000000E+02  0.51100000000E-03 0.  1.
    9900012    2    1    2    0    0  0.57105065781E+01  0.30937654504E+02 -0.29897730216E+02  0.47787278535E+02  0.20000034153E+02 0.  0.
         12    1    1    2    0    0 -0.57105065781E+01 -0.30937654504E+02  0.29897730216E+02  0.43400721465E+02  0.00000000000E+00 0. -1.
         11    1    3    3    0    0 -0.17752184784E+01  0.83929512821E+01 -0.77042415742E+00  0.86131635020E+01  0.51100000000E-03 0. -1.
        -11    1    3    3    0    0  0.47199805565E-01  0.32537607915E+01 -0.11667397090E+02  0.12112693434E+02  0.51100000000E-03 0.  1.
        -12    1    3    3    0    0  0.74385252509E+01  0.19290942431E+02 -0.17459908968E+02  0.27061421599E+02  0.00000000000E+00 0.  1.
</event>
<event>
 7    1  0.1634068E-009  0.4778727E+02  0.7816164E-02  0.1312668E+00
        -11   -1    0    0    0    0  0.00000000000E+00  0.00000000000E+00  0.45593999997E+02  0.45594000000E+02  0.51100000000E-03 0. -1.
         11   -1    0    0    0    0 -0.00000000000E+00 -0.00000000000E+00 -0.45593999997E+02  0.45594000000E+02  0.51100000000E-03 0.  1.
    9900012    2    1    2    0    0  0.15811408012E+02 -0.10741096509E+02 -0.38964744554E+02  0.47787273097E+02  0.20000009360E+02 0.  0.
         12    1    1    2    0    0 -0.15811408012E+02  0.10741096509E+02  0.38964744554E+02  0.43400726903E+02  0.00000000000E+00 0. -1.
         11    1    3    3    0    0  0.94066769639E+01 -0.47162485463E+01 -0.14202366798E+02  0.17675853439E+02  0.51100000000E-03 0. -1.
        -11    1    3    3    0    0  0.66128675715E+01 -0.90907637713E+01 -0.24585147911E+02  0.27033340554E+02  0.51100000000E-03 0.  1.
         12    1    3    3    0    0 -0.20813652349E+00  0.30659158084E+01 -0.17722984492E+00  0.30780791047E+01  0.00000000000E+00 0. -1.
</event>
<event>
 7    1  0.1634068E-009  0.4778727E+02  0.7816164E-02  0.1312668E+00
        -11   -1    0    0    0    0  0.00000000000E+00  0.00000000000E+00  0.45593999997E+02  0.45594000000E+02  0.51100000000E-03 0.  1.
         11   -1    0    0    0    0 -0.00000000000E+00 -0.00000000000E+00 -0.45593999997E+02  0.45594000000E+02  0.51100000000E-03 0. -1.
    9900012    2    1    2    0    0 -0.25146782184E+02  0.21280618749E+02  0.28255931858E+02  0.47787273350E+02  0.20000010511E+02 0.  0.
         12    1    1    2    0    0  0.25146782184E+02 -0.21280618749E+02 -0.28255931858E+02  0.43400726650E+02  0.00000000000E+00 0. -1.
         11    1    3    3    0    0 -0.13944887658E+02  0.88059192590E+01  0.15941725462E+02  0.22937801044E+02  0.51100000000E-03 0. -1.
        -11    1    3    3    0    0 -0.13725219046E+02  0.10264983323E+02  0.12891221339E+02  0.21446097742E+02  0.51100000000E-03 0.  1.
         12    1    3    3    0    0  0.25233245202E+01  0.22097161676E+01 -0.57701494240E+00  0.34033745635E+01  0.00000000000E+00 0. -1.
</event>
<event>
 7    1  0.1634068E-009  0.4778728E+02  0.7816164E-02  0.1312668E+00
        -11   -1    0    0    0    0  0.00000000000E+00  0.00000000000E+00  0.45593999997E+02  0.45594000000E+02  0.51100000000E-03 0.  1.
         11   -1    0    0    0    0 -0.00000000000E+00 -0.00000000000E+00 -0.45593999997E+02  0.45594000000E+02  0.51100000000E-03 0. -1.
    9900012    2    1    2    0    0 -0.12417707280E+02  0.41096400935E+02  0.63646823670E+01  0.47787276439E+02  0.20000024598E+02 0.  0.
         12    1    1    2    0    0  0.12417707280E+02 -0.41096400935E+02 -0.63646823670E+01  0.43400723561E+02  0.00000000000E+00 0. -1.
         11    1    3    3    0    0  0.12147588744E+01  0.15229080514E+02  0.67546160188E+00  0.15292376566E+02  0.51100000000E-03 0. -1.
        -11    1    3    3    0    0 -0.54240592074E+01  0.42916346569E+01 -0.33733633474E+01  0.76953314970E+01  0.51100000000E-03 0.  1.
        -12    1    3    3    0    0 -0.82084069474E+01  0.21575685765E+02  0.90625841125E+01  0.24799568376E+02  0.00000000000E+00 0.  1.
</event>
<event>
 7    1  0.1634068E-009  0.4778727E+02  0.7816164E-02  0.1312668E+00
        -11   -1    0    0    0    0  0.00000000000E+00  0.00000000000E+00  0.45593999997E+02  0.45594000000E+02  0.51100000000E-03 0.  1.
         11   -1    0    0    0    0 -0.00000000000E+00 -0.00000000000E+00 -0.45593999997E+02  0.45594000000E+02  0.51100000000E-03 0. -1.
    9900012    2    1    2    0    0 -0.14161451221E+02  0.13302422433E+02  0.38808788037E+02  0.47787272216E+02  0.20000005343E+02 0.  0.
         12    1    1    2    0    0  0.14161451221E+02 -0.13302422433E+02 -0.38808788037E+02  0.43400727784E+02  0.00000000000E+00 0. -1.
         11    1    3    3    0    0 -0.72473117712E+01 -0.80526343797E+00  0.32662003820E+01  0.79899963898E+01  0.51100000000E-03 0. -1.
        -11    1    3    3    0    0 -0.46842187033E+01  0.99266282482E+01  0.14269006992E+02  0.18002344681E+02  0.51100000000E-03 0.  1.
        -12    1    3    3    0    0 -0.22299207462E+01  0.41810576224E+01  0.21273580663E+02  0.21794931145E+02  0.00000000000E+00 0.  1.
</event>
<event>
 7    1  0.1634068E-009  0.4778728E+02  0.7816164E-02  0.1312668E+00
        -11   -1    0    0    0    0  0.00000000000E+00  0.00000000000E+00  0.45593999997E+02  0.45594000000E+02  0.51100000000E-03 0.  1.
         11   -1    0    0    0    0 -0.00000000000E+00 -0.00000000000E+00 -0.45593999997E+02  0.45594000000E+02  0.51100000000E-03 0. -1.
    9900012    2    1    2    0    0  0.38030160584E+02  0.16743019660E+02  0.12529993620E+02  0.47787279252E+02  0.20000037420E+02 0.  0.
         12    1    1    2    0    0 -0.38030160584E+02 -0.16743019660E+02 -0.12529993620E+02  0.43400720748E+02  0.00000000000E+00 0. -1.
         11    1    3    3    0    0  0.18735163207E+02  0.18640590451E+02  0.69190642178E+01  0.27319432692E+02  0.51100000000E-03 0. -1.
        -11    1    3    3    0    0  0.96758066643E+01  0.13928248481E+00  0.14239583414E+01  0.97810169121E+01  0.51100000000E-03 0.  1.
        -12    1    3    3    0    0  0.96191907130E+01 -0.20368532757E+01  0.41869710612E+01  0.10686829647E+02  0.00000000000E+00 0.  1.
</event>
<event>
 7    1  0.1634068E-009  0.4778727E+02  0.7816164E-02  0.1312668E+00
        -11   -1    0    0    0    0  0.00000000000E+00  0.00000000000E+00  0.45593999997E+02  0.45594000000E+02  0.51100000000E-03 0.  1.
         11   -1    0    0    0    0 -0.00000000000E+00 -0.00000000000E+00 -0.45593999997E+02  0.45594000000E+02  0.51100000000E-03 0. -1.
    9900012    2    1    2    0    0 -0.13274020091E+01 -0.38935316886E+02  0.19128574653E+02  0.47787271142E+02  0.20000000446E+02 0.  0.
         12    1    1    2    0    0  0.13274020091E+01  0.38935316886E+02 -0.19128574653E+02  0.43400728858E+02  0.00000000000E+00 0. -1.
         11    1    3    3    0    0  0.46375093036E+01 -0.58511686574E+01 -0.27101332274E+00  0.74710183831E+01  0.51100000000E-03 0. -1.
        -11    1    3    3    0    0  0.13908913339E+01 -0.20572391505E+02  0.13520565130E+02  0.24656916933E+02  0.51100000000E-03 0.  1.
         12    1    3    3    0    0 -0.73558026466E+01 -0.12511756724E+02  0.58790228453E+01  0.15659335826E+02  0.00000000000E+00 0. -1.
</event>
<event>
 7    1  0.1634068E-009  0.4778727E+02  0.7816164E-02  0.1312668E+00
        -11   -1    0    0    0    0  0.00000000000E+00  0.00000000000E+00  0.45593999997E+02  0.45594000000E+02  0.51100000000E-03 0. -1.
         11   -1    0    0    0    0 -0.00000000000E+00 -0.00000000000E+00 -0.45593999997E+02  0.45594000000E+02  0.51100000000E-03 0.  1.
    9900012    2    1    2    0    0  0.69627812787E+01  0.35127818283E+02 -0.24518963853E+02  0.47787268107E+02  0.19999986606E+02 0.  0.
         12    1    1    2    0    0 -0.69627812787E+01 -0.35127818283E+02  0.24518963853E+02  0.43400731893E+02  0.00000000000E+00 0. -1.
         11    1    3    3    0    0  0.77991926623E+01  0.26514155081E+02 -0.27099317019E+02  0.38706599037E+02  0.51100000000E-03 0.  1.
        -11    1    3    3    0    0 -0.24433447847E-01  0.46967243211E+01  0.11837590830E+01  0.48436661910E+01  0.51100000000E-03 0. -1.
        -12    1    3    3    0    0 -0.81197793579E+00  0.39169388805E+01  0.13965940828E+01  0.42370028787E+01  0.00000000000E+00 0.  1.
</event>
<event>
 7    1  0.1634068E-009  0.4778727E+02  0.7816164E-02  0.1312668E+00
        -11   -1    0    0    0    0  0.00000000000E+00  0.00000000000E+00  0.45593999997E+02  0.45594000000E+02  0.51100000000E-03 0.  1.
         11   -1    0    0    0    0 -0.00000000000E+00 -0.00000000000E+00 -0.45593999997E+02  0.45594000000E+02  0.51100000000E-03 0. -1.
    9900012    2    1    2    0    0  0.21683446701E+02  0.29239908107E+02  0.23632169542E+02  0.47787268161E+02  0.19999986851E+02 0.  0.
         12    1    1    2    0    0 -0.21683446701E+02 -0.29239908107E+02 -0.23632169542E+02  0.43400731839E+02  0.00000000000E+00 0. -1.
         11    1    3    3    0    0  0.36088085645E+01  0.84618094319E+01  0.18593001355E+01  0.93852392283E+01  0.51100000000E-03 0. -1.
        -11    1    3    3    0    0  0.91518492535E+01  0.35409108966E+00  0.45007613218E+01  0.10204831111E+02  0.51100000000E-03 0.  1.
        -12    1    3    3    0    0  0.89227888829E+01  0.20424007585E+02  0.17272108085E+02  0.28197197822E+02  0.00000000000E+00 0.  1.
</event>
<event>
 7    1  0.1634068E-009  0.4778727E+02  0.7816164E-02  0.1312668E+00
        -11   -1    0    0    0    0  0.00000000000E+00  0.00000000000E+00  0.45593999997E+02  0.45594000000E+02  0.51100000000E-03 0.  1.
         11   -1    0    0    0    0 -0.00000000000E+00 -0.00000000000E+00 -0.45593999997E+02  0.45594000000E+02  0.51100000000E-03 0. -1.
    9900012    2    1    2    0    0  0.39177134297E+02  0.17574403179E+02 -0.63179164565E+01  0.47787267666E+02  0.19999984594E+02 0.  0.
         12    1    1    2    0    0 -0.39177134297E+02 -0.17574403179E+02  0.63179164565E+01  0.43400732334E+02  0.00000000000E+00 0. -1.
         11    1    3    3    0    0  0.22420339674E+02  0.12210127527E+02 -0.33747791553E+01  0.25751659751E+02  0.51100000000E-03 0. -1.
        -11    1    3    3    0    0  0.18769401697E+01  0.56279430308E+01  0.21436555906E+01  0.63080826493E+01  0.51100000000E-03 0.  1.
         12    1    3    3    0    0  0.14879854453E+02 -0.26366737947E+00 -0.50867928918E+01  0.15727525265E+02  0.00000000000E+00 0. -1.
</event>
<event>
 7    1  0.1634068E-009  0.4778728E+02  0.7816164E-02  0.1312668E+00
        -11   -1    0    0    0    0  0.00000000000E+00  0.00000000000E+00  0.45593999997E+02  0.45594000000E+02  0.51100000000E-03 0. -1.
         11   -1    0    0    0    0 -0.00000000000E+00 -0.00000000000E+00 -0.45593999997E+02  0.45594000000E+02  0.51100000000E-03 0.  1.
    9900012    2    1    2    0    0 -0.43357261684E+02 -0.21304047901E+00  0.19300728845E+01  0.47787277560E+02  0.20000029705E+02 0.  0.
         12    1    1    2    0    0  0.43357261684E+02  0.21304047901E+00 -0.19300728845E+01  0.43400722440E+02  0.00000000000E+00 0. -1.
         11    1    3    3    0    0 -0.23901753085E+02  0.69155787896E+00 -0.23175335988E+01  0.24023801012E+02  0.51100000000E-03 0.  1.
        -11    1    3    3    0    0 -0.10972728622E+02 -0.49665698337E+01  0.70419959248E+01  0.13951963883E+02  0.51100000000E-03 0. -1.
         12    1    3    3    0    0 -0.84827799768E+01  0.40619714758E+01 -0.27943894415E+01  0.98115126640E+01  0.00000000000E+00 0. -1.
</event>
<event>
 7    1  0.1634068E-009  0.4778728E+02  0.7816164E-02  0.1312668E+00
        -11   -1    0    0    0    0  0.00000000000E+00  0.00000000000E+00  0.45593999997E+02  0.45594000000E+02  0.51100000000E-03 0. -1.
         11   -1    0    0    0    0 -0.00000000000E+00 -0.00000000000E+00 -0.45593999997E+02  0.45594000000E+02  0.51100000000E-03 0.  1.
    9900012    2    1    2    0    0 -0.10070168035E+02 -0.17218311823E+02 -0.38545346738E+02  0.47787282248E+02  0.20000051081E+02 0.  0.
         12    1    1    2    0    0  0.10070168035E+02  0.17218311823E+02  0.38545346738E+02  0.43400717752E+02  0.00000000000E+00 0. -1.
         11    1    3    3    0    0 -0.69022180322E+00 -0.38796207618E+01  0.62542319479E+00  0.39898643870E+01  0.51100000000E-03 0. -1.
        -11    1    3    3    0    0 -0.43968746540E+01 -0.48042285853E+01 -0.49556368764E+01  0.81836089921E+01  0.51100000000E-03 0.  1.
         12    1    3    3    0    0 -0.49830715773E+01 -0.85344624757E+01 -0.34215133056E+02  0.35613808869E+02  0.00000000000E+00 0. -1.
</event>
<event>
 7    1  0.1634068E-009  0.4778727E+02  0.7816164E-02  0.1312668E+00
        -11   -1    0    0    0    0  0.00000000000E+00  0.00000000000E+00  0.45593999997E+02  0.45594000000E+02  0.51100000000E-03 0.  1.
         11   -1    0    0    0    0 -0.00000000000E+00 -0.00000000000E+00 -0.45593999997E+02  0.45594000000E+02  0.51100000000E-03 0. -1.
    9900012    2    1    2    0    0 -0.36958278676E+02 -0.22636290902E+02  0.23037480957E+01  0.47787270930E+02  0.19999999479E+02 0.  0.
         12    1    1    2    0    0  0.36958278676E+02  0.22636290902E+02 -0.23037480957E+01  0.43400729070E+02  0.00000000000E+00 0. -1.
         11    1    3    3    0    0 -0.17290649538E+02 -0.12944635581E+02  0.10179032631E+02  0.23877664403E+02  0.51100000000E-03 0.  1.
        -11    1    3    3    0    0 -0.79621253394E+01 -0.12419876879E+01 -0.18621836146E+01  0.82707739307E+01  0.51100000000E-03 0. -1.
         12    1    3    3    0    0 -0.11705503799E+02 -0.84496676327E+01 -0.60131009210E+01  0.15638832596E+02  0.00000000000E+00 0. -1.
</event>
<event>
 7    1  0.1634068E-009  0.4778727E+02  0.7816164E-02  0.1312668E+00
        -11   -1    0    0    0    0  0.00000000000E+00  0.00000000000E+00  0.45593999997E+02  0.45594000000E+02  0.51100000000E-03 0. -1.
         11   -1    0    0    0    0 -0.00000000000E+00 -0.00000000000E+00 -0.45593999997E+02  0.45594000000E+02  0.51100000000E-03 0.  1.
    9900012    2    1    2    0    0  0.25617671625E+02 -0.30078110867E+02 -0.17962886751E+02  0.47787272434E+02  0.20000006337E+02 0.  0.
         12    1    1    2    0    0 -0.25617671625E+02  0.30078110867E+02  0.17962886751E+02  0.43400727566E+02  0.00000000000E+00 0. -1.
         11    1    3    3    0    0 -0.21125992688E+01 -0.14461340475E+01  0.73565857161E+00  0.26637517056E+01  0.51100000000E-03 0. -1.
        -11    1    3    3    0    0  0.14632500737E+02 -0.98040607486E+01 -0.46107366758E+01  0.18206827783E+02  0.51100000000E-03 0.  1.
        -12    1    3    3    0    0  0.13097770157E+02 -0.18827916071E+02 -0.14087808647E+02  0.26916692946E+02  0.00000000000E+00 0.  1.
</event>
<event>
 7    1  0.1634068E-009  0.4778727E+02  0.7816164E-02  0.1312668E+00
        -11   -1    0    0    0    0  0.00000000000E+00  0.00000000000E+00  0.45593999997E+02  0.45594000000E+02  0.51100000000E-03 0. -1.
         11   -1    0    0    0    0 -0.00000000000E+00 -0.00000000000E+00 -0.45593999997E+02  0.45594000000E+02  0.51100000000E-03 0.  1.
    9900012    2    1    2    0    0 -0.24073693219E+02 -0.30919767594E+02 -0.18656063781E+02  0.47787269026E+02  0.19999990798E+02 0.  0.
         12    1    1    2    0    0  0.24073693219E+02  0.30919767594E+02  0.18656063781E+02  0.43400730974E+02  0.00000000000E+00 0. -1.
         11    1    3    3    0    0 -0.60865228657E+01 -0.39885563712E+01 -0.92825553106E+01  0.11794921614E+02  0.51100000000E-03 0. -1.
        -11    1    3    3    0    0 -0.19003444883E+02 -0.27194576805E+02 -0.10141173906E+02  0.34691776165E+02  0.51100000000E-03 0.  1.
         12    1    3    3    0    0  0.10162745300E+01  0.26336558238E+00  0.76766543482E+00  0.13005712476E+01  0.00000000000E+00 0. -1.
</event>
<event>
 7    1  0.1634068E-009  0.4778727E+02  0.7816164E-02  0.1312668E+00
        -11   -1    0    0    0    0  0.00000000000E+00  0.00000000000E+00  0.45593999997E+02  0.45594000000E+02  0.51100000000E-03 0. -1.
         11   -1    0    0    0    0 -0.00000000000E+00 -0.00000000000E+00 -0.45593999997E+02  0.45594000000E+02  0.51100000000E-03 0.  1.
    9900012    2    1    2    0    0  0.54575721006E+01  0.30533901653E+02  0.30356538560E+02  0.47787266404E+02  0.19999978841E+02 0.  0.
         12    1    1    2    0    0 -0.54575721006E+01 -0.30533901653E+02 -0.30356538560E+02  0.43400733596E+02  0.00000000000E+00 0. -1.
         11    1    3    3    0    0  0.59187338524E+01  0.22568792880E+01  0.56972661361E+01  0.85196100981E+01  0.51100000000E-03 0. -1.
        -11    1    3    3    0    0  0.38758829220E+01  0.47588875500E+01  0.23791335328E+01  0.65825341448E+01  0.51100000000E-03 0.  1.
         12    1    3    3    0    0 -0.43370446738E+01  0.23518134815E+02  0.22280138891E+02  0.32685122161E+02  0.00000000000E+00 0. -1.
</event>
<event>
 7    1  0.1634068E-009  0.4778728E+02  0.7816164E-02  0.1312668E+00
        -11   -1    0    0    0    0  0.00000000000E+00  0.00000000000E+00  0.45593999997E+02  0.45594000000E+02  0.51100000000E-03 0.  1.
         11   -1    0    0    0    0 -0.00000000000E+00 -0.00000000000E+00 -0.45593999997E+02  0.45594000000E+02  0.51100000000E-03 0. -1.
    9900012    2    1    2    0    0  0.10368346738E+02 -0.12291605977E+02  0.40311740555E+02  0.47787278599E+02  0.20000034443E+02 0.  0.
         12    1    1    2    0    0 -0.10368346738E+02  0.12291605977E+02 -0.40311740555E+02  0.43400721401E+02  0.00000000000E+00 0. -1.
         11    1    3    3    0    0 -0.23721087158E+01 -0.55589033474E+01  0.13332310613E+01  0.61891688868E+01  0.51100000000E-03 0. -1.
        -11    1    3    3    0    0  0.33556285697E+01 -0.23096694478E+01  0.13046886496E+02  0.13668067294E+02  0.51100000000E-03 0.  1.
         12    1    3    3    0    0  0.93848268845E+01 -0.44230331823E+01  0.25931622998E+02  0.27930042418E+02  0.00000000000E+00 0. -1.
</event>
<event>
 7    1  0.1634068E-009  0.4778727E+02  0.7816164E-02  0.1312668E+00
        -11   -1    0    0    0    0  0.00000000000E+00  0.00000000000E+00  0.45593999997E+02  0.45594000000E+02  0.51100000000E-03 0.  1.
         11   -1    0    0    0    0 -0.00000000000E+00 -0.00000000000E+00 -0.45593999997E+02  0.45594000000E+02  0.51100000000E-03 0. -1.
    9900012    2    1    2    0    0 -0.15105893858E+02  0.25190015466E+02  0.31951500581E+02  0.47787270769E+02  0.19999998744E+02 0.  0.
         12    1    1    2    0    0  0.15105893858E+02 -0.25190015466E+02 -0.31951500581E+02  0.43400729231E+02  0.00000000000E+00 0. -1.
         11    1    3    3    0    0 -0.10758448168E+01 -0.27741348239E+00  0.12722759896E+01  0.16891082750E+01  0.51100000000E-03 0. -1.
        -11    1    3    3    0    0 -0.46389256057E+01  0.18120590682E+02  0.77358998023E+01  0.20241531153E+02  0.51100000000E-03 0.  1.
        -12    1    3    3    0    0 -0.93911234355E+01  0.73468382667E+01  0.22943324789E+02  0.25856631340E+02  0.00000000000E+00 0.  1.
</event>
<event>
 7    1  0.1634068E-009  0.4778727E+02  0.7816164E-02  0.1312668E+00
        -11   -1    0    0    0    0  0.00000000000E+00  0.00000000000E+00  0.45593999997E+02  0.45594000000E+02  0.51100000000E-03 0.  1.
         11   -1    0    0    0    0 -0.00000000000E+00 -0.00000000000E+00 -0.45593999997E+02  0.45594000000E+02  0.51100000000E-03 0. -1.
    9900012    2    1    2    0    0  0.36349330851E+02  0.17492826433E+02  0.16010959271E+02  0.47787266749E+02  0.19999980417E+02 0.  0.
         12    1    1    2    0    0 -0.36349330851E+02 -0.17492826433E+02 -0.16010959271E+02  0.43400733251E+02  0.00000000000E+00 0. -1.
         11    1    3    3    0    0  0.12201944378E+02  0.72044891289E+01  0.11844032917E+02  0.18468167917E+02  0.51100000000E-03 0. -1.
        -11    1    3    3    0    0  0.21600603736E+02  0.36561259750E+01  0.28274704657E+01  0.22089543417E+02  0.51100000000E-03 0.  1.
         12    1    3    3    0    0  0.25467827374E+01  0.66322113292E+01  0.13394558882E+01  0.72295554154E+01  0.00000000000E+00 0. -1.
</event>
<event>
 7    1  0.1634068E-009  0.4778727E+02  0.7816164E-02  0.1312668E+00
        -11   -1    0    0    0    0  0.00000000000E+00  0.00000000000E+00  0.45593999997E+02  0.45594000000E+02  0.51100000000E-03 0.  1.
         11   -1    0    0    0    0 -0.00000000000E+00 -0.00000000000E+00 -0.45593999997E+02  0.45594000000E+02  0.51100000000E-03 0. -1.
    9900012    2    1    2    0    0  0.16940300473E+02  0.39288341195E+02  0.72853058233E+01  0.47787271723E+02  0.20000003096E+02 0.  0.
         12    1    1    2    0    0 -0.16940300473E+02 -0.39288341195E+02 -0.72853058233E+01  0.43400728277E+02  0.00000000000E+00 0. -1.
         11    1    3    3    0    0  0.16704720258E+02  0.18096590542E+02  0.14761163743E+01  0.24672113569E+02  0.51100000000E-03 0. -1.
        -11    1    3    3    0    0 -0.21902043924E+01  0.19241626262E+01  0.30967843230E+00  0.29317738802E+01  0.51100000000E-03 0.  1.
        -12    1    3    3    0    0  0.24257846075E+01  0.19267588027E+02  0.54995110167E+01  0.20183384274E+02  0.00000000000E+00 0.  1.
</event>
<event>
 7    1  0.1634068E-009  0.4778727E+02  0.7816164E-02  0.1312668E+00
        -11   -1    0    0    0    0  0.00000000000E+00  0.00000000000E+00  0.45593999997E+02  0.45594000000E+02  0.51100000000E-03 0.  1.
         11   -1    0    0    0    0 -0.00000000000E+00 -0.00000000000E+00 -0.45593999997E+02  0.45594000000E+02  0.51100000000E-03 0. -1.
    9900012    2    1    2    0    0 -0.31792788425E+01  0.12749105376E+02  0.41363944186E+02  0.47787269817E+02  0.19999994404E+02 0.  0.
         12    1    1    2    0    0  0.31792788425E+01 -0.12749105376E+02 -0.41363944186E+02  0.43400730183E+02  0.00000000000E+00 0. -1.
         11    1    3    3    0    0 -0.51556922155E+00  0.54637066733E+01  0.12353018700E+02  0.13517210271E+02  0.51100000000E-03 0.  1.
        -11    1    3    3    0    0  0.13380885619E+01 -0.42784547512E+01  0.26501589693E+01  0.52075905062E+01  0.51100000000E-03 0. -1.
         12    1    3    3    0    0 -0.40017981829E+01  0.11563853453E+02  0.26360766516E+02  0.29062469040E+02  0.00000000000E+00 0. -1.
</event>
<event>
 7    1  0.1634068E-009  0.4778727E+02  0.7816164E-02  0.1312668E+00
        -11   -1    0    0    0    0  0.00000000000E+00  0.00000000000E+00  0.45593999997E+02  0.45594000000E+02  0.51100000000E-03 0. -1.
         11   -1    0    0    0    0 -0.00000000000E+00 -0.00000000000E+00 -0.45593999997E+02  0.45594000000E+02  0.51100000000E-03 0.  1.
    9900012    2    1    2    0    0 -0.43283248365E+02  0.29801501065E+01 -0.11412754864E+01  0.47787269667E+02  0.19999993722E+02 0.  0.
         12    1    1    2    0    0  0.43283248365E+02 -0.29801501065E+01  0.11412754864E+01  0.43400730333E+02  0.00000000000E+00 0. -1.
         11    1    3    3    0    0 -0.57781778453E+01  0.19865017590E+01 -0.11127261290E+01  0.62106109321E+01  0.51100000000E-03 0. -1.
        -11    1    3    3    0    0 -0.27578589062E+02  0.66508596228E+01 -0.55181415187E+01  0.28900906465E+02  0.51100000000E-03 0.  1.
         12    1    3    3    0    0 -0.99264814571E+01 -0.56572112753E+01  0.54895921613E+01  0.12675752271E+02  0.00000000000E+00 0. -1.
</event>
<event>
 7    1  0.1634068E-009  0.4778727E+02  0.7816164E-02  0.1312668E+00
        -11   -1    0    0    0    0  0.00000000000E+00  0.00000000000E+00  0.45593999997E+02  0.45594000000E+02  0.51100000000E-03 0.  1.
         11   -1    0    0    0    0 -0.00000000000E+00 -0.00000000000E+00 -0.45593999997E+02  0.45594000000E+02  0.51100000000E-03 0. -1.
    9900012    2    1    2    0    0 -0.25047033656E+02 -0.32238754041E+02 -0.14728606141E+02  0.47787274246E+02  0.20000014599E+02 0.  0.
         12    1    1    2    0    0  0.25047033656E+02  0.32238754041E+02  0.14728606141E+02  0.43400725754E+02  0.00000000000E+00 0. -1.
         11    1    3    3    0    0 -0.15897596240E+01 -0.64013994904E+01 -0.59780587376E+01  0.89018221522E+01  0.51100000000E-03 0. -1.
        -11    1    3    3    0    0 -0.14843197430E+02 -0.21611191526E+02 -0.48636647564E+00  0.26222140678E+02  0.51100000000E-03 0.  1.
        -12    1    3    3    0    0 -0.86140766017E+01 -0.42261630244E+01 -0.82641809280E+01  0.12663311416E+02  0.00000000000E+00 0.  1.
</event>
<event>
 7    1  0.1634068E-009  0.4778727E+02  0.7816164E-02  0.1312668E+00
        -11   -1    0    0    0    0  0.00000000000E+00  0.00000000000E+00  0.45593999997E+02  0.45594000000E+02  0.51100000000E-03 0. -1.
         11   -1    0    0    0    0 -0.00000000000E+00 -0.00000000000E+00 -0.45593999997E+02  0.45594000000E+02  0.51100000000E-03 0.  1.
    9900012    2    1    2    0    0 -0.36707758704E+02 -0.23107086074E+02 -0.14919796087E+01  0.47787274441E+02  0.20000015488E+02 0.  0.
         12    1    1    2    0    0  0.36707758704E+02  0.23107086074E+02  0.14919796087E+01  0.43400725559E+02  0.00000000000E+00 0. -1.
         11    1    3    3    0    0 -0.28710810461E+01  0.21666157163E+01  0.84471782396E+00  0.36947095283E+01  0.51100000000E-03 0. -1.
        -11    1    3    3    0    0 -0.32213506523E+02 -0.19480660842E+02 -0.39811444688E+01  0.37855721640E+02  0.51100000000E-03 0.  1.
         12    1    3    3    0    0 -0.16231711351E+01 -0.57930409483E+01  0.16444470361E+01  0.62368432734E+01  0.00000000000E+00 0. -1.
</event>
<event>
 7    1  0.1634068E-009  0.4778727E+02  0.7816164E-02  0.1312668E+00
        -11   -1    0    0    0    0  0.00000000000E+00  0.00000000000E+00  0.45593999997E+02  0.45594000000E+02  0.51100000000E-03 0.  1.
         11   -1    0    0    0    0 -0.00000000000E+00 -0.00000000000E+00 -0.45593999997E+02  0.45594000000E+02  0.51100000000E-03 0. -1.
    9900012    2    1    2    0    0  0.28233484364E+02  0.43620321696E+01  0.32672103634E+02  0.47787270515E+02  0.19999997585E+02 0.  0.
         12    1    1    2    0    0 -0.28233484364E+02 -0.43620321696E+01 -0.32672103634E+02  0.43400729485E+02  0.00000000000E+00 0. -1.
         11    1    3    3    0    0  0.19823831888E+02  0.14148836467E+01  0.26500753230E+02  0.33125158543E+02  0.51100000000E-03 0.  1.
        -11    1    3    3    0    0  0.63241321711E+01 -0.24725907549E+01  0.95690232418E+00  0.68574058563E+01  0.51100000000E-03 0. -1.
        -12    1    3    3    0    0  0.20855203053E+01  0.54197392778E+01  0.52144480795E+01  0.78047061160E+01  0.00000000000E+00 0.  1.
</event>
<event>
 7    1  0.1634068E-009  0.4778727E+02  0.7816164E-02  0.1312668E+00
        -11   -1    0    0    0    0  0.00000000000E+00  0.00000000000E+00  0.45593999997E+02  0.45594000000E+02  0.51100000000E-03 0.  1.
         11   -1    0    0    0    0 -0.00000000000E+00 -0.00000000000E+00 -0.45593999997E+02  0.45594000000E+02  0.51100000000E-03 0. -1.
    9900012    2    1    2    0    0  0.23411910664E+02  0.21194727013E+00  0.36543958737E+02  0.47787269559E+02  0.19999993229E+02 0.  0.
         12    1    1    2    0    0 -0.23411910664E+02 -0.21194727013E+00 -0.36543958737E+02  0.43400730441E+02  0.00000000000E+00 0. -1.
         11    1    3    3    0    0  0.33059024297E+01  0.43447944858E+01  0.25540711729E+01  0.60273966035E+01  0.51100000000E-03 0. -1.
        -11    1    3    3    0    0  0.18948508687E+02 -0.18587563189E+01  0.34258862043E+02  0.39194012110E+02  0.51100000000E-03 0.  1.
         12    1    3    3    0    0  0.11574995475E+01 -0.22740908968E+01 -0.26897447908E+00  0.25658608458E+01  0.00000000000E+00 0. -1.
</event>
<event>
 7    1  0.1634068E-009  0.4778727E+02  0.7816164E-02  0.1312668E+00
        -11   -1    0    0    0    0  0.00000000000E+00  0.00000000000E+00  0.45593999997E+02  0.45594000000E+02  0.51100000000E-03 0.  1.
         11   -1    0    0    0    0 -0.00000000000E+00 -0.00000000000E+00 -0.45593999997E+02  0.45594000000E+02  0.51100000000E-03 0. -1.
    9900012    2    1    2    0    0  0.55491922481E+01 -0.27010545231E+02  0.33515071211E+02  0.47787273202E+02  0.20000009838E+02 0.  0.
         12    1    1    2    0    0 -0.55491922481E+01  0.27010545231E+02 -0.33515071211E+02  0.43400726798E+02  0.00000000000E+00 0. -1.
         11    1    3    3    0    0  0.87694872962E+01 -0.18394776833E+02  0.16081048079E+02  0.25959041388E+02  0.51100000000E-03 0. -1.
        -11    1    3    3    0    0 -0.38094937358E+01 -0.97582521233E+01  0.10705808821E+02  0.14978319993E+02  0.51100000000E-03 0.  1.
        -12    1    3    3    0    0  0.58919868770E+00  0.11424837254E+01  0.67282143109E+01  0.68499118220E+01  0.00000000000E+00 0.  1.
</event>
<event>
 7    1  0.1634068E-009  0.4778727E+02  0.7816164E-02  0.1312668E+00
        -11   -1    0    0    0    0  0.00000000000E+00  0.00000000000E+00  0.45593999997E+02  0.45594000000E+02  0.51100000000E-03 0.  1.
         11   -1    0    0    0    0 -0.00000000000E+00 -0.00000000000E+00 -0.45593999997E+02  0.45594000000E+02  0.51100000000E-03 0. -1.
    9900012    2    1    2    0    0  0.37401352530E+01 -0.17261536046E+01  0.43204800834E+02  0.47787273818E+02  0.20000012648E+02 0.  0.
         12    1    1    2    0    0 -0.37401352530E+01  0.17261536046E+01 -0.43204800834E+02  0.43400726182E+02  0.00000000000E+00 0. -1.
         11    1    3    3    0    0  0.21752699504E+01  0.23483344954E+01  0.10696601483E+02  0.11165292554E+02  0.51100000000E-03 0.  1.
        -11    1    3    3    0    0  0.41241866325E+01  0.31319029991E+01  0.26204906203E+02  0.26711698582E+02  0.51100000000E-03 0. -1.
         12    1    3    3    0    0 -0.25593213299E+01 -0.72063910990E+01  0.63032931481E+01  0.99102826828E+01  0.00000000000E+00 0. -1.
</event>
<event>
 7    1  0.1634068E-009  0.4778727E+02  0.7816164E-02  0.1312668E+00
        -11   -1    0    0    0    0  0.00000000000E+00  0.00000000000E+00  0.45593999997E+02  0.45594000000E+02  0.51100000000E-03 0.  1.
         11   -1    0    0    0    0 -0.00000000000E+00 -0.00000000000E+00 -0.45593999997E+02  0.45594000000E+02  0.51100000000E-03 0. -1.
    9900012    2    1    2    0    0  0.34149924495E+02  0.15212469450E+01  0.26741199272E+02  0.47787271046E+02  0.20000000006E+02 0.  0.
         12    1    1    2    0    0 -0.34149924495E+02 -0.15212469450E+01 -0.26741199272E+02  0.43400728954E+02  0.00000000000E+00 0. -1.
         11    1    3    3    0    0  0.23141087356E+02  0.13616855364E+01  0.15055872982E+02  0.27641335406E+02  0.51100000000E-03 0. -1.
        -11    1    3    3    0    0  0.72652858714E+01  0.22434022128E+01  0.13499142438E+02  0.15493355967E+02  0.51100000000E-03 0.  1.
         12    1    3    3    0    0  0.37435512673E+01 -0.20838408042E+01 -0.18138161488E+01  0.46525796725E+01  0.00000000000E+00 0. -1.
</event>
<event>
 7    1  0.1634068E-009  0.4778727E+02  0.7816164E-02  0.1312668E+00
        -11   -1    0    0    0    0  0.00000000000E+00  0.00000000000E+00  0.45593999997E+02  0.45594000000E+02  0.51100000000E-03 0.  1.
         11   -1    0    0    0    0 -0.00000000000E+00 -0.00000000000E+00 -0.45593999997E+02  0.45594000000E+02  0.51100000000E-03 0. -1.
    9900012    2    1    2    0    0 -0.58422807258E+01 -0.19799005633E+02  0.38177094190E+02  0.47787269719E+02  0.19999993958E+02 0.  0.
         12    1    1    2    0    0  0.58422807258E+01  0.19799005633E+02 -0.38177094190E+02  0.43400730281E+02  0.00000000000E+00 0. -1.
         11    1    3    3    0    0 -0.78098767010E+01 -0.25544484901E+01  0.87670557137E+01  0.12015849838E+02  0.51100000000E-03 0. -1.
        -11    1    3    3    0    0 -0.11860843287E+01 -0.14291794718E+02  0.15105790775E+02  0.20828996795E+02  0.51100000000E-03 0.  1.
         12    1    3    3    0    0  0.31536803039E+01 -0.29527624246E+01  0.14304247701E+02  0.14942423086E+02  0.00000000000E+00 0. -1.
</event>
<event>
 7    1  0.1634068E-009  0.4778728E+02  0.7816164E-02  0.1312668E+00
        -11   -1    0    0    0    0  0.00000000000E+00  0.00000000000E+00  0.45593999997E+02  0.45594000000E+02  0.51100000000E-03 0.  1.
         11   -1    0    0    0    0 -0.00000000000E+00 -0.00000000000E+00 -0.45593999997E+02  0.45594000000E+02  0.51100000000E-03 0. -1.
    9900012    2    1    2    0    0 -0.11572142832E+02 -0.81707690838E+01  0.41023736422E+02  0.47787275269E+02  0.20000019262E+02 0.  0.
         12    1    1    2    0    0  0.11572142832E+02  0.81707690838E+01 -0.41023736422E+02  0.43400724731E+02  0.00000000000E+00 0. -1.
         11    1    3    3    0    0 -0.18419179483E+01  0.27045016299E+01  0.11606351883E+01  0.34718964696E+01  0.51100000000E-03 0. -1.
        -11    1    3    3    0    0  0.71257692174E+00 -0.83822297778E+01  0.14328791749E+02  0.16615770075E+02  0.51100000000E-03 0.  1.
        -12    1    3    3    0    0 -0.10442801805E+02 -0.24930409359E+01  0.25534309485E+02  0.27699608725E+02  0.00000000000E+00 0.  1.
</event>
<event>
 7    1  0.1634068E-009  0.4778727E+02  0.7816164E-02  0.1312668E+00
        -11   -1    0    0    0    0  0.00000000000E+00  0.00000000000E+00  0.45593999997E+02  0.45594000000E+02  0.51100000000E-03 0. -1.
         11   -1    0    0    0    0 -0.00000000000E+00 -0.00000000000E+00 -0.45593999997E+02  0.45594000000E+02  0.51100000000E-03 0.  1.
    9900012    2    1    2    0    0  0.20578277283E+01 -0.19153436668E+02 -0.38891318771E+02  0.47787268820E+02  0.19999989860E+02 0.  0.
         12    1    1    2    0    0 -0.20578277283E+01  0.19153436668E+02  0.38891318771E+02  0.43400731180E+02  0.00000000000E+00 0. -1.
         11    1    3    3    0    0  0.53074276333E+01 -0.81523164186E+01 -0.11875839399E+02  0.15351371690E+02  0.51100000000E-03 0. -1.
        -11    1    3    3    0    0 -0.26615076594E+00 -0.13048467228E+01 -0.20132388372E+02  0.20176385281E+02  0.51100000000E-03 0.  1.
        -12    1    3    3    0    0 -0.29834491391E+01 -0.96962735262E+01 -0.68830910008E+01  0.12259511849E+02  0.00000000000E+00 0.  1.
</event>
<event>
 7    1  0.1634068E-009  0.4778733E+02  0.7816164E-02  0.1312668E+00
        -11   -1    0    0    0    0  0.00000000000E+00  0.00000000000E+00  0.45593999997E+02  0.45594000000E+02  0.51100000000E-03 0.  1.
         11   -1    0    0    0    0 -0.00000000000E+00 -0.00000000000E+00 -0.45593999997E+02  0.45594000000E+02  0.51100000000E-03 0. -1.
    9900012    2    1    2    0    0  0.41400981786E+02 -0.12918606094E+02  0.16391497227E+01  0.47787326179E+02  0.20000251380E+02 0.  0.
         12    1    1    2    0    0 -0.41400981786E+02  0.12918606094E+02 -0.16391497227E+01  0.43400673821E+02  0.00000000000E+00 0. -1.
         11    1    3    3    0    0  0.10388187068E+01 -0.17320029039E+00  0.21946977685E+01  0.24343050759E+01  0.51100000000E-03 0. -1.
        -11    1    3    3    0    0  0.41338136368E+02 -0.13935090204E+02  0.23217042150E+00  0.43624329917E+02  0.51100000000E-03 0.  1.
        -12    1    3    3    0    0 -0.97597328862E+00  0.11896844002E+01 -0.78771846723E+00  0.17286911858E+01  0.00000000000E+00 0.  1.
</event>
<event>
 7    1  0.1634068E-009  0.4778727E+02  0.7816164E-02  0.1312668E+00
        -11   -1    0    0    0    0  0.00000000000E+00  0.00000000000E+00  0.45593999997E+02  0.45594000000E+02  0.51100000000E-03 0.  1.
         11   -1    0    0    0    0 -0.00000000000E+00 -0.00000000000E+00 -0.45593999997E+02  0.45594000000E+02  0.51100000000E-03 0. -1.
    9900012    2    1    2    0    0 -0.46044752988E+01 -0.19806556256E+02  0.38342176497E+02  0.47787270029E+02  0.19999995371E+02 0.  0.
         12    1    1    2    0    0  0.46044752988E+01  0.19806556256E+02 -0.38342176497E+02  0.43400729971E+02  0.00000000000E+00 0. -1.
         11    1    3    3    0    0 -0.38679691369E+01 -0.52079546583E+01  0.15374087698E+02  0.16686717765E+02  0.51100000000E-03 0. -1.
        -11    1    3    3    0    0 -0.17520856800E+01 -0.46630939071E+00 -0.18071925604E+01  0.25599206803E+01  0.51100000000E-03 0.  1.
        -12    1    3    3    0    0  0.10155795181E+01 -0.14132292207E+02  0.24775281359E+02  0.28540631583E+02  0.00000000000E+00 0.  1.
</event>
<event>
 7    1  0.1634068E-009  0.4778727E+02  0.7816164E-02  0.1312668E+00
        -11   -1    0    0    0    0  0.00000000000E+00  0.00000000000E+00  0.45593999997E+02  0.45594000000E+02  0.51100000000E-03 0.  1.
         11   -1    0    0    0    0 -0.00000000000E+00 -0.00000000000E+00 -0.45593999997E+02  0.45594000000E+02  0.51100000000E-03 0. -1.
    9900012    2    1    2    0    0  0.37419404011E+02 -0.83767151457E+01  0.20328356537E+02  0.47787271519E+02  0.20000002163E+02 0.  0.
         12    1    1    2    0    0 -0.37419404011E+02  0.83767151457E+01 -0.20328356537E+02  0.43400728481E+02  0.00000000000E+00 0. -1.
         11    1    3    3    0    0  0.13604608482E+02 -0.26763324591E+01 -0.10212307535E+00  0.13865733186E+02  0.51100000000E-03 0. -1.
        -11    1    3    3    0    0  0.11282046499E+02  0.31765817692E+01  0.87970454617E+01  0.14654803106E+02  0.51100000000E-03 0.  1.
        -12    1    3    3    0    0  0.12532749029E+02 -0.88769644557E+01  0.11633434151E+02  0.19266735227E+02  0.00000000000E+00 0.  1.
</event>
<event>
 7    1  0.1634068E-009  0.4778727E+02  0.7816164E-02  0.1312668E+00
        -11   -1    0    0    0    0  0.00000000000E+00  0.00000000000E+00  0.45593999997E+02  0.45594000000E+02  0.51100000000E-03 0.  1.
         11   -1    0    0    0    0 -0.00000000000E+00 -0.00000000000E+00 -0.45593999997E+02  0.45594000000E+02  0.51100000000E-03 0. -1.
    9900012    2    1    2    0    0  0.36581695677E+02 -0.23307146380E+02  0.14764147996E+01  0.47787270379E+02  0.19999996965E+02 0.  0.
         12    1    1    2    0    0 -0.36581695677E+02  0.23307146380E+02 -0.14764147996E+01  0.43400729621E+02  0.00000000000E+00 0. -1.
         11    1    3    3    0    0  0.16891357975E+02 -0.14099473011E+02 -0.56911174034E+01  0.22726678838E+02  0.51100000000E-03 0. -1.
        -11    1    3    3    0    0  0.19307301404E+02 -0.79325011908E+01  0.35076118836E+01  0.21166005859E+02  0.51100000000E-03 0.  1.
         12    1    3    3    0    0  0.38303629773E+00 -0.12751721787E+01  0.36599203194E+01  0.38945856820E+01  0.00000000000E+00 0. -1.
</event>
<event>
 7    1  0.1634068E-009  0.4778727E+02  0.7816164E-02  0.1312668E+00
        -11   -1    0    0    0    0  0.00000000000E+00  0.00000000000E+00  0.45593999997E+02  0.45594000000E+02  0.51100000000E-03 0.  1.
         11   -1    0    0    0    0 -0.00000000000E+00 -0.00000000000E+00 -0.45593999997E+02  0.45594000000E+02  0.51100000000E-03 0. -1.
    9900012    2    1    2    0    0  0.15196593573E+02 -0.14904712747E+00  0.40652974640E+02  0.47787273988E+02  0.20000013421E+02 0.  0.
         12    1    1    2    0    0 -0.15196593573E+02  0.14904712747E+00 -0.40652974640E+02  0.43400726012E+02  0.00000000000E+00 0. -1.
         11    1    3    3    0    0 -0.20236558344E+01  0.11340470888E-01 -0.47914213867E-01  0.20242548197E+01  0.51100000000E-03 0. -1.
        -11    1    3    3    0    0  0.37878046580E+01  0.12651565071E+01  0.23773719750E+02  0.24106800620E+02  0.51100000000E-03 0.  1.
         12    1    3    3    0    0  0.13432444749E+02 -0.14255441055E+01  0.16927169104E+02  0.21656218548E+02  0.00000000000E+00 0. -1.
</event>
<event>
 7    1  0.1634068E-009  0.4778727E+02  0.7816164E-02  0.1312668E+00
        -11   -1    0    0    0    0  0.00000000000E+00  0.00000000000E+00  0.45593999997E+02  0.45594000000E+02  0.51100000000E-03 0.  1.
         11   -1    0    0    0    0 -0.00000000000E+00 -0.00000000000E+00 -0.45593999997E+02  0.45594000000E+02  0.51100000000E-03 0. -1.
    9900012    2    1    2    0    0  0.11572636817E+02 -0.23972829592E+02  0.34278289023E+02  0.47787267519E+02  0.19999983924E+02 0.  0.
         12    1    1    2    0    0 -0.11572636817E+02  0.23972829592E+02 -0.34278289023E+02  0.43400732481E+02  0.00000000000E+00 0. -1.
         11    1    3    3    0    0 -0.12637621810E+01  0.14243069273E+00 -0.49503607663E+00  0.13647132778E+01  0.51100000000E-03 0. -1.
        -11    1    3    3    0    0  0.13799266636E+02 -0.25205201135E+02  0.30480772791E+02  0.41890326260E+02  0.51100000000E-03 0.  1.
        -12    1    3    3    0    0 -0.96286763800E+00  0.10899408503E+01  0.42925523090E+01  0.45322279809E+01  0.00000000000E+00 0.  1.
</event>
<event>
 7    1  0.1634068E-009  0.4778726E+02  0.7816164E-02  0.1312668E+00
        -11   -1    0    0    0    0  0.00000000000E+00  0.00000000000E+00  0.45593999997E+02  0.45594000000E+02  0.51100000000E-03 0.  1.
         11   -1    0    0    0    0 -0.00000000000E+00 -0.00000000000E+00 -0.45593999997E+02  0.45594000000E+02  0.51100000000E-03 0. -1.
    9900012    2    1    2    0    0 -0.14255479335E+02  0.17260471670E+02  0.37181736249E+02  0.47787261713E+02  0.19999957456E+02 0.  0.
         12    1    1    2    0    0  0.14255479335E+02 -0.17260471670E+02 -0.37181736249E+02  0.43400738287E+02  0.00000000000E+00 0. -1.
         11    1    3    3    0    0 -0.13985114361E+01  0.12233605966E+02  0.17341049486E+02  0.21268026394E+02  0.51100000000E-03 0. -1.
        -11    1    3    3    0    0 -0.56261304735E+01  0.72897738886E+01  0.14759635305E+02  0.17396579607E+02  0.51100000000E-03 0.  1.
         12    1    3    3    0    0 -0.72308374249E+01 -0.22629081839E+01  0.50810514578E+01  0.91226557115E+01  0.00000000000E+00 0. -1.
</event>
<event>
 7    1  0.1634068E-009  0.4778727E+02  0.7816164E-02  0.1312668E+00
        -11   -1    0    0    0    0  0.00000000000E+00  0.00000000000E+00  0.45593999997E+02  0.45594000000E+02  0.51100000000E-03 0.  1.
         11   -1    0    0    0    0 -0.00000000000E+00 -0.00000000000E+00 -0.45593999997E+02  0.45594000000E+02  0.51100000000E-03 0. -1.
    9900012    2    1    2    0    0 -0.24513054626E+02  0.33048246589E+02  0.13803876023E+02  0.47787269097E+02  0.19999991119E+02 0.  0.
         12    1    1    2    0    0  0.24513054626E+02 -0.33048246589E+02 -0.13803876023E+02  0.43400730903E+02  0.00000000000E+00 0. -1.
         11    1    3    3    0    0 -0.40742475872E+01  0.11235323522E+02 -0.17917850384E+01  0.12084803761E+02  0.51100000000E-03 0. -1.
        -11    1    3    3    0    0 -0.15136751090E+02  0.21338167470E+02  0.15437425506E+02  0.30376845311E+02  0.51100000000E-03 0.  1.
         12    1    3    3    0    0 -0.53020559487E+01  0.47475559685E+00  0.15823555572E+00  0.53256200250E+01  0.00000000000E+00 0. -1.
</event>
<event>
 7    1  0.1634068E-009  0.4778730E+02  0.7816164E-02  0.1312668E+00
        -11   -1    0    0    0    0  0.00000000000E+00  0.00000000000E+00  0.45593999997E+02  0.45594000000E+02  0.51100000000E-03 0. -1.
         11   -1    0    0    0    0 -0.00000000000E+00 -0.00000000000E+00 -0.45593999997E+02  0.45594000000E+02  0.51100000000E-03 0.  1.
    9900012    2    1    2    0    0  0.37524760218E+02  0.21092487425E+02 -0.55335135808E+01  0.47787303833E+02  0.20000149496E+02 0.  0.
         12    1    1    2    0    0 -0.37524760218E+02 -0.21092487425E+02  0.55335135808E+01  0.43400696167E+02  0.00000000000E+00 0. -1.
         11    1    3    3    0    0  0.16738690965E+02  0.87070774581E+01 -0.88249188029E+00  0.18888508815E+02  0.51100000000E-03 0. -1.
        -11    1    3    3    0    0  0.10556190406E+01  0.71965867290E+01  0.18162362405E+01  0.74969264669E+01  0.51100000000E-03 0.  1.
        -12    1    3    3    0    0  0.19730450213E+02  0.51888232382E+01 -0.64672579410E+01  0.21401868551E+02  0.00000000000E+00 0.  1.
</event>
<event>
 7    1  0.1969736E-009  0.4778727E+02  0.7816164E-02  0.1312668E+00
        -11   -1    0    0    0    0  0.00000000000E+00  0.00000000000E+00  0.45593999997E+02  0.45594000000E+02  0.51100000000E-03 0. -1.
         11   -1    0    0    0    0 -0.00000000000E+00 -0.00000000000E+00 -0.45593999997E+02  0.45594000000E+02  0.51100000000E-03 0.  1.
    9900012    2    1    2    0    0 -0.88472974886E+01 -0.29812740588E+02 -0.30274565519E+02  0.47787268536E+02  0.19999988564E+02 0.  0.
         12    1    1    2    0    0  0.88472974886E+01  0.29812740588E+02  0.30274565519E+02  0.43400731464E+02  0.00000000000E+00 0. -1.
         11    1    3    3    0    0 -0.42405452570E+00 -0.16722209749E+01  0.17941453069E+01  0.24889963586E+01  0.51100000000E-03 0. -1.
        -11    1    3    3    0    0 -0.30007738215E+01 -0.74677052282E+01 -0.17983295919E+02  0.19702035359E+02  0.51100000000E-03 0.  1.
        -12    1    3    3    0    0 -0.54224691415E+01 -0.20672814385E+02 -0.14085414907E+02  0.25596236819E+02  0.00000000000E+00 0.  1.
</event>
<event>
 7    1  0.2210352E-009  0.4778727E+02  0.7816164E-02  0.1312668E+00
        -11   -1    0    0    0    0  0.00000000000E+00  0.00000000000E+00  0.45593999997E+02  0.45594000000E+02  0.51100000000E-03 0.  1.
         11   -1    0    0    0    0 -0.00000000000E+00 -0.00000000000E+00 -0.45593999997E+02  0.45594000000E+02  0.51100000000E-03 0. -1.
    9900012    2    1    2    0    0  0.19523779800E+02  0.38182019813E+02  0.66767174946E+01  0.47787272227E+02  0.20000005392E+02 0.  0.
         12    1    1    2    0    0 -0.19523779800E+02 -0.38182019813E+02 -0.66767174946E+01  0.43400727773E+02  0.00000000000E+00 0. -1.
         11    1    3    3    0    0 -0.27964526499E-01  0.26874505252E+01 -0.32250507666E+01  0.41981096995E+01  0.51100000000E-03 0. -1.
        -11    1    3    3    0    0  0.76183155703E+01  0.26140016914E+02  0.52533436580E+01  0.27729710353E+02  0.51100000000E-03 0.  1.
        -12    1    3    3    0    0  0.11933428756E+02  0.93545523743E+01  0.46484246033E+01  0.15859452175E+02  0.00000000000E+00 0.  1.
</event>
<event>
 7    1  0.1634068E-009  0.4778727E+02  0.7816164E-02  0.1312668E+00
        -11   -1    0    0    0    0  0.00000000000E+00  0.00000000000E+00  0.45593999997E+02  0.45594000000E+02  0.51100000000E-03 0. -1.
         11   -1    0    0    0    0 -0.00000000000E+00 -0.00000000000E+00 -0.45593999997E+02  0.45594000000E+02  0.51100000000E-03 0.  1.
    9900012    2    1    2    0    0  0.21991191108E+02 -0.10440601980E+02 -0.35930555035E+02  0.47787269117E+02  0.19999991212E+02 0.  0.
         12    1    1    2    0    0 -0.21991191108E+02  0.10440601980E+02  0.35930555035E+02  0.43400730883E+02  0.00000000000E+00 0. -1.
         11    1    3    3    0    0  0.10453234102E+02 -0.45034046064E+01 -0.28423937618E+02  0.30618147988E+02  0.51100000000E-03 0. -1.
        -11    1    3    3    0    0  0.11095002380E+02 -0.48529066160E+01 -0.91309442235E+01  0.15166539589E+02  0.51100000000E-03 0.  1.
         12    1    3    3    0    0  0.44295462586E+00 -0.10842907576E+01  0.16243268067E+01  0.20025815396E+01  0.00000000000E+00 0. -1.
</event>
<event>
 7    1  0.1634068E-009  0.4778728E+02  0.7816164E-02  0.1312668E+00
        -11   -1    0    0    0    0  0.00000000000E+00  0.00000000000E+00  0.45593999997E+02  0.45594000000E+02  0.51100000000E-03 0.  1.
         11   -1    0    0    0    0 -0.00000000000E+00 -0.00000000000E+00 -0.45593999997E+02  0.45594000000E+02  0.51100000000E-03 0. -1.
    9900012    2    1    2    0    0 -0.14799429268E+01 -0.48208891729E+01  0.43106743891E+02  0.47787279126E+02  0.20000036849E+02 0.  0.
         12    1    1    2    0    0  0.14799429268E+01  0.48208891729E+01 -0.43106743891E+02  0.43400720874E+02  0.00000000000E+00 0. -1.
         11    1    3    3    0    0  0.43805340558E+01  0.20070825997E+01  0.60273669899E+01  0.77166451433E+01  0.51100000000E-03 0. -1.
        -11    1    3    3    0    0  0.67212094197E+00 -0.36849572305E+01  0.28897230698E+02  0.29138987605E+02  0.51100000000E-03 0.  1.
         12    1    3    3    0    0 -0.65325979246E+01 -0.31430145420E+01  0.81821462026E+01  0.10931646378E+02  0.00000000000E+00 0. -1.
</event>
<event>
 7    1  0.1634068E-009  0.4778727E+02  0.7816164E-02  0.1312668E+00
        -11   -1    0    0    0    0  0.00000000000E+00  0.00000000000E+00  0.45593999997E+02  0.45594000000E+02  0.51100000000E-03 0.  1.
         11   -1    0    0    0    0 -0.00000000000E+00 -0.00000000000E+00 -0.45593999997E+02  0.45594000000E+02  0.51100000000E-03 0. -1.
    9900012    2    1    2    0    0 -0.35659468317E+02 -0.14102865949E+02  0.20325711158E+02  0.47787273707E+02  0.20000012141E+02 0.  0.
         12    1    1    2    0    0  0.35659468317E+02  0.14102865949E+02 -0.20325711158E+02  0.43400726293E+02  0.00000000000E+00 0. -1.
         11    1    3    3    0    0 -0.58685832703E+01 -0.73604864415E+00  0.10469229651E+02  0.12024425432E+02  0.51100000000E-03 0. -1.
        -11    1    3    3    0    0 -0.13157588675E+02 -0.11368813507E+02  0.71103102951E+01  0.18786393295E+02  0.51100000000E-03 0.  1.
         12    1    3    3    0    0 -0.16633296372E+02 -0.19980037982E+01  0.27461712116E+01  0.16976454980E+02  0.00000000000E+00 0. -1.
</event>
<event>
 7    1  0.1634068E-009  0.4778727E+02  0.7816164E-02  0.1312668E+00
        -11   -1    0    0    0    0  0.00000000000E+00  0.00000000000E+00  0.45593999997E+02  0.45594000000E+02  0.51100000000E-03 0.  1.
         11   -1    0    0    0    0 -0.00000000000E+00 -0.00000000000E+00 -0.45593999997E+02  0.45594000000E+02  0.51100000000E-03 0. -1.
    9900012    2    1    2    0    0 -0.41269221549E+02  0.12816611046E+02 -0.40260270897E+01  0.47787273507E+02  0.20000011227E+02 0.  0.
         12    1    1    2    0    0  0.41269221549E+02 -0.12816611046E+02  0.40260270897E+01  0.43400726493E+02  0.00000000000E+00 0. -1.
         11    1    3    3    0    0 -0.13711267219E+02  0.77281052605E-01 -0.25267679725E+01  0.13942359117E+02  0.51100000000E-03 0. -1.
        -11    1    3    3    0    0 -0.95210418766E+01  0.90474840226E+01 -0.66574526368E+01  0.14725110574E+02  0.51100000000E-03 0.  1.
         12    1    3    3    0    0 -0.18036912454E+02  0.36918459713E+01  0.51581935196E+01  0.19119803815E+02  0.00000000000E+00 0. -1.
</event>
<event>
 7    1  0.1634068E-009  0.4778728E+02  0.7816164E-02  0.1312668E+00
        -11   -1    0    0    0    0  0.00000000000E+00  0.00000000000E+00  0.45593999997E+02  0.45594000000E+02  0.51100000000E-03 0.  1.
         11   -1    0    0    0    0 -0.00000000000E+00 -0.00000000000E+00 -0.45593999997E+02  0.45594000000E+02  0.51100000000E-03 0. -1.
    9900012    2    1    2    0    0 -0.28415630385E+02  0.21060470908E+02  0.25152165570E+02  0.47787275146E+02  0.20000018699E+02 0.  0.
         12    1    1    2    0    0  0.28415630385E+02 -0.21060470908E+02 -0.25152165570E+02  0.43400724854E+02  0.00000000000E+00 0. -1.
         11    1    3    3    0    0 -0.78017274009E+01  0.11129035599E+02  0.17690589033E+02  0.22308727538E+02  0.51100000000E-03 0. -1.
        -11    1    3    3    0    0 -0.15480473440E+02  0.91869285463E+01  0.89202919488E+01  0.20090204647E+02  0.51100000000E-03 0.  1.
        -12    1    3    3    0    0 -0.51334295438E+01  0.74450676311E+00 -0.14587154119E+01  0.53883429600E+01  0.00000000000E+00 0.  1.
</event>
<event>
 7    1  0.2400313E-009  0.4778727E+02  0.7816164E-02  0.1312668E+00
        -11   -1    0    0    0    0  0.00000000000E+00  0.00000000000E+00  0.45593999997E+02  0.45594000000E+02  0.51100000000E-03 0.  1.
         11   -1    0    0    0    0 -0.00000000000E+00 -0.00000000000E+00 -0.45593999997E+02  0.45594000000E+02  0.51100000000E-03 0. -1.
    9900012    2    1    2    0    0 -0.36232604846E+01 -0.43248520436E+02  0.24663773671E+00  0.47787269976E+02  0.19999995128E+02 0.  0.
         12    1    1    2    0    0  0.36232604846E+01  0.43248520436E+02 -0.24663773671E+00  0.43400730024E+02  0.00000000000E+00 0. -1.
         11    1    3    3    0    0  0.50105531306E+00 -0.34408290692E+01  0.41829120767E+01  0.54394039023E+01  0.51100000000E-03 0. -1.
        -11    1    3    3    0    0  0.26830648073E+01 -0.29662197762E+02 -0.10910517969E+01  0.29803275107E+02  0.51100000000E-03 0.  1.
         12    1    3    3    0    0 -0.68073806049E+01 -0.10145493605E+02 -0.28452225430E+01  0.12544590966E+02  0.00000000000E+00 0. -1.
</event>
<event>
 7    1  0.1634068E-009  0.4778727E+02  0.7816164E-02  0.1312668E+00
        -11   -1    0    0    0    0  0.00000000000E+00  0.00000000000E+00  0.45593999997E+02  0.45594000000E+02  0.51100000000E-03 0.  1.
         11   -1    0    0    0    0 -0.00000000000E+00 -0.00000000000E+00 -0.45593999997E+02  0.45594000000E+02  0.51100000000E-03 0. -1.
    9900012    2    1    2    0    0  0.12938140821E+02  0.28307940072E+02  0.30247117939E+02  0.47787273017E+02  0.20000008994E+02 0.  0.
         12    1    1    2    0    0 -0.12938140821E+02 -0.28307940072E+02 -0.30247117939E+02  0.43400726983E+02  0.00000000000E+00 0. -1.
         11    1    3    3    0    0  0.26039793322E+00  0.20401813232E+02  0.20507606484E+02  0.28928596824E+02  0.51100000000E-03 0. -1.
        -11    1    3    3    0    0  0.69437464933E+01  0.55859031984E+01  0.89374548325E+01  0.12621253070E+02  0.51100000000E-03 0.  1.
         12    1    3    3    0    0  0.57339963941E+01  0.23202236416E+01  0.80205662243E+00  0.62374231234E+01  0.00000000000E+00 0. -1.
</event>
<event>
 7    1  0.1634068E-009  0.4778728E+02  0.7816164E-02  0.1312668E+00
        -11   -1    0    0    0    0  0.00000000000E+00  0.00000000000E+00  0.45593999997E+02  0.45594000000E+02  0.51100000000E-03 0.  1.
         11   -1    0    0    0    0 -0.00000000000E+00 -0.00000000000E+00 -0.45593999997E+02  0.45594000000E+02  0.51100000000E-03 0. -1.
    9900012    2    1    2    0    0 -0.15712531545E+02  0.12068862767E+02  0.38614524258E+02  0.47787279042E+02  0.20000036463E+02 0.  0.
         12    1    1    2    0    0  0.15712531545E+02 -0.12068862767E+02 -0.38614524258E+02  0.43400720958E+02  0.00000000000E+00 0. -1.
         11    1    3    3    0    0 -0.13089203911E+02  0.28807518107E+01  0.31048203272E+02  0.33817405529E+02  0.51100000000E-03 0. -1.
        -11    1    3    3    0    0 -0.34410061116E+01  0.21571739260E+01  0.72443010943E+00  0.41253753347E+01  0.51100000000E-03 0.  1.
         12    1    3    3    0    0  0.81767847853E+00  0.70309370300E+01  0.68418908768E+01  0.98444981784E+01  0.00000000000E+00 0. -1.
</event>
<event>
 7    1  0.1634068E-009  0.4778726E+02  0.7816164E-02  0.1312668E+00
        -11   -1    0    0    0    0  0.00000000000E+00  0.00000000000E+00  0.45593999997E+02  0.45594000000E+02  0.51100000000E-03 0. -1.
         11   -1    0    0    0    0 -0.00000000000E+00 -0.00000000000E+00 -0.45593999997E+02  0.45594000000E+02  0.51100000000E-03 0.  1.
    9900012    2    1    2    0    0 -0.17185849138E+02  0.29192153447E+02  0.27130955010E+02  0.47787263218E+02  0.19999964317E+02 0.  0.
         12    1    1    2    0    0  0.17185849138E+02 -0.29192153447E+02 -0.27130955010E+02  0.43400736782E+02  0.00000000000E+00 0. -1.
         11    1    3    3    0    0 -0.10722109150E+02  0.14690499965E+02  0.75482549941E+01  0.19691383079E+02  0.51100000000E-03 0. -1.
        -11    1    3    3    0    0 -0.79059953689E+01  0.15504588315E+02  0.19758391673E+02  0.26330420873E+02  0.51100000000E-03 0.  1.
         12    1    3    3    0    0  0.14422553809E+01 -0.10029348328E+01 -0.17569165701E+00  0.17654592663E+01  0.00000000000E+00 0. -1.
</event>
<event>
 7    1  0.1634068E-009  0.4778727E+02  0.7816164E-02  0.1312668E+00
        -11   -1    0    0    0    0  0.00000000000E+00  0.00000000000E+00  0.45593999997E+02  0.45594000000E+02  0.51100000000E-03 0. -1.
         11   -1    0    0    0    0 -0.00000000000E+00 -0.00000000000E+00 -0.45593999997E+02  0.45594000000E+02  0.51100000000E-03 0.  1.
    9900012    2    1    2    0    0  0.57149006520E+01 -0.43016810121E+02 -0.71934450344E+00  0.47787268452E+02  0.19999988178E+02 0.  0.
         12    1    1    2    0    0 -0.57149006520E+01  0.43016810121E+02  0.71934450344E+00  0.43400731548E+02  0.00000000000E+00 0. -1.
         11    1    3    3    0    0  0.25894343410E+01 -0.72662608868E+01  0.31300903914E+01  0.83247332450E+01  0.51100000000E-03 0. -1.
        -11    1    3    3    0    0  0.37162155624E+01 -0.28307897503E+02 -0.95102624803E+01  0.30093062520E+02  0.51100000000E-03 0.  1.
        -12    1    3    3    0    0 -0.59074925142E+00 -0.74426517312E+01  0.56608275855E+01  0.93694726865E+01  0.00000000000E+00 0.  1.
</event>
<event>
 7    1  0.1634068E-009  0.4778727E+02  0.7816164E-02  0.1312668E+00
        -11   -1    0    0    0    0  0.00000000000E+00  0.00000000000E+00  0.45593999997E+02  0.45594000000E+02  0.51100000000E-03 0.  1.
         11   -1    0    0    0    0 -0.00000000000E+00 -0.00000000000E+00 -0.45593999997E+02  0.45594000000E+02  0.51100000000E-03 0. -1.
    9900012    2    1    2    0    0 -0.40698750352E+02 -0.85865128444E+01  0.12389805958E+02  0.47787265275E+02  0.19999973693E+02 0.  0.
         12    1    1    2    0    0  0.40698750352E+02  0.85865128444E+01 -0.12389805958E+02  0.43400734725E+02  0.00000000000E+00 0. -1.
         11    1    3    3    0    0 -0.20242547327E+01 -0.97530830856E+00 -0.38613116316E+01  0.44675005649E+01  0.51100000000E-03 0. -1.
        -11    1    3    3    0    0 -0.20431945371E+02 -0.35297637260E+01  0.44311701619E+01  0.21202803891E+02  0.51100000000E-03 0.  1.
         12    1    3    3    0    0 -0.18242550248E+02 -0.40814408098E+01  0.11819947428E+02  0.22116960818E+02  0.00000000000E+00 0. -1.
</event>
<event>
 7    1  0.1634068E-009  0.4778726E+02  0.7816164E-02  0.1312668E+00
        -11   -1    0    0    0    0  0.00000000000E+00  0.00000000000E+00  0.45593999997E+02  0.45594000000E+02  0.51100000000E-03 0.  1.
         11   -1    0    0    0    0 -0.00000000000E+00 -0.00000000000E+00 -0.45593999997E+02  0.45594000000E+02  0.51100000000E-03 0. -1.
    9900012    2    1    2    0    0  0.29101220270E+02  0.98519828764E+01  0.30654223908E+02  0.47787262320E+02  0.19999960220E+02 0.  0.
         12    1    1    2    0    0 -0.29101220270E+02 -0.98519828764E+01 -0.30654223908E+02  0.43400737680E+02  0.00000000000E+00 0. -1.
         11    1    3    3    0    0  0.96489441471E+01  0.74757698175E+01  0.62833017368E+01  0.13728406262E+02  0.51100000000E-03 0. -1.
        -11    1    3    3    0    0  0.13696292653E+02  0.58191407138E+01  0.22706368281E+02  0.27148296298E+02  0.51100000000E-03 0.  1.
        -12    1    3    3    0    0  0.57559834699E+01 -0.34429276549E+01  0.16645538896E+01  0.69105597598E+01  0.00000000000E+00 0.  1.
</event>
<event>
 7    1  0.1634068E-009  0.4778728E+02  0.7816164E-02  0.1312668E+00
        -11   -1    0    0    0    0  0.00000000000E+00  0.00000000000E+00  0.45593999997E+02  0.45594000000E+02  0.51100000000E-03 0. -1.
         11   -1    0    0    0    0 -0.00000000000E+00 -0.00000000000E+00 -0.45593999997E+02  0.45594000000E+02  0.51100000000E-03 0.  1.
    9900012    2    1    2    0    0 -0.11145246518E+02  0.39262739023E+02  0.14759516818E+02  0.47787279589E+02  0.20000038958E+02 0.  0.
         12    1    1    2    0    0  0.11145246518E+02 -0.39262739023E+02 -0.14759516818E+02  0.43400720411E+02  0.00000000000E+00 0. -1.
         11    1    3    3    0    0  0.45396838025E+01  0.14241612731E+02  0.84902039648E+01  0.17190573750E+02  0.51100000000E-03 0. -1.
        -11    1    3    3    0    0 -0.56107349092E+01  0.13520035067E+02  0.25056770191E+01  0.14850929668E+02  0.51100000000E-03 0.  1.
         12    1    3    3    0    0 -0.10074195411E+02  0.11501091224E+02  0.37636358336E+01  0.15745776171E+02  0.00000000000E+00 0. -1.
</event>
<event>
 7    1  0.1634068E-009  0.4778724E+02  0.7816164E-02  0.1312668E+00
        -11   -1    0    0    0    0  0.00000000000E+00  0.00000000000E+00  0.45593999997E+02  0.45594000000E+02  0.51100000000E-03 0.  1.
         11   -1    0    0    0    0 -0.00000000000E+00 -0.00000000000E+00 -0.45593999997E+02  0.45594000000E+02  0.51100000000E-03 0. -1.
    9900012    2    1    2    0    0  0.27159703375E+02  0.11741581691E+02  0.31750770293E+02  0.47787243759E+02  0.19999875595E+02 0.  0.
         12    1    1    2    0    0 -0.27159703375E+02 -0.11741581691E+02 -0.31750770293E+02  0.43400756241E+02  0.00000000000E+00 0. -1.
         11    1    3    3    0    0  0.38407112992E+01  0.21728087566E+01 -0.12076370799E+01  0.45749916672E+01  0.51100000000E-03 0. -1.
        -11    1    3    3    0    0  0.21557857665E+02  0.85885117060E+01  0.21687100063E+02  0.31762148382E+02  0.51100000000E-03 0.  1.
         12    1    3    3    0    0  0.17611344111E+01  0.98026122883E+00  0.11271307311E+02  0.11450103710E+02  0.00000000000E+00 0. -1.
</event>
<event>
 7    1  0.1634068E-009  0.4778727E+02  0.7816164E-02  0.1312668E+00
        -11   -1    0    0    0    0  0.00000000000E+00  0.00000000000E+00  0.45593999997E+02  0.45594000000E+02  0.51100000000E-03 0.  1.
         11   -1    0    0    0    0 -0.00000000000E+00 -0.00000000000E+00 -0.45593999997E+02  0.45594000000E+02  0.51100000000E-03 0. -1.
    9900012    2    1    2    0    0  0.78151049138E+01 -0.23582375001E+02  0.35586779147E+02  0.47787272753E+02  0.20000007792E+02 0.  0.
         12    1    1    2    0    0 -0.78151049138E+01  0.23582375001E+02 -0.35586779147E+02  0.43400727247E+02  0.00000000000E+00 0. -1.
         11    1    3    3    0    0 -0.19765577710E+01 -0.45869632828E+01  0.18402020078E+01  0.53229086476E+01  0.51100000000E-03 0. -1.
        -11    1    3    3    0    0  0.51042181897E+01 -0.11503212316E+02  0.30593883208E+02  0.33081152140E+02  0.51100000000E-03 0.  1.
         12    1    3    3    0    0  0.46874444951E+01 -0.74921994018E+01  0.31526939314E+01  0.93832119659E+01  0.00000000000E+00 0. -1.
</event>
<event>
 7    1  0.1634068E-009  0.4778727E+02  0.7816164E-02  0.1312668E+00
        -11   -1    0    0    0    0  0.00000000000E+00  0.00000000000E+00  0.45593999997E+02  0.45594000000E+02  0.51100000000E-03 0.  1.
         11   -1    0    0    0    0 -0.00000000000E+00 -0.00000000000E+00 -0.45593999997E+02  0.45594000000E+02  0.51100000000E-03 0. -1.
    9900012    2    1    2    0    0 -0.19166014548E+02  0.13846830921E+02  0.36394400969E+02  0.47787271180E+02  0.20000000620E+02 0.  0.
         12    1    1    2    0    0  0.19166014548E+02 -0.13846830921E+02 -0.36394400969E+02  0.43400728820E+02  0.00000000000E+00 0. -1.
         11    1    3    3    0    0 -0.75563508236E+01 -0.67766699547E+00  0.18450283130E+01  0.78078037926E+01  0.51100000000E-03 0. -1.
        -11    1    3    3    0    0 -0.24074139584E+01  0.90975710284E+01  0.15227128544E+02  0.17900471629E+02  0.51100000000E-03 0.  1.
        -12    1    3    3    0    0 -0.92022497655E+01  0.54269268883E+01  0.19322244112E+02  0.22078995759E+02  0.00000000000E+00 0.  1.
</event>
<event>
 7    1  0.1634068E-009  0.4778727E+02  0.7816164E-02  0.1312668E+00
        -11   -1    0    0    0    0  0.00000000000E+00  0.00000000000E+00  0.45593999997E+02  0.45594000000E+02  0.51100000000E-03 0.  1.
         11   -1    0    0    0    0 -0.00000000000E+00 -0.00000000000E+00 -0.45593999997E+02  0.45594000000E+02  0.51100000000E-03 0. -1.
    9900012    2    1    2    0    0  0.14601654400E+02 -0.30920422625E+02  0.26727188536E+02  0.47787268975E+02  0.19999990563E+02 0.  0.
         12    1    1    2    0    0 -0.14601654400E+02  0.30920422625E+02 -0.26727188536E+02  0.43400731025E+02  0.00000000000E+00 0. -1.
         11    1    3    3    0    0  0.19764955995E+01 -0.12995691741E+02  0.12020056905E+02  0.17812251597E+02  0.51100000000E-03 0. -1.
        -11    1    3    3    0    0  0.87423639933E+01 -0.15725198686E+02  0.40797301558E+01  0.18448712700E+02  0.51100000000E-03 0.  1.
         12    1    3    3    0    0  0.38827948068E+01 -0.21995321980E+01  0.10627401475E+02  0.11526304677E+02  0.00000000000E+00 0. -1.
</event>
<event>
 7    1  0.1634068E-009  0.4778727E+02  0.7816164E-02  0.1312668E+00
        -11   -1    0    0    0    0  0.00000000000E+00  0.00000000000E+00  0.45593999997E+02  0.45594000000E+02  0.51100000000E-03 0.  1.
         11   -1    0    0    0    0 -0.00000000000E+00 -0.00000000000E+00 -0.45593999997E+02  0.45594000000E+02  0.51100000000E-03 0. -1.
    9900012    2    1    2    0    0 -0.15640146690E+02  0.27536574107E+02  0.29677363642E+02  0.47787274029E+02  0.20000013608E+02 0.  0.
         12    1    1    2    0    0  0.15640146690E+02 -0.27536574107E+02 -0.29677363642E+02  0.43400725971E+02  0.00000000000E+00 0. -1.
         11    1    3    3    0    0 -0.80849044782E+01  0.15338264617E+02  0.82430304447E+01  0.19198322662E+02  0.51100000000E-03 0. -1.
        -11    1    3    3    0    0 -0.68690158232E+01  0.87718368056E+01  0.22353010204E+02  0.24975699485E+02  0.51100000000E-03 0.  1.
         12    1    3    3    0    0 -0.68622638883E+00  0.34264726849E+01 -0.91867700680E+00  0.36132518816E+01  0.00000000000E+00 0. -1.
</event>
<event>
 7    1  0.1634068E-009  0.4778728E+02  0.7816164E-02  0.1312668E+00
        -11   -1    0    0    0    0  0.00000000000E+00  0.00000000000E+00  0.45593999997E+02  0.45594000000E+02  0.51100000000E-03 0. -1.
         11   -1    0    0    0    0 -0.00000000000E+00 -0.00000000000E+00 -0.45593999997E+02  0.45594000000E+02  0.51100000000E-03 0.  1.
    9900012    2    1    2    0    0  0.42989155674E+02 -0.96359243358E+00 -0.58844600677E+01  0.47787275510E+02  0.20000020360E+02 0.  0.
         12    1    1    2    0    0 -0.42989155674E+02  0.96359243358E+00  0.58844600677E+01  0.43400724490E+02  0.00000000000E+00 0. -1.
         11    1    3    3    0    0  0.18953131041E+02  0.24558184314E+01 -0.15262016579E+01  0.19172415397E+02  0.51100000000E-03 0. -1.
        -11    1    3    3    0    0  0.25694615153E+02 -0.40592371481E+01 -0.26474651056E+01  0.26147652397E+02  0.51100000000E-03 0.  1.
         12    1    3    3    0    0 -0.16585905195E+01  0.63982628313E+00 -0.17107933042E+01  0.24672077159E+01  0.00000000000E+00 0. -1.
</event>
<event>
 7    1  0.1634068E-009  0.4778726E+02  0.7816164E-02  0.1312668E+00
        -11   -1    0    0    0    0  0.00000000000E+00  0.00000000000E+00  0.45593999997E+02  0.45594000000E+02  0.51100000000E-03 0.  1.
         11   -1    0    0    0    0 -0.00000000000E+00 -0.00000000000E+00 -0.45593999997E+02  0.45594000000E+02  0.51100000000E-03 0. -1.
    9900012    2    1    2    0    0 -0.13675208495E+02 -0.20110272493E+02  0.35947043135E+02  0.47787259254E+02  0.19999946243E+02 0.  0.
         12    1    1    2    0    0  0.13675208495E+02  0.20110272493E+02 -0.35947043135E+02  0.43400740746E+02  0.00000000000E+00 0. -1.
         11    1    3    3    0    0  0.27709928492E+00  0.27762396017E+01  0.38991195603E+01  0.47945201998E+01  0.51100000000E-03 0. -1.
        -11    1    3    3    0    0 -0.73483485472E+00 -0.10432865861E+02  0.12810034489E+02  0.16537280799E+02  0.51100000000E-03 0.  1.
         12    1    3    3    0    0 -0.13217472926E+02 -0.12453646233E+02  0.19237889086E+02  0.26455458255E+02  0.00000000000E+00 0. -1.
</event>
<event>
 7    1  0.1634068E-009  0.4778727E+02  0.7816164E-02  0.1312668E+00
        -11   -1    0    0    0    0  0.00000000000E+00  0.00000000000E+00  0.45593999997E+02  0.45594000000E+02  0.51100000000E-03 0.  1.
         11   -1    0    0    0    0 -0.00000000000E+00 -0.00000000000E+00 -0.45593999997E+02  0.45594000000E+02  0.51100000000E-03 0. -1.
    9900012    2    1    2    0    0  0.12068085399E+02 -0.41684884832E+02  0.59583241083E+00  0.47787270456E+02  0.19999997319E+02 0.  0.
         12    1    1    2    0    0 -0.12068085399E+02  0.41684884832E+02 -0.59583241083E+00  0.43400729544E+02  0.00000000000E+00 0. -1.
         11    1    3    3    0    0 -0.21449478779E+01 -0.13519243113E+02  0.38083807307E+01  0.14208254636E+02  0.51100000000E-03 0. -1.
        -11    1    3    3    0    0  0.72878064292E+01 -0.63860390827E+01  0.25295532509E+01  0.10014602220E+02  0.51100000000E-03 0.  1.
        -12    1    3    3    0    0  0.69252268476E+01 -0.21779602636E+02 -0.57421015708E+01  0.23564413601E+02  0.00000000000E+00 0.  1.
</event>
<event>
 7    1  0.1634068E-009  0.4778727E+02  0.7816164E-02  0.1312668E+00
        -11   -1    0    0    0    0  0.00000000000E+00  0.00000000000E+00  0.45593999997E+02  0.45594000000E+02  0.51100000000E-03 0.  1.
         11   -1    0    0    0    0 -0.00000000000E+00 -0.00000000000E+00 -0.45593999997E+02  0.45594000000E+02  0.51100000000E-03 0. -1.
    9900012    2    1    2    0    0  0.19827949829E+01  0.19527987830E+02  0.38708518638E+02  0.47787271898E+02  0.20000003893E+02 0.  0.
         12    1    1    2    0    0 -0.19827949829E+01 -0.19527987830E+02 -0.38708518638E+02  0.43400728102E+02  0.00000000000E+00 0. -1.
         11    1    3    3    0    0  0.26461426715E+01  0.13426447055E+02  0.19628793766E+02  0.23928248923E+02  0.51100000000E-03 0. -1.
        -11    1    3    3    0    0  0.57696953094E+01  0.50193091045E+00  0.80318411524E+01  0.99021104397E+01  0.51100000000E-03 0.  1.
         12    1    3    3    0    0 -0.64330429980E+01  0.55996098641E+01  0.11047883719E+02  0.13956912535E+02  0.00000000000E+00 0. -1.
</event>
<event>
 7    1  0.1634068E-009  0.4778727E+02  0.7816164E-02  0.1312668E+00
        -11   -1    0    0    0    0  0.00000000000E+00  0.00000000000E+00  0.45593999997E+02  0.45594000000E+02  0.51100000000E-03 0. -1.
         11   -1    0    0    0    0 -0.00000000000E+00 -0.00000000000E+00 -0.45593999997E+02  0.45594000000E+02  0.51100000000E-03 0.  1.
    9900012    2    1    2    0    0 -0.11615423410E+02  0.83933420558E+01 -0.40966532198E+02  0.47787274059E+02  0.20000013744E+02 0.  0.
         12    1    1    2    0    0  0.11615423410E+02 -0.83933420558E+01  0.40966532198E+02  0.43400725941E+02  0.00000000000E+00 0. -1.
         11    1    3    3    0    0 -0.21646928937E+01  0.29256260341E+01  0.69046996339E+00  0.37043126281E+01  0.51100000000E-03 0. -1.
        -11    1    3    3    0    0 -0.14006090151E+01 -0.25708714719E+01 -0.64446443375E+01  0.70784551024E+01  0.51100000000E-03 0.  1.
        -12    1    3    3    0    0 -0.80501215013E+01  0.80385874936E+01 -0.35212357824E+02  0.37004506328E+02  0.00000000000E+00 0.  1.
</event>
<event>
 7    1  0.1634068E-009  0.4778727E+02  0.7816164E-02  0.1312668E+00
        -11   -1    0    0    0    0  0.00000000000E+00  0.00000000000E+00  0.45593999997E+02  0.45594000000E+02  0.51100000000E-03 0.  1.
         11   -1    0    0    0    0 -0.00000000000E+00 -0.00000000000E+00 -0.45593999997E+02  0.45594000000E+02  0.51100000000E-03 0. -1.
    9900012    2    1    2    0    0  0.39451364516E+01 -0.42091506800E+02 -0.98165282520E+01  0.47787271052E+02  0.20000000035E+02 0.  0.
         12    1    1    2    0    0 -0.39451364516E+01  0.42091506800E+02  0.98165282520E+01  0.43400728948E+02  0.00000000000E+00 0. -1.
         11    1    3    3    0    0 -0.65423120218E+01 -0.12909667695E+02 -0.33693369454E+01  0.14859804787E+02  0.51100000000E-03 0. -1.
        -11    1    3    3    0    0  0.37641107143E+01 -0.21703400830E+02 -0.61369993399E+01  0.22866326732E+02  0.51100000000E-03 0.  1.
        -12    1    3    3    0    0  0.67233377590E+01 -0.74784382744E+01 -0.31019196674E+00  0.10061139533E+02  0.00000000000E+00 0.  1.
</event>
<event>
 7    1  0.1634068E-009  0.4778725E+02  0.7816164E-02  0.1312668E+00
        -11   -1    0    0    0    0  0.00000000000E+00  0.00000000000E+00  0.45593999997E+02  0.45594000000E+02  0.51100000000E-03 0. -1.
         11   -1    0    0    0    0 -0.00000000000E+00 -0.00000000000E+00 -0.45593999997E+02  0.45594000000E+02  0.51100000000E-03 0.  1.
    9900012    2    1    2    0    0  0.30107956651E+02  0.76685458596E+01 -0.30303950545E+02  0.47787250376E+02  0.19999905765E+02 0.  0.
         12    1    1    2    0    0 -0.30107956651E+02 -0.76685458596E+01  0.30303950545E+02  0.43400749624E+02  0.00000000000E+00 0. -1.
         11    1    3    3    0    0  0.11017820906E+02  0.35610618979E+01 -0.34672036691E+01  0.12086978154E+02  0.51100000000E-03 0. -1.
        -11    1    3    3    0    0  0.27350806637E+01  0.54863336302E+01 -0.31762028537E+01  0.69042586690E+01  0.51100000000E-03 0.  1.
        -12    1    3    3    0    0  0.16355055081E+02 -0.13788496685E+01 -0.23660544022E+02  0.28796013553E+02  0.00000000000E+00 0.  1.
</event>
<event>
 7    1  0.1634068E-009  0.4778727E+02  0.7816164E-02  0.1312668E+00
        -11   -1    0    0    0    0  0.00000000000E+00  0.00000000000E+00  0.45593999997E+02  0.45594000000E+02  0.51100000000E-03 0. -1.
         11   -1    0    0    0    0 -0.00000000000E+00 -0.00000000000E+00 -0.45593999997E+02  0.45594000000E+02  0.51100000000E-03 0.  1.
    9900012    2    1    2    0    0 -0.34830473386E+02 -0.41953409065E+01 -0.25551132157E+02  0.47787272862E+02  0.20000008286E+02 0.  0.
         12    1    1    2    0    0  0.34830473386E+02  0.41953409065E+01  0.25551132157E+02  0.43400727138E+02  0.00000000000E+00 0. -1.
         11    1    3    3    0    0 -0.11518782075E+02  0.41528330933E+01 -0.95209134362E+01  0.15510517597E+02  0.51100000000E-03 0. -1.
        -11    1    3    3    0    0 -0.20139051795E+02 -0.47735757289E+01 -0.66330511867E+01  0.21733978024E+02  0.51100000000E-03 0.  1.
        -12    1    3    3    0    0 -0.31726395162E+01 -0.35745982710E+01 -0.93971675341E+01  0.10542777241E+02  0.00000000000E+00 0.  1.
</event>
<event>
 7    1  0.1634068E-009  0.4778727E+02  0.7816164E-02  0.1312668E+00
        -11   -1    0    0    0    0  0.00000000000E+00  0.00000000000E+00  0.45593999997E+02  0.45594000000E+02  0.51100000000E-03 0.  1.
         11   -1    0    0    0    0 -0.00000000000E+00 -0.00000000000E+00 -0.45593999997E+02  0.45594000000E+02  0.51100000000E-03 0. -1.
    9900012    2    1    2    0    0 -0.26634621423E+02 -0.22604085104E+02  0.25754132355E+02  0.47787273565E+02  0.20000011491E+02 0.  0.
         12    1    1    2    0    0  0.26634621423E+02  0.22604085104E+02 -0.25754132355E+02  0.43400726435E+02  0.00000000000E+00 0. -1.
         11    1    3    3    0    0 -0.17812312770E+02 -0.11140508922E+02  0.92157737247E+01  0.22941663210E+02  0.51100000000E-03 0. -1.
        -11    1    3    3    0    0  0.15790689755E+01 -0.22545534102E+01 -0.56619932195E+00  0.28101693618E+01  0.51100000000E-03 0.  1.
         12    1    3    3    0    0 -0.10401377629E+02 -0.92090227718E+01  0.17104557953E+02  0.22035440993E+02  0.00000000000E+00 0. -1.
</event>
<event>
 7    1  0.1634068E-009  0.4778727E+02  0.7816164E-02  0.1312668E+00
        -11   -1    0    0    0    0  0.00000000000E+00  0.00000000000E+00  0.45593999997E+02  0.45594000000E+02  0.51100000000E-03 0.  1.
         11   -1    0    0    0    0 -0.00000000000E+00 -0.00000000000E+00 -0.45593999997E+02  0.45594000000E+02  0.51100000000E-03 0. -1.
    9900012    2    1    2    0    0  0.24450482672E+01  0.10267230926E+02  0.42097848819E+02  0.47787272274E+02  0.20000005608E+02 0.  0.
         12    1    1    2    0    0 -0.24450482672E+01 -0.10267230926E+02 -0.42097848819E+02  0.43400727726E+02  0.00000000000E+00 0. -1.
         11    1    3    3    0    0  0.51524058851E+01  0.23355163834E+01  0.16871527946E+01  0.59032540175E+01  0.51100000000E-03 0.  1.
        -11    1    3    3    0    0 -0.14051710808E+01  0.13795022811E+01  0.25128158040E+02  0.25205195081E+02  0.51100000000E-03 0. -1.
        -12    1    3    3    0    0 -0.13021865371E+01  0.65522122611E+01  0.15282537985E+02  0.16678823176E+02  0.00000000000E+00 0.  1.
</event>
<event>
 7    1  0.1634068E-009  0.4778727E+02  0.7816164E-02  0.1312668E+00
        -11   -1    0    0    0    0  0.00000000000E+00  0.00000000000E+00  0.45593999997E+02  0.45594000000E+02  0.51100000000E-03 0.  1.
         11   -1    0    0    0    0 -0.00000000000E+00 -0.00000000000E+00 -0.45593999997E+02  0.45594000000E+02  0.51100000000E-03 0. -1.
    9900012    2    1    2    0    0 -0.26241455242E+02  0.29438314164E+02  0.18121661926E+02  0.47787274833E+02  0.20000017273E+02 0.  0.
         12    1    1    2    0    0  0.26241455242E+02 -0.29438314164E+02 -0.18121661926E+02  0.43400725167E+02  0.00000000000E+00 0. -1.
         11    1    3    3    0    0 -0.55647271201E+01  0.14213239610E+02  0.13646768427E+02  0.20474780998E+02  0.51100000000E-03 0. -1.
        -11    1    3    3    0    0 -0.76869207364E+01  0.10084553572E+02  0.12441212479E+00  0.12680790583E+02  0.51100000000E-03 0.  1.
        -12    1    3    3    0    0 -0.12989807386E+02  0.51405209815E+01  0.43504813742E+01  0.14631703252E+02  0.00000000000E+00 0.  1.
</event>
<event>
 7    1  0.1634068E-009  0.4778727E+02  0.7816164E-02  0.1312668E+00
        -11   -1    0    0    0    0  0.00000000000E+00  0.00000000000E+00  0.45593999997E+02  0.45594000000E+02  0.51100000000E-03 0. -1.
         11   -1    0    0    0    0 -0.00000000000E+00 -0.00000000000E+00 -0.45593999997E+02  0.45594000000E+02  0.51100000000E-03 0.  1.
    9900012    2    1    2    0    0  0.13867700469E+02  0.40721567998E+02 -0.57501290021E+01  0.47787271895E+02  0.20000003878E+02 0.  0.
         12    1    1    2    0    0 -0.13867700469E+02 -0.40721567998E+02  0.57501290021E+01  0.43400728105E+02  0.00000000000E+00 0. -1.
         11    1    3    3    0    0 -0.67177648061E+00  0.30614902521E+01 -0.51323428820E+01  0.60137301172E+01  0.51100000000E-03 0. -1.
        -11    1    3    3    0    0  0.72318906642E+01  0.25268916762E+02 -0.49593226120E+01  0.26747210657E+02  0.51100000000E-03 0.  1.
         12    1    3    3    0    0  0.73075862850E+01  0.12391160984E+02  0.43415364919E+01  0.15026331121E+02  0.00000000000E+00 0. -1.
</event>
<event>
 7    1  0.1634068E-009  0.4778728E+02  0.7816164E-02  0.1312668E+00
        -11   -1    0    0    0    0  0.00000000000E+00  0.00000000000E+00  0.45593999997E+02  0.45594000000E+02  0.51100000000E-03 0.  1.
         11   -1    0    0    0    0 -0.00000000000E+00 -0.00000000000E+00 -0.45593999997E+02  0.45594000000E+02  0.51100000000E-03 0. -1.
    9900012    2    1    2    0    0 -0.66654322090E+01 -0.38140622282E+02  0.19608362162E+02  0.47787275107E+02  0.20000018523E+02 0.  0.
         12    1    1    2    0    0  0.66654322090E+01  0.38140622282E+02 -0.19608362162E+02  0.43400724893E+02  0.00000000000E+00 0. -1.
         11    1    3    3    0    0 -0.75083854281E+01 -0.13426263584E+02  0.14446700106E+02  0.21103259222E+02  0.51100000000E-03 0. -1.
        -11    1    3    3    0    0  0.36994113327E+01 -0.48875590684E+01  0.78337206620E+00  0.61796075855E+01  0.51100000000E-03 0.  1.
        -12    1    3    3    0    0 -0.28564581136E+01 -0.19826799629E+02  0.43782899899E+01  0.20504408300E+02  0.00000000000E+00 0.  1.
</event>
<event>
 7    1  0.1634068E-009  0.4778727E+02  0.7816164E-02  0.1312668E+00
        -11   -1    0    0    0    0  0.00000000000E+00  0.00000000000E+00  0.45593999997E+02  0.45594000000E+02  0.51100000000E-03 0.  1.
         11   -1    0    0    0    0 -0.00000000000E+00 -0.00000000000E+00 -0.45593999997E+02  0.45594000000E+02  0.51100000000E-03 0. -1.
    9900012    2    1    2    0    0 -0.13747688876E+02 -0.31463376538E+02  0.26545815456E+02  0.47787270388E+02  0.19999997007E+02 0.  0.
         12    1    1    2    0    0  0.13747688876E+02  0.31463376538E+02 -0.26545815456E+02  0.43400729612E+02  0.00000000000E+00 0. -1.
         11    1    3    3    0    0  0.17525842311E+01 -0.15521802391E+02  0.14092171245E+02  0.21037756335E+02  0.51100000000E-03 0. -1.
        -11    1    3    3    0    0 -0.19002952997E+01 -0.64335698676E+01  0.58113806527E+01  0.88754768220E+01  0.51100000000E-03 0.  1.
        -12    1    3    3    0    0 -0.13599977808E+02 -0.95080042795E+01  0.66422635580E+01  0.17874037231E+02  0.00000000000E+00 0.  1.
</event>
<event>
 7    1  0.1634068E-009  0.4778727E+02  0.7816164E-02  0.1312668E+00
        -11   -1    0    0    0    0  0.00000000000E+00  0.00000000000E+00  0.45593999997E+02  0.45594000000E+02  0.51100000000E-03 0.  1.
         11   -1    0    0    0    0 -0.00000000000E+00 -0.00000000000E+00 -0.45593999997E+02  0.45594000000E+02  0.51100000000E-03 0. -1.
    9900012    2    1    2    0    0  0.41309016991E+02  0.13310531847E+02  0.13489342840E+00  0.47787270294E+02  0.19999996578E+02 0.  0.
         12    1    1    2    0    0 -0.41309016991E+02 -0.13310531847E+02 -0.13489342840E+00  0.43400729706E+02  0.00000000000E+00 0. -1.
         11    1    3    3    0    0  0.77937432371E+01 -0.63556423966E+00 -0.44397044360E+01  0.89920715794E+01  0.51100000000E-03 0. -1.
        -11    1    3    3    0    0  0.60417624114E+01  0.80420415723E+01  0.35802555872E+01  0.10676870141E+02  0.51100000000E-03 0.  1.
         12    1    3    3    0    0  0.27473511342E+02  0.59040545148E+01  0.99434227717E+00  0.28118328573E+02  0.00000000000E+00 0. -1.
</event>
<event>
 7    1  0.1634068E-009  0.4778727E+02  0.7816164E-02  0.1312668E+00
        -11   -1    0    0    0    0  0.00000000000E+00  0.00000000000E+00  0.45593999997E+02  0.45594000000E+02  0.51100000000E-03 0.  1.
         11   -1    0    0    0    0 -0.00000000000E+00 -0.00000000000E+00 -0.45593999997E+02  0.45594000000E+02  0.51100000000E-03 0. -1.
    9900012    2    1    2    0    0  0.80949516334E+01  0.35981203305E+02  0.22878989943E+02  0.47787269429E+02  0.19999992637E+02 0.  0.
         12    1    1    2    0    0 -0.80949516334E+01 -0.35981203305E+02 -0.22878989943E+02  0.43400730571E+02  0.00000000000E+00 0. -1.
         11    1    3    3    0    0  0.50740384467E+01  0.28274997445E+02  0.89874290568E+01  0.30099754617E+02  0.51100000000E-03 0.  1.
        -11    1    3    3    0    0  0.19157385422E+01  0.89294120937E+01  0.10496199096E+02  0.13913110731E+02  0.51100000000E-03 0. -1.
        -12    1    3    3    0    0  0.11051746445E+01 -0.12232062332E+01  0.33953617904E+01  0.37744040816E+01  0.00000000000E+00 0.  1.
</event>
<event>
 7    1  0.1634068E-009  0.4778727E+02  0.7816164E-02  0.1312668E+00
        -11   -1    0    0    0    0  0.00000000000E+00  0.00000000000E+00  0.45593999997E+02  0.45594000000E+02  0.51100000000E-03 0.  1.
         11   -1    0    0    0    0 -0.00000000000E+00 -0.00000000000E+00 -0.45593999997E+02  0.45594000000E+02  0.51100000000E-03 0. -1.
    9900012    2    1    2    0    0  0.34885766124E+02  0.10327134496E+02  0.23663409047E+02  0.47787270597E+02  0.19999997961E+02 0.  0.
         12    1    1    2    0    0 -0.34885766124E+02 -0.10327134496E+02 -0.23663409047E+02  0.43400729403E+02  0.00000000000E+00 0. -1.
         11    1    3    3    0    0  0.17431710448E+02  0.35010830146E+01  0.13937214627E+02  0.22591327169E+02  0.51100000000E-03 0. -1.
        -11    1    3    3    0    0  0.14811662956E+02  0.47474921975E+01  0.70636530068E+00  0.15569938788E+02  0.51100000000E-03 0.  1.
         12    1    3    3    0    0  0.26423927202E+01  0.20785592841E+01  0.90198291196E+01  0.96260046401E+01  0.00000000000E+00 0. -1.
</event>
<event>
 7    1  0.1634068E-009  0.4778727E+02  0.7816164E-02  0.1312668E+00
        -11   -1    0    0    0    0  0.00000000000E+00  0.00000000000E+00  0.45593999997E+02  0.45594000000E+02  0.51100000000E-03 0.  1.
         11   -1    0    0    0    0 -0.00000000000E+00 -0.00000000000E+00 -0.45593999997E+02  0.45594000000E+02  0.51100000000E-03 0. -1.
    9900012    2    1    2    0    0  0.11822525454E+02 -0.11821625527E+02  0.40051220653E+02  0.47787271734E+02  0.20000003144E+02 0.  0.
         12    1    1    2    0    0 -0.11822525454E+02  0.11821625527E+02 -0.40051220653E+02  0.43400728266E+02  0.00000000000E+00 0. -1.
         11    1    3    3    0    0  0.43208931309E+01 -0.21645096412E+01  0.53783900332E+00  0.48625600757E+01  0.51100000000E-03 0. -1.
        -11    1    3    3    0    0  0.48473756076E+00 -0.95257608521E+01  0.19312554133E+02  0.21539494834E+02  0.51100000000E-03 0.  1.
        -12    1    3    3    0    0  0.70168947618E+01 -0.13135503348E+00  0.20200827517E+02  0.21385216824E+02  0.00000000000E+00 0.  1.
</event>
<event>
 7    1  0.1634068E-009  0.4778727E+02  0.7816164E-02  0.1312668E+00
        -11   -1    0    0    0    0  0.00000000000E+00  0.00000000000E+00  0.45593999997E+02  0.45594000000E+02  0.51100000000E-03 0.  1.
         11   -1    0    0    0    0 -0.00000000000E+00 -0.00000000000E+00 -0.45593999997E+02  0.45594000000E+02  0.51100000000E-03 0. -1.
    9900012    2    1    2    0    0  0.34213127140E+02 -0.24324777520E+02  0.11017720133E+02  0.47787273888E+02  0.20000012966E+02 0.  0.
         12    1    1    2    0    0 -0.34213127140E+02  0.24324777520E+02 -0.11017720133E+02  0.43400726112E+02  0.00000000000E+00 0. -1.
         11    1    3    3    0    0  0.68561440044E+01 -0.11954941070E+02 -0.37780876874E-01  0.13781464155E+02  0.51100000000E-03 0. -1.
        -11    1    3    3    0    0  0.14649277787E+02 -0.10938207138E+02  0.10761134853E+02  0.21214328616E+02  0.51100000000E-03 0.  1.
         12    1    3    3    0    0  0.12707705349E+02 -0.14316293120E+01  0.29436615683E+00  0.12791481117E+02  0.00000000000E+00 0. -1.
</event>
<event>
 7    1  0.1634068E-009  0.4778727E+02  0.7816164E-02  0.1312668E+00
        -11   -1    0    0    0    0  0.00000000000E+00  0.00000000000E+00  0.45593999997E+02  0.45594000000E+02  0.51100000000E-03 0. -1.
         11   -1    0    0    0    0 -0.00000000000E+00 -0.00000000000E+00 -0.45593999997E+02  0.45594000000E+02  0.51100000000E-03 0.  1.
    9900012    2    1    2    0    0  0.34339713191E+02 -0.17239053200E+02 -0.20179753456E+02  0.47787270664E+02  0.19999998266E+02 0.  0.
         12    1    1    2    0    0 -0.34339713191E+02  0.17239053200E+02  0.20179753456E+02  0.43400729336E+02  0.00000000000E+00 0. -1.
         11    1    3    3    0    0  0.20742140442E+02 -0.73003337806E+01 -0.52722425402E+01  0.22612558570E+02  0.51100000000E-03 0. -1.
        -11    1    3    3    0    0  0.27774423666E+01  0.24721691980E+01 -0.37777862840E+01  0.53007052466E+01  0.51100000000E-03 0.  1.
         12    1    3    3    0    0  0.10820130383E+02 -0.12410888618E+02 -0.11129724632E+02  0.19874006848E+02  0.00000000000E+00 0. -1.
</event>
<event>
 7    1  0.1634068E-009  0.4778727E+02  0.7816164E-02  0.1312668E+00
        -11   -1    0    0    0    0  0.00000000000E+00  0.00000000000E+00  0.45593999997E+02  0.45594000000E+02  0.51100000000E-03 0.  1.
         11   -1    0    0    0    0 -0.00000000000E+00 -0.00000000000E+00 -0.45593999997E+02  0.45594000000E+02  0.51100000000E-03 0. -1.
    9900012    2    1    2    0    0  0.34194132689E+02 -0.13346777723E+02  0.23157030931E+02  0.47787271118E+02  0.20000000335E+02 0.  0.
         12    1    1    2    0    0 -0.34194132689E+02  0.13346777723E+02 -0.23157030931E+02  0.43400728882E+02  0.00000000000E+00 0. -1.
         11    1    3    3    0    0  0.54960716915E+01 -0.88207620397E+01  0.49244285236E+01  0.11500549706E+02  0.51100000000E-03 0. -1.
        -11    1    3    3    0    0  0.82979203050E+01  0.40626493193E+01  0.54033620897E+01  0.10703126787E+02  0.51100000000E-03 0.  1.
         12    1    3    3    0    0  0.20400140693E+02 -0.85886650023E+01  0.12829240317E+02  0.25583594625E+02  0.00000000000E+00 0. -1.
</event>
<event>
 7    1  0.2010809E-009  0.4778727E+02  0.7816164E-02  0.1312668E+00
        -11   -1    0    0    0    0  0.00000000000E+00  0.00000000000E+00  0.45593999997E+02  0.45594000000E+02  0.51100000000E-03 0.  1.
         11   -1    0    0    0    0 -0.00000000000E+00 -0.00000000000E+00 -0.45593999997E+02  0.45594000000E+02  0.51100000000E-03 0. -1.
    9900012    2    1    2    0    0  0.15022169175E+02  0.40698027336E+02 -0.12760317905E+01  0.47787271286E+02  0.20000001102E+02 0.  0.
         12    1    1    2    0    0 -0.15022169175E+02 -0.40698027336E+02  0.12760317905E+01  0.43400728714E+02  0.00000000000E+00 0. -1.
         11    1    3    3    0    0  0.15170870284E+01  0.16150841261E+01 -0.38683844131E+01  0.44580767170E+01  0.51100000000E-03 0. -1.
        -11    1    3    3    0    0  0.10475840102E+02  0.28675423925E+02 -0.37692703332E+01  0.30760860883E+02  0.51100000000E-03 0.  1.
        -12    1    3    3    0    0  0.30292420447E+01  0.10407519285E+02  0.63616229557E+01  0.12568333686E+02  0.00000000000E+00 0.  1.
</event>
<event>
 7    1  0.1634068E-009  0.4778728E+02  0.7816164E-02  0.1312668E+00
        -11   -1    0    0    0    0  0.00000000000E+00  0.00000000000E+00  0.45593999997E+02  0.45594000000E+02  0.51100000000E-03 0.  1.
         11   -1    0    0    0    0 -0.00000000000E+00 -0.00000000000E+00 -0.45593999997E+02  0.45594000000E+02  0.51100000000E-03 0. -1.
    9900012    2    1    2    0    0  0.24495575263E+02 -0.46615677710E+01  0.35522661778E+02  0.47787275106E+02  0.20000018518E+02 0.  0.
         12    1    1    2    0    0 -0.24495575263E+02  0.46615677710E+01 -0.35522661778E+02  0.43400724894E+02  0.00000000000E+00 0. -1.
         11    1    3    3    0    0  0.66485551253E+00 -0.70273685381E+01  0.95060774910E+01  0.11840247081E+02  0.51100000000E-03 0. -1.
        -11    1    3    3    0    0  0.79675505513E+01  0.28192676706E+01  0.12567386483E+02  0.15144944214E+02  0.51100000000E-03 0.  1.
         12    1    3    3    0    0  0.15863169199E+02 -0.45346690355E+00  0.13449197804E+02  0.20802083810E+02  0.00000000000E+00 0. -1.
</event>
<event>
 7    1  0.1634068E-009  0.4778727E+02  0.7816164E-02  0.1312668E+00
        -11   -1    0    0    0    0  0.00000000000E+00  0.00000000000E+00  0.45593999997E+02  0.45594000000E+02  0.51100000000E-03 0.  1.
         11   -1    0    0    0    0 -0.00000000000E+00 -0.00000000000E+00 -0.45593999997E+02  0.45594000000E+02  0.51100000000E-03 0. -1.
    9900012    2    1    2    0    0 -0.86649694979E+01  0.35218636592E+02  0.23836723642E+02  0.47787268972E+02  0.19999990549E+02 0.  0.
         12    1    1    2    0    0  0.86649694979E+01 -0.35218636592E+02 -0.23836723642E+02  0.43400731028E+02  0.00000000000E+00 0. -1.
         11    1    3    3    0    0 -0.21498256131E+01  0.15596221049E+02  0.15267862270E+02  0.21931061984E+02  0.51100000000E-03 0.  1.
        -11    1    3    3    0    0  0.21412700444E+01 -0.47438655748E+00 -0.36042060592E+00  0.22226073165E+01  0.51100000000E-03 0. -1.
         12    1    3    3    0    0 -0.86564139292E+01  0.20096802101E+02  0.89292819779E+01  0.23633599671E+02  0.00000000000E+00 0. -1.
</event>
<event>
 7    1  0.1634068E-009  0.4778725E+02  0.7816164E-02  0.1312668E+00
        -11   -1    0    0    0    0  0.00000000000E+00  0.00000000000E+00  0.45593999997E+02  0.45594000000E+02  0.51100000000E-03 0.  1.
         11   -1    0    0    0    0 -0.00000000000E+00 -0.00000000000E+00 -0.45593999997E+02  0.45594000000E+02  0.51100000000E-03 0. -1.
    9900012    2    1    2    0    0  0.20603436821E+02  0.35208627092E+02  0.14814716306E+02  0.47787252889E+02  0.19999917221E+02 0.  0.
         12    1    1    2    0    0 -0.20603436821E+02 -0.35208627092E+02 -0.14814716306E+02  0.43400747111E+02  0.00000000000E+00 0. -1.
         11    1    3    3    0    0  0.36157275863E+01  0.12770466568E+02  0.62259195515E+01  0.14660162921E+02  0.51100000000E-03 0. -1.
        -11    1    3    3    0    0  0.85119857130E+01  0.20961617579E+02  0.93716225674E+01  0.24488173107E+02  0.51100000000E-03 0.  1.
         12    1    3    3    0    0  0.84757235219E+01  0.14765429459E+01 -0.78282581260E+00  0.86389168617E+01  0.00000000000E+00 0. -1.
</event>
<event>
 7    1  0.1634068E-009  0.4778727E+02  0.7816164E-02  0.1312668E+00
        -11   -1    0    0    0    0  0.00000000000E+00  0.00000000000E+00  0.45593999997E+02  0.45594000000E+02  0.51100000000E-03 0. -1.
         11   -1    0    0    0    0 -0.00000000000E+00 -0.00000000000E+00 -0.45593999997E+02  0.45594000000E+02  0.51100000000E-03 0.  1.
    9900012    2    1    2    0    0 -0.39586248338E+01  0.11593711412E+02 -0.41635781639E+02  0.47787272269E+02  0.20000005582E+02 0.  0.
         12    1    1    2    0    0  0.39586248338E+01 -0.11593711412E+02  0.41635781639E+02  0.43400727731E+02  0.00000000000E+00 0. -1.
         11    1    3    3    0    0  0.17772751740E+01 -0.12645276937E+01 -0.49994599159E+01  0.54545702895E+01  0.51100000000E-03 0. -1.
        -11    1    3    3    0    0 -0.77502034126E+01  0.15826382265E+02 -0.30495089867E+02  0.35220598160E+02  0.51100000000E-03 0.  1.
         12    1    3    3    0    0  0.20143034048E+01 -0.29681431584E+01 -0.61412318568E+01  0.71121038192E+01  0.00000000000E+00 0. -1.
</event>
<event>
 7    1  0.1634068E-009  0.4778727E+02  0.7816164E-02  0.1312668E+00
        -11   -1    0    0    0    0  0.00000000000E+00  0.00000000000E+00  0.45593999997E+02  0.45594000000E+02  0.51100000000E-03 0. -1.
         11   -1    0    0    0    0 -0.00000000000E+00 -0.00000000000E+00 -0.45593999997E+02  0.45594000000E+02  0.51100000000E-03 0.  1.
    9900012    2    1    2    0    0  0.86510824595E+01  0.42383984697E+02 -0.35185261677E+01  0.47787269443E+02  0.19999992698E+02 0.  0.
         12    1    1    2    0    0 -0.86510824595E+01 -0.42383984697E+02  0.35185261677E+01  0.43400730557E+02  0.00000000000E+00 0. -1.
         11    1    3    3    0    0  0.79020739425E+01  0.55985755200E+01 -0.47807323306E+01  0.10800102885E+02  0.51100000000E-03 0. -1.
        -11    1    3    3    0    0 -0.10822224062E+01  0.11228584488E+02 -0.60535486104E+00  0.11296847777E+02  0.51100000000E-03 0.  1.
         12    1    3    3    0    0  0.18312309232E+01  0.25556824689E+02  0.18675610239E+01  0.25690318781E+02  0.00000000000E+00 0. -1.
</event>
<event>
 7    1  0.1634068E-009  0.4778727E+02  0.7816164E-02  0.1312668E+00
        -11   -1    0    0    0    0  0.00000000000E+00  0.00000000000E+00  0.45593999997E+02  0.45594000000E+02  0.51100000000E-03 0.  1.
         11   -1    0    0    0    0 -0.00000000000E+00 -0.00000000000E+00 -0.45593999997E+02  0.45594000000E+02  0.51100000000E-03 0. -1.
    9900012    2    1    2    0    0  0.31899471886E+02  0.15989272928E+02  0.24706077251E+02  0.47787269493E+02  0.19999992928E+02 0.  0.
         12    1    1    2    0    0 -0.31899471886E+02 -0.15989272928E+02 -0.24706077251E+02  0.43400730507E+02  0.00000000000E+00 0. -1.
         11    1    3    3    0    0  0.30155478738E+02  0.10646417432E+02  0.18912725916E+02  0.37153604185E+02  0.51100000000E-03 0.  1.
        -11    1    3    3    0    0  0.19604926323E+01  0.44287507314E+01  0.80350321987E-01  0.48439468244E+01  0.51100000000E-03 0. -1.
         12    1    3    3    0    0 -0.21649948479E+00  0.91410476406E+00  0.57130010137E+01  0.57897184845E+01  0.00000000000E+00 0. -1.
</event>
<event>
 7    1  0.1837464E-009  0.4778727E+02  0.7816164E-02  0.1312668E+00
        -11   -1    0    0    0    0  0.00000000000E+00  0.00000000000E+00  0.45593999997E+02  0.45594000000E+02  0.51100000000E-03 0.  1.
         11   -1    0    0    0    0 -0.00000000000E+00 -0.00000000000E+00 -0.45593999997E+02  0.45594000000E+02  0.51100000000E-03 0. -1.
    9900012    2    1    2    0    0  0.15458804295E+01  0.23120797217E+02  0.36696900916E+02  0.47787267897E+02  0.19999985649E+02 0.  0.
         12    1    1    2    0    0 -0.15458804295E+01 -0.23120797217E+02 -0.36696900916E+02  0.43400732103E+02  0.00000000000E+00 0. -1.
         11    1    3    3    0    0  0.31960620953E+01  0.57955197206E+01  0.87411577550E+00  0.66758475416E+01  0.51100000000E-03 0. -1.
        -11    1    3    3    0    0 -0.53280100663E+01  0.57054262176E+01  0.11403905280E+02  0.13819863801E+02  0.51100000000E-03 0.  1.
        -12    1    3    3    0    0  0.36778284005E+01  0.11619851279E+02  0.24418879861E+02  0.27291556554E+02  0.00000000000E+00 0.  1.
</event>
<event>
 7    1  0.1634068E-009  0.4778727E+02  0.7816164E-02  0.1312668E+00
        -11   -1    0    0    0    0  0.00000000000E+00  0.00000000000E+00  0.45593999997E+02  0.45594000000E+02  0.51100000000E-03 0.  1.
         11   -1    0    0    0    0 -0.00000000000E+00 -0.00000000000E+00 -0.45593999997E+02  0.45594000000E+02  0.51100000000E-03 0. -1.
    9900012    2    1    2    0    0  0.36420078716E+02 -0.10960535616E+02  0.20906168037E+02  0.47787270321E+02  0.19999996703E+02 0.  0.
         12    1    1    2    0    0 -0.36420078716E+02  0.10960535616E+02 -0.20906168037E+02  0.43400729679E+02  0.00000000000E+00 0. -1.
         11    1    3    3    0    0  0.62785671002E+01  0.54839955241E+00 -0.18409674408E+01  0.65658440646E+01  0.51100000000E-03 0. -1.
        -11    1    3    3    0    0  0.30585064974E+02 -0.12153928950E+02  0.20338403810E+02  0.38688691606E+02  0.51100000000E-03 0.  1.
        -12    1    3    3    0    0 -0.44355335904E+00  0.64499378140E+00  0.24087316683E+01  0.25327346506E+01  0.00000000000E+00 0.  1.
</event>
<event>
 7    1  0.1634068E-009  0.4778727E+02  0.7816164E-02  0.1312668E+00
        -11   -1    0    0    0    0  0.00000000000E+00  0.00000000000E+00  0.45593999997E+02  0.45594000000E+02  0.51100000000E-03 0.  1.
         11   -1    0    0    0    0 -0.00000000000E+00 -0.00000000000E+00 -0.45593999997E+02  0.45594000000E+02  0.51100000000E-03 0. -1.
    9900012    2    1    2    0    0  0.66503014829E+01  0.31140120799E+02  0.29490503291E+02  0.47787269389E+02  0.19999992452E+02 0.  0.
         12    1    1    2    0    0 -0.66503014829E+01 -0.31140120799E+02 -0.29490503291E+02  0.43400730611E+02  0.00000000000E+00 0. -1.
         11    1    3    3    0    0 -0.19043608101E+00  0.12933142783E+02  0.15240930462E+02  0.19989707595E+02  0.51100000000E-03 0. -1.
        -11    1    3    3    0    0  0.91824512440E+01  0.19137578481E+02  0.11812324473E+02  0.24291877875E+02  0.51100000000E-03 0.  1.
         12    1    3    3    0    0 -0.23417136801E+01 -0.93060046539E+00  0.24372483561E+01  0.35056839183E+01  0.00000000000E+00 0. -1.
</event>
<event>
 7    1  0.1634068E-009  0.4778727E+02  0.7816164E-02  0.1312668E+00
        -11   -1    0    0    0    0  0.00000000000E+00  0.00000000000E+00  0.45593999997E+02  0.45594000000E+02  0.51100000000E-03 0.  1.
         11   -1    0    0    0    0 -0.00000000000E+00 -0.00000000000E+00 -0.45593999997E+02  0.45594000000E+02  0.51100000000E-03 0. -1.
    9900012    2    1    2    0    0 -0.86928152374E+01  0.38545096639E+02 -0.17953657637E+02  0.47787270350E+02  0.19999996832E+02 0.  0.
         12    1    1    2    0    0  0.86928152374E+01 -0.38545096639E+02  0.17953657637E+02  0.43400729650E+02  0.00000000000E+00 0. -1.
         11    1    3    3    0    0 -0.88736070405E+01  0.12451648357E+02 -0.12101581461E+02  0.19499556991E+02  0.51100000000E-03 0. -1.
        -11    1    3    3    0    0 -0.23824260448E+01  0.22119429006E+02 -0.71775309374E+01  0.23376527630E+02  0.51100000000E-03 0.  1.
        -12    1    3    3    0    0  0.25632178479E+01  0.39740192757E+01  0.13254547613E+01  0.49111857289E+01  0.00000000000E+00 0.  1.
</event>
<event>
 7    1  0.1634068E-009  0.4778727E+02  0.7816164E-02  0.1312668E+00
        -11   -1    0    0    0    0  0.00000000000E+00  0.00000000000E+00  0.45593999997E+02  0.45594000000E+02  0.51100000000E-03 0.  1.
         11   -1    0    0    0    0 -0.00000000000E+00 -0.00000000000E+00 -0.45593999997E+02  0.45594000000E+02  0.51100000000E-03 0. -1.
    9900012    2    1    2    0    0  0.27556531061E+01  0.36423841414E+02  0.23437860420E+02  0.47787272489E+02  0.20000006588E+02 0.  0.
         12    1    1    2    0    0 -0.27556531061E+01 -0.36423841414E+02 -0.23437860420E+02  0.43400727511E+02  0.00000000000E+00 0. -1.
         11    1    3    3    0    0  0.74573366706E+01  0.25054229094E+02  0.15881322641E+02  0.30586642098E+02  0.51100000000E-03 0. -1.
        -11    1    3    3    0    0  0.82849961854E+00 -0.80994145981E+00  0.27549518201E+01  0.29886747194E+01  0.51100000000E-03 0.  1.
         12    1    3    3    0    0 -0.55301831831E+01  0.12179553780E+02  0.48015859582E+01  0.14211955672E+02  0.00000000000E+00 0. -1.
</event>
<event>
 7    1  0.1634068E-009  0.4778727E+02  0.7816164E-02  0.1312668E+00
        -11   -1    0    0    0    0  0.00000000000E+00  0.00000000000E+00  0.45593999997E+02  0.45594000000E+02  0.51100000000E-03 0.  1.
         11   -1    0    0    0    0 -0.00000000000E+00 -0.00000000000E+00 -0.45593999997E+02  0.45594000000E+02  0.51100000000E-03 0. -1.
    9900012    2    1    2    0    0  0.89925825225E+01 -0.41431388342E+02 -0.92842416417E+01  0.47787267020E+02  0.19999981650E+02 0.  0.
         12    1    1    2    0    0 -0.89925825225E+01  0.41431388342E+02  0.92842416417E+01  0.43400732980E+02  0.00000000000E+00 0. -1.
         11    1    3    3    0    0  0.10755061881E+01 -0.15148753792E+02 -0.64365560028E+01  0.16494566028E+02  0.51100000000E-03 0. -1.
        -11    1    3    3    0    0  0.27568213089E+01 -0.11989340707E+02  0.60222880471E+01  0.13697164229E+02  0.51100000000E-03 0.  1.
         12    1    3    3    0    0  0.51602550254E+01 -0.14293293842E+02 -0.88699736860E+01  0.17595536763E+02  0.00000000000E+00 0. -1.
</event>
<event>
 7    1  0.1634068E-009  0.4778726E+02  0.7816164E-02  0.1312668E+00
        -11   -1    0    0    0    0  0.00000000000E+00  0.00000000000E+00  0.45593999997E+02  0.45594000000E+02  0.51100000000E-03 0.  1.
         11   -1    0    0    0    0 -0.00000000000E+00 -0.00000000000E+00 -0.45593999997E+02  0.45594000000E+02  0.51100000000E-03 0. -1.
    9900012    2    1    2    0    0 -0.84367227315E+01 -0.42571521798E+02  0.33342593870E+00  0.47787263468E+02  0.19999965458E+02 0.  0.
         12    1    1    2    0    0  0.84367227315E+01  0.42571521798E+02 -0.33342593870E+00  0.43400736532E+02  0.00000000000E+00 0. -1.
         11    1    3    3    0    0 -0.74271803403E+01 -0.15048505940E+02 -0.23852855140E+01  0.16950224956E+02  0.51100000000E-03 0.  1.
        -11    1    3    3    0    0  0.21123623442E+01 -0.27149477791E+02  0.99124284464E+00  0.27249564797E+02  0.51100000000E-03 0. -1.
         12    1    3    3    0    0 -0.31219047354E+01 -0.37353806721E+00  0.17274686081E+01  0.35874737151E+01  0.00000000000E+00 0. -1.
</event>
<event>
 7    1  0.1634068E-009  0.4778727E+02  0.7816164E-02  0.1312668E+00
        -11   -1    0    0    0    0  0.00000000000E+00  0.00000000000E+00  0.45593999997E+02  0.45594000000E+02  0.51100000000E-03 0.  1.
         11   -1    0    0    0    0 -0.00000000000E+00 -0.00000000000E+00 -0.45593999997E+02  0.45594000000E+02  0.51100000000E-03 0. -1.
    9900012    2    1    2    0    0 -0.16046270415E+02  0.22574877144E+02  0.33414299657E+02  0.47787270814E+02  0.19999998951E+02 0.  0.
         12    1    1    2    0    0  0.16046270415E+02 -0.22574877144E+02 -0.33414299657E+02  0.43400729186E+02  0.00000000000E+00 0. -1.
         11    1    3    3    0    0  0.56034487080E+00  0.20633883322E+01  0.84889299736E+01  0.87540556396E+01  0.51100000000E-03 0. -1.
        -11    1    3    3    0    0 -0.51457827749E+01  0.86098215542E+01  0.11722671022E+01  0.10098629510E+02  0.51100000000E-03 0.  1.
        -12    1    3    3    0    0 -0.11460832511E+02  0.11901667257E+02  0.23753102581E+02  0.28934585665E+02  0.00000000000E+00 0.  1.
</event>
<event>
 7    1  0.1634068E-009  0.4778731E+02  0.7816164E-02  0.1312668E+00
        -11   -1    0    0    0    0  0.00000000000E+00  0.00000000000E+00  0.45593999997E+02  0.45594000000E+02  0.51100000000E-03 0.  1.
         11   -1    0    0    0    0 -0.00000000000E+00 -0.00000000000E+00 -0.45593999997E+02  0.45594000000E+02  0.51100000000E-03 0. -1.
    9900012    2    1    2    0    0  0.23454418759E+02 -0.20595408219E+02  0.30155256850E+02  0.47787307440E+02  0.20000165941E+02 0.  0.
         12    1    1    2    0    0 -0.23454418759E+02  0.20595408219E+02 -0.30155256850E+02  0.43400692560E+02  0.00000000000E+00 0. -1.
         11    1    3    3    0    0  0.61704013633E+01 -0.62025495602E+01  0.87265477748E+01  0.12357107686E+02  0.51100000000E-03 0. -1.
        -11    1    3    3    0    0  0.18719692339E+02 -0.86242994266E+01  0.21070436828E+02  0.29474883040E+02  0.51100000000E-03 0.  1.
         12    1    3    3    0    0 -0.14356749433E+01 -0.57685592325E+01  0.35827224675E+00  0.59553167141E+01  0.00000000000E+00 0. -1.
</event>
<event>
 7    1  0.1634068E-009  0.4778727E+02  0.7816164E-02  0.1312668E+00
        -11   -1    0    0    0    0  0.00000000000E+00  0.00000000000E+00  0.45593999997E+02  0.45594000000E+02  0.51100000000E-03 0.  1.
         11   -1    0    0    0    0 -0.00000000000E+00 -0.00000000000E+00 -0.45593999997E+02  0.45594000000E+02  0.51100000000E-03 0. -1.
    9900012    2    1    2    0    0 -0.33667111539E+02 -0.16275010194E+02  0.22028913137E+02  0.47787269935E+02  0.19999994941E+02 0.  0.
         12    1    1    2    0    0  0.33667111539E+02  0.16275010194E+02 -0.22028913137E+02  0.43400730065E+02  0.00000000000E+00 0. -1.
         11    1    3    3    0    0  0.23894837329E+01 -0.34324722388E+00  0.28550563169E+01  0.37388230769E+01  0.51100000000E-03 0. -1.
        -11    1    3    3    0    0 -0.10125886616E+02 -0.66019685462E+01  0.53851366348E+01  0.13233263592E+02  0.51100000000E-03 0.  1.
        -12    1    3    3    0    0 -0.25930708656E+02 -0.93297944235E+01  0.13788720185E+02  0.30815183266E+02  0.00000000000E+00 0.  1.
</event>
<event>
 7    1  0.1634068E-009  0.4778727E+02  0.7816164E-02  0.1312668E+00
        -11   -1    0    0    0    0  0.00000000000E+00  0.00000000000E+00  0.45593999997E+02  0.45594000000E+02  0.51100000000E-03 0. -1.
         11   -1    0    0    0    0 -0.00000000000E+00 -0.00000000000E+00 -0.45593999997E+02  0.45594000000E+02  0.51100000000E-03 0.  1.
    9900012    2    1    2    0    0  0.11941753646E+02  0.41533560650E+02  0.39976904853E+01  0.47787266485E+02  0.19999979211E+02 0.  0.
         12    1    1    2    0    0 -0.11941753646E+02 -0.41533560650E+02 -0.39976904853E+01  0.43400733515E+02  0.00000000000E+00 0. -1.
         11    1    3    3    0    0 -0.25885311190E+01  0.80559563361E+01 -0.55561003922E+00  0.84798365916E+01  0.51100000000E-03 0. -1.
        -11    1    3    3    0    0  0.16017034988E+02  0.32098124444E+02  0.18396607125E+01  0.35919623529E+02  0.51100000000E-03 0.  1.
         12    1    3    3    0    0 -0.14867502223E+01  0.13794798699E+01  0.27136398120E+01  0.33878063647E+01  0.00000000000E+00 0. -1.
</event>
<event>
 7    1  0.1634068E-009  0.4778727E+02  0.7816164E-02  0.1312668E+00
        -11   -1    0    0    0    0  0.00000000000E+00  0.00000000000E+00  0.45593999997E+02  0.45594000000E+02  0.51100000000E-03 0. -1.
         11   -1    0    0    0    0 -0.00000000000E+00 -0.00000000000E+00 -0.45593999997E+02  0.45594000000E+02  0.51100000000E-03 0.  1.
    9900012    2    1    2    0    0 -0.11127451378E+02 -0.32679201232E+02 -0.26303474444E+02  0.47787272642E+02  0.20000007285E+02 0.  0.
         12    1    1    2    0    0  0.11127451378E+02  0.32679201232E+02  0.26303474444E+02  0.43400727358E+02  0.00000000000E+00 0. -1.
         11    1    3    3    0    0 -0.83220659547E+01 -0.72314629766E+01 -0.10401267059E+02  0.15157083995E+02  0.51100000000E-03 0. -1.
        -11    1    3    3    0    0 -0.64139199961E+01 -0.70876351533E+01 -0.73449356197E+01  0.12054916893E+02  0.51100000000E-03 0.  1.
         12    1    3    3    0    0  0.36085345724E+01 -0.18360103103E+02 -0.85572717646E+01  0.20575271754E+02  0.00000000000E+00 0. -1.
</event>
<event>
 7    1  0.1634068E-009  0.4778727E+02  0.7816164E-02  0.1312668E+00
        -11   -1    0    0    0    0  0.00000000000E+00  0.00000000000E+00  0.45593999997E+02  0.45594000000E+02  0.51100000000E-03 0.  1.
         11   -1    0    0    0    0 -0.00000000000E+00 -0.00000000000E+00 -0.45593999997E+02  0.45594000000E+02  0.51100000000E-03 0. -1.
    9900012    2    1    2    0    0  0.16587587182E+02 -0.32408237837E+01  0.39974645668E+02  0.47787270932E+02  0.19999999488E+02 0.  0.
         12    1    1    2    0    0 -0.16587587182E+02  0.32408237837E+01 -0.39974645668E+02  0.43400729068E+02  0.00000000000E+00 0. -1.
         11    1    3    3    0    0  0.16755290021E+02 -0.36498117698E+01  0.18232978911E+02  0.25030029762E+02  0.51100000000E-03 0. -1.
        -11    1    3    3    0    0 -0.19567362723E+01 -0.91546788651E+00  0.21791250830E+01  0.30684661769E+01  0.51100000000E-03 0.  1.
        -12    1    3    3    0    0  0.17890334333E+01  0.13244558726E+01  0.19562541674E+02  0.19688774993E+02  0.00000000000E+00 0.  1.
</event>
<event>
 7    1  0.1634068E-009  0.4778728E+02  0.7816164E-02  0.1312668E+00
        -11   -1    0    0    0    0  0.00000000000E+00  0.00000000000E+00  0.45593999997E+02  0.45594000000E+02  0.51100000000E-03 0.  1.
         11   -1    0    0    0    0 -0.00000000000E+00 -0.00000000000E+00 -0.45593999997E+02  0.45594000000E+02  0.51100000000E-03 0. -1.
    9900012    2    1    2    0    0 -0.39875760225E+02  0.10375201504E+02 -0.13634578020E+02  0.47787276762E+02  0.20000026070E+02 0.  0.
         12    1    1    2    0    0  0.39875760225E+02 -0.10375201504E+02  0.13634578020E+02  0.43400723238E+02  0.00000000000E+00 0. -1.
         11    1    3    3    0    0  0.23567473195E+00  0.10224905402E+00 -0.20159912094E+01  0.20322938434E+01  0.51100000000E-03 0. -1.
        -11    1    3    3    0    0 -0.36741301215E+02  0.94916717754E+01 -0.49850850142E+01  0.38273569482E+02  0.51100000000E-03 0.  1.
         12    1    3    3    0    0 -0.33701337423E+01  0.78128067500E+00 -0.66335017960E+01  0.74814134367E+01  0.00000000000E+00 0. -1.
</event>
<event>
 7    1  0.2609149E-009  0.4778728E+02  0.7816164E-02  0.1312668E+00
        -11   -1    0    0    0    0  0.00000000000E+00  0.00000000000E+00  0.45593999997E+02  0.45594000000E+02  0.51100000000E-03 0. -1.
         11   -1    0    0    0    0 -0.00000000000E+00 -0.00000000000E+00 -0.45593999997E+02  0.45594000000E+02  0.51100000000E-03 0.  1.
    9900012    2    1    2    0    0 -0.14504400050E+02 -0.17178792769E+02 -0.37123231885E+02  0.47787275497E+02  0.20000020301E+02 0.  0.
         12    1    1    2    0    0  0.14504400050E+02  0.17178792769E+02  0.37123231885E+02  0.43400724503E+02  0.00000000000E+00 0. -1.
         11    1    3    3    0    0  0.18150612949E+01  0.14644967519E+01 -0.47274813800E+01  0.52714588778E+01  0.51100000000E-03 0. -1.
        -11    1    3    3    0    0 -0.65558203429E+01 -0.11871480030E+02 -0.25220151230E+02  0.28635063241E+02  0.51100000000E-03 0.  1.
        -12    1    3    3    0    0 -0.97636410023E+01 -0.67718094907E+01 -0.71755992741E+01  0.13880753378E+02  0.00000000000E+00 0.  1.
</event>
<event>
 7    1  0.1634068E-009  0.4778727E+02  0.7816164E-02  0.1312668E+00
        -11   -1    0    0    0    0  0.00000000000E+00  0.00000000000E+00  0.45593999997E+02  0.45594000000E+02  0.51100000000E-03 0.  1.
         11   -1    0    0    0    0 -0.00000000000E+00 -0.00000000000E+00 -0.45593999997E+02  0.45594000000E+02  0.51100000000E-03 0. -1.
    9900012    2    1    2    0    0  0.27873550554E+02  0.33194394601E+02 -0.21955936884E+01  0.47787270916E+02  0.19999999413E+02 0.  0.
         12    1    1    2    0    0 -0.27873550554E+02 -0.33194394601E+02  0.21955936884E+01  0.43400729084E+02  0.00000000000E+00 0. -1.
         11    1    3    3    0    0 -0.18563524132E+01  0.26551842081E+01  0.14989494334E+01  0.35697194744E+01  0.51100000000E-03 0. -1.
        -11    1    3    3    0    0  0.15830153019E+02  0.19452139537E+02  0.29161484423E+01  0.25248433598E+02  0.51100000000E-03 0.  1.
        -12    1    3    3    0    0  0.13899749948E+02  0.11087070856E+02 -0.66106915640E+01  0.18969117843E+02  0.00000000000E+00 0.  1.
</event>
<event>
 7    1  0.1634068E-009  0.4778727E+02  0.7816164E-02  0.1312668E+00
        -11   -1    0    0    0    0  0.00000000000E+00  0.00000000000E+00  0.45593999997E+02  0.45594000000E+02  0.51100000000E-03 0.  1.
         11   -1    0    0    0    0 -0.00000000000E+00 -0.00000000000E+00 -0.45593999997E+02  0.45594000000E+02  0.51100000000E-03 0. -1.
    9900012    2    1    2    0    0  0.38029036869E+02  0.31225152138E+01  0.20680070806E+02  0.47787273336E+02  0.20000010447E+02 0.  0.
         12    1    1    2    0    0 -0.38029036869E+02 -0.31225152138E+01 -0.20680070806E+02  0.43400726664E+02  0.00000000000E+00 0. -1.
         11    1    3    3    0    0  0.58303500514E+01  0.27915516783E+01  0.82309627884E+01  0.10465872691E+02  0.51100000000E-03 0. -1.
        -11    1    3    3    0    0  0.23101561072E+02  0.72807107523E+00  0.15371912038E+02  0.27758023911E+02  0.51100000000E-03 0.  1.
         12    1    3    3    0    0  0.90971257449E+01 -0.39710753976E+00 -0.29228040202E+01  0.95633767341E+01  0.00000000000E+00 0. -1.
</event>
<event>
 7    1  0.1634068E-009  0.4778727E+02  0.7816164E-02  0.1312668E+00
        -11   -1    0    0    0    0  0.00000000000E+00  0.00000000000E+00  0.45593999997E+02  0.45594000000E+02  0.51100000000E-03 0.  1.
         11   -1    0    0    0    0 -0.00000000000E+00 -0.00000000000E+00 -0.45593999997E+02  0.45594000000E+02  0.51100000000E-03 0. -1.
    9900012    2    1    2    0    0 -0.90021693001E+01  0.18551251557E+02  0.38189463450E+02  0.47787272990E+02  0.20000008870E+02 0.  0.
         12    1    1    2    0    0  0.90021693001E+01 -0.18551251557E+02 -0.38189463450E+02  0.43400727010E+02  0.00000000000E+00 0. -1.
         11    1    3    3    0    0 -0.32917834331E+01  0.76027575054E+01  0.17038042360E+02  0.18945517876E+02  0.51100000000E-03 0. -1.
        -11    1    3    3    0    0 -0.34691203836E+01  0.13087137960E+02  0.21813711207E+02  0.25673838301E+02  0.51100000000E-03 0.  1.
         12    1    3    3    0    0 -0.22412654833E+01 -0.21386439083E+01 -0.66229011780E+00  0.31679168129E+01  0.00000000000E+00 0. -1.
</event>
<event>
 7    1  0.1634068E-009  0.4778727E+02  0.7816164E-02  0.1312668E+00
        -11   -1    0    0    0    0  0.00000000000E+00  0.00000000000E+00  0.45593999997E+02  0.45594000000E+02  0.51100000000E-03 0.  1.
         11   -1    0    0    0    0 -0.00000000000E+00 -0.00000000000E+00 -0.45593999997E+02  0.45594000000E+02  0.51100000000E-03 0. -1.
    9900012    2    1    2    0    0  0.39334246950E+02  0.14569709082E+02  0.11142893772E+02  0.47787268584E+02  0.19999988780E+02 0.  0.
         12    1    1    2    0    0 -0.39334246950E+02 -0.14569709082E+02 -0.11142893772E+02  0.43400731416E+02  0.00000000000E+00 0. -1.
         11    1    3    3    0    0  0.25591990651E+01 -0.14385417653E+01 -0.27957533011E+01  0.40540275094E+01  0.51100000000E-03 0. -1.
        -11    1    3    3    0    0  0.11081505131E+02  0.88538991416E+01  0.84270916883E+01  0.16498701784E+02  0.51100000000E-03 0.  1.
        -12    1    3    3    0    0  0.25693542754E+02  0.71543517059E+01  0.55115553852E+01  0.27234539290E+02  0.00000000000E+00 0.  1.
</event>
<event>
 7    1  0.1634068E-009  0.4778727E+02  0.7816164E-02  0.1312668E+00
        -11   -1    0    0    0    0  0.00000000000E+00  0.00000000000E+00  0.45593999997E+02  0.45594000000E+02  0.51100000000E-03 0.  1.
         11   -1    0    0    0    0 -0.00000000000E+00 -0.00000000000E+00 -0.45593999997E+02  0.45594000000E+02  0.51100000000E-03 0. -1.
    9900012    2    1    2    0    0 -0.10680150527E+02  0.33914248307E+02  0.24887373890E+02  0.47787271519E+02  0.20000002164E+02 0.  0.
         12    1    1    2    0    0  0.10680150527E+02 -0.33914248307E+02 -0.24887373890E+02  0.43400728481E+02  0.00000000000E+00 0. -1.
         11    1    3    3    0    0  0.10658666509E+00 -0.19984960172E+01  0.30113731894E+01  0.36157593663E+01  0.51100000000E-03 0. -1.
        -11    1    3    3    0    0 -0.52234673542E+01  0.11937433440E+02  0.11791104824E+02  0.17573192128E+02  0.51100000000E-03 0.  1.
         12    1    3    3    0    0 -0.55632698381E+01  0.23975310885E+02  0.10084895876E+02  0.26598320025E+02  0.00000000000E+00 0. -1.
</event>
<event>
 7    1  0.1634068E-009  0.4778728E+02  0.7816164E-02  0.1312668E+00
        -11   -1    0    0    0    0  0.00000000000E+00  0.00000000000E+00  0.45593999997E+02  0.45594000000E+02  0.51100000000E-03 0.  1.
         11   -1    0    0    0    0 -0.00000000000E+00 -0.00000000000E+00 -0.45593999997E+02  0.45594000000E+02  0.51100000000E-03 0. -1.
    9900012    2    1    2    0    0 -0.10414112461E+02  0.41952207815E+02  0.38963042305E+01  0.47787278053E+02  0.20000031953E+02 0.  0.
         12    1    1    2    0    0  0.10414112461E+02 -0.41952207815E+02 -0.38963042305E+01  0.43400721947E+02  0.00000000000E+00 0. -1.
         11    1    3    3    0    0  0.38242247796E+00  0.49050649011E+01  0.14600490992E+01  0.51320222397E+01  0.51100000000E-03 0. -1.
        -11    1    3    3    0    0 -0.37976442120E+01  0.33269617812E+02  0.58632219054E+01  0.33995101740E+02  0.51100000000E-03 0.  1.
         12    1    3    3    0    0 -0.69988907267E+01  0.37775251017E+01 -0.34269667741E+01  0.86601540731E+01  0.00000000000E+00 0. -1.
</event>
<event>
 7    1  0.1634068E-009  0.4778727E+02  0.7816164E-02  0.1312668E+00
        -11   -1    0    0    0    0  0.00000000000E+00  0.00000000000E+00  0.45593999997E+02  0.45594000000E+02  0.51100000000E-03 0. -1.
         11   -1    0    0    0    0 -0.00000000000E+00 -0.00000000000E+00 -0.45593999997E+02  0.45594000000E+02  0.51100000000E-03 0.  1.
    9900012    2    1    2    0    0 -0.32417379249E+02 -0.26570872386E+02  0.11257246484E+02  0.47787270339E+02  0.19999996782E+02 0.  0.
         12    1    1    2    0    0  0.32417379249E+02  0.26570872386E+02 -0.11257246484E+02  0.43400729661E+02  0.00000000000E+00 0. -1.
         11    1    3    3    0    0 -0.69714194741E+01 -0.86941010713E+01  0.99279119192E+01  0.14924862420E+02  0.51100000000E-03 0. -1.
        -11    1    3    3    0    0 -0.11351693912E+01 -0.16385734423E+01 -0.26944513718E+01  0.33516564455E+01  0.51100000000E-03 0.  1.
         12    1    3    3    0    0 -0.24310790384E+02 -0.16238197873E+02  0.40237859364E+01  0.29510751473E+02  0.00000000000E+00 0. -1.
</event>
<event>
 7    1  0.1634068E-009  0.4778727E+02  0.7816164E-02  0.1312668E+00
        -11   -1    0    0    0    0  0.00000000000E+00  0.00000000000E+00  0.45593999997E+02  0.45594000000E+02  0.51100000000E-03 0.  1.
         11   -1    0    0    0    0 -0.00000000000E+00 -0.00000000000E+00 -0.45593999997E+02  0.45594000000E+02  0.51100000000E-03 0. -1.
    9900012    2    1    2    0    0 -0.10626675732E+02  0.41822715201E+02  0.46430258310E+01  0.47787269214E+02  0.19999991655E+02 0.  0.
         12    1    1    2    0    0  0.10626675732E+02 -0.41822715201E+02 -0.46430258310E+01  0.43400730786E+02  0.00000000000E+00 0. -1.
         11    1    3    3    0    0 -0.56572581586E+00  0.51446339730E+00  0.22038620589E+01  0.23327508486E+01  0.51100000000E-03 0. -1.
        -11    1    3    3    0    0 -0.12808875134E+02  0.28189041549E+02 -0.27424553380E+01  0.31083925221E+02  0.51100000000E-03 0.  1.
        -12    1    3    3    0    0  0.27479252178E+01  0.13119210255E+02  0.51816191101E+01  0.14370593144E+02  0.00000000000E+00 0.  1.
</event>
<event>
 7    1  0.1634068E-009  0.4778727E+02  0.7816164E-02  0.1312668E+00
        -11   -1    0    0    0    0  0.00000000000E+00  0.00000000000E+00  0.45593999997E+02  0.45594000000E+02  0.51100000000E-03 0.  1.
         11   -1    0    0    0    0 -0.00000000000E+00 -0.00000000000E+00 -0.45593999997E+02  0.45594000000E+02  0.51100000000E-03 0. -1.
    9900012    2    1    2    0    0 -0.39556446274E+01  0.38644591036E+02 -0.19353853157E+02  0.47787272209E+02  0.20000005310E+02 0.  0.
         12    1    1    2    0    0  0.39556446274E+01 -0.38644591036E+02  0.19353853157E+02  0.43400727791E+02  0.00000000000E+00 0. -1.
         11    1    3    3    0    0  0.12225116454E+01  0.13355332112E+01 -0.11376198385E+01  0.21383084061E+01  0.51100000000E-03 0. -1.
        -11    1    3    3    0    0 -0.11537445463E+02  0.27622622748E+02 -0.15655894350E+02  0.33782080508E+02  0.51100000000E-03 0.  1.
        -12    1    3    3    0    0  0.63592891906E+01  0.96864350770E+01 -0.25603389693E+01  0.11866883295E+02  0.00000000000E+00 0.  1.
</event>
<event>
 7    1  0.1634068E-009  0.4778727E+02  0.7816164E-02  0.1312668E+00
        -11   -1    0    0    0    0  0.00000000000E+00  0.00000000000E+00  0.45593999997E+02  0.45594000000E+02  0.51100000000E-03 0.  1.
         11   -1    0    0    0    0 -0.00000000000E+00 -0.00000000000E+00 -0.45593999997E+02  0.45594000000E+02  0.51100000000E-03 0. -1.
    9900012    2    1    2    0    0  0.14861240623E+02  0.48772935383E+00  0.40774122687E+02  0.47787269203E+02  0.19999991606E+02 0.  0.
         12    1    1    2    0    0 -0.14861240623E+02 -0.48772935383E+00 -0.40774122687E+02  0.43400730797E+02  0.00000000000E+00 0. -1.
         11    1    3    3    0    0  0.36894793112E+01  0.77140664140E+00  0.17839173253E+02  0.18233031245E+02  0.51100000000E-03 0.  1.
        -11    1    3    3    0    0  0.73051887451E+01  0.45268968846E+01  0.37060654674E+01  0.93591398918E+01  0.51100000000E-03 0. -1.
         12    1    3    3    0    0  0.38665725668E+01 -0.48105741722E+01  0.19228883967E+02  0.20195098066E+02  0.00000000000E+00 0. -1.
</event>
<event>
 7    1  0.1634068E-009  0.4778727E+02  0.7816164E-02  0.1312668E+00
        -11   -1    0    0    0    0  0.00000000000E+00  0.00000000000E+00  0.45593999997E+02  0.45594000000E+02  0.51100000000E-03 0.  1.
         11   -1    0    0    0    0 -0.00000000000E+00 -0.00000000000E+00 -0.45593999997E+02  0.45594000000E+02  0.51100000000E-03 0. -1.
    9900012    2    1    2    0    0  0.64611770782E+01  0.42916264821E+02 -0.26670742280E+00  0.47787265809E+02  0.19999976130E+02 0.  0.
         12    1    1    2    0    0 -0.64611770782E+01 -0.42916264821E+02  0.26670742280E+00  0.43400734191E+02  0.00000000000E+00 0. -1.
         11    1    3    3    0    0  0.40411592983E+01  0.25513913622E+01  0.37377508906E+01  0.60672356423E+01  0.51100000000E-03 0. -1.
        -11    1    3    3    0    0 -0.52551661803E+00  0.26642886042E+01  0.20767622915E+01  0.34187049242E+01  0.51100000000E-03 0.  1.
        -12    1    3    3    0    0  0.29455343979E+01  0.37700584855E+02 -0.60812206050E+01  0.38301325243E+02  0.00000000000E+00 0.  1.
</event>
<event>
 7    1  0.1634068E-009  0.4778726E+02  0.7816164E-02  0.1312668E+00
        -11   -1    0    0    0    0  0.00000000000E+00  0.00000000000E+00  0.45593999997E+02  0.45594000000E+02  0.51100000000E-03 0.  1.
         11   -1    0    0    0    0 -0.00000000000E+00 -0.00000000000E+00 -0.45593999997E+02  0.45594000000E+02  0.51100000000E-03 0. -1.
    9900012    2    1    2    0    0 -0.19832745594E+02  0.32550418570E+02  0.20754682783E+02  0.47787258021E+02  0.19999940622E+02 0.  0.
         12    1    1    2    0    0  0.19832745594E+02 -0.32550418570E+02 -0.20754682783E+02  0.43400741979E+02  0.00000000000E+00 0. -1.
         11    1    3    3    0    0 -0.27246993161E+01 -0.24262675528E+01  0.86147261799E+00  0.37487192391E+01  0.51100000000E-03 0. -1.
        -11    1    3    3    0    0 -0.39752037489E+01  0.45422043499E+01  0.42727455086E+01  0.73952836081E+01  0.51100000000E-03 0.  1.
         12    1    3    3    0    0 -0.13132842529E+02  0.30434481773E+02  0.15620464657E+02  0.36643255174E+02  0.00000000000E+00 0. -1.
</event>
<event>
 7    1  0.1634068E-009  0.4778727E+02  0.7816164E-02  0.1312668E+00
        -11   -1    0    0    0    0  0.00000000000E+00  0.00000000000E+00  0.45593999997E+02  0.45594000000E+02  0.51100000000E-03 0.  1.
         11   -1    0    0    0    0 -0.00000000000E+00 -0.00000000000E+00 -0.45593999997E+02  0.45594000000E+02  0.51100000000E-03 0. -1.
    9900012    2    1    2    0    0 -0.20628901703E+02  0.10860020656E+02  0.36607806418E+02  0.47787272761E+02  0.20000007827E+02 0.  0.
         12    1    1    2    0    0  0.20628901703E+02 -0.10860020656E+02 -0.36607806418E+02  0.43400727239E+02  0.00000000000E+00 0. -1.
         11    1    3    3    0    0  0.53189430620E+00 -0.27823062404E+01  0.10407698897E+01  0.30178372708E+01  0.51100000000E-03 0. -1.
        -11    1    3    3    0    0 -0.43420401284E+01  0.63184843085E+01  0.17099271752E+02  0.18739307649E+02  0.51100000000E-03 0.  1.
        -12    1    3    3    0    0 -0.16818755881E+02  0.73238425883E+01  0.18467764776E+02  0.26030127842E+02  0.00000000000E+00 0.  1.
</event>
<event>
 7    1  0.1634068E-009  0.4778727E+02  0.7816164E-02  0.1312668E+00
        -11   -1    0    0    0    0  0.00000000000E+00  0.00000000000E+00  0.45593999997E+02  0.45594000000E+02  0.51100000000E-03 0.  1.
         11   -1    0    0    0    0 -0.00000000000E+00 -0.00000000000E+00 -0.45593999997E+02  0.45594000000E+02  0.51100000000E-03 0. -1.
    9900012    2    1    2    0    0 -0.23178430601E+02 -0.26631809135E+02  0.25241441093E+02  0.47787271304E+02  0.20000001183E+02 0.  0.
         12    1    1    2    0    0  0.23178430601E+02  0.26631809135E+02 -0.25241441093E+02  0.43400728696E+02  0.00000000000E+00 0. -1.
         11    1    3    3    0    0 -0.36869079091E+01 -0.83716456378E+01  0.14419930519E+02  0.17076654738E+02  0.51100000000E-03 0. -1.
        -11    1    3    3    0    0 -0.11608999273E+02 -0.44901782729E+01  0.73955748653E+01  0.14478435444E+02  0.51100000000E-03 0.  1.
         12    1    3    3    0    0 -0.78825234180E+01 -0.13769985224E+02  0.34259357094E+01  0.16232181122E+02  0.00000000000E+00 0. -1.
</event>
<event>
 7    1  0.1634068E-009  0.4778727E+02  0.7816164E-02  0.1312668E+00
        -11   -1    0    0    0    0  0.00000000000E+00  0.00000000000E+00  0.45593999997E+02  0.45594000000E+02  0.51100000000E-03 0.  1.
         11   -1    0    0    0    0 -0.00000000000E+00 -0.00000000000E+00 -0.45593999997E+02  0.45594000000E+02  0.51100000000E-03 0. -1.
    9900012    2    1    2    0    0  0.79960765326E+01  0.16164804284E+02  0.39476386276E+02  0.47787271770E+02  0.20000003309E+02 0.  0.
         12    1    1    2    0    0 -0.79960765326E+01 -0.16164804284E+02 -0.39476386276E+02  0.43400728230E+02  0.00000000000E+00 0. -1.
         11    1    3    3    0    0  0.75166147218E+01  0.69499267024E+00  0.68870644124E+01  0.10218325116E+02  0.51100000000E-03 0. -1.
        -11    1    3    3    0    0 -0.81411438052E+00  0.41562934261E+01  0.20611288498E+02  0.21041928882E+02  0.51100000000E-03 0.  1.
         12    1    3    3    0    0  0.12935761913E+01  0.11313518188E+02  0.11978033366E+02  0.16527017772E+02  0.00000000000E+00 0. -1.
</event>
<event>
 7    1  0.1634068E-009  0.4778727E+02  0.7816164E-02  0.1312668E+00
        -11   -1    0    0    0    0  0.00000000000E+00  0.00000000000E+00  0.45593999997E+02  0.45594000000E+02  0.51100000000E-03 0.  1.
         11   -1    0    0    0    0 -0.00000000000E+00 -0.00000000000E+00 -0.45593999997E+02  0.45594000000E+02  0.51100000000E-03 0. -1.
    9900012    2    1    2    0    0  0.13081038666E+02 -0.13421420524E+02  0.39145561830E+02  0.47787272904E+02  0.20000008480E+02 0.  0.
         12    1    1    2    0    0 -0.13081038666E+02  0.13421420524E+02 -0.39145561830E+02  0.43400727096E+02  0.00000000000E+00 0. -1.
         11    1    3    3    0    0 -0.57257349411E-01 -0.36130735778E+01 -0.73070527686E+00  0.36866664543E+01  0.51100000000E-03 0. -1.
        -11    1    3    3    0    0  0.43727953376E+01  0.74306697579E+00  0.15584089635E+02  0.16203003969E+02  0.51100000000E-03 0.  1.
        -12    1    3    3    0    0  0.87655006779E+01 -0.10551413922E+02  0.24292177471E+02  0.27897602481E+02  0.00000000000E+00 0.  1.
</event>
<event>
 7    1  0.1634068E-009  0.4778727E+02  0.7816164E-02  0.1312668E+00
        -11   -1    0    0    0    0  0.00000000000E+00  0.00000000000E+00  0.45593999997E+02  0.45594000000E+02  0.51100000000E-03 0.  1.
         11   -1    0    0    0    0 -0.00000000000E+00 -0.00000000000E+00 -0.45593999997E+02  0.45594000000E+02  0.51100000000E-03 0. -1.
    9900012    2    1    2    0    0  0.16696922106E+02 -0.90709603882E+01  0.39019914853E+02  0.47787270912E+02  0.19999999398E+02 0.  0.
         12    1    1    2    0    0 -0.16696922106E+02  0.90709603882E+01 -0.39019914853E+02  0.43400729088E+02  0.00000000000E+00 0. -1.
         11    1    3    3    0    0  0.11751879699E+01 -0.11710189996E+01 -0.12276019881E+01  0.20638214953E+01  0.51100000000E-03 0. -1.
        -11    1    3    3    0    0  0.14904187494E+02 -0.60744015718E+01  0.21395224394E+02  0.26772911430E+02  0.51100000000E-03 0.  1.
        -12    1    3    3    0    0  0.61754664190E+00 -0.18255398168E+01  0.18852292447E+02  0.18950537987E+02  0.00000000000E+00 0.  1.
</event>
<event>
 7    1  0.1634068E-009  0.4778727E+02  0.7816164E-02  0.1312668E+00
        -11   -1    0    0    0    0  0.00000000000E+00  0.00000000000E+00  0.45593999997E+02  0.45594000000E+02  0.51100000000E-03 0.  1.
         11   -1    0    0    0    0 -0.00000000000E+00 -0.00000000000E+00 -0.45593999997E+02  0.45594000000E+02  0.51100000000E-03 0. -1.
    9900012    2    1    2    0    0 -0.16713988885E+02 -0.15324445547E+02  0.37005776706E+02  0.47787267686E+02  0.19999984688E+02 0.  0.
         12    1    1    2    0    0  0.16713988885E+02  0.15324445547E+02 -0.37005776706E+02  0.43400732314E+02  0.00000000000E+00 0. -1.
         11    1    3    3    0    0 -0.41645456998E+01  0.19985070958E+00  0.19223028397E+01  0.45911468785E+01  0.51100000000E-03 0. -1.
        -11    1    3    3    0    0 -0.96260220824E+01 -0.18352906992E+02  0.26042406342E+02  0.33282073621E+02  0.51100000000E-03 0.  1.
        -12    1    3    3    0    0 -0.29234211028E+01  0.28286107351E+01  0.90410675243E+01  0.99140471864E+01  0.00000000000E+00 0.  1.
</event>
<event>
 7    1  0.1634068E-009  0.4778726E+02  0.7816164E-02  0.1312668E+00
        -11   -1    0    0    0    0  0.00000000000E+00  0.00000000000E+00  0.45593999997E+02  0.45594000000E+02  0.51100000000E-03 0.  1.
         11   -1    0    0    0    0 -0.00000000000E+00 -0.00000000000E+00 -0.45593999997E+02  0.45594000000E+02  0.51100000000E-03 0. -1.
    9900012    2    1    2    0    0  0.41516076237E+02 -0.43114283250E+01 -0.11893312440E+02  0.47787264049E+02  0.19999968106E+02 0.  0.
         12    1    1    2    0    0 -0.41516076237E+02  0.43114283250E+01  0.11893312440E+02  0.43400735951E+02  0.00000000000E+00 0. -1.
         11    1    3    3    0    0 -0.21812325435E+00 -0.16302502238E+01  0.60804647327E+00  0.17535718750E+01  0.51100000000E-03 0. -1.
        -11    1    3    3    0    0  0.21584556757E+01 -0.15022916184E+01  0.25622715647E+01  0.36716545103E+01  0.51100000000E-03 0.  1.
         12    1    3    3    0    0  0.39575743815E+02 -0.11788864829E+01 -0.15063630478E+02  0.42362037664E+02  0.00000000000E+00 0. -1.
</event>
<event>
 7    1  0.1634068E-009  0.4778727E+02  0.7816164E-02  0.1312668E+00
        -11   -1    0    0    0    0  0.00000000000E+00  0.00000000000E+00  0.45593999997E+02  0.45594000000E+02  0.51100000000E-03 0. -1.
         11   -1    0    0    0    0 -0.00000000000E+00 -0.00000000000E+00 -0.45593999997E+02  0.45594000000E+02  0.51100000000E-03 0.  1.
    9900012    2    1    2    0    0 -0.38675445546E+02  0.11303085732E+02  0.16126796767E+02  0.47787269485E+02  0.19999992892E+02 0.  0.
         12    1    1    2    0    0  0.38675445546E+02 -0.11303085732E+02 -0.16126796767E+02  0.43400730515E+02  0.00000000000E+00 0. -1.
         11    1    3    3    0    0 -0.21758920554E+01  0.38162173565E+01  0.37337826563E+00  0.44087903941E+01  0.51100000000E-03 0. -1.
        -11    1    3    3    0    0 -0.25558187120E+02  0.22531437280E+01  0.17594957913E+02  0.31110771925E+02  0.51100000000E-03 0.  1.
        -12    1    3    3    0    0 -0.10941366370E+02  0.52337246471E+01 -0.18415394110E+01  0.12267707167E+02  0.00000000000E+00 0.  1.
</event>
<event>
 7    1  0.1634068E-009  0.4778727E+02  0.7816164E-02  0.1312668E+00
        -11   -1    0    0    0    0  0.00000000000E+00  0.00000000000E+00  0.45593999997E+02  0.45594000000E+02  0.51100000000E-03 0.  1.
         11   -1    0    0    0    0 -0.00000000000E+00 -0.00000000000E+00 -0.45593999997E+02  0.45594000000E+02  0.51100000000E-03 0. -1.
    9900012    2    1    2    0    0  0.82307868327E+01  0.14534562874E+02  0.40057754793E+02  0.47787273175E+02  0.20000009715E+02 0.  0.
         12    1    1    2    0    0 -0.82307868327E+01 -0.14534562874E+02 -0.40057754793E+02  0.43400726825E+02  0.00000000000E+00 0. -1.
         11    1    3    3    0    0  0.94149559499E+01  0.64003086765E+00  0.11569463614E+02  0.14929953905E+02  0.51100000000E-03 0. -1.
        -11    1    3    3    0    0  0.21324130877E+01  0.12506377756E+02  0.23534760703E+02  0.26736522432E+02  0.51100000000E-03 0.  1.
        -12    1    3    3    0    0 -0.33165822050E+01  0.13881542507E+01  0.49535304766E+01  0.61207968377E+01  0.00000000000E+00 0.  1.
</event>
<event>
 7    1  0.1634068E-009  0.4778727E+02  0.7816164E-02  0.1312668E+00
        -11   -1    0    0    0    0  0.00000000000E+00  0.00000000000E+00  0.45593999997E+02  0.45594000000E+02  0.51100000000E-03 0.  1.
         11   -1    0    0    0    0 -0.00000000000E+00 -0.00000000000E+00 -0.45593999997E+02  0.45594000000E+02  0.51100000000E-03 0. -1.
    9900012    2    1    2    0    0  0.10424033003E+02 -0.26281257917E+02  0.32928073206E+02  0.47787274352E+02  0.20000015081E+02 0.  0.
         12    1    1    2    0    0 -0.10424033003E+02  0.26281257917E+02 -0.32928073206E+02  0.43400725648E+02  0.00000000000E+00 0. -1.
         11    1    3    3    0    0  0.70581694007E+01 -0.35094483815E+01  0.23002951481E+01  0.82112935194E+01  0.51100000000E-03 0. -1.
        -11    1    3    3    0    0  0.32197162021E+01 -0.38903045782E+01  0.23410542155E+01  0.55661097038E+01  0.51100000000E-03 0.  1.
        -12    1    3    3    0    0  0.14614740059E+00 -0.18881504957E+02  0.28286723842E+02  0.34009871129E+02  0.00000000000E+00 0.  1.
</event>
<event>
 7    1  0.1634068E-009  0.4778727E+02  0.7816164E-02  0.1312668E+00
        -11   -1    0    0    0    0  0.00000000000E+00  0.00000000000E+00  0.45593999997E+02  0.45594000000E+02  0.51100000000E-03 0. -1.
         11   -1    0    0    0    0 -0.00000000000E+00 -0.00000000000E+00 -0.45593999997E+02  0.45594000000E+02  0.51100000000E-03 0.  1.
    9900012    2    1    2    0    0  0.40498963309E+02 -0.91775375711E+01 -0.12618643333E+02  0.47787269770E+02  0.19999994189E+02 0.  0.
         12    1    1    2    0    0 -0.40498963309E+02  0.91775375711E+01  0.12618643333E+02  0.43400730230E+02  0.00000000000E+00 0. -1.
         11    1    3    3    0    0  0.30477288459E+02 -0.15392971998E+02 -0.10358393949E+02  0.35680597307E+02  0.51100000000E-03 0.  1.
        -11    1    3    3    0    0  0.44661087292E+01  0.30536105359E+01 -0.29156438303E+00  0.54180877195E+01  0.51100000000E-03 0. -1.
        -12    1    3    3    0    0  0.55555661207E+01  0.31618238908E+01 -0.19686850007E+01  0.66885847434E+01  0.00000000000E+00 0.  1.
</event>
<event>
 7    1  0.1634068E-009  0.4778728E+02  0.7816164E-02  0.1312668E+00
        -11   -1    0    0    0    0  0.00000000000E+00  0.00000000000E+00  0.45593999997E+02  0.45594000000E+02  0.51100000000E-03 0. -1.
         11   -1    0    0    0    0 -0.00000000000E+00 -0.00000000000E+00 -0.45593999997E+02  0.45594000000E+02  0.51100000000E-03 0.  1.
    9900012    2    1    2    0    0 -0.11681678361E+02  0.39537892570E+02 -0.13561555651E+02  0.47787281689E+02  0.20000048533E+02 0.  0.
         12    1    1    2    0    0  0.11681678361E+02 -0.39537892570E+02  0.13561555651E+02  0.43400718311E+02  0.00000000000E+00 0. -1.
         11    1    3    3    0    0 -0.24316997771E+01  0.12719697012E+01  0.13011185105E+01  0.30371006513E+01  0.51100000000E-03 0. -1.
        -11    1    3    3    0    0 -0.12334337624E+02  0.36738781118E+02 -0.13964237987E+02  0.41193128862E+02  0.51100000000E-03 0.  1.
        -12    1    3    3    0    0  0.30843590403E+01  0.15271417513E+01 -0.89843617495E+00  0.35570521754E+01  0.00000000000E+00 0.  1.
</event>
<event>
 7    1  0.1634068E-009  0.4778727E+02  0.7816164E-02  0.1312668E+00
        -11   -1    0    0    0    0  0.00000000000E+00  0.00000000000E+00  0.45593999997E+02  0.45594000000E+02  0.51100000000E-03 0.  1.
         11   -1    0    0    0    0 -0.00000000000E+00 -0.00000000000E+00 -0.45593999997E+02  0.45594000000E+02  0.51100000000E-03 0. -1.
    9900012    2    1    2    0    0 -0.26425252290E+02  0.17471269736E+02  0.29666208693E+02  0.47787272322E+02  0.20000005824E+02 0.  0.
         12    1    1    2    0    0  0.26425252290E+02 -0.17471269736E+02 -0.29666208693E+02  0.43400727678E+02  0.00000000000E+00 0. -1.
         11    1    3    3    0    0 -0.13364380032E+02  0.79616160408E+01  0.76957446169E+01  0.17355646606E+02  0.51100000000E-03 0.  1.
        -11    1    3    3    0    0 -0.84209185053E+01  0.12338702368E+02  0.12350178474E+02  0.19382527007E+02  0.51100000000E-03 0. -1.
        -12    1    3    3    0    0 -0.46399537529E+01 -0.28290486724E+01  0.96202856016E+01  0.11049098709E+02  0.00000000000E+00 0.  1.
</event>
<event>
 7    1  0.1634068E-009  0.4778728E+02  0.7816164E-02  0.1312668E+00
        -11   -1    0    0    0    0  0.00000000000E+00  0.00000000000E+00  0.45593999997E+02  0.45594000000E+02  0.51100000000E-03 0.  1.
         11   -1    0    0    0    0 -0.00000000000E+00 -0.00000000000E+00 -0.45593999997E+02  0.45594000000E+02  0.51100000000E-03 0. -1.
    9900012    2    1    2    0    0 -0.39504129728E+02  0.54449719138E+01  0.17128875568E+02  0.47787281539E+02  0.20000047848E+02 0.  0.
         12    1    1    2    0    0  0.39504129728E+02 -0.54449719138E+01 -0.17128875568E+02  0.43400718461E+02  0.00000000000E+00 0. -1.
         11    1    3    3    0    0 -0.14246432556E+02  0.47048375233E+00  0.11672835637E+01  0.14301914093E+02  0.51100000000E-03 0. -1.
        -11    1    3    3    0    0 -0.23964938631E+02  0.24382293934E+01  0.85753093207E+01  0.25569496991E+02  0.51100000000E-03 0.  1.
         12    1    3    3    0    0 -0.12927585410E+01  0.25362587681E+01  0.73862826833E+01  0.79158704551E+01  0.00000000000E+00 0. -1.
</event>
<event>
 7    1  0.1634068E-009  0.4778728E+02  0.7816164E-02  0.1312668E+00
        -11   -1    0    0    0    0  0.00000000000E+00  0.00000000000E+00  0.45593999997E+02  0.45594000000E+02  0.51100000000E-03 0. -1.
         11   -1    0    0    0    0 -0.00000000000E+00 -0.00000000000E+00 -0.45593999997E+02  0.45594000000E+02  0.51100000000E-03 0.  1.
    9900012    2    1    2    0    0 -0.11578700501E+02  0.27077414128E+02 -0.31880553026E+02  0.47787282006E+02  0.20000049979E+02 0.  0.
         12    1    1    2    0    0  0.11578700501E+02 -0.27077414128E+02  0.31880553026E+02  0.43400717994E+02  0.00000000000E+00 0. -1.
         11    1    3    3    0    0 -0.56444163386E+01  0.86143653707E+01 -0.93568734719E+01  0.13914661619E+02  0.51100000000E-03 0. -1.
        -11    1    3    3    0    0 -0.75570939175E+01  0.20180551845E+02 -0.22939327664E+02  0.31473434753E+02  0.51100000000E-03 0.  1.
         12    1    3    3    0    0  0.16228097548E+01 -0.17175030875E+01  0.41564810993E+00  0.23991856341E+01  0.00000000000E+00 0. -1.
</event>
<event>
 7    1  0.1634068E-009  0.4778727E+02  0.7816164E-02  0.1312668E+00
        -11   -1    0    0    0    0  0.00000000000E+00  0.00000000000E+00  0.45593999997E+02  0.45594000000E+02  0.51100000000E-03 0.  1.
         11   -1    0    0    0    0 -0.00000000000E+00 -0.00000000000E+00 -0.45593999997E+02  0.45594000000E+02  0.51100000000E-03 0. -1.
    9900012    2    1    2    0    0 -0.10262210521E+02 -0.12680493358E+02  0.40218348254E+02  0.47787269443E+02  0.19999992700E+02 0.  0.
         12    1    1    2    0    0  0.10262210521E+02  0.12680493358E+02 -0.40218348254E+02  0.43400730557E+02  0.00000000000E+00 0. -1.
         11    1    3    3    0    0 -0.38162902714E+01 -0.10163043760E+02  0.79458148329E+01  0.13453159611E+02  0.51100000000E-03 0. -1.
        -11    1    3    3    0    0  0.18698129824E+01 -0.91398313612E+00  0.14480650663E+02  0.14629450080E+02  0.51100000000E-03 0.  1.
        -12    1    3    3    0    0 -0.83157332319E+01 -0.16034664627E+01  0.17791882758E+02  0.19704659752E+02  0.00000000000E+00 0.  1.
</event>
<event>
 7    1  0.1634068E-009  0.4778727E+02  0.7816164E-02  0.1312668E+00
        -11   -1    0    0    0    0  0.00000000000E+00  0.00000000000E+00  0.45593999997E+02  0.45594000000E+02  0.51100000000E-03 0.  1.
         11   -1    0    0    0    0 -0.00000000000E+00 -0.00000000000E+00 -0.45593999997E+02  0.45594000000E+02  0.51100000000E-03 0. -1.
    9900012    2    1    2    0    0  0.21961502548E+02  0.12736458244E+02  0.35200828304E+02  0.47787271019E+02  0.19999999886E+02 0.  0.
         12    1    1    2    0    0 -0.21961502548E+02 -0.12736458244E+02 -0.35200828304E+02  0.43400728981E+02  0.00000000000E+00 0. -1.
         11    1    3    3    0    0  0.91967952431E+01 -0.17014737163E+01  0.28469391449E+01  0.97765596355E+01  0.51100000000E-03 0. -1.
        -11    1    3    3    0    0  0.51454242252E+01  0.72673626937E+01  0.10400994080E+02  0.13691991422E+02  0.51100000000E-03 0.  1.
         12    1    3    3    0    0  0.76192830802E+01  0.71705692663E+01  0.21952895079E+02  0.24318719962E+02  0.00000000000E+00 0. -1.
</event>
<event>
 7    1  0.1634068E-009  0.4778727E+02  0.7816164E-02  0.1312668E+00
        -11   -1    0    0    0    0  0.00000000000E+00  0.00000000000E+00  0.45593999997E+02  0.45594000000E+02  0.51100000000E-03 0.  1.
         11   -1    0    0    0    0 -0.00000000000E+00 -0.00000000000E+00 -0.45593999997E+02  0.45594000000E+02  0.51100000000E-03 0. -1.
    9900012    2    1    2    0    0 -0.92105550636E+01  0.24312698283E+01  0.42342389101E+02  0.47787270601E+02  0.19999997978E+02 0.  0.
         12    1    1    2    0    0  0.92105550636E+01 -0.24312698283E+01 -0.42342389101E+02  0.43400729399E+02  0.00000000000E+00 0. -1.
         11    1    3    3    0    0 -0.16209786947E+01 -0.38640137795E+01  0.90568385903E+01  0.99792033714E+01  0.51100000000E-03 0. -1.
        -11    1    3    3    0    0 -0.43937949209E+01  0.69348778618E+01  0.33548441916E+02  0.34538325380E+02  0.51100000000E-03 0.  1.
        -12    1    3    3    0    0 -0.31957814480E+01 -0.63959425401E+00 -0.26289140519E+00  0.32697418497E+01  0.00000000000E+00 0.  1.
</event>
<event>
 7    1  0.1634068E-009  0.4778727E+02  0.7816164E-02  0.1312668E+00
        -11   -1    0    0    0    0  0.00000000000E+00  0.00000000000E+00  0.45593999997E+02  0.45594000000E+02  0.51100000000E-03 0.  1.
         11   -1    0    0    0    0 -0.00000000000E+00 -0.00000000000E+00 -0.45593999997E+02  0.45594000000E+02  0.51100000000E-03 0. -1.
    9900012    2    1    2    0    0 -0.20981944829E+02 -0.14028898122E+02  0.35306815137E+02  0.47787272051E+02  0.20000004591E+02 0.  0.
         12    1    1    2    0    0  0.20981944829E+02  0.14028898122E+02 -0.35306815137E+02  0.43400727949E+02  0.00000000000E+00 0. -1.
         11    1    3    3    0    0 -0.73457290234E+00  0.12594128856E+01  0.88451019308E+01  0.89644601952E+01  0.51100000000E-03 0. -1.
        -11    1    3    3    0    0 -0.18443996680E+02 -0.67101086954E+01  0.17700963258E+02  0.26429730849E+02  0.51100000000E-03 0.  1.
         12    1    3    3    0    0 -0.18033752469E+01 -0.85782023118E+01  0.87607499490E+01  0.12393081007E+02  0.00000000000E+00 0. -1.
</event>
<event>
 7    1  0.1634068E-009  0.4778729E+02  0.7816164E-02  0.1312668E+00
        -11   -1    0    0    0    0  0.00000000000E+00  0.00000000000E+00  0.45593999997E+02  0.45594000000E+02  0.51100000000E-03 0. -1.
         11   -1    0    0    0    0 -0.00000000000E+00 -0.00000000000E+00 -0.45593999997E+02  0.45594000000E+02  0.51100000000E-03 0.  1.
    9900012    2    1    2    0    0  0.15315379719E+02  0.39766273734E+02  0.82282847662E+01  0.47787285111E+02  0.20000064136E+02 0.  0.
         12    1    1    2    0    0 -0.15315379719E+02 -0.39766273734E+02 -0.82282847662E+01  0.43400714889E+02  0.00000000000E+00 0. -1.
         11    1    3    3    0    0  0.52801937034E+01  0.20497964049E+01  0.28059085448E+01  0.63210152562E+01  0.51100000000E-03 0.  1.
        -11    1    3    3    0    0  0.13353367972E+01  0.20488486250E+02  0.79174783364E+01  0.22005627841E+02  0.51100000000E-03 0. -1.
         12    1    3    3    0    0  0.86998492189E+01  0.17227991079E+02 -0.24951021150E+01  0.19460642014E+02  0.00000000000E+00 0. -1.
</event>
<event>
 7    1  0.1634068E-009  0.4778727E+02  0.7816164E-02  0.1312668E+00
        -11   -1    0    0    0    0  0.00000000000E+00  0.00000000000E+00  0.45593999997E+02  0.45594000000E+02  0.51100000000E-03 0.  1.
         11   -1    0    0    0    0 -0.00000000000E+00 -0.00000000000E+00 -0.45593999997E+02  0.45594000000E+02  0.51100000000E-03 0. -1.
    9900012    2    1    2    0    0 -0.64936180605E+01  0.40241022108E+02 -0.14903570972E+02  0.47787270011E+02  0.19999995289E+02 0.  0.
         12    1    1    2    0    0  0.64936180605E+01 -0.40241022108E+02  0.14903570972E+02  0.43400729989E+02  0.00000000000E+00 0. -1.
         11    1    3    3    0    0 -0.22877238161E+01  0.11818451095E+02 -0.82546150090E+01  0.14596168530E+02  0.51100000000E-03 0. -1.
        -11    1    3    3    0    0 -0.20952745135E+01  0.27127325119E+02 -0.10031907092E+02  0.28998639685E+02  0.51100000000E-03 0.  1.
         12    1    3    3    0    0 -0.21106197309E+01  0.12952458940E+01  0.33829511287E+01  0.41924617963E+01  0.00000000000E+00 0. -1.
</event>
<event>
 7    1  0.1634068E-009  0.4778729E+02  0.7816164E-02  0.1312668E+00
        -11   -1    0    0    0    0  0.00000000000E+00  0.00000000000E+00  0.45593999997E+02  0.45594000000E+02  0.51100000000E-03 0.  1.
         11   -1    0    0    0    0 -0.00000000000E+00 -0.00000000000E+00 -0.45593999997E+02  0.45594000000E+02  0.51100000000E-03 0. -1.
    9900012    2    1    2    0    0  0.97774252079E+01 -0.41655095986E+02  0.72715985177E+01  0.47787294818E+02  0.20000108392E+02 0.  0.
         12    1    1    2    0    0 -0.97774252079E+01  0.41655095986E+02 -0.72715985177E+01  0.43400705182E+02  0.00000000000E+00 0. -1.
         11    1    3    3    0    0  0.33095220326E+01 -0.72882823805E+01 -0.57897505145E+01  0.98789274430E+01  0.51100000000E-03 0. -1.
        -11    1    3    3    0    0 -0.11306377600E+01 -0.87746476582E+01  0.40704150081E+01  0.97386375777E+01  0.51100000000E-03 0.  1.
         12    1    3    3    0    0  0.75985409353E+01 -0.25592165947E+02  0.89909340241E+01  0.28169729797E+02  0.00000000000E+00 0. -1.
</event>
<event>
 7    1  0.1634068E-009  0.4778727E+02  0.7816164E-02  0.1312668E+00
        -11   -1    0    0    0    0  0.00000000000E+00  0.00000000000E+00  0.45593999997E+02  0.45594000000E+02  0.51100000000E-03 0.  1.
         11   -1    0    0    0    0 -0.00000000000E+00 -0.00000000000E+00 -0.45593999997E+02  0.45594000000E+02  0.51100000000E-03 0. -1.
    9900012    2    1    2    0    0 -0.11229626900E+02  0.94148524364E+01  0.40851919710E+02  0.47787270620E+02  0.19999998065E+02 0.  0.
         12    1    1    2    0    0  0.11229626900E+02 -0.94148524364E+01 -0.40851919710E+02  0.43400729380E+02  0.00000000000E+00 0. -1.
         11    1    3    3    0    0  0.16477107227E+01  0.52647642887E+01  0.15285952902E+02  0.16250939974E+02  0.51100000000E-03 0. -1.
        -11    1    3    3    0    0 -0.97649054504E+01  0.37990525304E+01  0.26307725616E+02  0.28317531777E+02  0.51100000000E-03 0.  1.
         12    1    3    3    0    0 -0.31124321725E+01  0.35103561727E+00 -0.74175880805E+00  0.32187988695E+01  0.00000000000E+00 0. -1.
</event>
<event>
 7    1  0.1634068E-009  0.4778727E+02  0.7816164E-02  0.1312668E+00
        -11   -1    0    0    0    0  0.00000000000E+00  0.00000000000E+00  0.45593999997E+02  0.45594000000E+02  0.51100000000E-03 0. -1.
         11   -1    0    0    0    0 -0.00000000000E+00 -0.00000000000E+00 -0.45593999997E+02  0.45594000000E+02  0.51100000000E-03 0.  1.
    9900012    2    1    2    0    0 -0.21724794533E+02 -0.34552313634E+02 -0.14757852450E+02  0.47787270929E+02  0.19999999474E+02 0.  0.
         12    1    1    2    0    0  0.21724794533E+02  0.34552313634E+02  0.14757852450E+02  0.43400729071E+02  0.00000000000E+00 0. -1.
         11    1    3    3    0    0 -0.51438749207E+01 -0.14394538130E+02 -0.14759493348E+01  0.15357102717E+02  0.51100000000E-03 0. -1.
        -11    1    3    3    0    0 -0.10658260165E+02 -0.14112722338E+02 -0.12624395214E+01  0.17730233933E+02  0.51100000000E-03 0.  1.
         12    1    3    3    0    0 -0.59226594475E+01 -0.60450531663E+01 -0.12019463593E+02  0.14699934278E+02  0.00000000000E+00 0. -1.
</event>
<event>
 7    1  0.1634068E-009  0.4778727E+02  0.7816164E-02  0.1312668E+00
        -11   -1    0    0    0    0  0.00000000000E+00  0.00000000000E+00  0.45593999997E+02  0.45594000000E+02  0.51100000000E-03 0.  1.
         11   -1    0    0    0    0 -0.00000000000E+00 -0.00000000000E+00 -0.45593999997E+02  0.45594000000E+02  0.51100000000E-03 0. -1.
    9900012    2    1    2    0    0 -0.26043265005E+02 -0.33834683869E+02 -0.77836822400E+01  0.47787271966E+02  0.20000004203E+02 0.  0.
         12    1    1    2    0    0  0.26043265005E+02  0.33834683869E+02  0.77836822400E+01  0.43400728034E+02  0.00000000000E+00 0. -1.
         11    1    3    3    0    0 -0.11109900402E+02 -0.13159744657E+02 -0.85947199233E+01  0.19247804478E+02  0.51100000000E-03 0. -1.
        -11    1    3    3    0    0 -0.96083193266E+01 -0.21097300148E+02  0.84414538015E+00  0.23197595900E+02  0.51100000000E-03 0.  1.
         12    1    3    3    0    0 -0.53250452761E+01  0.42236093647E+00 -0.33107696824E-01  0.53418715889E+01  0.00000000000E+00 0. -1.
</event>
<event>
 7    1  0.1634068E-009  0.4778726E+02  0.7816164E-02  0.1312668E+00
        -11   -1    0    0    0    0  0.00000000000E+00  0.00000000000E+00  0.45593999997E+02  0.45594000000E+02  0.51100000000E-03 0.  1.
         11   -1    0    0    0    0 -0.00000000000E+00 -0.00000000000E+00 -0.45593999997E+02  0.45594000000E+02  0.51100000000E-03 0. -1.
    9900012    2    1    2    0    0 -0.43004079319E+02  0.92896127246E+00  0.57801852127E+01  0.47787258667E+02  0.19999943568E+02 0.  0.
         12    1    1    2    0    0  0.43004079319E+02 -0.92896127246E+00 -0.57801852127E+01  0.43400741333E+02  0.00000000000E+00 0. -1.
         11    1    3    3    0    0  0.36818380787E+00  0.54836582479E+00 -0.99507144655E+00  0.11943332194E+01  0.51100000000E-03 0. -1.
        -11    1    3    3    0    0 -0.33536753583E+02 -0.56474542284E+01  0.18782673504E+01  0.34060761422E+02  0.51100000000E-03 0.  1.
        -12    1    3    3    0    0 -0.98355095441E+01  0.60280496760E+01  0.48969893088E+01  0.12532164026E+02  0.00000000000E+00 0.  1.
</event>
<event>
 7    1  0.1634068E-009  0.4778727E+02  0.7816164E-02  0.1312668E+00
        -11   -1    0    0    0    0  0.00000000000E+00  0.00000000000E+00  0.45593999997E+02  0.45594000000E+02  0.51100000000E-03 0. -1.
         11   -1    0    0    0    0 -0.00000000000E+00 -0.00000000000E+00 -0.45593999997E+02  0.45594000000E+02  0.51100000000E-03 0.  1.
    9900012    2    1    2    0    0  0.33519585471E+02  0.25032265398E+02 -0.11551899632E+02  0.47787270671E+02  0.19999998299E+02 0.  0.
         12    1    1    2    0    0 -0.33519585471E+02 -0.25032265398E+02  0.11551899632E+02  0.43400729329E+02  0.00000000000E+00 0. -1.
         11    1    3    3    0    0 -0.72018803523E+00 -0.14094398218E+01 -0.83294564645E-01  0.15849699249E+01  0.51100000000E-03 0. -1.
        -11    1    3    3    0    0  0.12822564146E+02  0.15653119055E+02 -0.16928292356E+01  0.20305269230E+02  0.51100000000E-03 0.  1.
         12    1    3    3    0    0  0.21417209360E+02  0.10788586165E+02 -0.97757758322E+01  0.25897031516E+02  0.00000000000E+00 0. -1.
</event>
<event>
 7    1  0.1634068E-009  0.4778728E+02  0.7816164E-02  0.1312668E+00
        -11   -1    0    0    0    0  0.00000000000E+00  0.00000000000E+00  0.45593999997E+02  0.45594000000E+02  0.51100000000E-03 0.  1.
         11   -1    0    0    0    0 -0.00000000000E+00 -0.00000000000E+00 -0.45593999997E+02  0.45594000000E+02  0.51100000000E-03 0. -1.
    9900012    2    1    2    0    0  0.24791163389E+02 -0.26858239945E+02  0.23402042457E+02  0.47787280809E+02  0.20000044523E+02 0.  0.
         12    1    1    2    0    0 -0.24791163389E+02  0.26858239945E+02 -0.23402042457E+02  0.43400719191E+02  0.00000000000E+00 0. -1.
         11    1    3    3    0    0 -0.92512124574E+00 -0.11516242073E+02  0.62895541290E+01  0.13154397447E+02  0.51100000000E-03 0. -1.
        -11    1    3    3    0    0  0.87214312959E+01 -0.38484732302E+01  0.64629806243E+01  0.11517127631E+02  0.51100000000E-03 0.  1.
         12    1    3    3    0    0  0.16994853339E+02 -0.11493524641E+02  0.10649507703E+02  0.23115755731E+02  0.00000000000E+00 0. -1.
</event>
<event>
 7    1  0.1634068E-009  0.4778727E+02  0.7816164E-02  0.1312668E+00
        -11   -1    0    0    0    0  0.00000000000E+00  0.00000000000E+00  0.45593999997E+02  0.45594000000E+02  0.51100000000E-03 0.  1.
         11   -1    0    0    0    0 -0.00000000000E+00 -0.00000000000E+00 -0.45593999997E+02  0.45594000000E+02  0.51100000000E-03 0. -1.
    9900012    2    1    2    0    0  0.16382464432E+02  0.40134441913E+02  0.21130106615E+01  0.47787269792E+02  0.19999994289E+02 0.  0.
         12    1    1    2    0    0 -0.16382464432E+02 -0.40134441913E+02 -0.21130106615E+01  0.43400730208E+02  0.00000000000E+00 0. -1.
         11    1    3    3    0    0 -0.15857151621E+01  0.78508788405E+01 -0.45470502413E+00  0.80223156297E+01  0.51100000000E-03 0. -1.
        -11    1    3    3    0    0  0.15516685069E+02  0.32961046687E+02  0.43059595310E+01  0.36684320928E+02  0.51100000000E-03 0.  1.
        -12    1    3    3    0    0  0.24514945257E+01 -0.67748361408E+00 -0.17382438454E+01  0.30806332340E+01  0.00000000000E+00 0.  1.
</event>
<event>
 7    1  0.1634068E-009  0.4778727E+02  0.7816164E-02  0.1312668E+00
        -11   -1    0    0    0    0  0.00000000000E+00  0.00000000000E+00  0.45593999997E+02  0.45594000000E+02  0.51100000000E-03 0.  1.
         11   -1    0    0    0    0 -0.00000000000E+00 -0.00000000000E+00 -0.45593999997E+02  0.45594000000E+02  0.51100000000E-03 0. -1.
    9900012    2    1    2    0    0  0.16482776416E+02 -0.11350833509E+02  0.38511035713E+02  0.47787271764E+02  0.20000003279E+02 0.  0.
         12    1    1    2    0    0 -0.16482776416E+02  0.11350833509E+02 -0.38511035713E+02  0.43400728236E+02  0.00000000000E+00 0. -1.
         11    1    3    3    0    0 -0.16918733295E+01 -0.16078026608E+01  0.95557762662E+01  0.98366826253E+01  0.51100000000E-03 0. -1.
        -11    1    3    3    0    0  0.13203486559E+02 -0.10102897731E+02  0.28436002553E+02  0.32939442031E+02  0.51100000000E-03 0.  1.
         12    1    3    3    0    0  0.49711631868E+01  0.35986688336E+00  0.51925689409E+00  0.50111471068E+01  0.00000000000E+00 0. -1.
</event>
<event>
 7    1  0.1634068E-009  0.4778727E+02  0.7816164E-02  0.1312668E+00
        -11   -1    0    0    0    0  0.00000000000E+00  0.00000000000E+00  0.45593999997E+02  0.45594000000E+02  0.51100000000E-03 0.  1.
         11   -1    0    0    0    0 -0.00000000000E+00 -0.00000000000E+00 -0.45593999997E+02  0.45594000000E+02  0.51100000000E-03 0. -1.
    9900012    2    1    2    0    0 -0.39564723172E+02  0.76391095609E+01  0.16121416300E+02  0.47787269844E+02  0.19999994527E+02 0.  0.
         12    1    1    2    0    0  0.39564723172E+02 -0.76391095609E+01 -0.16121416300E+02  0.43400730156E+02  0.00000000000E+00 0. -1.
         11    1    3    3    0    0 -0.13190633215E+02  0.66094097840E+01  0.68425390265E+01  0.16263377352E+02  0.51100000000E-03 0. -1.
        -11    1    3    3    0    0 -0.12924519349E+02 -0.39783734122E+01  0.10499360582E+02  0.17120374654E+02  0.51100000000E-03 0.  1.
         12    1    3    3    0    0 -0.13449570609E+02  0.50080731891E+01 -0.12204833080E+01  0.14403517839E+02  0.00000000000E+00 0. -1.
</event>
<event>
 7    1  0.1634068E-009  0.4778727E+02  0.7816164E-02  0.1312668E+00
        -11   -1    0    0    0    0  0.00000000000E+00  0.00000000000E+00  0.45593999997E+02  0.45594000000E+02  0.51100000000E-03 0.  1.
         11   -1    0    0    0    0 -0.00000000000E+00 -0.00000000000E+00 -0.45593999997E+02  0.45594000000E+02  0.51100000000E-03 0. -1.
    9900012    2    1    2    0    0  0.93867762113E+01  0.24663161485E+02  0.34456348731E+02  0.47787273394E+02  0.20000010711E+02 0.  0.
         12    1    1    2    0    0 -0.93867762113E+01 -0.24663161485E+02 -0.34456348731E+02  0.43400726606E+02  0.00000000000E+00 0. -1.
         11    1    3    3    0    0 -0.14135996511E+01  0.14580974765E+02  0.19293845072E+02  0.24225101589E+02  0.51100000000E-03 0. -1.
        -11    1    3    3    0    0 -0.52494905413E+00  0.37632942990E+01  0.77326689980E+01  0.86158067286E+01  0.51100000000E-03 0.  1.
         12    1    3    3    0    0  0.11325324916E+02  0.63188924211E+01  0.74298346613E+01  0.14946365076E+02  0.00000000000E+00 0. -1.
</event>
<event>
 7    1  0.1634068E-009  0.4778727E+02  0.7816164E-02  0.1312668E+00
        -11   -1    0    0    0    0  0.00000000000E+00  0.00000000000E+00  0.45593999997E+02  0.45594000000E+02  0.51100000000E-03 0.  1.
         11   -1    0    0    0    0 -0.00000000000E+00 -0.00000000000E+00 -0.45593999997E+02  0.45594000000E+02  0.51100000000E-03 0. -1.
    9900012    2    1    2    0    0  0.20814441782E+02  0.80466427245E+01  0.37224104349E+02  0.47787269702E+02  0.19999993879E+02 0.  0.
         12    1    1    2    0    0 -0.20814441782E+02 -0.80466427245E+01 -0.37224104349E+02  0.43400730298E+02  0.00000000000E+00 0. -1.
         11    1    3    3    0    0  0.35284994215E+01 -0.63520846238E+01  0.10481899620E+02  0.12754195668E+02  0.51100000000E-03 0. -1.
        -11    1    3    3    0    0  0.76455345279E+01  0.49082404328E+01  0.10068052744E+02  0.13561368245E+02  0.51100000000E-03 0.  1.
        -12    1    3    3    0    0  0.96404078325E+01  0.94904869154E+01  0.16674151985E+02  0.21471705789E+02  0.00000000000E+00 0.  1.
</event>
<event>
 7    1  0.1634068E-009  0.4778729E+02  0.7816164E-02  0.1312668E+00
        -11   -1    0    0    0    0  0.00000000000E+00  0.00000000000E+00  0.45593999997E+02  0.45594000000E+02  0.51100000000E-03 0. -1.
         11   -1    0    0    0    0 -0.00000000000E+00 -0.00000000000E+00 -0.45593999997E+02  0.45594000000E+02  0.51100000000E-03 0.  1.
    9900012    2    1    2    0    0 -0.10205219745E+02  0.11437942257E+02 -0.40603548711E+02  0.47787294924E+02  0.20000108877E+02 0.  0.
         12    1    1    2    0    0  0.10205219745E+02 -0.11437942257E+02  0.40603548711E+02  0.43400705076E+02  0.00000000000E+00 0. -1.
         11    1    3    3    0    0  0.22602666109E+01  0.19049838797E+01 -0.35670594018E+00  0.29774163503E+01  0.51100000000E-03 0. -1.
        -11    1    3    3    0    0 -0.21574587679E+01  0.85863023020E+00  0.48005246861E-01  0.23225371842E+01  0.51100000000E-03 0.  1.
        -12    1    3    3    0    0 -0.10308027588E+02  0.86743281474E+01 -0.40294848018E+02  0.42487341390E+02  0.00000000000E+00 0.  1.
</event>
<event>
 7    1  0.1634068E-009  0.4778728E+02  0.7816164E-02  0.1312668E+00
        -11   -1    0    0    0    0  0.00000000000E+00  0.00000000000E+00  0.45593999997E+02  0.45594000000E+02  0.51100000000E-03 0.  1.
         11   -1    0    0    0    0 -0.00000000000E+00 -0.00000000000E+00 -0.45593999997E+02  0.45594000000E+02  0.51100000000E-03 0. -1.
    9900012    2    1    2    0    0 -0.47610420661E+01 -0.19136531026E+02  0.38661969783E+02  0.47787282854E+02  0.20000053846E+02 0.  0.
         12    1    1    2    0    0  0.47610420661E+01  0.19136531026E+02 -0.38661969783E+02  0.43400717146E+02  0.00000000000E+00 0. -1.
         11    1    3    3    0    0 -0.61305832542E+01  0.97951263893E+00  0.67969515977E+01  0.92055443798E+01  0.51100000000E-03 0. -1.
        -11    1    3    3    0    0 -0.10679666189E+01 -0.11931620772E+02  0.24632180000E+02  0.27390662985E+02  0.51100000000E-03 0.  1.
        -12    1    3    3    0    0  0.24375078070E+01 -0.81844228928E+01  0.72328381858E+01  0.11191075490E+02  0.00000000000E+00 0.  1.
</event>
<event>
 7    1  0.1634068E-009  0.4778727E+02  0.7816164E-02  0.1312668E+00
        -11   -1    0    0    0    0  0.00000000000E+00  0.00000000000E+00  0.45593999997E+02  0.45594000000E+02  0.51100000000E-03 0.  1.
         11   -1    0    0    0    0 -0.00000000000E+00 -0.00000000000E+00 -0.45593999997E+02  0.45594000000E+02  0.51100000000E-03 0. -1.
    9900012    2    1    2    0    0 -0.14565203272E+02  0.35540955401E+02  0.20206889189E+02  0.47787273879E+02  0.20000012922E+02 0.  0.
         12    1    1    2    0    0  0.14565203272E+02 -0.35540955401E+02 -0.20206889189E+02  0.43400726121E+02  0.00000000000E+00 0. -1.
         11    1    3    3    0    0 -0.78267278386E+01  0.50770208443E+01  0.15572918753E+01  0.94582750836E+01  0.51100000000E-03 0. -1.
        -11    1    3    3    0    0  0.28316339440E+01  0.25295559850E+01  0.99369850628E+00  0.39248237230E+01  0.51100000000E-03 0.  1.
        -12    1    3    3    0    0 -0.95701093774E+01  0.27934378572E+02  0.17655898807E+02  0.34404175072E+02  0.00000000000E+00 0.  1.
</event>
<event>
 7    1  0.1634068E-009  0.4778728E+02  0.7816164E-02  0.1312668E+00
        -11   -1    0    0    0    0  0.00000000000E+00  0.00000000000E+00  0.45593999997E+02  0.45594000000E+02  0.51100000000E-03 0. -1.
         11   -1    0    0    0    0 -0.00000000000E+00 -0.00000000000E+00 -0.45593999997E+02  0.45594000000E+02  0.51100000000E-03 0.  1.
    9900012    2    1    2    0    0  0.39378377956E+02 -0.16053539615E+02  0.86746587973E+01  0.47787280076E+02  0.20000041180E+02 0.  0.
         12    1    1    2    0    0 -0.39378377956E+02  0.16053539615E+02 -0.86746587973E+01  0.43400719924E+02  0.00000000000E+00 0. -1.
         11    1    3    3    0    0  0.28796707039E+01 -0.44418857330E+01 -0.28443641331E+01  0.60094309058E+01  0.51100000000E-03 0. -1.
        -11    1    3    3    0    0  0.16156999331E+02 -0.10704976108E+02  0.86146913946E+01  0.21209857353E+02  0.51100000000E-03 0.  1.
         12    1    3    3    0    0  0.20341707921E+02 -0.90667777431E+00  0.29043315359E+01  0.20567991817E+02  0.00000000000E+00 0. -1.
</event>
<event>
 7    1  0.1634068E-009  0.4778727E+02  0.7816164E-02  0.1312668E+00
        -11   -1    0    0    0    0  0.00000000000E+00  0.00000000000E+00  0.45593999997E+02  0.45594000000E+02  0.51100000000E-03 0.  1.
         11   -1    0    0    0    0 -0.00000000000E+00 -0.00000000000E+00 -0.45593999997E+02  0.45594000000E+02  0.51100000000E-03 0. -1.
    9900012    2    1    2    0    0  0.69630828124E+01 -0.42703694714E+02 -0.33960400824E+01  0.47787272440E+02  0.20000006364E+02 0.  0.
         12    1    1    2    0    0 -0.69630828124E+01  0.42703694714E+02  0.33960400824E+01  0.43400727560E+02  0.00000000000E+00 0. -1.
         11    1    3    3    0    0  0.75291526582E+00 -0.97714106895E+01  0.41529696557E+01  0.10643989172E+02  0.51100000000E-03 0. -1.
        -11    1    3    3    0    0  0.37594486469E+01 -0.56932832800E+01  0.34743904937E+01  0.76562600661E+01  0.51100000000E-03 0.  1.
         12    1    3    3    0    0  0.24507188996E+01 -0.27239000744E+02 -0.11023400232E+02  0.29487023203E+02  0.00000000000E+00 0. -1.
</event>
<event>
 7    1  0.1634068E-009  0.4778727E+02  0.7816164E-02  0.1312668E+00
        -11   -1    0    0    0    0  0.00000000000E+00  0.00000000000E+00  0.45593999997E+02  0.45594000000E+02  0.51100000000E-03 0.  1.
         11   -1    0    0    0    0 -0.00000000000E+00 -0.00000000000E+00 -0.45593999997E+02  0.45594000000E+02  0.51100000000E-03 0. -1.
    9900012    2    1    2    0    0  0.21868879138E+01  0.39397111307E+02  0.18075076650E+02  0.47787271274E+02  0.20000001046E+02 0.  0.
         12    1    1    2    0    0 -0.21868879138E+01 -0.39397111307E+02 -0.18075076650E+02  0.43400728726E+02  0.00000000000E+00 0. -1.
         11    1    3    3    0    0  0.22726263139E+01  0.16717181337E+01  0.37708733971E+00  0.28463427418E+01  0.51100000000E-03 0. -1.
        -11    1    3    3    0    0  0.28134579525E+01  0.35751232824E+02  0.11222874507E+02  0.37576842690E+02  0.51100000000E-03 0.  1.
         12    1    3    3    0    0 -0.28991963525E+01  0.19741603493E+01  0.64751148033E+01  0.73640858421E+01  0.00000000000E+00 0. -1.
</event>
<event>
 7    1  0.1634068E-009  0.4778728E+02  0.7816164E-02  0.1312668E+00
        -11   -1    0    0    0    0  0.00000000000E+00  0.00000000000E+00  0.45593999997E+02  0.45594000000E+02  0.51100000000E-03 0.  1.
         11   -1    0    0    0    0 -0.00000000000E+00 -0.00000000000E+00 -0.45593999997E+02  0.45594000000E+02  0.51100000000E-03 0. -1.
    9900012    2    1    2    0    0 -0.11155267837E+02  0.34283442386E+02  0.24162531841E+02  0.47787281489E+02  0.20000047619E+02 0.  0.
         12    1    1    2    0    0  0.11155267837E+02 -0.34283442386E+02 -0.24162531841E+02  0.43400718511E+02  0.00000000000E+00 0. -1.
         11    1    3    3    0    0 -0.84857352176E+01  0.21890266348E+02  0.53513644068E+01  0.24079629654E+02  0.51100000000E-03 0.  1.
        -11    1    3    3    0    0  0.40473740560E+00 -0.75078219870E+00  0.17964044666E+01  0.19886064332E+01  0.51100000000E-03 0. -1.
        -12    1    3    3    0    0 -0.30742700251E+01  0.13143958236E+02  0.17014762968E+02  0.21719045402E+02  0.00000000000E+00 0.  1.
</event>
<event>
 7    1  0.1634068E-009  0.4778726E+02  0.7816164E-02  0.1312668E+00
        -11   -1    0    0    0    0  0.00000000000E+00  0.00000000000E+00  0.45593999997E+02  0.45594000000E+02  0.51100000000E-03 0. -1.
         11   -1    0    0    0    0 -0.00000000000E+00 -0.00000000000E+00 -0.45593999997E+02  0.45594000000E+02  0.51100000000E-03 0.  1.
    9900012    2    1    2    0    0 -0.17154793751E+02 -0.24089217473E+02 -0.31765494841E+02  0.47787262569E+02  0.19999961356E+02 0.  0.
         12    1    1    2    0    0  0.17154793751E+02  0.24089217473E+02  0.31765494841E+02  0.43400737431E+02  0.00000000000E+00 0. -1.
         11    1    3    3    0    0 -0.13090689941E+01  0.68020724396E+00 -0.44480205616E+01  0.46862811166E+01  0.51100000000E-03 0. -1.
        -11    1    3    3    0    0 -0.13599043458E+02 -0.25386916965E+02 -0.19095612967E+02  0.34555346487E+02  0.51100000000E-03 0.  1.
        -12    1    3    3    0    0 -0.22466812987E+01  0.61749224793E+00 -0.82218613118E+01  0.85456349655E+01  0.00000000000E+00 0.  1.
</event>
<event>
 7    1  0.1634068E-009  0.4778727E+02  0.7816164E-02  0.1312668E+00
        -11   -1    0    0    0    0  0.00000000000E+00  0.00000000000E+00  0.45593999997E+02  0.45594000000E+02  0.51100000000E-03 0.  1.
         11   -1    0    0    0    0 -0.00000000000E+00 -0.00000000000E+00 -0.45593999997E+02  0.45594000000E+02  0.51100000000E-03 0. -1.
    9900012    2    1    2    0    0 -0.80564262179E+01  0.56824169839E+01  0.42266151593E+02  0.47787269169E+02  0.19999991451E+02 0.  0.
         12    1    1    2    0    0  0.80564262179E+01 -0.56824169839E+01 -0.42266151593E+02  0.43400730831E+02  0.00000000000E+00 0. -1.
         11    1    3    3    0    0  0.68222799311E+00  0.41178719999E+01  0.12649123957E+01  0.43614571500E+01  0.51100000000E-03 0. -1.
        -11    1    3    3    0    0 -0.89903649598E+01  0.15226496773E+01  0.15943901410E+02  0.18367174975E+02  0.51100000000E-03 0.  1.
        -12    1    3    3    0    0  0.25171074879E+00  0.41895306738E-01  0.25057337787E+02  0.25058637044E+02  0.00000000000E+00 0.  1.
</event>
<event>
 7    1  0.1634068E-009  0.4778727E+02  0.7816164E-02  0.1312668E+00
        -11   -1    0    0    0    0  0.00000000000E+00  0.00000000000E+00  0.45593999997E+02  0.45594000000E+02  0.51100000000E-03 0.  1.
         11   -1    0    0    0    0 -0.00000000000E+00 -0.00000000000E+00 -0.45593999997E+02  0.45594000000E+02  0.51100000000E-03 0. -1.
    9900012    2    1    2    0    0  0.10882125985E+01 -0.47851466053E+01  0.43122398832E+02  0.47787272867E+02  0.20000008309E+02 0.  0.
         12    1    1    2    0    0 -0.10882125985E+01  0.47851466053E+01 -0.43122398832E+02  0.43400727133E+02  0.00000000000E+00 0. -1.
         11    1    3    3    0    0  0.57978315969E+01  0.26339250162E+00  0.29743268466E+02  0.30304228189E+02  0.51100000000E-03 0.  1.
        -11    1    3    3    0    0 -0.52079478025E+01  0.53169651846E-02  0.10306240646E+02  0.11547352299E+02  0.51100000000E-03 0. -1.
        -12    1    3    3    0    0  0.49832880404E+00 -0.50538560721E+01  0.30728897196E+01  0.59356923794E+01  0.00000000000E+00 0.  1.
</event>
<event>
 7    1  0.1634068E-009  0.4778727E+02  0.7816164E-02  0.1312668E+00
        -11   -1    0    0    0    0  0.00000000000E+00  0.00000000000E+00  0.45593999997E+02  0.45594000000E+02  0.51100000000E-03 0.  1.
         11   -1    0    0    0    0 -0.00000000000E+00 -0.00000000000E+00 -0.45593999997E+02  0.45594000000E+02  0.51100000000E-03 0. -1.
    9900012    2    1    2    0    0 -0.40318361094E+02  0.60583521084E+00  0.16052599135E+02  0.47787271705E+02  0.20000003010E+02 0.  0.
         12    1    1    2    0    0  0.40318361094E+02 -0.60583521084E+00 -0.16052599135E+02  0.43400728295E+02  0.00000000000E+00 0. -1.
         11    1    3    3    0    0 -0.10798581238E+02 -0.62341097274E+00  0.13289017391E+00  0.10817377596E+02  0.51100000000E-03 0. -1.
        -11    1    3    3    0    0 -0.21066220045E+02  0.55725208105E+01  0.16670594417E+02  0.27436241245E+02  0.51100000000E-03 0.  1.
        -12    1    3    3    0    0 -0.84535598113E+01 -0.43432746270E+01 -0.75088545612E+00  0.95336528643E+01  0.00000000000E+00 0.  1.
</event>
<event>
 7    1  0.1634068E-009  0.4778727E+02  0.7816164E-02  0.1312668E+00
        -11   -1    0    0    0    0  0.00000000000E+00  0.00000000000E+00  0.45593999997E+02  0.45594000000E+02  0.51100000000E-03 0.  1.
         11   -1    0    0    0    0 -0.00000000000E+00 -0.00000000000E+00 -0.45593999997E+02  0.45594000000E+02  0.51100000000E-03 0. -1.
    9900012    2    1    2    0    0 -0.36517852309E+01 -0.42677856655E+02 -0.69920039437E+01  0.47787273011E+02  0.20000008965E+02 0.  0.
         12    1    1    2    0    0  0.36517852309E+01  0.42677856655E+02  0.69920039437E+01  0.43400726989E+02  0.00000000000E+00 0. -1.
         11    1    3    3    0    0 -0.11117684657E+02 -0.19216531697E+02 -0.63729536386E+01  0.23097457456E+02  0.51100000000E-03 0. -1.
        -11    1    3    3    0    0  0.25201780596E+01 -0.10444082943E+02 -0.66842199447E+00  0.10764615841E+02  0.51100000000E-03 0.  1.
         12    1    3    3    0    0  0.49457213662E+01 -0.13017242015E+02  0.49371689382E-01  0.13925199714E+02  0.00000000000E+00 0. -1.
</event>
<event>
 7    1  0.1634068E-009  0.4778727E+02  0.7816164E-02  0.1312668E+00
        -11   -1    0    0    0    0  0.00000000000E+00  0.00000000000E+00  0.45593999997E+02  0.45594000000E+02  0.51100000000E-03 0.  1.
         11   -1    0    0    0    0 -0.00000000000E+00 -0.00000000000E+00 -0.45593999997E+02  0.45594000000E+02  0.51100000000E-03 0. -1.
    9900012    2    1    2    0    0  0.42165517696E+01  0.69765565599E+01  0.42628294074E+02  0.47787272980E+02  0.20000008823E+02 0.  0.
         12    1    1    2    0    0 -0.42165517696E+01 -0.69765565599E+01 -0.42628294074E+02  0.43400727020E+02  0.00000000000E+00 0. -1.
         11    1    3    3    0    0 -0.46023559545E+01  0.26698804957E+01  0.15236953004E+02  0.16139227965E+02  0.51100000000E-03 0. -1.
        -11    1    3    3    0    0 -0.20524826699E+01 -0.23097312600E+01  0.45380342586E+01  0.54901091790E+01  0.51100000000E-03 0.  1.
         12    1    3    3    0    0  0.10871390394E+02  0.66164073242E+01  0.22853306811E+02  0.26157935835E+02  0.00000000000E+00 0. -1.
</event>
<event>
 7    1  0.1634068E-009  0.4778726E+02  0.7816164E-02  0.1312668E+00
        -11   -1    0    0    0    0  0.00000000000E+00  0.00000000000E+00  0.45593999997E+02  0.45594000000E+02  0.51100000000E-03 0. -1.
         11   -1    0    0    0    0 -0.00000000000E+00 -0.00000000000E+00 -0.45593999997E+02  0.45594000000E+02  0.51100000000E-03 0.  1.
    9900012    2    1    2    0    0 -0.44998537597E+01  0.40491789808E+02 -0.14959619885E+02  0.47787263222E+02  0.19999964336E+02 0.  0.
         12    1    1    2    0    0  0.44998537597E+01 -0.40491789808E+02  0.14959619885E+02  0.43400736778E+02  0.00000000000E+00 0. -1.
         11    1    3    3    0    0  0.31104606712E+01  0.12591317946E+01 -0.58835856236E+01  0.67732531707E+01  0.51100000000E-03 0. -1.
        -11    1    3    3    0    0 -0.20118260113E+01  0.12617957875E+02 -0.35471044461E+01  0.13260552592E+02  0.51100000000E-03 0.  1.
         12    1    3    3    0    0 -0.55984884196E+01  0.26614700139E+02 -0.55289298154E+01  0.27753457460E+02  0.00000000000E+00 0. -1.
</event>
<event>
 7    1  0.1634068E-009  0.4778727E+02  0.7816164E-02  0.1312668E+00
        -11   -1    0    0    0    0  0.00000000000E+00  0.00000000000E+00  0.45593999997E+02  0.45594000000E+02  0.51100000000E-03 0.  1.
         11   -1    0    0    0    0 -0.00000000000E+00 -0.00000000000E+00 -0.45593999997E+02  0.45594000000E+02  0.51100000000E-03 0. -1.
    9900012    2    1    2    0    0  0.27255062161E+02 -0.32910438340E+02  0.75952587368E+01  0.47787270509E+02  0.19999997558E+02 0.  0.
         12    1    1    2    0    0 -0.27255062161E+02  0.32910438340E+02 -0.75952587368E+01  0.43400729491E+02  0.00000000000E+00 0. -1.
         11    1    3    3    0    0 -0.52621575216E+00  0.56894642288E+00 -0.75400402654E+00  0.10812610152E+01  0.51100000000E-03 0. -1.
        -11    1    3    3    0    0  0.18330617929E+02 -0.28659588293E+02  0.14501349726E+01  0.34051232672E+02  0.51100000000E-03 0.  1.
        -12    1    3    3    0    0  0.94506599837E+01 -0.48197964696E+01  0.68991277908E+01  0.12654776822E+02  0.00000000000E+00 0.  1.
</event>
<event>
 7    1  0.1634068E-009  0.4778727E+02  0.7816164E-02  0.1312668E+00
        -11   -1    0    0    0    0  0.00000000000E+00  0.00000000000E+00  0.45593999997E+02  0.45594000000E+02  0.51100000000E-03 0.  1.
         11   -1    0    0    0    0 -0.00000000000E+00 -0.00000000000E+00 -0.45593999997E+02  0.45594000000E+02  0.51100000000E-03 0. -1.
    9900012    2    1    2    0    0 -0.32943645160E+02  0.69179605046E+01  0.27394918621E+02  0.47787268437E+02  0.19999988111E+02 0.  0.
         12    1    1    2    0    0  0.32943645160E+02 -0.69179605046E+01 -0.27394918621E+02  0.43400731563E+02  0.00000000000E+00 0. -1.
         11    1    3    3    0    0 -0.77504710471E+01  0.45087936740E+01  0.10675285737E+02  0.13941332349E+02  0.51100000000E-03 0. -1.
        -11    1    3    3    0    0 -0.10308035628E+02  0.29803769719E+01 -0.90637639181E+00  0.10768461535E+02  0.51100000000E-03 0.  1.
        -12    1    3    3    0    0 -0.14885138485E+02 -0.57121014126E+00  0.17626009276E+02  0.23077474553E+02  0.00000000000E+00 0.  1.
</event>
<event>
 7    1  0.1634068E-009  0.4778727E+02  0.7816164E-02  0.1312668E+00
        -11   -1    0    0    0    0  0.00000000000E+00  0.00000000000E+00  0.45593999997E+02  0.45594000000E+02  0.51100000000E-03 0. -1.
         11   -1    0    0    0    0 -0.00000000000E+00 -0.00000000000E+00 -0.45593999997E+02  0.45594000000E+02  0.51100000000E-03 0.  1.
    9900012    2    1    2    0    0 -0.16241610158E+02 -0.19866883018E+02 -0.35002004143E+02  0.47787271488E+02  0.20000002022E+02 0.  0.
         12    1    1    2    0    0  0.16241610158E+02  0.19866883018E+02  0.35002004143E+02  0.43400728512E+02  0.00000000000E+00 0. -1.
         11    1    3    3    0    0 -0.51143567493E+01 -0.51436549526E+01 -0.21920623957E+01  0.75775305369E+01  0.51100000000E-03 0. -1.
        -11    1    3    3    0    0  0.25100682411E+01 -0.23792931850E+01 -0.11746931124E+02  0.12245483647E+02  0.51100000000E-03 0.  1.
         12    1    3    3    0    0 -0.13637321649E+02 -0.12343934880E+02 -0.21063010623E+02  0.27964257305E+02  0.00000000000E+00 0. -1.
</event>
<event>
 7    1  0.1634068E-009  0.4778728E+02  0.7816164E-02  0.1312668E+00
        -11   -1    0    0    0    0  0.00000000000E+00  0.00000000000E+00  0.45593999997E+02  0.45594000000E+02  0.51100000000E-03 0. -1.
         11   -1    0    0    0    0 -0.00000000000E+00 -0.00000000000E+00 -0.45593999997E+02  0.45594000000E+02  0.51100000000E-03 0.  1.
    9900012    2    1    2    0    0  0.38937998961E+02  0.20860024837E+01 -0.19055281347E+02  0.47787275160E+02  0.20000018763E+02 0.  0.
         12    1    1    2    0    0 -0.38937998961E+02 -0.20860024837E+01  0.19055281347E+02  0.43400724840E+02  0.00000000000E+00 0. -1.
         11    1    3    3    0    0  0.82146544452E+01  0.64716559858E+01 -0.87761503657E+01  0.13652241367E+02  0.51100000000E-03 0. -1.
        -11    1    3    3    0    0  0.18177293614E+02 -0.21928292215E+01 -0.11033209436E+02  0.21376487406E+02  0.51100000000E-03 0.  1.
         12    1    3    3    0    0  0.12546050902E+02 -0.21928242805E+01  0.75407845461E+00  0.12758546386E+02  0.00000000000E+00 0. -1.
</event>
<event>
 7    1  0.1634068E-009  0.4778727E+02  0.7816164E-02  0.1312668E+00
        -11   -1    0    0    0    0  0.00000000000E+00  0.00000000000E+00  0.45593999997E+02  0.45594000000E+02  0.51100000000E-03 0.  1.
         11   -1    0    0    0    0 -0.00000000000E+00 -0.00000000000E+00 -0.45593999997E+02  0.45594000000E+02  0.51100000000E-03 0. -1.
    9900012    2    1    2    0    0  0.24482545689E+02 -0.12709797639E+02  0.33506552693E+02  0.47787273360E+02  0.20000010559E+02 0.  0.
         12    1    1    2    0    0 -0.24482545689E+02  0.12709797639E+02 -0.33506552693E+02  0.43400726640E+02  0.00000000000E+00 0. -1.
         11    1    3    3    0    0  0.92551316143E+01  0.40824671452E+00  0.17615232353E+02  0.19902777135E+02  0.51100000000E-03 0. -1.
        -11    1    3    3    0    0  0.20541773456E+01 -0.36973931564E+00 -0.15355820977E+01  0.25912090554E+01  0.51100000000E-03 0.  1.
        -12    1    3    3    0    0  0.13173236729E+02 -0.12748305038E+02  0.17426902438E+02  0.25293287170E+02  0.00000000000E+00 0.  1.
</event>
<event>
 7    1  0.1634068E-009  0.4778727E+02  0.7816164E-02  0.1312668E+00
        -11   -1    0    0    0    0  0.00000000000E+00  0.00000000000E+00  0.45593999997E+02  0.45594000000E+02  0.51100000000E-03 0.  1.
         11   -1    0    0    0    0 -0.00000000000E+00 -0.00000000000E+00 -0.45593999997E+02  0.45594000000E+02  0.51100000000E-03 0. -1.
    9900012    2    1    2    0    0 -0.88967179129E+01 -0.79108988539E+00  0.42471706503E+02  0.47787271134E+02  0.20000000410E+02 0.  0.
         12    1    1    2    0    0  0.88967179129E+01  0.79108988539E+00 -0.42471706503E+02  0.43400728866E+02  0.00000000000E+00 0. -1.
         11    1    3    3    0    0 -0.87458943636E+00 -0.39974276268E+01  0.43248175543E+01  0.59538543359E+01  0.51100000000E-03 0. -1.
        -11    1    3    3    0    0 -0.40566303507E+01  0.79366372022E+01  0.11885512272E+02  0.14856374461E+02  0.51100000000E-03 0.  1.
        -12    1    3    3    0    0 -0.39654981258E+01 -0.47302994608E+01  0.26261376676E+02  0.26977042338E+02  0.00000000000E+00 0.  1.
</event>
<event>
 7    1  0.1634068E-009  0.4778727E+02  0.7816164E-02  0.1312668E+00
        -11   -1    0    0    0    0  0.00000000000E+00  0.00000000000E+00  0.45593999997E+02  0.45594000000E+02  0.51100000000E-03 0.  1.
         11   -1    0    0    0    0 -0.00000000000E+00 -0.00000000000E+00 -0.45593999997E+02  0.45594000000E+02  0.51100000000E-03 0. -1.
    9900012    2    1    2    0    0 -0.38490875073E+02 -0.23956632282E+01  0.19908208852E+02  0.47787269063E+02  0.19999990967E+02 0.  0.
         12    1    1    2    0    0  0.38490875073E+02  0.23956632282E+01 -0.19908208852E+02  0.43400730937E+02  0.00000000000E+00 0. -1.
         11    1    3    3    0    0 -0.81671432829E+00 -0.17742122035E+01 -0.14601353697E+01  0.24386157540E+01  0.51100000000E-03 0. -1.
        -11    1    3    3    0    0 -0.26717985211E+02 -0.60960972304E+01  0.11942825286E+02  0.29893882505E+02  0.51100000000E-03 0.  1.
        -12    1    3    3    0    0 -0.10956175534E+02  0.54746462057E+01  0.94255189356E+01  0.15454770804E+02  0.00000000000E+00 0.  1.
</event>
<event>
 7    1  0.1634068E-009  0.4778727E+02  0.7816164E-02  0.1312668E+00
        -11   -1    0    0    0    0  0.00000000000E+00  0.00000000000E+00  0.45593999997E+02  0.45594000000E+02  0.51100000000E-03 0. -1.
         11   -1    0    0    0    0 -0.00000000000E+00 -0.00000000000E+00 -0.45593999997E+02  0.45594000000E+02  0.51100000000E-03 0.  1.
    9900012    2    1    2    0    0 -0.21372232253E+02 -0.24030680909E+02 -0.29144078095E+02  0.47787271614E+02  0.20000002598E+02 0.  0.
         12    1    1    2    0    0  0.21372232253E+02  0.24030680909E+02  0.29144078095E+02  0.43400728386E+02  0.00000000000E+00 0. -1.
         11    1    3    3    0    0 -0.10652712431E+01  0.13303471197E+01 -0.21403605081E+01  0.27360134587E+01  0.51100000000E-03 0. -1.
        -11    1    3    3    0    0  0.25923271541E+01 -0.37919197502E+01 -0.30930768430E+01  0.55376836388E+01  0.51100000000E-03 0.  1.
        -12    1    3    3    0    0 -0.22899288164E+02 -0.21569108278E+02 -0.23910640744E+02  0.39513574517E+02  0.00000000000E+00 0.  1.
</event>
<event>
 7    1  0.1634068E-009  0.4778727E+02  0.7816164E-02  0.1312668E+00
        -11   -1    0    0    0    0  0.00000000000E+00  0.00000000000E+00  0.45593999997E+02  0.45594000000E+02  0.51100000000E-03 0.  1.
         11   -1    0    0    0    0 -0.00000000000E+00 -0.00000000000E+00 -0.45593999997E+02  0.45594000000E+02  0.51100000000E-03 0. -1.
    9900012    2    1    2    0    0  0.75875346435E+01 -0.18545116304E+02  0.38498456853E+02  0.47787271886E+02  0.20000003839E+02 0.  0.
         12    1    1    2    0    0 -0.75875346435E+01  0.18545116304E+02 -0.38498456853E+02  0.43400728114E+02  0.00000000000E+00 0. -1.
         11    1    3    3    0    0  0.78949224700E+00 -0.12825423744E+01  0.20170543445E+02  0.20226691179E+02  0.51100000000E-03 0. -1.
        -11    1    3    3    0    0  0.77789741765E+00 -0.18558732627E+01  0.75603807688E+01  0.78236019575E+01  0.51100000000E-03 0.  1.
        -12    1    3    3    0    0  0.60201449789E+01 -0.15406700667E+02  0.10767532640E+02  0.19736978750E+02  0.00000000000E+00 0.  1.
</event>
<event>
 7    1  0.1634068E-009  0.4778727E+02  0.7816164E-02  0.1312668E+00
        -11   -1    0    0    0    0  0.00000000000E+00  0.00000000000E+00  0.45593999997E+02  0.45594000000E+02  0.51100000000E-03 0.  1.
         11   -1    0    0    0    0 -0.00000000000E+00 -0.00000000000E+00 -0.45593999997E+02  0.45594000000E+02  0.51100000000E-03 0. -1.
    9900012    2    1    2    0    0  0.32956721197E+02  0.19163447236E+02  0.20742226508E+02  0.47787272557E+02  0.20000006898E+02 0.  0.
         12    1    1    2    0    0 -0.32956721197E+02 -0.19163447236E+02 -0.20742226508E+02  0.43400727443E+02  0.00000000000E+00 0. -1.
         11    1    3    3    0    0  0.16463107061E+02  0.21561217738E+01  0.63265707982E+01  0.17768180929E+02  0.51100000000E-03 0. -1.
        -11    1    3    3    0    0  0.15870661643E+02  0.12467900688E+02  0.15333055085E+02  0.25346183678E+02  0.51100000000E-03 0.  1.
         12    1    3    3    0    0  0.62295249393E+00  0.45394247750E+01 -0.91739937595E+00  0.46729079504E+01  0.00000000000E+00 0. -1.
</event>
<event>
 7    1  0.1634068E-009  0.4778727E+02  0.7816164E-02  0.1312668E+00
        -11   -1    0    0    0    0  0.00000000000E+00  0.00000000000E+00  0.45593999997E+02  0.45594000000E+02  0.51100000000E-03 0.  1.
         11   -1    0    0    0    0 -0.00000000000E+00 -0.00000000000E+00 -0.45593999997E+02  0.45594000000E+02  0.51100000000E-03 0. -1.
    9900012    2    1    2    0    0 -0.68827255324E+01 -0.75171969297E+01  0.42186998650E+02  0.47787274021E+02  0.20000013571E+02 0.  0.
         12    1    1    2    0    0  0.68827255324E+01  0.75171969297E+01 -0.42186998650E+02  0.43400725979E+02  0.00000000000E+00 0. -1.
         11    1    3    3    0    0  0.11112657075E+01 -0.44570925552E+01  0.38889226099E+01  0.60186630447E+01  0.51100000000E-03 0. -1.
        -11    1    3    3    0    0 -0.93160549279E+01 -0.70180985002E+00  0.11418563481E+02  0.14753474463E+02  0.51100000000E-03 0.  1.
        -12    1    3    3    0    0  0.13220636880E+01 -0.23582945245E+01  0.26879512559E+02  0.27015136514E+02  0.00000000000E+00 0.  1.
</event>
<event>
 7    1  0.1634068E-009  0.4778725E+02  0.7816164E-02  0.1312668E+00
        -11   -1    0    0    0    0  0.00000000000E+00  0.00000000000E+00  0.45593999997E+02  0.45594000000E+02  0.51100000000E-03 0.  1.
         11   -1    0    0    0    0 -0.00000000000E+00 -0.00000000000E+00 -0.45593999997E+02  0.45594000000E+02  0.51100000000E-03 0. -1.
    9900012    2    1    2    0    0 -0.45227207994E+01 -0.80241886639E+01  0.42412054328E+02  0.47787251625E+02  0.19999911459E+02 0.  0.
         12    1    1    2    0    0  0.45227207994E+01  0.80241886639E+01 -0.42412054328E+02  0.43400748375E+02  0.00000000000E+00 0. -1.
         11    1    3    3    0    0  0.58749877622E+01 -0.22464007885E+00  0.66581121754E+01  0.88823646836E+01  0.51100000000E-03 0. -1.
        -11    1    3    3    0    0 -0.13949708768E+00  0.14734424996E+01  0.27969970032E+01  0.31644406669E+01  0.51100000000E-03 0.  1.
        -12    1    3    3    0    0 -0.10258211474E+02 -0.92729910847E+01  0.32956945150E+02  0.35740446275E+02  0.00000000000E+00 0.  1.
</event>
<event>
 7    1  0.1634068E-009  0.4778727E+02  0.7816164E-02  0.1312668E+00
        -11   -1    0    0    0    0  0.00000000000E+00  0.00000000000E+00  0.45593999997E+02  0.45594000000E+02  0.51100000000E-03 0. -1.
         11   -1    0    0    0    0 -0.00000000000E+00 -0.00000000000E+00 -0.45593999997E+02  0.45594000000E+02  0.51100000000E-03 0.  1.
    9900012    2    1    2    0    0 -0.22399453604E+02 -0.14332054236E+02 -0.34299859338E+02  0.47787266700E+02  0.19999980192E+02 0.  0.
         12    1    1    2    0    0  0.22399453604E+02  0.14332054236E+02  0.34299859338E+02  0.43400733300E+02  0.00000000000E+00 0. -1.
         11    1    3    3    0    0 -0.48656047735E+01  0.53597718514E+00 -0.18378743480E+02  0.19019453029E+02  0.51100000000E-03 0. -1.
        -11    1    3    3    0    0 -0.79277636213E+01 -0.25583776026E+01 -0.50430075348E+01  0.97378979893E+01  0.51100000000E-03 0.  1.
        -12    1    3    3    0    0 -0.96060852096E+01 -0.12309653818E+02 -0.10878108323E+02  0.19029915682E+02  0.00000000000E+00 0.  1.
</event>
<event>
 7    1  0.1634068E-009  0.4778727E+02  0.7816164E-02  0.1312668E+00
        -11   -1    0    0    0    0  0.00000000000E+00  0.00000000000E+00  0.45593999997E+02  0.45594000000E+02  0.51100000000E-03 0.  1.
         11   -1    0    0    0    0 -0.00000000000E+00 -0.00000000000E+00 -0.45593999997E+02  0.45594000000E+02  0.51100000000E-03 0. -1.
    9900012    2    1    2    0    0  0.29191752749E+01  0.33763775585E+02  0.27112897017E+02  0.47787270620E+02  0.19999998065E+02 0.  0.
         12    1    1    2    0    0 -0.29191752749E+01 -0.33763775585E+02 -0.27112897017E+02  0.43400729380E+02  0.00000000000E+00 0. -1.
         11    1    3    3    0    0  0.54594258268E+01  0.46258957069E+01  0.63652084827E+01  0.95770622186E+01  0.51100000000E-03 0. -1.
        -11    1    3    3    0    0 -0.70246784203E+01  0.12478455963E+02  0.60479995349E+01  0.15544654025E+02  0.51100000000E-03 0.  1.
        -12    1    3    3    0    0  0.44844278684E+01  0.16659423915E+02  0.14699689000E+02  0.22665554376E+02  0.00000000000E+00 0.  1.
</event>
<event>
 7    1  0.1634068E-009  0.4778724E+02  0.7816164E-02  0.1312668E+00
        -11   -1    0    0    0    0  0.00000000000E+00  0.00000000000E+00  0.45593999997E+02  0.45594000000E+02  0.51100000000E-03 0. -1.
         11   -1    0    0    0    0 -0.00000000000E+00 -0.00000000000E+00 -0.45593999997E+02  0.45594000000E+02  0.51100000000E-03 0.  1.
    9900012    2    1    2    0    0  0.14403002895E+02  0.37143469087E+02 -0.17220411056E+02  0.47787235662E+02  0.19999838677E+02 0.  0.
         12    1    1    2    0    0 -0.14403002895E+02 -0.37143469087E+02  0.17220411056E+02  0.43400764338E+02  0.00000000000E+00 0. -1.
         11    1    3    3    0    0  0.48686189599E+01  0.16268765706E+02 -0.10613614899E+02  0.20025608846E+02  0.51100000000E-03 0. -1.
        -11    1    3    3    0    0  0.12244121767E+02  0.15460069036E+02 -0.84163435086E+01  0.21442180177E+02  0.51100000000E-03 0.  1.
        -12    1    3    3    0    0 -0.27097378314E+01  0.54146343443E+01  0.18095473520E+01  0.63194466384E+01  0.00000000000E+00 0.  1.
</event>
<event>
 7    1  0.1634068E-009  0.4778727E+02  0.7816164E-02  0.1312668E+00
        -11   -1    0    0    0    0  0.00000000000E+00  0.00000000000E+00  0.45593999997E+02  0.45594000000E+02  0.51100000000E-03 0.  1.
         11   -1    0    0    0    0 -0.00000000000E+00 -0.00000000000E+00 -0.45593999997E+02  0.45594000000E+02  0.51100000000E-03 0. -1.
    9900012    2    1    2    0    0 -0.12837174647E+02  0.26762743466E+02  0.31663635342E+02  0.47787270814E+02  0.19999998951E+02 0.  0.
         12    1    1    2    0    0  0.12837174647E+02 -0.26762743466E+02 -0.31663635342E+02  0.43400729186E+02  0.00000000000E+00 0. -1.
         11    1    3    3    0    0 -0.27972624717E+01  0.15063224140E+02  0.87827881771E+01  0.17659636668E+02  0.51100000000E-03 0. -1.
        -11    1    3    3    0    0 -0.11614135714E+02  0.11262377146E+02  0.23368962885E+02  0.28422486062E+02  0.51100000000E-03 0.  1.
         12    1    3    3    0    0  0.15742235380E+01  0.43714218066E+00 -0.48811572027E+00  0.17051480845E+01  0.00000000000E+00 0. -1.
</event>
<event>
 7    1  0.1634068E-009  0.4778727E+02  0.7816164E-02  0.1312668E+00
        -11   -1    0    0    0    0  0.00000000000E+00  0.00000000000E+00  0.45593999997E+02  0.45594000000E+02  0.51100000000E-03 0.  1.
         11   -1    0    0    0    0 -0.00000000000E+00 -0.00000000000E+00 -0.45593999997E+02  0.45594000000E+02  0.51100000000E-03 0. -1.
    9900012    2    1    2    0    0  0.20922029813E+02  0.31894263978E+02  0.20703812245E+02  0.47787271346E+02  0.20000001375E+02 0.  0.
         12    1    1    2    0    0 -0.20922029813E+02 -0.31894263978E+02 -0.20703812245E+02  0.43400728654E+02  0.00000000000E+00 0. -1.
         11    1    3    3    0    0  0.20366383541E+01  0.11914995570E+01 -0.17985215064E+01  0.29668580771E+01  0.51100000000E-03 0. -1.
        -11    1    3    3    0    0  0.99530057516E+01  0.17553825221E+02  0.42598228285E+01  0.20623898617E+02  0.51100000000E-03 0.  1.
        -12    1    3    3    0    0  0.89323857077E+01  0.13148939201E+02  0.18242510923E+02  0.24196514652E+02  0.00000000000E+00 0.  1.
</event>
<event>
 7    1  0.1634068E-009  0.4778728E+02  0.7816164E-02  0.1312668E+00
        -11   -1    0    0    0    0  0.00000000000E+00  0.00000000000E+00  0.45593999997E+02  0.45594000000E+02  0.51100000000E-03 0.  1.
         11   -1    0    0    0    0 -0.00000000000E+00 -0.00000000000E+00 -0.45593999997E+02  0.45594000000E+02  0.51100000000E-03 0. -1.
    9900012    2    1    2    0    0 -0.18714371873E+02  0.48223687999E+01  0.38860518072E+02  0.47787276270E+02  0.20000023826E+02 0.  0.
         12    1    1    2    0    0  0.18714371873E+02 -0.48223687999E+01 -0.38860518072E+02  0.43400723730E+02  0.00000000000E+00 0. -1.
         11    1    3    3    0    0 -0.27811602229E+01 -0.46498415339E+01  0.79295954218E+01  0.96038722550E+01  0.51100000000E-03 0. -1.
        -11    1    3    3    0    0 -0.76599993139E+01  0.62553999851E+01  0.26453124895E+02  0.28241342663E+02  0.51100000000E-03 0.  1.
         12    1    3    3    0    0 -0.82732123365E+01  0.32168103487E+01  0.44777977551E+01  0.99420613517E+01  0.00000000000E+00 0. -1.
</event>
<event>
 7    1  0.1634068E-009  0.4778727E+02  0.7816164E-02  0.1312668E+00
        -11   -1    0    0    0    0  0.00000000000E+00  0.00000000000E+00  0.45593999997E+02  0.45594000000E+02  0.51100000000E-03 0. -1.
         11   -1    0    0    0    0 -0.00000000000E+00 -0.00000000000E+00 -0.45593999997E+02  0.45594000000E+02  0.51100000000E-03 0.  1.
    9900012    2    1    2    0    0  0.75208373658E+01  0.36399442274E+02 -0.22408500836E+02  0.47787270717E+02  0.19999998509E+02 0.  0.
         12    1    1    2    0    0 -0.75208373658E+01 -0.36399442274E+02  0.22408500836E+02  0.43400729283E+02  0.00000000000E+00 0. -1.
         11    1    3    3    0    0 -0.29199230949E+00  0.10897281739E+02 -0.34412795795E+00  0.10906623360E+02  0.51100000000E-03 0. -1.
        -11    1    3    3    0    0  0.10173920789E+02  0.25177772737E+02 -0.19971718474E+02  0.33709026140E+02  0.51100000000E-03 0.  1.
        -12    1    3    3    0    0 -0.23610911135E+01  0.32438779731E+00 -0.20926544047E+01  0.31716212174E+01  0.00000000000E+00 0.  1.
</event>
<event>
 7    1  0.1634068E-009  0.4778727E+02  0.7816164E-02  0.1312668E+00
        -11   -1    0    0    0    0  0.00000000000E+00  0.00000000000E+00  0.45593999997E+02  0.45594000000E+02  0.51100000000E-03 0. -1.
         11   -1    0    0    0    0 -0.00000000000E+00 -0.00000000000E+00 -0.45593999997E+02  0.45594000000E+02  0.51100000000E-03 0.  1.
    9900012    2    1    2    0    0 -0.31885434393E+02 -0.21174688947E+02 -0.20459100220E+02  0.47787272353E+02  0.20000005968E+02 0.  0.
         12    1    1    2    0    0  0.31885434393E+02  0.21174688947E+02  0.20459100220E+02  0.43400727647E+02  0.00000000000E+00 0. -1.
         11    1    3    3    0    0 -0.85512111985E+01 -0.10960915934E+02 -0.62622444170E+01  0.15247314402E+02  0.51100000000E-03 0. -1.
        -11    1    3    3    0    0 -0.91292400767E+01 -0.11633596435E+02 -0.91937110196E+01  0.17412866305E+02  0.51100000000E-03 0.  1.
         12    1    3    3    0    0 -0.14204983118E+02  0.14198234226E+01 -0.50031447830E+01  0.15127091646E+02  0.00000000000E+00 0. -1.
</event>
<event>
 7    1  0.1634068E-009  0.4778728E+02  0.7816164E-02  0.1312668E+00
        -11   -1    0    0    0    0  0.00000000000E+00  0.00000000000E+00  0.45593999997E+02  0.45594000000E+02  0.51100000000E-03 0.  1.
         11   -1    0    0    0    0 -0.00000000000E+00 -0.00000000000E+00 -0.45593999997E+02  0.45594000000E+02  0.51100000000E-03 0. -1.
    9900012    2    1    2    0    0 -0.19225445233E+02  0.15229774731E+02  0.35805851660E+02  0.47787276552E+02  0.20000025109E+02 0.  0.
         12    1    1    2    0    0  0.19225445233E+02 -0.15229774731E+02 -0.35805851660E+02  0.43400723448E+02  0.00000000000E+00 0. -1.
         11    1    3    3    0    0  0.21686487703E+01  0.10127168792E+01  0.89300254437E+00  0.25546206708E+01  0.51100000000E-03 0. -1.
        -11    1    3    3    0    0 -0.13592643315E+02  0.23537166942E+01  0.22400881189E+02  0.26307782363E+02  0.51100000000E-03 0.  1.
         12    1    3    3    0    0 -0.78014506883E+01  0.11863341157E+02  0.12511967926E+02  0.18924873517E+02  0.00000000000E+00 0. -1.
</event>
<event>
 7    1  0.1634068E-009  0.4778728E+02  0.7816164E-02  0.1312668E+00
        -11   -1    0    0    0    0  0.00000000000E+00  0.00000000000E+00  0.45593999997E+02  0.45594000000E+02  0.51100000000E-03 0. -1.
         11   -1    0    0    0    0 -0.00000000000E+00 -0.00000000000E+00 -0.45593999997E+02  0.45594000000E+02  0.51100000000E-03 0.  1.
    9900012    2    1    2    0    0  0.41372088428E+02 -0.71817836681E+01 -0.10972467534E+02  0.47787276950E+02  0.20000026925E+02 0.  0.
         12    1    1    2    0    0 -0.41372088428E+02  0.71817836681E+01  0.10972467534E+02  0.43400723050E+02  0.00000000000E+00 0. -1.
         11    1    3    3    0    0  0.62990110388E+01  0.71040549685E+00  0.51862734467E+01  0.81902166371E+01  0.51100000000E-03 0. -1.
        -11    1    3    3    0    0  0.14339873260E+02 -0.13731410455E+01 -0.59725249600E+01  0.15594503394E+02  0.51100000000E-03 0.  1.
        -12    1    3    3    0    0  0.20733204128E+02 -0.65190481194E+01 -0.10186216020E+02  0.24002556918E+02  0.00000000000E+00 0.  1.
</event>
<event>
 7    1  0.1634068E-009  0.4778727E+02  0.7816164E-02  0.1312668E+00
        -11   -1    0    0    0    0  0.00000000000E+00  0.00000000000E+00  0.45593999997E+02  0.45594000000E+02  0.51100000000E-03 0. -1.
         11   -1    0    0    0    0 -0.00000000000E+00 -0.00000000000E+00 -0.45593999997E+02  0.45594000000E+02  0.51100000000E-03 0.  1.
    9900012    2    1    2    0    0 -0.12176293777E+02 -0.34243645851E+02 -0.23722008928E+02  0.47787272830E+02  0.20000008140E+02 0.  0.
         12    1    1    2    0    0  0.12176293777E+02  0.34243645851E+02  0.23722008928E+02  0.43400727170E+02  0.00000000000E+00 0. -1.
         11    1    3    3    0    0 -0.10215845551E+02 -0.15644153656E+02 -0.10424175867E+02  0.21395478183E+02  0.51100000000E-03 0. -1.
        -11    1    3    3    0    0  0.13194285862E+01 -0.19327737017E+02 -0.10600947155E+02  0.22083532119E+02  0.51100000000E-03 0.  1.
         12    1    3    3    0    0 -0.32798768122E+01  0.72824482116E+00 -0.26968859060E+01  0.43082625284E+01  0.00000000000E+00 0. -1.
</event>
<event>
 7    1  0.1634068E-009  0.4778728E+02  0.7816164E-02  0.1312668E+00
        -11   -1    0    0    0    0  0.00000000000E+00  0.00000000000E+00  0.45593999997E+02  0.45594000000E+02  0.51100000000E-03 0.  1.
         11   -1    0    0    0    0 -0.00000000000E+00 -0.00000000000E+00 -0.45593999997E+02  0.45594000000E+02  0.51100000000E-03 0. -1.
    9900012    2    1    2    0    0 -0.28689036455E+02  0.24619537336E+02  0.21317608991E+02  0.47787275531E+02  0.20000020458E+02 0.  0.
         12    1    1    2    0    0  0.28689036455E+02 -0.24619537336E+02 -0.21317608991E+02  0.43400724469E+02  0.00000000000E+00 0. -1.
         11    1    3    3    0    0 -0.15278018153E+02  0.81508555220E+01  0.46900091787E+01  0.17940191493E+02  0.51100000000E-03 0.  1.
        -11    1    3    3    0    0 -0.13277943309E+02  0.11528760623E+02  0.17523098654E+02  0.24824888453E+02  0.51100000000E-03 0. -1.
         12    1    3    3    0    0 -0.13307499304E+00  0.49399211910E+01 -0.89549884208E+00  0.50221955860E+01  0.00000000000E+00 0. -1.
</event>
<event>
 7    1  0.1634068E-009  0.4778727E+02  0.7816164E-02  0.1312668E+00
        -11   -1    0    0    0    0  0.00000000000E+00  0.00000000000E+00  0.45593999997E+02  0.45594000000E+02  0.51100000000E-03 0.  1.
         11   -1    0    0    0    0 -0.00000000000E+00 -0.00000000000E+00 -0.45593999997E+02  0.45594000000E+02  0.51100000000E-03 0. -1.
    9900012    2    1    2    0    0 -0.73582436020E+01 -0.36377193886E+02  0.22498428879E+02  0.47787270905E+02  0.19999999366E+02 0.  0.
         12    1    1    2    0    0  0.73582436020E+01  0.36377193886E+02 -0.22498428879E+02  0.43400729095E+02  0.00000000000E+00 0. -1.
         11    1    3    3    0    0  0.16653076545E+01  0.26892166808E+00  0.37032308285E+01  0.40693349921E+01  0.51100000000E-03 0.  1.
        -11    1    3    3    0    0  0.27428436578E+00 -0.22559644323E+02  0.98809336583E+01  0.24630177306E+02  0.51100000000E-03 0. -1.
        -12    1    3    3    0    0 -0.92978356223E+01 -0.14086471231E+02  0.89142643921E+01  0.19087758607E+02  0.00000000000E+00 0.  1.
</event>
<event>
 7    1  0.1634068E-009  0.4778727E+02  0.7816164E-02  0.1312668E+00
        -11   -1    0    0    0    0  0.00000000000E+00  0.00000000000E+00  0.45593999997E+02  0.45594000000E+02  0.51100000000E-03 0.  1.
         11   -1    0    0    0    0 -0.00000000000E+00 -0.00000000000E+00 -0.45593999997E+02  0.45594000000E+02  0.51100000000E-03 0. -1.
    9900012    2    1    2    0    0  0.20387401353E+02 -0.60793174786E+01  0.37828811643E+02  0.47787271605E+02  0.20000002555E+02 0.  0.
         12    1    1    2    0    0 -0.20387401353E+02  0.60793174786E+01 -0.37828811643E+02  0.43400728395E+02  0.00000000000E+00 0. -1.
         11    1    3    3    0    0 -0.17032823555E+01 -0.42329728861E+01  0.42222571714E+01  0.62166458898E+01  0.51100000000E-03 0. -1.
        -11    1    3    3    0    0  0.82674698960E+01  0.16539021496E+01  0.55372589909E+01  0.10087005908E+02  0.51100000000E-03 0.  1.
        -12    1    3    3    0    0  0.13823213813E+02 -0.35002467422E+01  0.28069295480E+02  0.31483619807E+02  0.00000000000E+00 0.  1.
</event>
<event>
 7    1  0.2332269E-009  0.4778727E+02  0.7816164E-02  0.1312668E+00
        -11   -1    0    0    0    0  0.00000000000E+00  0.00000000000E+00  0.45593999997E+02  0.45594000000E+02  0.51100000000E-03 0.  1.
         11   -1    0    0    0    0 -0.00000000000E+00 -0.00000000000E+00 -0.45593999997E+02  0.45594000000E+02  0.51100000000E-03 0. -1.
    9900012    2    1    2    0    0  0.21155508923E+02 -0.24030644252E+02  0.29301807819E+02  0.47787270024E+02  0.19999995348E+02 0.  0.
         12    1    1    2    0    0 -0.21155508923E+02  0.24030644252E+02 -0.29301807819E+02  0.43400729976E+02  0.00000000000E+00 0. -1.
         11    1    3    3    0    0  0.17978523174E+01  0.15429452005E+01 -0.69799609465E+00  0.24698485087E+01  0.51100000000E-03 0. -1.
        -11    1    3    3    0    0  0.16328504125E+02 -0.12931668370E+02  0.16464551897E+02  0.26550509661E+02  0.51100000000E-03 0.  1.
        -12    1    3    3    0    0  0.30291524805E+01 -0.12641921083E+02  0.13535252017E+02  0.18766911855E+02  0.00000000000E+00 0.  1.
</event>
<event>
 7    1  0.1634068E-009  0.4778727E+02  0.7816164E-02  0.1312668E+00
        -11   -1    0    0    0    0  0.00000000000E+00  0.00000000000E+00  0.45593999997E+02  0.45594000000E+02  0.51100000000E-03 0.  1.
         11   -1    0    0    0    0 -0.00000000000E+00 -0.00000000000E+00 -0.45593999997E+02  0.45594000000E+02  0.51100000000E-03 0. -1.
    9900012    2    1    2    0    0  0.24243182999E+02  0.24410264380E+02  0.26458086167E+02  0.47787271289E+02  0.20000001115E+02 0.  0.
         12    1    1    2    0    0 -0.24243182999E+02 -0.24410264380E+02 -0.26458086167E+02  0.43400728711E+02  0.00000000000E+00 0. -1.
         11    1    3    3    0    0  0.17027466466E+02  0.84596452173E+01  0.14306980556E+02  0.23794745310E+02  0.51100000000E-03 0. -1.
        -11    1    3    3    0    0  0.93982014304E+01  0.15914182305E+02  0.11205899725E+02  0.21613874652E+02  0.51100000000E-03 0.  1.
        -12    1    3    3    0    0 -0.21824848973E+01  0.36436857848E-01  0.94520588567E+00  0.23786513275E+01  0.00000000000E+00 0.  1.
</event>
<event>
 7    1  0.1634068E-009  0.4778728E+02  0.7816164E-02  0.1312668E+00
        -11   -1    0    0    0    0  0.00000000000E+00  0.00000000000E+00  0.45593999997E+02  0.45594000000E+02  0.51100000000E-03 0.  1.
         11   -1    0    0    0    0 -0.00000000000E+00 -0.00000000000E+00 -0.45593999997E+02  0.45594000000E+02  0.51100000000E-03 0. -1.
    9900012    2    1    2    0    0 -0.18223516118E+02 -0.17547853859E+02  0.35264697118E+02  0.47787279066E+02  0.20000036572E+02 0.  0.
         12    1    1    2    0    0  0.18223516118E+02  0.17547853859E+02 -0.35264697118E+02  0.43400720934E+02  0.00000000000E+00 0. -1.
         11    1    3    3    0    0 -0.71883649777E+01  0.10819528960E+01  0.62002446575E+01  0.95543836638E+01  0.51100000000E-03 0. -1.
        -11    1    3    3    0    0 -0.11977757953E+02 -0.10684622289E+02  0.23611445368E+02  0.28550449938E+02  0.51100000000E-03 0.  1.
         12    1    3    3    0    0  0.94260681247E+00 -0.79451844661E+01  0.54530070927E+01  0.96824454636E+01  0.00000000000E+00 0. -1.
</event>
<event>
 7    1  0.1634068E-009  0.4778727E+02  0.7816164E-02  0.1312668E+00
        -11   -1    0    0    0    0  0.00000000000E+00  0.00000000000E+00  0.45593999997E+02  0.45594000000E+02  0.51100000000E-03 0.  1.
         11   -1    0    0    0    0 -0.00000000000E+00 -0.00000000000E+00 -0.45593999997E+02  0.45594000000E+02  0.51100000000E-03 0. -1.
    9900012    2    1    2    0    0 -0.10068778727E+02 -0.29595786220E+02  0.30105357306E+02  0.47787269527E+02  0.19999993083E+02 0.  0.
         12    1    1    2    0    0  0.10068778727E+02  0.29595786220E+02 -0.30105357306E+02  0.43400730473E+02  0.00000000000E+00 0. -1.
         11    1    3    3    0    0  0.24127147251E+01 -0.72515378663E+01  0.33203825544E+01  0.83325226876E+01  0.51100000000E-03 0.  1.
        -11    1    3    3    0    0  0.65062903004E+00 -0.64190087433E+01  0.11684638396E+01  0.65568513317E+01  0.51100000000E-03 0. -1.
        -12    1    3    3    0    0 -0.13132122482E+02 -0.15925239610E+02  0.25616510912E+02  0.32897895508E+02  0.00000000000E+00 0.  1.
</event>
<event>
 7    1  0.1711005E-009  0.4778727E+02  0.7816164E-02  0.1312668E+00
        -11   -1    0    0    0    0  0.00000000000E+00  0.00000000000E+00  0.45593999997E+02  0.45594000000E+02  0.51100000000E-03 0. -1.
         11   -1    0    0    0    0 -0.00000000000E+00 -0.00000000000E+00 -0.45593999997E+02  0.45594000000E+02  0.51100000000E-03 0.  1.
    9900012    2    1    2    0    0  0.37599192800E+02  0.20228559119E+01 -0.21583142503E+02  0.47787270910E+02  0.19999999389E+02 0.  0.
         12    1    1    2    0    0 -0.37599192800E+02 -0.20228559119E+01  0.21583142503E+02  0.43400729090E+02  0.00000000000E+00 0. -1.
         11    1    3    3    0    0  0.97958183172E+01 -0.51378730721E+01 -0.47330975837E+01  0.12031542262E+02  0.51100000000E-03 0. -1.
        -11    1    3    3    0    0  0.56918573068E+00  0.37699901696E+01 -0.37396955505E+01  0.53406105780E+01  0.51100000000E-03 0.  1.
        -12    1    3    3    0    0  0.27234188752E+02  0.33907388144E+01 -0.13110349368E+02  0.30415118070E+02  0.00000000000E+00 0.  1.
</event>
<event>
 7    1  0.1634068E-009  0.4778727E+02  0.7816164E-02  0.1312668E+00
        -11   -1    0    0    0    0  0.00000000000E+00  0.00000000000E+00  0.45593999997E+02  0.45594000000E+02  0.51100000000E-03 0.  1.
         11   -1    0    0    0    0 -0.00000000000E+00 -0.00000000000E+00 -0.45593999997E+02  0.45594000000E+02  0.51100000000E-03 0. -1.
    9900012    2    1    2    0    0  0.21520969650E+02  0.23448386692E+02  0.29506684480E+02  0.47787269567E+02  0.19999993265E+02 0.  0.
         12    1    1    2    0    0 -0.21520969650E+02 -0.23448386692E+02 -0.29506684480E+02  0.43400730433E+02  0.00000000000E+00 0. -1.
         11    1    3    3    0    0  0.94328978518E+01 -0.37855666127E+00  0.68268628731E+01  0.11650275704E+02  0.51100000000E-03 0. -1.
        -11    1    3    3    0    0  0.96924164319E+01  0.12407947728E+02  0.16963515440E+02  0.23144350487E+02  0.51100000000E-03 0.  1.
        -12    1    3    3    0    0  0.23956553659E+01  0.11418995625E+02  0.57163061667E+01  0.12992643376E+02  0.00000000000E+00 0.  1.
</event>
<event>
 7    1  0.1634068E-009  0.4778729E+02  0.7816164E-02  0.1312668E+00
        -11   -1    0    0    0    0  0.00000000000E+00  0.00000000000E+00  0.45593999997E+02  0.45594000000E+02  0.51100000000E-03 0. -1.
         11   -1    0    0    0    0 -0.00000000000E+00 -0.00000000000E+00 -0.45593999997E+02  0.45594000000E+02  0.51100000000E-03 0.  1.
    9900012    2    1    2    0    0 -0.28120602958E+02  0.27750029453E+02 -0.17966330934E+02  0.47787291566E+02  0.20000093564E+02 0.  0.
         12    1    1    2    0    0  0.28120602958E+02 -0.27750029453E+02  0.17966330934E+02  0.43400708434E+02  0.00000000000E+00 0. -1.
         11    1    3    3    0    0 -0.84093894922E+01  0.87754571798E+01  0.11403596497E+01  0.12207657463E+02  0.51100000000E-03 0. -1.
        -11    1    3    3    0    0 -0.16160968884E+02  0.19768684766E+02 -0.13464899929E+02  0.28866612947E+02  0.51100000000E-03 0.  1.
         12    1    3    3    0    0 -0.35502445810E+01 -0.79411249279E+00 -0.56417906552E+01  0.67130211554E+01  0.00000000000E+00 0. -1.
</event>
<event>
 7    1  0.1634068E-009  0.4778728E+02  0.7816164E-02  0.1312668E+00
        -11   -1    0    0    0    0  0.00000000000E+00  0.00000000000E+00  0.45593999997E+02  0.45594000000E+02  0.51100000000E-03 0.  1.
         11   -1    0    0    0    0 -0.00000000000E+00 -0.00000000000E+00 -0.45593999997E+02  0.45594000000E+02  0.51100000000E-03 0. -1.
    9900012    2    1    2    0    0 -0.15636999459E+02 -0.33678560359E+02  0.22469118632E+02  0.47787280282E+02  0.20000042120E+02 0.  0.
         12    1    1    2    0    0  0.15636999459E+02  0.33678560359E+02 -0.22469118632E+02  0.43400719718E+02  0.00000000000E+00 0. -1.
         11    1    3    3    0    0  0.14835517410E+01 -0.86260019960E+01  0.90357627407E+01  0.12579898440E+02  0.51100000000E-03 0.  1.
        -11    1    3    3    0    0 -0.48272171020E+01 -0.13817367135E+02  0.14868093912E+01  0.14711636955E+02  0.51100000000E-03 0. -1.
        -12    1    3    3    0    0 -0.12293334098E+02 -0.11235191228E+02  0.11946546500E+02  0.20495744887E+02  0.00000000000E+00 0.  1.
</event>
<event>
 7    1  0.1634068E-009  0.4778728E+02  0.7816164E-02  0.1312668E+00
        -11   -1    0    0    0    0  0.00000000000E+00  0.00000000000E+00  0.45593999997E+02  0.45594000000E+02  0.51100000000E-03 0.  1.
         11   -1    0    0    0    0 -0.00000000000E+00 -0.00000000000E+00 -0.45593999997E+02  0.45594000000E+02  0.51100000000E-03 0. -1.
    9900012    2    1    2    0    0 -0.18573042936E+02 -0.34760846815E+02  0.18175483857E+02  0.47787278709E+02  0.20000034944E+02 0.  0.
         12    1    1    2    0    0  0.18573042936E+02  0.34760846815E+02 -0.18175483857E+02  0.43400721291E+02  0.00000000000E+00 0. -1.
         11    1    3    3    0    0  0.14271068593E+01 -0.69497339125E+01 -0.86523859505E+00  0.71473123291E+01  0.51100000000E-03 0. -1.
        -11    1    3    3    0    0 -0.10781018256E+02 -0.68432770040E+01  0.46524529556E+01  0.13590662734E+02  0.51100000000E-03 0.  1.
        -12    1    3    3    0    0 -0.92191315391E+01 -0.20967835898E+02  0.14388269496E+02  0.27049303645E+02  0.00000000000E+00 0.  1.
</event>
<event>
 7    1  0.1634068E-009  0.4778727E+02  0.7816164E-02  0.1312668E+00
        -11   -1    0    0    0    0  0.00000000000E+00  0.00000000000E+00  0.45593999997E+02  0.45594000000E+02  0.51100000000E-03 0.  1.
         11   -1    0    0    0    0 -0.00000000000E+00 -0.00000000000E+00 -0.45593999997E+02  0.45594000000E+02  0.51100000000E-03 0. -1.
    9900012    2    1    2    0    0 -0.11717968505E+02  0.33109943291E+02  0.25495968654E+02  0.47787267884E+02  0.19999985590E+02 0.  0.
         12    1    1    2    0    0  0.11717968505E+02 -0.33109943291E+02 -0.25495968654E+02  0.43400732116E+02  0.00000000000E+00 0. -1.
         11    1    3    3    0    0  0.78632429823E+00  0.11853411641E+02  0.43370165210E+01  0.12646398143E+02  0.51100000000E-03 0. -1.
        -11    1    3    3    0    0 -0.11624856762E+02  0.22685880916E+02  0.16955957498E+02  0.30615208355E+02  0.51100000000E-03 0.  1.
         12    1    3    3    0    0 -0.87943604170E+00 -0.14293492663E+01  0.42029946352E+01  0.45256613859E+01  0.00000000000E+00 0. -1.
</event>
<event>
 7    1  0.1634068E-009  0.4778728E+02  0.7816164E-02  0.1312668E+00
        -11   -1    0    0    0    0  0.00000000000E+00  0.00000000000E+00  0.45593999997E+02  0.45594000000E+02  0.51100000000E-03 0. -1.
         11   -1    0    0    0    0 -0.00000000000E+00 -0.00000000000E+00 -0.45593999997E+02  0.45594000000E+02  0.51100000000E-03 0.  1.
    9900012    2    1    2    0    0  0.35388907743E+02  0.64906553467E+01  0.24271783418E+02  0.47787275716E+02  0.20000021299E+02 0.  0.
         12    1    1    2    0    0 -0.35388907743E+02 -0.64906553467E+01 -0.24271783418E+02  0.43400724284E+02  0.00000000000E+00 0. -1.
         11    1    3    3    0    0  0.24563149346E+02  0.10603704782E+02  0.20910883708E+02  0.33956618185E+02  0.51100000000E-03 0.  1.
        -11    1    3    3    0    0 -0.74205181582E+00 -0.15659762172E-01 -0.57936959753E+00  0.94157077120E+00  0.51100000000E-03 0. -1.
        -12    1    3    3    0    0  0.11567810214E+02 -0.40973896734E+01  0.39402693076E+01  0.12889086759E+02  0.00000000000E+00 0.  1.
</event>
<event>
 7    1  0.1634068E-009  0.4778727E+02  0.7816164E-02  0.1312668E+00
        -11   -1    0    0    0    0  0.00000000000E+00  0.00000000000E+00  0.45593999997E+02  0.45594000000E+02  0.51100000000E-03 0.  1.
         11   -1    0    0    0    0 -0.00000000000E+00 -0.00000000000E+00 -0.45593999997E+02  0.45594000000E+02  0.51100000000E-03 0. -1.
    9900012    2    1    2    0    0  0.72428437259E+01 -0.26570277118E+01  0.42709541069E+02  0.47787268671E+02  0.19999989180E+02 0.  0.
         12    1    1    2    0    0 -0.72428437259E+01  0.26570277118E+01 -0.42709541069E+02  0.43400731329E+02  0.00000000000E+00 0. -1.
         11    1    3    3    0    0  0.10967014063E+02  0.20194507632E+01  0.23076948403E+02  0.25630043439E+02  0.51100000000E-03 0.  1.
        -11    1    3    3    0    0 -0.17962028649E+01  0.60998625897E+00  0.17811030673E+00  0.19052956491E+01  0.51100000000E-03 0. -1.
        -12    1    3    3    0    0 -0.19279674719E+01 -0.52864647339E+01  0.19454482360E+02  0.20251929584E+02  0.00000000000E+00 0.  1.
</event>
<event>
 7    1  0.1634068E-009  0.4778727E+02  0.7816164E-02  0.1312668E+00
        -11   -1    0    0    0    0  0.00000000000E+00  0.00000000000E+00  0.45593999997E+02  0.45594000000E+02  0.51100000000E-03 0.  1.
         11   -1    0    0    0    0 -0.00000000000E+00 -0.00000000000E+00 -0.45593999997E+02  0.45594000000E+02  0.51100000000E-03 0. -1.
    9900012    2    1    2    0    0  0.22595580270E+02 -0.39472739641E+01  0.36844020818E+02  0.47787273168E+02  0.20000009684E+02 0.  0.
         12    1    1    2    0    0 -0.22595580270E+02  0.39472739641E+01 -0.36844020818E+02  0.43400726832E+02  0.00000000000E+00 0. -1.
         11    1    3    3    0    0  0.14693745865E+01  0.21597463789E+01  0.66725606011E+01  0.71656563784E+01  0.51100000000E-03 0. -1.
        -11    1    3    3    0    0  0.21821958740E+02 -0.43832773641E+01  0.18905213348E+02  0.29203049425E+02  0.51100000000E-03 0.  1.
         12    1    3    3    0    0 -0.69575305635E+00 -0.17237429789E+01  0.11266246869E+02  0.11418567365E+02  0.00000000000E+00 0. -1.
</event>
<event>
 7    1  0.2159734E-009  0.4778727E+02  0.7816164E-02  0.1312668E+00
        -11   -1    0    0    0    0  0.00000000000E+00  0.00000000000E+00  0.45593999997E+02  0.45594000000E+02  0.51100000000E-03 0. -1.
         11   -1    0    0    0    0 -0.00000000000E+00 -0.00000000000E+00 -0.45593999997E+02  0.45594000000E+02  0.51100000000E-03 0.  1.
    9900012    2    1    2    0    0 -0.30128857310E+01 -0.42766772838E+02 -0.67490021759E+01  0.47787269940E+02  0.19999994962E+02 0.  0.
         12    1    1    2    0    0  0.30128857310E+01  0.42766772838E+02  0.67490021759E+01  0.43400730060E+02  0.00000000000E+00 0. -1.
         11    1    3    3    0    0  0.39233209745E+01 -0.73394508333E+01  0.21873483413E+01  0.86049101698E+01  0.51100000000E-03 0. -1.
        -11    1    3    3    0    0 -0.40874473734E+01 -0.30843089896E+02 -0.31535713513E+01  0.31272167064E+02  0.51100000000E-03 0.  1.
        -12    1    3    3    0    0 -0.28487593320E+01 -0.45842321091E+01 -0.57827791658E+01  0.79101927058E+01  0.00000000000E+00 0.  1.
</event>
<event>
 7    1  0.1634068E-009  0.4778724E+02  0.7816164E-02  0.1312668E+00
        -11   -1    0    0    0    0  0.00000000000E+00  0.00000000000E+00  0.45593999997E+02  0.45594000000E+02  0.51100000000E-03 0. -1.
         11   -1    0    0    0    0 -0.00000000000E+00 -0.00000000000E+00 -0.45593999997E+02  0.45594000000E+02  0.51100000000E-03 0.  1.
    9900012    2    1    2    0    0 -0.25965926827E+02 -0.80567102550E+01 -0.33830251605E+02  0.47787241254E+02  0.19999864172E+02 0.  0.
         12    1    1    2    0    0  0.25965926827E+02  0.80567102550E+01  0.33830251605E+02  0.43400758746E+02  0.00000000000E+00 0. -1.
         11    1    3    3    0    0  0.19475048490E+01 -0.15400529218E+01 -0.88058422557E+01  0.91491746203E+01  0.51100000000E-03 0. -1.
        -11    1    3    3    0    0 -0.11280794753E+02  0.49505151677E+00 -0.11179016335E+02  0.15889361622E+02  0.51100000000E-03 0.  1.
         12    1    3    3    0    0 -0.16632636923E+02 -0.70117088499E+01 -0.13845393014E+02  0.22748705012E+02  0.00000000000E+00 0. -1.
</event>
<event>
 7    1  0.1634068E-009  0.4778728E+02  0.7816164E-02  0.1312668E+00
        -11   -1    0    0    0    0  0.00000000000E+00  0.00000000000E+00  0.45593999997E+02  0.45594000000E+02  0.51100000000E-03 0.  1.
         11   -1    0    0    0    0 -0.00000000000E+00 -0.00000000000E+00 -0.45593999997E+02  0.45594000000E+02  0.51100000000E-03 0. -1.
    9900012    2    1    2    0    0  0.32795144484E+02 -0.47094958886E+00  0.28423223038E+02  0.47787275315E+02  0.20000019473E+02 0.  0.
         12    1    1    2    0    0 -0.32795144484E+02  0.47094958886E+00 -0.28423223038E+02  0.43400724685E+02  0.00000000000E+00 0. -1.
         11    1    3    3    0    0  0.42148132623E+00  0.69783415031E-01  0.50462130420E+01  0.50642652537E+01  0.51100000000E-03 0. -1.
        -11    1    3    3    0    0  0.29852700932E+02 -0.45572345386E+01  0.16625675682E+02  0.34472673696E+02  0.51100000000E-03 0.  1.
        -12    1    3    3    0    0  0.25209622258E+01  0.40165015347E+01  0.67513343145E+01  0.82503363658E+01  0.00000000000E+00 0.  1.
</event>
<event>
 7    1  0.1634068E-009  0.4778727E+02  0.7816164E-02  0.1312668E+00
        -11   -1    0    0    0    0  0.00000000000E+00  0.00000000000E+00  0.45593999997E+02  0.45594000000E+02  0.51100000000E-03 0.  1.
         11   -1    0    0    0    0 -0.00000000000E+00 -0.00000000000E+00 -0.45593999997E+02  0.45594000000E+02  0.51100000000E-03 0. -1.
    9900012    2    1    2    0    0  0.38940973265E+02  0.18821019788E+02 -0.36045915907E+01  0.47787271144E+02  0.20000000454E+02 0.  0.
         12    1    1    2    0    0 -0.38940973265E+02 -0.18821019788E+02  0.36045915907E+01  0.43400728856E+02  0.00000000000E+00 0. -1.
         11    1    3    3    0    0  0.10039055994E+02  0.11760054591E+02 -0.14372316824E+01  0.15528913820E+02  0.51100000000E-03 0. -1.
        -11    1    3    3    0    0  0.17825730728E+02  0.92297158105E+01 -0.48635730506E+01  0.20654265250E+02  0.51100000000E-03 0.  1.
         12    1    3    3    0    0  0.11076186543E+02 -0.21687506142E+01  0.26962131422E+01  0.11604092074E+02  0.00000000000E+00 0. -1.
</event>
<event>
 7    1  0.1634068E-009  0.4778727E+02  0.7816164E-02  0.1312668E+00
        -11   -1    0    0    0    0  0.00000000000E+00  0.00000000000E+00  0.45593999997E+02  0.45594000000E+02  0.51100000000E-03 0.  1.
         11   -1    0    0    0    0 -0.00000000000E+00 -0.00000000000E+00 -0.45593999997E+02  0.45594000000E+02  0.51100000000E-03 0. -1.
    9900012    2    1    2    0    0 -0.18006558612E+02 -0.23068112593E+02  0.32050733558E+02  0.47787268517E+02  0.19999988478E+02 0.  0.
         12    1    1    2    0    0  0.18006558612E+02  0.23068112593E+02 -0.32050733558E+02  0.43400731483E+02  0.00000000000E+00 0. -1.
         11    1    3    3    0    0 -0.24641857494E+01  0.19894732442E+00 -0.14275349416E+01  0.28547587842E+01  0.51100000000E-03 0. -1.
        -11    1    3    3    0    0 -0.10777347048E+02 -0.77212919462E+01  0.18953018874E+02  0.23129774824E+02  0.51100000000E-03 0.  1.
         12    1    3    3    0    0 -0.47650258143E+01 -0.15545767972E+02  0.14525249625E+02  0.21802734909E+02  0.00000000000E+00 0. -1.
</event>
<event>
 7    1  0.1634068E-009  0.4778727E+02  0.7816164E-02  0.1312668E+00
        -11   -1    0    0    0    0  0.00000000000E+00  0.00000000000E+00  0.45593999997E+02  0.45594000000E+02  0.51100000000E-03 0.  1.
         11   -1    0    0    0    0 -0.00000000000E+00 -0.00000000000E+00 -0.45593999997E+02  0.45594000000E+02  0.51100000000E-03 0. -1.
    9900012    2    1    2    0    0 -0.35872724112E+02 -0.48654380028E+00  0.24424053204E+02  0.47787269188E+02  0.19999991537E+02 0.  0.
         12    1    1    2    0    0  0.35872724112E+02  0.48654380028E+00 -0.24424053204E+02  0.43400730812E+02  0.00000000000E+00 0. -1.
         11    1    3    3    0    0 -0.81779225750E+01  0.29843198407E+01  0.15144770701E+02  0.17468504870E+02  0.51100000000E-03 0. -1.
        -11    1    3    3    0    0 -0.95164160977E+01 -0.19792102346E+01  0.69102729812E+01  0.11926077370E+02  0.51100000000E-03 0.  1.
         12    1    3    3    0    0 -0.18178385439E+02 -0.14916534064E+01  0.23690095223E+01  0.18392686948E+02  0.00000000000E+00 0. -1.
</event>
<event>
 7    1  0.1634068E-009  0.4778727E+02  0.7816164E-02  0.1312668E+00
        -11   -1    0    0    0    0  0.00000000000E+00  0.00000000000E+00  0.45593999997E+02  0.45594000000E+02  0.51100000000E-03 0.  1.
         11   -1    0    0    0    0 -0.00000000000E+00 -0.00000000000E+00 -0.45593999997E+02  0.45594000000E+02  0.51100000000E-03 0. -1.
    9900012    2    1    2    0    0  0.73909453898E+01  0.25305994441E+02  0.34476133258E+02  0.47787271979E+02  0.20000004259E+02 0.  0.
         12    1    1    2    0    0 -0.73909453898E+01 -0.25305994441E+02 -0.34476133258E+02  0.43400728021E+02  0.00000000000E+00 0. -1.
         11    1    3    3    0    0  0.18491855102E+01 -0.15338928959E+01  0.24390967674E+01  0.34236687587E+01  0.51100000000E-03 0. -1.
        -11    1    3    3    0    0  0.29618832396E+01  0.19964696789E+01 -0.20617794387E+00  0.35778699123E+01  0.51100000000E-03 0.  1.
        -12    1    3    3    0    0  0.25798766399E+01  0.24843417658E+02  0.32243214434E+02  0.40785733308E+02  0.00000000000E+00 0.  1.
</event>
<event>
 7    1  0.1634068E-009  0.4778727E+02  0.7816164E-02  0.1312668E+00
        -11   -1    0    0    0    0  0.00000000000E+00  0.00000000000E+00  0.45593999997E+02  0.45594000000E+02  0.51100000000E-03 0.  1.
         11   -1    0    0    0    0 -0.00000000000E+00 -0.00000000000E+00 -0.45593999997E+02  0.45594000000E+02  0.51100000000E-03 0. -1.
    9900012    2    1    2    0    0  0.38737713754E+02  0.19459076438E+02 -0.20873897590E+01  0.47787270528E+02  0.19999997644E+02 0.  0.
         12    1    1    2    0    0 -0.38737713754E+02 -0.19459076438E+02  0.20873897590E+01  0.43400729472E+02  0.00000000000E+00 0. -1.
         11    1    3    3    0    0  0.22977211683E+01 -0.10645776970E+01  0.44049875451E+01  0.50810199541E+01  0.51100000000E-03 0. -1.
        -11    1    3    3    0    0  0.24529252048E+02  0.12060912968E+02 -0.19417673302E+01  0.27402924812E+02  0.51100000000E-03 0.  1.
        -12    1    3    3    0    0  0.11910740538E+02  0.84627411661E+01 -0.45506099739E+01  0.15303325761E+02  0.00000000000E+00 0.  1.
</event>
<event>
 7    1  0.1634068E-009  0.4778727E+02  0.7816164E-02  0.1312668E+00
        -11   -1    0    0    0    0  0.00000000000E+00  0.00000000000E+00  0.45593999997E+02  0.45594000000E+02  0.51100000000E-03 0. -1.
         11   -1    0    0    0    0 -0.00000000000E+00 -0.00000000000E+00 -0.45593999997E+02  0.45594000000E+02  0.51100000000E-03 0.  1.
    9900012    2    1    2    0    0  0.14518590982E+02 -0.75444998978E+01 -0.40198435645E+02  0.47787271998E+02  0.20000004347E+02 0.  0.
         12    1    1    2    0    0 -0.14518590982E+02  0.75444998978E+01  0.40198435645E+02  0.43400728002E+02  0.00000000000E+00 0. -1.
         11    1    3    3    0    0  0.87987070504E+01 -0.61198875440E+01 -0.58707182390E+01  0.12220294686E+02  0.51100000000E-03 0. -1.
        -11    1    3    3    0    0  0.60493021633E+01 -0.35183105938E+01 -0.22938480679E+02  0.23982211371E+02  0.51100000000E-03 0.  1.
        -12    1    3    3    0    0 -0.32941823150E+00  0.20936982400E+01 -0.11389236727E+02  0.11584765941E+02  0.00000000000E+00 0.  1.
</event>
<event>
 7    1  0.1634068E-009  0.4778727E+02  0.7816164E-02  0.1312668E+00
        -11   -1    0    0    0    0  0.00000000000E+00  0.00000000000E+00  0.45593999997E+02  0.45594000000E+02  0.51100000000E-03 0.  1.
         11   -1    0    0    0    0 -0.00000000000E+00 -0.00000000000E+00 -0.45593999997E+02  0.45594000000E+02  0.51100000000E-03 0. -1.
    9900012    2    1    2    0    0  0.21174384761E+02  0.27725200077E+02  0.25818249086E+02  0.47787271029E+02  0.19999999932E+02 0.  0.
         12    1    1    2    0    0 -0.21174384761E+02 -0.27725200077E+02 -0.25818249086E+02  0.43400728971E+02  0.00000000000E+00 0. -1.
         11    1    3    3    0    0  0.62763650702E+00 -0.12634012791E+01  0.23571955012E+01  0.27470859595E+01  0.51100000000E-03 0. -1.
        -11    1    3    3    0    0  0.74745324040E+01  0.50277221483E+01  0.12985662763E+02  0.15804241909E+02  0.51100000000E-03 0.  1.
        -12    1    3    3    0    0  0.13072215850E+02  0.23960879208E+02  0.10475390821E+02  0.29235943161E+02  0.00000000000E+00 0.  1.
</event>
<event>
 7    1  0.1634068E-009  0.4778727E+02  0.7816164E-02  0.1312668E+00
        -11   -1    0    0    0    0  0.00000000000E+00  0.00000000000E+00  0.45593999997E+02  0.45594000000E+02  0.51100000000E-03 0.  1.
         11   -1    0    0    0    0 -0.00000000000E+00 -0.00000000000E+00 -0.45593999997E+02  0.45594000000E+02  0.51100000000E-03 0. -1.
    9900012    2    1    2    0    0 -0.59695670061E+01  0.41695244692E+02 -0.10463941130E+02  0.47787271617E+02  0.20000002612E+02 0.  0.
         12    1    1    2    0    0  0.59695670061E+01 -0.41695244692E+02  0.10463941130E+02  0.43400728383E+02  0.00000000000E+00 0. -1.
         11    1    3    3    0    0  0.16350116894E+01  0.87295771174E+01 -0.19379039155E+01  0.90903383721E+01  0.51100000000E-03 0. -1.
        -11    1    3    3    0    0 -0.84970248282E+01  0.57395553542E+01 -0.36653453194E+00  0.10260422721E+02  0.51100000000E-03 0.  1.
        -12    1    3    3    0    0  0.89244613266E+00  0.27226112221E+02 -0.81595026824E+01  0.28436510524E+02  0.00000000000E+00 0.  1.
</event>
<event>
 7    1  0.1634068E-009  0.4778727E+02  0.7816164E-02  0.1312668E+00
        -11   -1    0    0    0    0  0.00000000000E+00  0.00000000000E+00  0.45593999997E+02  0.45594000000E+02  0.51100000000E-03 0. -1.
         11   -1    0    0    0    0 -0.00000000000E+00 -0.00000000000E+00 -0.45593999997E+02  0.45594000000E+02  0.51100000000E-03 0.  1.
    9900012    2    1    2    0    0  0.22998402362E+02  0.36723539219E+02  0.24654364519E+01  0.47787271655E+02  0.20000002783E+02 0.  0.
         12    1    1    2    0    0 -0.22998402362E+02 -0.36723539219E+02 -0.24654364519E+01  0.43400728345E+02  0.00000000000E+00 0. -1.
         11    1    3    3    0    0  0.56591729175E+01  0.17448920191E+02  0.56824275902E+01  0.19203672501E+02  0.51100000000E-03 0. -1.
        -11    1    3    3    0    0  0.96677139483E+01  0.15241546856E+02  0.24700200291E+01  0.18217311623E+02  0.51100000000E-03 0.  1.
        -12    1    3    3    0    0  0.76715154964E+01  0.40330721720E+01 -0.56870111675E+01  0.10366287531E+02  0.00000000000E+00 0.  1.
</event>
<event>
 7    1  0.2167317E-009  0.4778727E+02  0.7816164E-02  0.1312668E+00
        -11   -1    0    0    0    0  0.00000000000E+00  0.00000000000E+00  0.45593999997E+02  0.45594000000E+02  0.51100000000E-03 0.  1.
         11   -1    0    0    0    0 -0.00000000000E+00 -0.00000000000E+00 -0.45593999997E+02  0.45594000000E+02  0.51100000000E-03 0. -1.
    9900012    2    1    2    0    0  0.30586952036E+02  0.28318356544E+02  0.12088522725E+02  0.47787270354E+02  0.19999996850E+02 0.  0.
         12    1    1    2    0    0 -0.30586952036E+02 -0.28318356544E+02 -0.12088522725E+02  0.43400729646E+02  0.00000000000E+00 0. -1.
         11    1    3    3    0    0  0.75821310283E+00 -0.60202732043E+00  0.22940796369E+01  0.24900051496E+01  0.51100000000E-03 0. -1.
        -11    1    3    3    0    0  0.28427117385E+02  0.27586812101E+02  0.12881450550E+02  0.41654111120E+02  0.51100000000E-03 0.  1.
        -12    1    3    3    0    0  0.14016215481E+01  0.13335717634E+01 -0.30870074614E+01  0.36431540839E+01  0.00000000000E+00 0.  1.
</event>
<event>
 7    1  0.1634068E-009  0.4778727E+02  0.7816164E-02  0.1312668E+00
        -11   -1    0    0    0    0  0.00000000000E+00  0.00000000000E+00  0.45593999997E+02  0.45594000000E+02  0.51100000000E-03 0.  1.
         11   -1    0    0    0    0 -0.00000000000E+00 -0.00000000000E+00 -0.45593999997E+02  0.45594000000E+02  0.51100000000E-03 0. -1.
    9900012    2    1    2    0    0  0.59701581281E+01  0.10699309302E+02  0.41635381806E+02  0.47787273903E+02  0.20000013035E+02 0.  0.
         12    1    1    2    0    0 -0.59701581281E+01 -0.10699309302E+02 -0.41635381806E+02  0.43400726097E+02  0.00000000000E+00 0. -1.
         11    1    3    3    0    0  0.27659156018E+01  0.29647423439E+01  0.22971552639E+01  0.46601404324E+01  0.51100000000E-03 0. -1.
        -11    1    3    3    0    0  0.68285305913E+01 -0.19885724458E+01  0.12996473424E+02  0.14815247960E+02  0.51100000000E-03 0.  1.
         12    1    3    3    0    0 -0.36242880649E+01  0.97231394042E+01  0.26341753118E+02  0.28311885511E+02  0.00000000000E+00 0. -1.
</event>
<event>
 7    1  0.1634068E-009  0.4778728E+02  0.7816164E-02  0.1312668E+00
        -11   -1    0    0    0    0  0.00000000000E+00  0.00000000000E+00  0.45593999997E+02  0.45594000000E+02  0.51100000000E-03 0. -1.
         11   -1    0    0    0    0 -0.00000000000E+00 -0.00000000000E+00 -0.45593999997E+02  0.45594000000E+02  0.51100000000E-03 0.  1.
    9900012    2    1    2    0    0  0.14590432696E+02  0.39847414007E+02 -0.91063595851E+01  0.47787275188E+02  0.20000018892E+02 0.  0.
         12    1    1    2    0    0 -0.14590432696E+02 -0.39847414007E+02  0.91063595851E+01  0.43400724812E+02  0.00000000000E+00 0. -1.
         11    1    3    3    0    0  0.78627467328E+01  0.70385173613E+01 -0.84545580956E+00  0.10586704332E+02  0.51100000000E-03 0. -1.
        -11    1    3    3    0    0  0.17514741785E+01  0.57769455756E+00  0.22742720060E+01  0.29280891752E+01  0.51100000000E-03 0.  1.
        -12    1    3    3    0    0  0.49762117843E+01  0.32231202089E+02 -0.10535175782E+02  0.34272481681E+02  0.00000000000E+00 0.  1.
</event>
<event>
 7    1  0.1634068E-009  0.4778727E+02  0.7816164E-02  0.1312668E+00
        -11   -1    0    0    0    0  0.00000000000E+00  0.00000000000E+00  0.45593999997E+02  0.45594000000E+02  0.51100000000E-03 0. -1.
         11   -1    0    0    0    0 -0.00000000000E+00 -0.00000000000E+00 -0.45593999997E+02  0.45594000000E+02  0.51100000000E-03 0.  1.
    9900012    2    1    2    0    0 -0.32621993724E+02 -0.25179160687E+02 -0.13617576333E+02  0.47787274285E+02  0.20000014773E+02 0.  0.
         12    1    1    2    0    0  0.32621993724E+02  0.25179160687E+02  0.13617576333E+02  0.43400725715E+02  0.00000000000E+00 0. -1.
         11    1    3    3    0    0 -0.18912613956E+02 -0.90656303366E+01 -0.10122521693E+02  0.23288152905E+02  0.51100000000E-03 0. -1.
        -11    1    3    3    0    0 -0.14446294262E+02 -0.17186285442E+02 -0.20353017004E+01  0.22543430938E+02  0.51100000000E-03 0.  1.
         12    1    3    3    0    0  0.73691449393E+00  0.10727550915E+01 -0.14597529393E+01  0.19556904411E+01  0.00000000000E+00 0. -1.
</event>
<event>
 7    1  0.1634068E-009  0.4778727E+02  0.7816164E-02  0.1312668E+00
        -11   -1    0    0    0    0  0.00000000000E+00  0.00000000000E+00  0.45593999997E+02  0.45594000000E+02  0.51100000000E-03 0. -1.
         11   -1    0    0    0    0 -0.00000000000E+00 -0.00000000000E+00 -0.45593999997E+02  0.45594000000E+02  0.51100000000E-03 0.  1.
    9900012    2    1    2    0    0 -0.14596442142E+02 -0.11313138551E+02 -0.39275692897E+02  0.47787270978E+02  0.19999999696E+02 0.  0.
         12    1    1    2    0    0  0.14596442142E+02  0.11313138551E+02  0.39275692897E+02  0.43400729022E+02  0.00000000000E+00 0. -1.
         11    1    3    3    0    0 -0.15783211865E+02 -0.65732334304E+01 -0.33046827319E+02  0.37207660107E+02  0.51100000000E-03 0. -1.
        -11    1    3    3    0    0  0.50525519797E+00  0.14483877236E+01  0.29471875518E+00  0.15620400823E+01  0.51100000000E-03 0.  1.
        -12    1    3    3    0    0  0.68151452461E+00 -0.61882928443E+01 -0.65235843332E+01  0.90175707885E+01  0.00000000000E+00 0.  1.
</event>
<event>
 7    1  0.1634068E-009  0.4778727E+02  0.7816164E-02  0.1312668E+00
        -11   -1    0    0    0    0  0.00000000000E+00  0.00000000000E+00  0.45593999997E+02  0.45594000000E+02  0.51100000000E-03 0. -1.
         11   -1    0    0    0    0 -0.00000000000E+00 -0.00000000000E+00 -0.45593999997E+02  0.45594000000E+02  0.51100000000E-03 0.  1.
    9900012    2    1    2    0    0  0.38725765984E+01  0.12881483424E+02 -0.41263710982E+02  0.47787270643E+02  0.19999998169E+02 0.  0.
         12    1    1    2    0    0 -0.38725765984E+01 -0.12881483424E+02  0.41263710982E+02  0.43400729357E+02  0.00000000000E+00 0. -1.
         11    1    3    3    0    0  0.10078596212E+01  0.88203245562E+01 -0.96034412975E+01  0.13078225847E+02  0.51100000000E-03 0. -1.
        -11    1    3    3    0    0  0.53269516274E+01  0.60034517453E+01 -0.30202411694E+02  0.31250656296E+02  0.51100000000E-03 0.  1.
         12    1    3    3    0    0 -0.24622346502E+01 -0.19422928779E+01 -0.14578579905E+01  0.34583884999E+01  0.00000000000E+00 0. -1.
</event>
<event>
 7    1  0.1634068E-009  0.4778727E+02  0.7816164E-02  0.1312668E+00
        -11   -1    0    0    0    0  0.00000000000E+00  0.00000000000E+00  0.45593999997E+02  0.45594000000E+02  0.51100000000E-03 0.  1.
         11   -1    0    0    0    0 -0.00000000000E+00 -0.00000000000E+00 -0.45593999997E+02  0.45594000000E+02  0.51100000000E-03 0. -1.
    9900012    2    1    2    0    0 -0.35372102834E+02  0.52900148246E+00  0.25142753449E+02  0.47787267835E+02  0.19999985367E+02 0.  0.
         12    1    1    2    0    0  0.35372102834E+02 -0.52900148246E+00 -0.25142753449E+02  0.43400732165E+02  0.00000000000E+00 0. -1.
         11    1    3    3    0    0 -0.41718498177E+01  0.48591059001E+01 -0.12887584662E+01  0.65326977349E+01  0.51100000000E-03 0.  1.
        -11    1    3    3    0    0 -0.12211893213E+02 -0.30658969067E+01  0.11711012918E+02  0.17195286666E+02  0.51100000000E-03 0. -1.
        -12    1    3    3    0    0 -0.18988359803E+02 -0.12642075109E+01  0.14720498997E+02  0.24059283434E+02  0.00000000000E+00 0.  1.
</event>
<event>
 7    1  0.1634068E-009  0.4778727E+02  0.7816164E-02  0.1312668E+00
        -11   -1    0    0    0    0  0.00000000000E+00  0.00000000000E+00  0.45593999997E+02  0.45594000000E+02  0.51100000000E-03 0.  1.
         11   -1    0    0    0    0 -0.00000000000E+00 -0.00000000000E+00 -0.45593999997E+02  0.45594000000E+02  0.51100000000E-03 0. -1.
    9900012    2    1    2    0    0 -0.91078833785E+00  0.34938418279E+02  0.25731316237E+02  0.47787271406E+02  0.20000001647E+02 0.  0.
         12    1    1    2    0    0  0.91078833785E+00 -0.34938418279E+02 -0.25731316237E+02  0.43400728594E+02  0.00000000000E+00 0. -1.
         11    1    3    3    0    0  0.39650626320E+01  0.63771935425E+01  0.11029107331E+02  0.13342845571E+02  0.51100000000E-03 0. -1.
        -11    1    3    3    0    0 -0.10209416009E+01  0.39731392279E+01 -0.19060330101E+01  0.45233968623E+01  0.51100000000E-03 0.  1.
        -12    1    3    3    0    0 -0.38549093690E+01  0.24588085509E+02  0.16608241916E+02  0.29921028973E+02  0.00000000000E+00 0.  1.
</event>
<event>
 7    1  0.1634068E-009  0.4778727E+02  0.7816164E-02  0.1312668E+00
        -11   -1    0    0    0    0  0.00000000000E+00  0.00000000000E+00  0.45593999997E+02  0.45594000000E+02  0.51100000000E-03 0.  1.
         11   -1    0    0    0    0 -0.00000000000E+00 -0.00000000000E+00 -0.45593999997E+02  0.45594000000E+02  0.51100000000E-03 0. -1.
    9900012    2    1    2    0    0  0.32341737580E+02 -0.83706291033E+01  0.27705014329E+02  0.47787271431E+02  0.20000001764E+02 0.  0.
         12    1    1    2    0    0 -0.32341737580E+02  0.83706291033E+01 -0.27705014329E+02  0.43400728569E+02  0.00000000000E+00 0. -1.
         11    1    3    3    0    0  0.69765438691E+01  0.16443703123E+01 -0.13680031975E+01  0.72970919612E+01  0.51100000000E-03 0. -1.
        -11    1    3    3    0    0  0.33575086152E+01 -0.31761763477E+00  0.98589825558E+00  0.35136506222E+01  0.51100000000E-03 0.  1.
        -12    1    3    3    0    0  0.22007685096E+02 -0.96973817809E+01  0.28087119271E+02  0.36976528848E+02  0.00000000000E+00 0.  1.
</event>
<event>
 7    1  0.1634068E-009  0.4778727E+02  0.7816164E-02  0.1312668E+00
        -11   -1    0    0    0    0  0.00000000000E+00  0.00000000000E+00  0.45593999997E+02  0.45594000000E+02  0.51100000000E-03 0.  1.
         11   -1    0    0    0    0 -0.00000000000E+00 -0.00000000000E+00 -0.45593999997E+02  0.45594000000E+02  0.51100000000E-03 0. -1.
    9900012    2    1    2    0    0 -0.27479676191E+02  0.64311515505E+01  0.32971672178E+02  0.47787268669E+02  0.19999989170E+02 0.  0.
         12    1    1    2    0    0  0.27479676191E+02 -0.64311515505E+01 -0.32971672178E+02  0.43400731331E+02  0.00000000000E+00 0. -1.
         11    1    3    3    0    0 -0.19313644114E+02  0.94494056696E+01  0.22806965746E+02  0.31344310541E+02  0.51100000000E-03 0. -1.
        -11    1    3    3    0    0 -0.97028621099E+01 -0.14436376151E+01  0.10318487675E+02  0.14237303496E+02  0.51100000000E-03 0.  1.
         12    1    3    3    0    0  0.15368300331E+01 -0.15746165040E+01 -0.15378124265E+00  0.22056546321E+01  0.00000000000E+00 0. -1.
</event>
<event>
 7    1  0.1634068E-009  0.4778727E+02  0.7816164E-02  0.1312668E+00
        -11   -1    0    0    0    0  0.00000000000E+00  0.00000000000E+00  0.45593999997E+02  0.45594000000E+02  0.51100000000E-03 0.  1.
         11   -1    0    0    0    0 -0.00000000000E+00 -0.00000000000E+00 -0.45593999997E+02  0.45594000000E+02  0.51100000000E-03 0. -1.
    9900012    2    1    2    0    0 -0.42343485027E+02 -0.94496125557E+01  0.11651012186E+01  0.47787270023E+02  0.19999995342E+02 0.  0.
         12    1    1    2    0    0  0.42343485027E+02  0.94496125557E+01 -0.11651012186E+01  0.43400729977E+02  0.00000000000E+00 0. -1.
         11    1    3    3    0    0 -0.34302731002E+01  0.20259892154E+01 -0.36096766876E+01  0.53759810168E+01  0.51100000000E-03 0. -1.
        -11    1    3    3    0    0 -0.58760644415E+01  0.21410441785E+01 -0.57258841961E+00  0.62801322641E+01  0.51100000000E-03 0.  1.
         12    1    3    3    0    0 -0.33037147485E+02 -0.13616645950E+02  0.53473663259E+01  0.36131156742E+02  0.00000000000E+00 0. -1.
</event>
<event>
 7    1  0.1634068E-009  0.4778727E+02  0.7816164E-02  0.1312668E+00
        -11   -1    0    0    0    0  0.00000000000E+00  0.00000000000E+00  0.45593999997E+02  0.45594000000E+02  0.51100000000E-03 0.  1.
         11   -1    0    0    0    0 -0.00000000000E+00 -0.00000000000E+00 -0.45593999997E+02  0.45594000000E+02  0.51100000000E-03 0. -1.
    9900012    2    1    2    0    0  0.41452634400E+02 -0.12706789653E+02  0.19595892287E+01  0.47787269684E+02  0.19999993798E+02 0.  0.
         12    1    1    2    0    0 -0.41452634400E+02  0.12706789653E+02 -0.19595892287E+01  0.43400730316E+02  0.00000000000E+00 0. -1.
         11    1    3    3    0    0  0.12443066363E+02 -0.23492468473E+01  0.30074171961E+01  0.13015122731E+02  0.51100000000E-03 0.  1.
        -11    1    3    3    0    0  0.18428228631E+02 -0.86002249790E+01 -0.81490551361E+01  0.21908230875E+02  0.51100000000E-03 0. -1.
         12    1    3    3    0    0  0.10581339406E+02 -0.17573178271E+01  0.71012271687E+01  0.12863916078E+02  0.00000000000E+00 0. -1.
</event>
<event>
 7    1  0.1634068E-009  0.4778727E+02  0.7816164E-02  0.1312668E+00
        -11   -1    0    0    0    0  0.00000000000E+00  0.00000000000E+00  0.45593999997E+02  0.45594000000E+02  0.51100000000E-03 0.  1.
         11   -1    0    0    0    0 -0.00000000000E+00 -0.00000000000E+00 -0.45593999997E+02  0.45594000000E+02  0.51100000000E-03 0. -1.
    9900012    2    1    2    0    0  0.41147196987E+02 -0.48296890590E+00  0.13794869556E+02  0.47787268383E+02  0.19999987864E+02 0.  0.
         12    1    1    2    0    0 -0.41147196987E+02  0.48296890590E+00 -0.13794869556E+02  0.43400731617E+02  0.00000000000E+00 0. -1.
         11    1    3    3    0    0  0.11076446863E+02  0.65923584404E-01  0.11394576593E+02  0.15891142093E+02  0.51100000000E-03 0. -1.
        -11    1    3    3    0    0  0.70354238171E+01  0.20500701449E+00  0.50985543730E+01  0.86910570772E+01  0.51100000000E-03 0.  1.
         12    1    3    3    0    0  0.23035326307E+02 -0.75389950480E+00 -0.26982614101E+01  0.23205069212E+02  0.00000000000E+00 0. -1.
</event>
<event>
 7    1  0.1634068E-009  0.4778727E+02  0.7816164E-02  0.1312668E+00
        -11   -1    0    0    0    0  0.00000000000E+00  0.00000000000E+00  0.45593999997E+02  0.45594000000E+02  0.51100000000E-03 0.  1.
         11   -1    0    0    0    0 -0.00000000000E+00 -0.00000000000E+00 -0.45593999997E+02  0.45594000000E+02  0.51100000000E-03 0. -1.
    9900012    2    1    2    0    0  0.31483562825E+02 -0.29579566408E+02  0.41782610267E+01  0.47787270257E+02  0.19999996409E+02 0.  0.
         12    1    1    2    0    0 -0.31483562825E+02  0.29579566408E+02 -0.41782610267E+01  0.43400729743E+02  0.00000000000E+00 0. -1.
         11    1    3    3    0    0  0.14936737003E+02 -0.17547098977E+02 -0.38813401649E+00  0.23046853214E+02  0.51100000000E-03 0. -1.
        -11    1    3    3    0    0  0.55523277401E+01 -0.62496623874E+00 -0.38644309140E+01  0.67935817271E+01  0.51100000000E-03 0.  1.
        -12    1    3    3    0    0  0.10994498082E+02 -0.11407501193E+02  0.84308259572E+01  0.17946835316E+02  0.00000000000E+00 0.  1.
</event>
<event>
 7    1  0.1634068E-009  0.4778728E+02  0.7816164E-02  0.1312668E+00
        -11   -1    0    0    0    0  0.00000000000E+00  0.00000000000E+00  0.45593999997E+02  0.45594000000E+02  0.51100000000E-03 0.  1.
         11   -1    0    0    0    0 -0.00000000000E+00 -0.00000000000E+00 -0.45593999997E+02  0.45594000000E+02  0.51100000000E-03 0. -1.
    9900012    2    1    2    0    0 -0.24338306355E+02  0.16069373679E+01  0.35898289870E+02  0.47787278583E+02  0.20000034370E+02 0.  0.
         12    1    1    2    0    0  0.24338306355E+02 -0.16069373679E+01 -0.35898289870E+02  0.43400721417E+02  0.00000000000E+00 0. -1.
         11    1    3    3    0    0 -0.48302495372E+01 -0.62336230722E+01  0.39838096167E+01  0.88351630728E+01  0.51100000000E-03 0. -1.
        -11    1    3    3    0    0 -0.91931631625E+01  0.12186672671E+01  0.19025375599E+02  0.21165167512E+02  0.51100000000E-03 0.  1.
        -12    1    3    3    0    0 -0.10314893655E+02  0.66218931730E+01  0.12889104654E+02  0.17786947998E+02  0.00000000000E+00 0.  1.
</event>
<event>
 7    1  0.1634068E-009  0.4778727E+02  0.7816164E-02  0.1312668E+00
        -11   -1    0    0    0    0  0.00000000000E+00  0.00000000000E+00  0.45593999997E+02  0.45594000000E+02  0.51100000000E-03 0. -1.
         11   -1    0    0    0    0 -0.00000000000E+00 -0.00000000000E+00 -0.45593999997E+02  0.45594000000E+02  0.51100000000E-03 0.  1.
    9900012    2    1    2    0    0 -0.36428554445E+02  0.18695134385E+02 -0.14390129700E+02  0.47787268883E+02  0.19999990147E+02 0.  0.
         12    1    1    2    0    0  0.36428554445E+02 -0.18695134385E+02  0.14390129700E+02  0.43400731117E+02  0.00000000000E+00 0. -1.
         11    1    3    3    0    0 -0.12205686898E+02  0.50822543903E+01 -0.95203089958E+01  0.16292464085E+02  0.51100000000E-03 0. -1.
        -11    1    3    3    0    0 -0.18453170358E+02  0.16316708383E+02 -0.27786829615E+01  0.24788617307E+02  0.51100000000E-03 0.  1.
         12    1    3    3    0    0 -0.57696971896E+01 -0.27038283878E+01 -0.20911377428E+01  0.67061874914E+01  0.00000000000E+00 0. -1.
</event>
<event>
 7    1  0.1634068E-009  0.4778727E+02  0.7816164E-02  0.1312668E+00
        -11   -1    0    0    0    0  0.00000000000E+00  0.00000000000E+00  0.45593999997E+02  0.45594000000E+02  0.51100000000E-03 0. -1.
         11   -1    0    0    0    0 -0.00000000000E+00 -0.00000000000E+00 -0.45593999997E+02  0.45594000000E+02  0.51100000000E-03 0.  1.
    9900012    2    1    2    0    0 -0.20907060393E+02  0.19858565512E+02 -0.32436944425E+02  0.47787272332E+02  0.20000005870E+02 0.  0.
         12    1    1    2    0    0  0.20907060393E+02 -0.19858565512E+02  0.32436944425E+02  0.43400727668E+02  0.00000000000E+00 0. -1.
         11    1    3    3    0    0  0.18820123805E+01  0.24004126020E+01 -0.41194609398E+01  0.51258082247E+01  0.51100000000E-03 0. -1.
        -11    1    3    3    0    0 -0.16907192176E+02  0.10426644275E+02 -0.26816659777E+02  0.33372163550E+02  0.51100000000E-03 0.  1.
        -12    1    3    3    0    0 -0.58818805981E+01  0.70315086345E+01 -0.15008237081E+01  0.92893005577E+01  0.00000000000E+00 0.  1.
</event>
<event>
 7    1  0.1634068E-009  0.4778728E+02  0.7816164E-02  0.1312668E+00
        -11   -1    0    0    0    0  0.00000000000E+00  0.00000000000E+00  0.45593999997E+02  0.45594000000E+02  0.51100000000E-03 0. -1.
         11   -1    0    0    0    0 -0.00000000000E+00 -0.00000000000E+00 -0.45593999997E+02  0.45594000000E+02  0.51100000000E-03 0.  1.
    9900012    2    1    2    0    0  0.36610309482E+02  0.35037374709E+01 -0.23044130409E+02  0.47787275548E+02  0.20000020534E+02 0.  0.
         12    1    1    2    0    0 -0.36610309482E+02 -0.35037374709E+01  0.23044130409E+02  0.43400724452E+02  0.00000000000E+00 0. -1.
         11    1    3    3    0    0  0.58189603361E+01  0.59973887295E+01 -0.80700657119E+01  0.11617010451E+02  0.51100000000E-03 0. -1.
        -11    1    3    3    0    0  0.15557678643E+02 -0.26356302552E+01 -0.15322144360E+01  0.15853567200E+02  0.51100000000E-03 0.  1.
         12    1    3    3    0    0  0.15233670503E+02  0.14197899659E+00 -0.13441850261E+02  0.20316697897E+02  0.00000000000E+00 0. -1.
</event>
<event>
 7    1  0.1634068E-009  0.4778727E+02  0.7816164E-02  0.1312668E+00
        -11   -1    0    0    0    0  0.00000000000E+00  0.00000000000E+00  0.45593999997E+02  0.45594000000E+02  0.51100000000E-03 0.  1.
         11   -1    0    0    0    0 -0.00000000000E+00 -0.00000000000E+00 -0.45593999997E+02  0.45594000000E+02  0.51100000000E-03 0. -1.
    9900012    2    1    2    0    0 -0.27630175438E+01  0.93303474409E+01  0.42295789644E+02  0.47787268774E+02  0.19999989648E+02 0.  0.
         12    1    1    2    0    0  0.27630175438E+01 -0.93303474409E+01 -0.42295789644E+02  0.43400731226E+02  0.00000000000E+00 0. -1.
         11    1    3    3    0    0  0.45465820245E+01  0.52453528605E+01  0.91779547528E+01  0.11507388428E+02  0.51100000000E-03 0. -1.
        -11    1    3    3    0    0 -0.25578185210E+01  0.46277810892E+01  0.36466661419E+01  0.64231586939E+01  0.51100000000E-03 0.  1.
        -12    1    3    3    0    0 -0.47517810473E+01 -0.54278650877E+00  0.29471168750E+02  0.29856721652E+02  0.00000000000E+00 0.  1.
</event>
<event>
 7    1  0.1634068E-009  0.4778727E+02  0.7816164E-02  0.1312668E+00
        -11   -1    0    0    0    0  0.00000000000E+00  0.00000000000E+00  0.45593999997E+02  0.45594000000E+02  0.51100000000E-03 0.  1.
         11   -1    0    0    0    0 -0.00000000000E+00 -0.00000000000E+00 -0.45593999997E+02  0.45594000000E+02  0.51100000000E-03 0. -1.
    9900012    2    1    2    0    0  0.11280655213E+02 -0.30210041392E+02  0.29046916000E+02  0.47787272909E+02  0.20000008501E+02 0.  0.
         12    1    1    2    0    0 -0.11280655213E+02  0.30210041392E+02 -0.29046916000E+02  0.43400727091E+02  0.00000000000E+00 0. -1.
         11    1    3    3    0    0  0.39089534799E+01 -0.74415681620E+00  0.10951872148E+01  0.41271203001E+01  0.51100000000E-03 0. -1.
        -11    1    3    3    0    0  0.67551521065E+01 -0.28153822108E+02  0.19088413814E+02  0.34679061715E+02  0.51100000000E-03 0.  1.
         12    1    3    3    0    0  0.61654962614E+00 -0.13120624685E+01  0.88633149712E+01  0.89810908937E+01  0.00000000000E+00 0. -1.
</event>
<event>
 7    1  0.1634068E-009  0.4778727E+02  0.7816164E-02  0.1312668E+00
        -11   -1    0    0    0    0  0.00000000000E+00  0.00000000000E+00  0.45593999997E+02  0.45594000000E+02  0.51100000000E-03 0. -1.
         11   -1    0    0    0    0 -0.00000000000E+00 -0.00000000000E+00 -0.45593999997E+02  0.45594000000E+02  0.51100000000E-03 0.  1.
    9900012    2    1    2    0    0  0.15557180007E+02 -0.34411107470E+02  0.21388619558E+02  0.47787271738E+02  0.20000003161E+02 0.  0.
         12    1    1    2    0    0 -0.15557180007E+02  0.34411107470E+02 -0.21388619558E+02  0.43400728262E+02  0.00000000000E+00 0. -1.
         11    1    3    3    0    0  0.73207290347E+00  0.23333668713E+01  0.55823909989E+00  0.25084183953E+01  0.51100000000E-03 0. -1.
        -11    1    3    3    0    0  0.54665834421E+01 -0.14586803914E+02  0.45295461860E+01  0.16222674621E+02  0.51100000000E-03 0.  1.
         12    1    3    3    0    0  0.93585236616E+01 -0.22157670428E+02  0.16300834272E+02  0.29056178721E+02  0.00000000000E+00 0. -1.
</event>
<event>
 7    1  0.1634068E-009  0.4778727E+02  0.7816164E-02  0.1312668E+00
        -11   -1    0    0    0    0  0.00000000000E+00  0.00000000000E+00  0.45593999997E+02  0.45594000000E+02  0.51100000000E-03 0.  1.
         11   -1    0    0    0    0 -0.00000000000E+00 -0.00000000000E+00 -0.45593999997E+02  0.45594000000E+02  0.51100000000E-03 0. -1.
    9900012    2    1    2    0    0  0.39599492915E+02 -0.17152175346E+02  0.46158940170E+01  0.47787269179E+02  0.19999991494E+02 0.  0.
         12    1    1    2    0    0 -0.39599492915E+02  0.17152175346E+02 -0.46158940170E+01  0.43400730821E+02  0.00000000000E+00 0. -1.
         11    1    3    3    0    0  0.30186756462E+02 -0.11611109890E+02  0.39903663952E+01  0.32588052455E+02  0.51100000000E-03 0. -1.
        -11    1    3    3    0    0  0.34417069757E+01 -0.65660227782E+01 -0.31563677852E+01  0.80573357809E+01  0.51100000000E-03 0.  1.
         12    1    3    3    0    0  0.59710294778E+01  0.10249573230E+01  0.37818954070E+01  0.71418809433E+01  0.00000000000E+00 0. -1.
</event>
<event>
 7    1  0.1634068E-009  0.4778727E+02  0.7816164E-02  0.1312668E+00
        -11   -1    0    0    0    0  0.00000000000E+00  0.00000000000E+00  0.45593999997E+02  0.45594000000E+02  0.51100000000E-03 0. -1.
         11   -1    0    0    0    0 -0.00000000000E+00 -0.00000000000E+00 -0.45593999997E+02  0.45594000000E+02  0.51100000000E-03 0.  1.
    9900012    2    1    2    0    0  0.39342161346E+02 -0.31443169022E+01  0.18053559997E+02  0.47787269399E+02  0.19999992499E+02 0.  0.
         12    1    1    2    0    0 -0.39342161346E+02  0.31443169022E+01 -0.18053559997E+02  0.43400730601E+02  0.00000000000E+00 0. -1.
         11    1    3    3    0    0  0.20395602170E+02 -0.96045149912E+01  0.85918741799E+01  0.24125662649E+02  0.51100000000E-03 0. -1.
        -11    1    3    3    0    0  0.17396114435E+02  0.34643620560E+01  0.98111222818E+01  0.20270291626E+02  0.51100000000E-03 0.  1.
        -12    1    3    3    0    0  0.15504447408E+01  0.29958360329E+01 -0.34943646492E+00  0.33913151244E+01  0.00000000000E+00 0.  1.
</event>
<event>
 7    1  0.1634068E-009  0.4778727E+02  0.7816164E-02  0.1312668E+00
        -11   -1    0    0    0    0  0.00000000000E+00  0.00000000000E+00  0.45593999997E+02  0.45594000000E+02  0.51100000000E-03 0.  1.
         11   -1    0    0    0    0 -0.00000000000E+00 -0.00000000000E+00 -0.45593999997E+02  0.45594000000E+02  0.51100000000E-03 0. -1.
    9900012    2    1    2    0    0  0.86451227454E+01  0.18206285818E+02  0.38437172884E+02  0.47787271320E+02  0.20000001258E+02 0.  0.
         12    1    1    2    0    0 -0.86451227454E+01 -0.18206285818E+02 -0.38437172884E+02  0.43400728680E+02  0.00000000000E+00 0. -1.
         11    1    3    3    0    0 -0.14941858070E+01  0.69735213486E+01  0.10101222615E+02  0.12365164366E+02  0.51100000000E-03 0. -1.
        -11    1    3    3    0    0  0.83730273673E-01 -0.16691680769E+00  0.15571751680E+02  0.15572871368E+02  0.51100000000E-03 0.  1.
        -12    1    3    3    0    0  0.10055578279E+02  0.11399681278E+02  0.12764198589E+02  0.19849235587E+02  0.00000000000E+00 0.  1.
</event>
<event>
 7    1  0.1634068E-009  0.4778727E+02  0.7816164E-02  0.1312668E+00
        -11   -1    0    0    0    0  0.00000000000E+00  0.00000000000E+00  0.45593999997E+02  0.45594000000E+02  0.51100000000E-03 0.  1.
         11   -1    0    0    0    0 -0.00000000000E+00 -0.00000000000E+00 -0.45593999997E+02  0.45594000000E+02  0.51100000000E-03 0. -1.
    9900012    2    1    2    0    0 -0.17867368746E+02 -0.11075536942E+02  0.37969895005E+02  0.47787270615E+02  0.19999998043E+02 0.  0.
         12    1    1    2    0    0  0.17867368746E+02  0.11075536942E+02 -0.37969895005E+02  0.43400729385E+02  0.00000000000E+00 0. -1.
         11    1    3    3    0    0 -0.15101382054E+01 -0.16430785040E+01 -0.13303266523E+01  0.25980749859E+01  0.51100000000E-03 0. -1.
        -11    1    3    3    0    0 -0.10496660712E+02 -0.11704816705E+02  0.31188430468E+02  0.34927078542E+02  0.51100000000E-03 0.  1.
         12    1    3    3    0    0 -0.58605698290E+01  0.22723582661E+01  0.81117911893E+01  0.10262117087E+02  0.00000000000E+00 0. -1.
</event>
<event>
 7    1  0.1634068E-009  0.4778728E+02  0.7816164E-02  0.1312668E+00
        -11   -1    0    0    0    0  0.00000000000E+00  0.00000000000E+00  0.45593999997E+02  0.45594000000E+02  0.51100000000E-03 0.  1.
         11   -1    0    0    0    0 -0.00000000000E+00 -0.00000000000E+00 -0.45593999997E+02  0.45594000000E+02  0.51100000000E-03 0. -1.
    9900012    2    1    2    0    0 -0.10196104953E+01  0.85371764976E+01  0.42540567239E+02  0.47787275938E+02  0.20000022311E+02 0.  0.
         12    1    1    2    0    0  0.10196104953E+01 -0.85371764976E+01 -0.42540567239E+02  0.43400724062E+02  0.00000000000E+00 0. -1.
         11    1    3    3    0    0  0.14665132162E+00  0.61368751690E+01  0.46008815532E+01  0.76714310776E+01  0.51100000000E-03 0. -1.
        -11    1    3    3    0    0 -0.34256204772E+01  0.65075423115E+01  0.30066374107E+02  0.30952703191E+02  0.51100000000E-03 0.  1.
        -12    1    3    3    0    0  0.22593586602E+01 -0.41072409829E+01  0.78733115783E+01  0.91631416696E+01  0.00000000000E+00 0.  1.
</event>
<event>
 7    1  0.1634068E-009  0.4778727E+02  0.7816164E-02  0.1312668E+00
        -11   -1    0    0    0    0  0.00000000000E+00  0.00000000000E+00  0.45593999997E+02  0.45594000000E+02  0.51100000000E-03 0. -1.
         11   -1    0    0    0    0 -0.00000000000E+00 -0.00000000000E+00 -0.45593999997E+02  0.45594000000E+02  0.51100000000E-03 0.  1.
    9900012    2    1    2    0    0 -0.32714793414E+02  0.28270059896E+02  0.37642726716E+01  0.47787265636E+02  0.19999975339E+02 0.  0.
         12    1    1    2    0    0  0.32714793414E+02 -0.28270059896E+02 -0.37642726716E+01  0.43400734364E+02  0.00000000000E+00 0. -1.
         11    1    3    3    0    0 -0.60639526587E+01  0.17222474630E+01  0.37832207230E+01  0.73518989024E+01  0.51100000000E-03 0. -1.
        -11    1    3    3    0    0 -0.17436233370E+02  0.24465635616E+02  0.37258532466E+01  0.30273281006E+02  0.51100000000E-03 0.  1.
         12    1    3    3    0    0 -0.92146073852E+01  0.20821768170E+01 -0.37448012980E+01  0.10162085727E+02  0.00000000000E+00 0. -1.
</event>
<event>
 7    1  0.1634068E-009  0.4778728E+02  0.7816164E-02  0.1312668E+00
        -11   -1    0    0    0    0  0.00000000000E+00  0.00000000000E+00  0.45593999997E+02  0.45594000000E+02  0.51100000000E-03 0.  1.
         11   -1    0    0    0    0 -0.00000000000E+00 -0.00000000000E+00 -0.45593999997E+02  0.45594000000E+02  0.51100000000E-03 0. -1.
    9900012    2    1    2    0    0  0.24685819936E+02 -0.35374907453E+02 -0.47799914676E+01  0.47787284550E+02  0.20000061576E+02 0.  0.
         12    1    1    2    0    0 -0.24685819936E+02  0.35374907453E+02  0.47799914676E+01  0.43400715450E+02  0.00000000000E+00 0. -1.
         11    1    3    3    0    0  0.35465831178E+01 -0.32368172611E+01 -0.51603458728E+01  0.70487167329E+01  0.51100000000E-03 0. -1.
        -11    1    3    3    0    0  0.83926258799E+01 -0.23763464517E+02 -0.20890054684E+01  0.25288383877E+02  0.51100000000E-03 0.  1.
        -12    1    3    3    0    0  0.12746610938E+02 -0.83746256749E+01  0.24693598735E+01  0.15450183940E+02  0.00000000000E+00 0.  1.
</event>
<event>
 7    1  0.1634068E-009  0.4778728E+02  0.7816164E-02  0.1312668E+00
        -11   -1    0    0    0    0  0.00000000000E+00  0.00000000000E+00  0.45593999997E+02  0.45594000000E+02  0.51100000000E-03 0.  1.
         11   -1    0    0    0    0 -0.00000000000E+00 -0.00000000000E+00 -0.45593999997E+02  0.45594000000E+02  0.51100000000E-03 0. -1.
    9900012    2    1    2    0    0  0.46150969738E+01 -0.36422164304E+02  0.23146266939E+02  0.47787275975E+02  0.20000022482E+02 0.  0.
         12    1    1    2    0    0 -0.46150969738E+01  0.36422164304E+02 -0.23146266939E+02  0.43400724025E+02  0.00000000000E+00 0. -1.
         11    1    3    3    0    0  0.81324201960E+01 -0.10165640398E+02  0.59298492371E+01  0.14305230343E+02  0.51100000000E-03 0. -1.
        -11    1    3    3    0    0  0.26391085275E+01 -0.12851950390E+02  0.12160268198E+02  0.17888813419E+02  0.51100000000E-03 0.  1.
         12    1    3    3    0    0 -0.61564317496E+01 -0.13404573516E+02  0.50561495040E+01  0.15593232213E+02  0.00000000000E+00 0. -1.
</event>
<event>
 7    1  0.1634068E-009  0.4778727E+02  0.7816164E-02  0.1312668E+00
        -11   -1    0    0    0    0  0.00000000000E+00  0.00000000000E+00  0.45593999997E+02  0.45594000000E+02  0.51100000000E-03 0.  1.
         11   -1    0    0    0    0 -0.00000000000E+00 -0.00000000000E+00 -0.45593999997E+02  0.45594000000E+02  0.51100000000E-03 0. -1.
    9900012    2    1    2    0    0 -0.13609707484E+02 -0.40963662451E+02  0.45141104790E+01  0.47787274515E+02  0.20000015825E+02 0.  0.
         12    1    1    2    0    0  0.13609707484E+02  0.40963662451E+02 -0.45141104790E+01  0.43400725485E+02  0.00000000000E+00 0. -1.
         11    1    3    3    0    0 -0.28597715077E+01 -0.38493366887E+01  0.57897587283E+01  0.75177784226E+01  0.51100000000E-03 0. -1.
        -11    1    3    3    0    0  0.92959092524E+00 -0.13955114533E+02 -0.28906544485E+01  0.14281640113E+02  0.51100000000E-03 0.  1.
        -12    1    3    3    0    0 -0.11679526902E+02 -0.23159211229E+02  0.16150061992E+01  0.25987855979E+02  0.00000000000E+00 0.  1.
</event>
<event>
 7    1  0.1634068E-009  0.4778727E+02  0.7816164E-02  0.1312668E+00
        -11   -1    0    0    0    0  0.00000000000E+00  0.00000000000E+00  0.45593999997E+02  0.45594000000E+02  0.51100000000E-03 0.  1.
         11   -1    0    0    0    0 -0.00000000000E+00 -0.00000000000E+00 -0.45593999997E+02  0.45594000000E+02  0.51100000000E-03 0. -1.
    9900012    2    1    2    0    0  0.40632286280E+01  0.90987372403E+01  0.42241287420E+02  0.47787271791E+02  0.20000003402E+02 0.  0.
         12    1    1    2    0    0 -0.40632286280E+01 -0.90987372403E+01 -0.42241287420E+02  0.43400728209E+02  0.00000000000E+00 0. -1.
         11    1    3    3    0    0 -0.25801082333E+01  0.55749827216E+01  0.11024466712E+02  0.12620469776E+02  0.51100000000E-03 0. -1.
        -11    1    3    3    0    0 -0.18574390559E+01  0.62165150284E+01  0.18737680265E+02  0.19829165411E+02  0.51100000000E-03 0.  1.
         12    1    3    3    0    0  0.85007759172E+01 -0.26927605096E+01  0.12479140443E+02  0.15337636603E+02  0.00000000000E+00 0. -1.
</event>
<event>
 7    1  0.1634068E-009  0.4778726E+02  0.7816164E-02  0.1312668E+00
        -11   -1    0    0    0    0  0.00000000000E+00  0.00000000000E+00  0.45593999997E+02  0.45594000000E+02  0.51100000000E-03 0.  1.
         11   -1    0    0    0    0 -0.00000000000E+00 -0.00000000000E+00 -0.45593999997E+02  0.45594000000E+02  0.51100000000E-03 0. -1.
    9900012    2    1    2    0    0 -0.27228482884E+01  0.25793572673E+02  0.34798012003E+02  0.47787263447E+02  0.19999965359E+02 0.  0.
         12    1    1    2    0    0  0.27228482884E+01 -0.25793572673E+02 -0.34798012003E+02  0.43400736553E+02  0.00000000000E+00 0. -1.
         11    1    3    3    0    0 -0.19253413350E+01  0.61043192684E+01  0.17342296405E+02  0.18485802602E+02  0.51100000000E-03 0.  1.
        -11    1    3    3    0    0  0.25578917343E+01  0.75485048540E+00 -0.80223400787E+00  0.27849935447E+01  0.51100000000E-03 0. -1.
         12    1    3    3    0    0 -0.33553986877E+01  0.18934402919E+02  0.18257949605E+02  0.26516467300E+02  0.00000000000E+00 0. -1.
</event>
<event>
 7    1  0.1634068E-009  0.4778727E+02  0.7816164E-02  0.1312668E+00
        -11   -1    0    0    0    0  0.00000000000E+00  0.00000000000E+00  0.45593999997E+02  0.45594000000E+02  0.51100000000E-03 0.  1.
         11   -1    0    0    0    0 -0.00000000000E+00 -0.00000000000E+00 -0.45593999997E+02  0.45594000000E+02  0.51100000000E-03 0. -1.
    9900012    2    1    2    0    0 -0.35775711454E+02 -0.35459972156E+01  0.24313524283E+02  0.47787273171E+02  0.20000009694E+02 0.  0.
         12    1    1    2    0    0  0.35775711454E+02  0.35459972156E+01 -0.24313524283E+02  0.43400726829E+02  0.00000000000E+00 0. -1.
         11    1    3    3    0    0 -0.14435410652E+02  0.22475709837E+01  0.11918372444E+02  0.18854184098E+02  0.51100000000E-03 0.  1.
        -11    1    3    3    0    0 -0.20366795572E+02 -0.65027805063E+01  0.56945658613E+01  0.22125112356E+02  0.51100000000E-03 0. -1.
         12    1    3    3    0    0 -0.97350522977E+00  0.70921230699E+00  0.67005859772E+01  0.68079767160E+01  0.00000000000E+00 0. -1.
</event>
<event>
 7    1  0.1634068E-009  0.4778727E+02  0.7816164E-02  0.1312668E+00
        -11   -1    0    0    0    0  0.00000000000E+00  0.00000000000E+00  0.45593999997E+02  0.45594000000E+02  0.51100000000E-03 0.  1.
         11   -1    0    0    0    0 -0.00000000000E+00 -0.00000000000E+00 -0.45593999997E+02  0.45594000000E+02  0.51100000000E-03 0. -1.
    9900012    2    1    2    0    0 -0.69650283724E+01  0.24979875760E+02  0.34801111832E+02  0.47787271919E+02  0.20000003987E+02 0.  0.
         12    1    1    2    0    0  0.69650283724E+01 -0.24979875760E+02 -0.34801111832E+02  0.43400728081E+02  0.00000000000E+00 0. -1.
         11    1    3    3    0    0 -0.71228651597E+01  0.52072622896E+01  0.42599040114E+01  0.97978350202E+01  0.51100000000E-03 0. -1.
        -11    1    3    3    0    0  0.42562592929E+01  0.52019969965E+01  0.53073047918E+01  0.85641111818E+01  0.51100000000E-03 0.  1.
        -12    1    3    3    0    0 -0.40984225056E+01  0.14570616474E+02  0.25233903029E+02  0.29425325717E+02  0.00000000000E+00 0.  1.
</event>
<event>
 7    1  0.1634068E-009  0.4778727E+02  0.7816164E-02  0.1312668E+00
        -11   -1    0    0    0    0  0.00000000000E+00  0.00000000000E+00  0.45593999997E+02  0.45594000000E+02  0.51100000000E-03 0.  1.
         11   -1    0    0    0    0 -0.00000000000E+00 -0.00000000000E+00 -0.45593999997E+02  0.45594000000E+02  0.51100000000E-03 0. -1.
    9900012    2    1    2    0    0  0.30823768368E+02 -0.26685388960E+02  0.14879811881E+02  0.47787268647E+02  0.19999989068E+02 0.  0.
         12    1    1    2    0    0 -0.30823768368E+02  0.26685388960E+02 -0.14879811881E+02  0.43400731353E+02  0.00000000000E+00 0. -1.
         11    1    3    3    0    0  0.67570635963E+01  0.73729199094E+00 -0.87492951355E+00  0.68532481233E+01  0.51100000000E-03 0. -1.
        -11    1    3    3    0    0  0.82880444982E+01 -0.81751212056E+01  0.10097977644E+02  0.15410822207E+02  0.51100000000E-03 0.  1.
         12    1    3    3    0    0  0.15778660274E+02 -0.19247559745E+02  0.56567637510E+01  0.25523198317E+02  0.00000000000E+00 0. -1.
</event>
<event>
 7    1  0.1634068E-009  0.4778727E+02  0.7816164E-02  0.1312668E+00
        -11   -1    0    0    0    0  0.00000000000E+00  0.00000000000E+00  0.45593999997E+02  0.45594000000E+02  0.51100000000E-03 0.  1.
         11   -1    0    0    0    0 -0.00000000000E+00 -0.00000000000E+00 -0.45593999997E+02  0.45594000000E+02  0.51100000000E-03 0. -1.
    9900012    2    1    2    0    0  0.12768845349E+02 -0.17595331606E+02  0.37563065613E+02  0.47787274152E+02  0.20000014169E+02 0.  0.
         12    1    1    2    0    0 -0.12768845349E+02  0.17595331606E+02 -0.37563065613E+02  0.43400725848E+02  0.00000000000E+00 0. -1.
         11    1    3    3    0    0  0.13138789205E+01  0.12861168747E+01  0.25832320604E+00  0.18566382451E+01  0.51100000000E-03 0. -1.
        -11    1    3    3    0    0 -0.33573993937E+01 -0.70616273353E+01  0.99965137692E+01  0.12691296195E+02  0.51100000000E-03 0.  1.
        -12    1    3    3    0    0  0.14812365822E+02 -0.11819821146E+02  0.27308228638E+02  0.33239339712E+02  0.00000000000E+00 0.  1.
</event>
<event>
 7    1  0.1634068E-009  0.4778727E+02  0.7816164E-02  0.1312668E+00
        -11   -1    0    0    0    0  0.00000000000E+00  0.00000000000E+00  0.45593999997E+02  0.45594000000E+02  0.51100000000E-03 0.  1.
         11   -1    0    0    0    0 -0.00000000000E+00 -0.00000000000E+00 -0.45593999997E+02  0.45594000000E+02  0.51100000000E-03 0. -1.
    9900012    2    1    2    0    0 -0.41183522941E+02  0.45606651996E+01  0.12912830410E+02  0.47787269383E+02  0.19999992425E+02 0.  0.
         12    1    1    2    0    0  0.41183522941E+02 -0.45606651996E+01 -0.12912830410E+02  0.43400730617E+02  0.00000000000E+00 0. -1.
         11    1    3    3    0    0 -0.97123239996E+01  0.31080209876E+01 -0.25939743143E+01  0.10522249519E+02  0.51100000000E-03 0. -1.
        -11    1    3    3    0    0 -0.29968655823E+02 -0.35854417388E+00  0.10542109178E+02  0.31770819189E+02  0.51100000000E-03 0.  1.
         12    1    3    3    0    0 -0.15025431186E+01  0.18111883858E+01  0.49646955467E+01  0.54942006756E+01  0.00000000000E+00 0. -1.
</event>
<event>
 7    1  0.1634068E-009  0.4778727E+02  0.7816164E-02  0.1312668E+00
        -11   -1    0    0    0    0  0.00000000000E+00  0.00000000000E+00  0.45593999997E+02  0.45594000000E+02  0.51100000000E-03 0. -1.
         11   -1    0    0    0    0 -0.00000000000E+00 -0.00000000000E+00 -0.45593999997E+02  0.45594000000E+02  0.51100000000E-03 0.  1.
    9900012    2    1    2    0    0 -0.31652551059E+02  0.18450584939E+02 -0.23266187683E+02  0.47787267720E+02  0.19999984844E+02 0.  0.
         12    1    1    2    0    0  0.31652551059E+02 -0.18450584939E+02  0.23266187683E+02  0.43400732280E+02  0.00000000000E+00 0. -1.
         11    1    3    3    0    0 -0.12215490176E+02  0.92956839695E+01 -0.18069347471E+02  0.23709265256E+02  0.51100000000E-03 0. -1.
        -11    1    3    3    0    0 -0.11585247778E+02  0.10349101764E+02 -0.40474640315E+01  0.16053156660E+02  0.51100000000E-03 0.  1.
         12    1    3    3    0    0 -0.78518131047E+01 -0.11942007953E+01 -0.11493761800E+01  0.80248458037E+01  0.00000000000E+00 0. -1.
</event>
<event>
 7    1  0.1634068E-009  0.4778733E+02  0.7816164E-02  0.1312668E+00
        -11   -1    0    0    0    0  0.00000000000E+00  0.00000000000E+00  0.45593999997E+02  0.45594000000E+02  0.51100000000E-03 0. -1.
         11   -1    0    0    0    0 -0.00000000000E+00 -0.00000000000E+00 -0.45593999997E+02  0.45594000000E+02  0.51100000000E-03 0.  1.
    9900012    2    1    2    0    0  0.12329047671E+01  0.42248333788E+02  0.98578171219E+01  0.47787328111E+02  0.20000260187E+02 0.  0.
         12    1    1    2    0    0 -0.12329047671E+01 -0.42248333788E+02 -0.98578171219E+01  0.43400671889E+02  0.00000000000E+00 0. -1.
         11    1    3    3    0    0  0.99942327084E+01  0.21400798559E+02  0.63030855602E+01  0.24446017145E+02  0.51100000000E-03 0. -1.
        -11    1    3    3    0    0 -0.32275215934E+01  0.82347467700E+01 -0.83839898312E+00  0.88843043125E+01  0.51100000000E-03 0.  1.
        -12    1    3    3    0    0 -0.55338063479E+01  0.12612788459E+02  0.43931305448E+01  0.14457006654E+02  0.00000000000E+00 0.  1.
</event>
<event>
 7    1  0.1634068E-009  0.4778727E+02  0.7816164E-02  0.1312668E+00
        -11   -1    0    0    0    0  0.00000000000E+00  0.00000000000E+00  0.45593999997E+02  0.45594000000E+02  0.51100000000E-03 0. -1.
         11   -1    0    0    0    0 -0.00000000000E+00 -0.00000000000E+00 -0.45593999997E+02  0.45594000000E+02  0.51100000000E-03 0.  1.
    9900012    2    1    2    0    0 -0.38511496823E+02 -0.12744510938E+02 -0.15429363168E+02  0.47787271960E+02  0.20000004176E+02 0.  0.
         12    1    1    2    0    0  0.38511496823E+02  0.12744510938E+02  0.15429363168E+02  0.43400728040E+02  0.00000000000E+00 0. -1.
         11    1    3    3    0    0 -0.10035003705E+02 -0.82195915479E+00 -0.98947220944E+01  0.14116743314E+02  0.51100000000E-03 0. -1.
        -11    1    3    3    0    0 -0.78507382734E+00  0.90481809579E+00 -0.27814674613E+01  0.30284646605E+01  0.51100000000E-03 0.  1.
         12    1    3    3    0    0 -0.27691419291E+02 -0.12827369879E+02 -0.27531736121E+01  0.30642063986E+02  0.00000000000E+00 0. -1.
</event>
<event>
 7    1  0.1634068E-009  0.4778727E+02  0.7816164E-02  0.1312668E+00
        -11   -1    0    0    0    0  0.00000000000E+00  0.00000000000E+00  0.45593999997E+02  0.45594000000E+02  0.51100000000E-03 0. -1.
         11   -1    0    0    0    0 -0.00000000000E+00 -0.00000000000E+00 -0.45593999997E+02  0.45594000000E+02  0.51100000000E-03 0.  1.
    9900012    2    1    2    0    0 -0.42451490992E+02 -0.74545771907E+01 -0.50915243442E+01  0.47787269261E+02  0.19999991869E+02 0.  0.
         12    1    1    2    0    0  0.42451490992E+02  0.74545771907E+01  0.50915243442E+01  0.43400730739E+02  0.00000000000E+00 0. -1.
         11    1    3    3    0    0 -0.12680251752E+02 -0.57530319511E+01  0.51588086859E+01  0.14849224507E+02  0.51100000000E-03 0. -1.
        -11    1    3    3    0    0 -0.81077347625E+01  0.37890664731E+01 -0.26771857292E+01  0.93412906713E+01  0.51100000000E-03 0.  1.
        -12    1    3    3    0    0 -0.21663504477E+02 -0.54906117127E+01 -0.75731473009E+01  0.23596754083E+02  0.00000000000E+00 0.  1.
</event>
<event>
 7    1  0.1879477E-009  0.4778727E+02  0.7816164E-02  0.1312668E+00
        -11   -1    0    0    0    0  0.00000000000E+00  0.00000000000E+00  0.45593999997E+02  0.45594000000E+02  0.51100000000E-03 0. -1.
         11   -1    0    0    0    0 -0.00000000000E+00 -0.00000000000E+00 -0.45593999997E+02  0.45594000000E+02  0.51100000000E-03 0.  1.
    9900012    2    1    2    0    0 -0.40887565085E+01 -0.42824197440E+02  0.57440137391E+01  0.47787268324E+02  0.19999987598E+02 0.  0.
         12    1    1    2    0    0  0.40887565085E+01  0.42824197440E+02 -0.57440137391E+01  0.43400731676E+02  0.00000000000E+00 0. -1.
         11    1    3    3    0    0  0.28645510709E+01 -0.80434789404E+00  0.14929690065E+01  0.33289014836E+01  0.51100000000E-03 0. -1.
        -11    1    3    3    0    0 -0.16089085474E+01 -0.21415394135E+02 -0.35901764737E+01  0.21773770000E+02  0.51100000000E-03 0.  1.
        -12    1    3    3    0    0 -0.53443990320E+01 -0.20604455411E+02  0.78412212063E+01  0.22684596840E+02  0.00000000000E+00 0.  1.
</event>
<event>
 7    1  0.1634068E-009  0.4778727E+02  0.7816164E-02  0.1312668E+00
        -11   -1    0    0    0    0  0.00000000000E+00  0.00000000000E+00  0.45593999997E+02  0.45594000000E+02  0.51100000000E-03 0.  1.
         11   -1    0    0    0    0 -0.00000000000E+00 -0.00000000000E+00 -0.45593999997E+02  0.45594000000E+02  0.51100000000E-03 0. -1.
    9900012    2    1    2    0    0  0.29371311401E+02  0.26377000807E+02  0.18033384136E+02  0.47787273642E+02  0.20000011843E+02 0.  0.
         12    1    1    2    0    0 -0.29371311401E+02 -0.26377000807E+02 -0.18033384136E+02  0.43400726358E+02  0.00000000000E+00 0. -1.
         11    1    3    3    0    0  0.12169386860E+02  0.23961196517E+01  0.23824023062E+01  0.12629774619E+02  0.51100000000E-03 0. -1.
        -11    1    3    3    0    0  0.13860634674E+02  0.14226381689E+02  0.14880108651E+02  0.24817831558E+02  0.51100000000E-03 0.  1.
         12    1    3    3    0    0  0.33412898674E+01  0.97544994664E+01  0.77087317924E+00  0.10339667465E+02  0.00000000000E+00 0. -1.
</event>
<event>
 7    1  0.1634068E-009  0.4778727E+02  0.7816164E-02  0.1312668E+00
        -11   -1    0    0    0    0  0.00000000000E+00  0.00000000000E+00  0.45593999997E+02  0.45594000000E+02  0.51100000000E-03 0.  1.
         11   -1    0    0    0    0 -0.00000000000E+00 -0.00000000000E+00 -0.45593999997E+02  0.45594000000E+02  0.51100000000E-03 0. -1.
    9900012    2    1    2    0    0 -0.29418929480E+02 -0.16614196057E+02  0.27241852979E+02  0.47787268715E+02  0.19999989379E+02 0.  0.
         12    1    1    2    0    0  0.29418929480E+02  0.16614196057E+02 -0.27241852979E+02  0.43400731285E+02  0.00000000000E+00 0. -1.
         11    1    3    3    0    0  0.19394716769E+01  0.98708981859E-02  0.25613804849E+01  0.32128364523E+01  0.51100000000E-03 0. -1.
        -11    1    3    3    0    0 -0.20062816207E+02 -0.67026593776E+01  0.19216351803E+02  0.28578145737E+02  0.51100000000E-03 0.  1.
        -12    1    3    3    0    0 -0.11295584950E+02 -0.99214075778E+01  0.54641206910E+01  0.15996286526E+02  0.00000000000E+00 0.  1.
</event>
<event>
 7    1  0.1634068E-009  0.4778722E+02  0.7816164E-02  0.1312668E+00
        -11   -1    0    0    0    0  0.00000000000E+00  0.00000000000E+00  0.45593999997E+02  0.45594000000E+02  0.51100000000E-03 0.  1.
         11   -1    0    0    0    0 -0.00000000000E+00 -0.00000000000E+00 -0.45593999997E+02  0.45594000000E+02  0.51100000000E-03 0. -1.
    9900012    2    1    2    0    0 -0.15015817744E+02  0.32935266405E+02  0.23946220630E+02  0.47787216157E+02  0.19999749744E+02 0.  0.
         12    1    1    2    0    0  0.15015817744E+02 -0.32935266405E+02 -0.23946220630E+02  0.43400783843E+02  0.00000000000E+00 0. -1.
         11    1    3    3    0    0 -0.59673325561E+01  0.11349271196E+02  0.60756085220E+01  0.14189011019E+02  0.51100000000E-03 0. -1.
        -11    1    3    3    0    0 -0.10546819298E+02  0.49522381829E+01  0.59794039016E+01  0.13096309847E+02  0.51100000000E-03 0.  1.
         12    1    3    3    0    0  0.14983341099E+01  0.16633757026E+02  0.11891208206E+02  0.20501895291E+02  0.00000000000E+00 0. -1.
</event>
<event>
 7    1  0.1634068E-009  0.4778726E+02  0.7816164E-02  0.1312668E+00
        -11   -1    0    0    0    0  0.00000000000E+00  0.00000000000E+00  0.45593999997E+02  0.45594000000E+02  0.51100000000E-03 0.  1.
         11   -1    0    0    0    0 -0.00000000000E+00 -0.00000000000E+00 -0.45593999997E+02  0.45594000000E+02  0.51100000000E-03 0. -1.
    9900012    2    1    2    0    0 -0.39059389526E+01 -0.12044992358E+02  0.41512475447E+02  0.47787264779E+02  0.19999971434E+02 0.  0.
         12    1    1    2    0    0  0.39059389526E+01  0.12044992358E+02 -0.41512475447E+02  0.43400735221E+02  0.00000000000E+00 0. -1.
         11    1    3    3    0    0  0.62388015954E-01 -0.92476351714E-01 -0.15639980374E+01  0.15679713844E+01  0.51100000000E-03 0. -1.
        -11    1    3    3    0    0 -0.63553191864E+00 -0.14485404384E+01 -0.16991650553E+00  0.15909249201E+01  0.51100000000E-03 0.  1.
        -12    1    3    3    0    0 -0.33327950499E+01 -0.10503975568E+02  0.43246389990E+02  0.44628368475E+02  0.00000000000E+00 0.  1.
</event>
<event>
 7    1  0.1634068E-009  0.4778730E+02  0.7816164E-02  0.1312668E+00
        -11   -1    0    0    0    0  0.00000000000E+00  0.00000000000E+00  0.45593999997E+02  0.45594000000E+02  0.51100000000E-03 0. -1.
         11   -1    0    0    0    0 -0.00000000000E+00 -0.00000000000E+00 -0.45593999997E+02  0.45594000000E+02  0.51100000000E-03 0.  1.
    9900012    2    1    2    0    0 -0.21748485586E+02  0.15516388688E+02 -0.34203302202E+02  0.47787299260E+02  0.20000128647E+02 0.  0.
         12    1    1    2    0    0  0.21748485586E+02 -0.15516388688E+02  0.34203302202E+02  0.43400700740E+02  0.00000000000E+00 0. -1.
         11    1    3    3    0    0 -0.57770334781E+01  0.52567438638E+01 -0.98863388301E+01  0.12599490767E+02  0.51100000000E-03 0. -1.
        -11    1    3    3    0    0 -0.13097240733E+02  0.75449012716E+01 -0.26620330496E+02  0.30612174800E+02  0.51100000000E-03 0.  1.
         12    1    3    3    0    0 -0.28742113751E+01  0.27147435523E+01  0.23033671248E+01  0.45756336933E+01  0.00000000000E+00 0. -1.
</event>
<event>
 7    1  0.1634068E-009  0.4778727E+02  0.7816164E-02  0.1312668E+00
        -11   -1    0    0    0    0  0.00000000000E+00  0.00000000000E+00  0.45593999997E+02  0.45594000000E+02  0.51100000000E-03 0.  1.
         11   -1    0    0    0    0 -0.00000000000E+00 -0.00000000000E+00 -0.45593999997E+02  0.45594000000E+02  0.51100000000E-03 0. -1.
    9900012    2    1    2    0    0  0.41183311139E+02  0.90748470316E+01  0.10256977954E+02  0.47787267728E+02  0.19999984879E+02 0.  0.
         12    1    1    2    0    0 -0.41183311139E+02 -0.90748470316E+01 -0.10256977954E+02  0.43400732272E+02  0.00000000000E+00 0. -1.
         11    1    3    3    0    0  0.57533532041E+01  0.94917291776E+01  0.11486433031E+01  0.11158556249E+02  0.51100000000E-03 0. -1.
        -11    1    3    3    0    0  0.93093200448E+01 -0.80666010769E+00  0.27920408395E+01  0.97524167536E+01  0.51100000000E-03 0.  1.
         12    1    3    3    0    0  0.26120637890E+02  0.38977796159E+00  0.63162938117E+01  0.26876294725E+02  0.00000000000E+00 0. -1.
</event>
<event>
 7    1  0.1634068E-009  0.4778727E+02  0.7816164E-02  0.1312668E+00
        -11   -1    0    0    0    0  0.00000000000E+00  0.00000000000E+00  0.45593999997E+02  0.45594000000E+02  0.51100000000E-03 0.  1.
         11   -1    0    0    0    0 -0.00000000000E+00 -0.00000000000E+00 -0.45593999997E+02  0.45594000000E+02  0.51100000000E-03 0. -1.
    9900012    2    1    2    0    0  0.29723086729E+02  0.17898830866E+02  0.26072843584E+02  0.47787271854E+02  0.20000003691E+02 0.  0.
         12    1    1    2    0    0 -0.29723086729E+02 -0.17898830866E+02 -0.26072843584E+02  0.43400728146E+02  0.00000000000E+00 0. -1.
         11    1    3    3    0    0  0.13314685899E+02  0.53165175027E+01  0.45952052514E+01  0.15055302405E+02  0.51100000000E-03 0. -1.
        -11    1    3    3    0    0  0.10132701478E+02  0.14699080751E+02  0.13619068444E+02  0.22454701951E+02  0.51100000000E-03 0.  1.
         12    1    3    3    0    0  0.62756993513E+01 -0.21167673878E+01  0.78585698883E+01  0.10277267497E+02  0.00000000000E+00 0. -1.
</event>
<event>
 7    1  0.1634068E-009  0.4778728E+02  0.7816164E-02  0.1312668E+00
        -11   -1    0    0    0    0  0.00000000000E+00  0.00000000000E+00  0.45593999997E+02  0.45594000000E+02  0.51100000000E-03 0.  1.
         11   -1    0    0    0    0 -0.00000000000E+00 -0.00000000000E+00 -0.45593999997E+02  0.45594000000E+02  0.51100000000E-03 0. -1.
    9900012    2    1    2    0    0  0.27759420233E+02 -0.23308458553E+01  0.33280693848E+02  0.47787276077E+02  0.20000022944E+02 0.  0.
         12    1    1    2    0    0 -0.27759420233E+02  0.23308458553E+01 -0.33280693848E+02  0.43400723923E+02  0.00000000000E+00 0. -1.
         11    1    3    3    0    0 -0.14919061064E+01 -0.10658590357E+01  0.24280486245E+01  0.30425745182E+01  0.51100000000E-03 0. -1.
        -11    1    3    3    0    0  0.19510294341E+02 -0.73119141036E+01  0.18140568407E+02  0.27626000353E+02  0.51100000000E-03 0.  1.
        -12    1    3    3    0    0  0.97410319980E+01  0.60469272840E+01  0.12712076817E+02  0.17118701206E+02  0.00000000000E+00 0.  1.
</event>
<event>
 7    1  0.1634068E-009  0.4778725E+02  0.7816164E-02  0.1312668E+00
        -11   -1    0    0    0    0  0.00000000000E+00  0.00000000000E+00  0.45593999997E+02  0.45594000000E+02  0.51100000000E-03 0. -1.
         11   -1    0    0    0    0 -0.00000000000E+00 -0.00000000000E+00 -0.45593999997E+02  0.45594000000E+02  0.51100000000E-03 0.  1.
    9900012    2    1    2    0    0  0.17712365520E+02  0.36127429289E+02 -0.16269776772E+02  0.47787254896E+02  0.19999926375E+02 0.  0.
         12    1    1    2    0    0 -0.17712365520E+02 -0.36127429289E+02  0.16269776772E+02  0.43400745104E+02  0.00000000000E+00 0. -1.
         11    1    3    3    0    0  0.13394343419E+01 -0.55394195855E+00  0.25747394419E+01  0.29546944858E+01  0.51100000000E-03 0. -1.
        -11    1    3    3    0    0  0.93557175989E+01  0.13278716395E+02 -0.72132603371E+01  0.17773150701E+02  0.51100000000E-03 0.  1.
         12    1    3    3    0    0  0.70172135788E+01  0.23402654853E+02 -0.11631255876E+02  0.27059409710E+02  0.00000000000E+00 0. -1.
</event>
<event>
 7    1  0.1634068E-009  0.4778727E+02  0.7816164E-02  0.1312668E+00
        -11   -1    0    0    0    0  0.00000000000E+00  0.00000000000E+00  0.45593999997E+02  0.45594000000E+02  0.51100000000E-03 0. -1.
         11   -1    0    0    0    0 -0.00000000000E+00 -0.00000000000E+00 -0.45593999997E+02  0.45594000000E+02  0.51100000000E-03 0.  1.
    9900012    2    1    2    0    0  0.29178564647E+02  0.29515848837E+02 -0.12690519601E+02  0.47787271260E+02  0.20000000982E+02 0.  0.
         12    1    1    2    0    0 -0.29178564647E+02 -0.29515848837E+02  0.12690519601E+02  0.43400728740E+02  0.00000000000E+00 0. -1.
         11    1    3    3    0    0  0.10555059860E+02  0.12244373793E+02 -0.76117896418E+01  0.17868220954E+02  0.51100000000E-03 0.  1.
        -11    1    3    3    0    0  0.16479908631E+02  0.92923537001E+01  0.20193801671E+01  0.19026642434E+02  0.51100000000E-03 0. -1.
         12    1    3    3    0    0  0.21435961563E+01  0.79791213431E+01 -0.70981101266E+01  0.10892407872E+02  0.00000000000E+00 0. -1.
</event>
<event>
 7    1  0.1634068E-009  0.4778727E+02  0.7816164E-02  0.1312668E+00
        -11   -1    0    0    0    0  0.00000000000E+00  0.00000000000E+00  0.45593999997E+02  0.45594000000E+02  0.51100000000E-03 0.  1.
         11   -1    0    0    0    0 -0.00000000000E+00 -0.00000000000E+00 -0.45593999997E+02  0.45594000000E+02  0.51100000000E-03 0. -1.
    9900012    2    1    2    0    0 -0.10682369445E+01  0.27656754539E+02  0.33430318625E+02  0.47787269532E+02  0.19999993103E+02 0.  0.
         12    1    1    2    0    0  0.10682369445E+01 -0.27656754539E+02 -0.33430318625E+02  0.43400730468E+02  0.00000000000E+00 0. -1.
         11    1    3    3    0    0  0.41914020344E+00  0.17314292970E+02  0.15615035529E+02  0.23319300041E+02  0.51100000000E-03 0.  1.
        -11    1    3    3    0    0 -0.60441145382E+01  0.75827405151E+01  0.16236409243E+02  0.18911643494E+02  0.51100000000E-03 0. -1.
         12    1    3    3    0    0  0.45567373903E+01  0.27597210540E+01  0.15788738525E+01  0.55563259967E+01  0.00000000000E+00 0. -1.
</event>
<event>
 7    1  0.1634068E-009  0.4778727E+02  0.7816164E-02  0.1312668E+00
        -11   -1    0    0    0    0  0.00000000000E+00  0.00000000000E+00  0.45593999997E+02  0.45594000000E+02  0.51100000000E-03 0. -1.
         11   -1    0    0    0    0 -0.00000000000E+00 -0.00000000000E+00 -0.45593999997E+02  0.45594000000E+02  0.51100000000E-03 0.  1.
    9900012    2    1    2    0    0 -0.30955558459E+02  0.29570676447E+02 -0.71380758134E+01  0.47787266926E+02  0.19999981223E+02 0.  0.
         12    1    1    2    0    0  0.30955558459E+02 -0.29570676447E+02  0.71380758134E+01  0.43400733074E+02  0.00000000000E+00 0. -1.
         11    1    3    3    0    0 -0.63390029610E+00  0.27390749349E+01  0.34552711123E+01  0.44545773992E+01  0.51100000000E-03 0. -1.
        -11    1    3    3    0    0 -0.14646234148E+02  0.58214546192E+01 -0.49369781693E+01  0.16515909369E+02  0.51100000000E-03 0.  1.
        -12    1    3    3    0    0 -0.15675424015E+02  0.21010146893E+02 -0.56563687564E+01  0.26816780158E+02  0.00000000000E+00 0.  1.
</event>
<event>
 7    1  0.1634068E-009  0.4778727E+02  0.7816164E-02  0.1312668E+00
        -11   -1    0    0    0    0  0.00000000000E+00  0.00000000000E+00  0.45593999997E+02  0.45594000000E+02  0.51100000000E-03 0.  1.
         11   -1    0    0    0    0 -0.00000000000E+00 -0.00000000000E+00 -0.45593999997E+02  0.45594000000E+02  0.51100000000E-03 0. -1.
    9900012    2    1    2    0    0  0.15634717376E+02 -0.29853879076E+02  0.27348217085E+02  0.47787268888E+02  0.19999990170E+02 0.  0.
         12    1    1    2    0    0 -0.15634717376E+02  0.29853879076E+02 -0.27348217085E+02  0.43400731112E+02  0.00000000000E+00 0. -1.
         11    1    3    3    0    0  0.57577986727E+01 -0.23902897333E+01 -0.11912158572E+01  0.63470249758E+01  0.51100000000E-03 0. -1.
        -11    1    3    3    0    0  0.60727048084E+01 -0.78461001409E+01  0.11409575143E+02  0.15120100407E+02  0.51100000000E-03 0.  1.
         12    1    3    3    0    0  0.38042138947E+01 -0.19617489202E+02  0.17129857799E+02  0.26320143505E+02  0.00000000000E+00 0. -1.
</event>
<event>
 7    1  0.1634068E-009  0.4778728E+02  0.7816164E-02  0.1312668E+00
        -11   -1    0    0    0    0  0.00000000000E+00  0.00000000000E+00  0.45593999997E+02  0.45594000000E+02  0.51100000000E-03 0.  1.
         11   -1    0    0    0    0 -0.00000000000E+00 -0.00000000000E+00 -0.45593999997E+02  0.45594000000E+02  0.51100000000E-03 0. -1.
    9900012    2    1    2    0    0  0.76666144187E+01  0.10004606993E+02  0.41530154069E+02  0.47787276104E+02  0.20000023067E+02 0.  0.
         12    1    1    2    0    0 -0.76666144187E+01 -0.10004606993E+02 -0.41530154069E+02  0.43400723896E+02  0.00000000000E+00 0. -1.
         11    1    3    3    0    0 -0.16847535722E+01  0.38426043436E+01  0.54136315258E+01  0.68491904119E+01  0.51100000000E-03 0. -1.
        -11    1    3    3    0    0  0.13343058432E+02  0.59265621289E+01  0.32130528179E+02  0.35292098100E+02  0.51100000000E-03 0.  1.
         12    1    3    3    0    0 -0.39916904408E+01  0.23544052017E+00  0.39859943638E+01  0.56459875914E+01  0.00000000000E+00 0. -1.
</event>
<event>
 7    1  0.1634068E-009  0.4778727E+02  0.7816164E-02  0.1312668E+00
        -11   -1    0    0    0    0  0.00000000000E+00  0.00000000000E+00  0.45593999997E+02  0.45594000000E+02  0.51100000000E-03 0.  1.
         11   -1    0    0    0    0 -0.00000000000E+00 -0.00000000000E+00 -0.45593999997E+02  0.45594000000E+02  0.51100000000E-03 0. -1.
    9900012    2    1    2    0    0 -0.21225789704E+02 -0.13449727450E+02  0.35386355478E+02  0.47787268773E+02  0.19999989642E+02 0.  0.
         12    1    1    2    0    0  0.21225789704E+02  0.13449727450E+02 -0.35386355478E+02  0.43400731227E+02  0.00000000000E+00 0. -1.
         11    1    3    3    0    0 -0.45803215198E+01 -0.28582715450E+01  0.14588804809E+02  0.15555779873E+02  0.51100000000E-03 0. -1.
        -11    1    3    3    0    0 -0.91975351722E+01  0.12493039797E+01  0.33483667866E+01  0.98674705004E+01  0.51100000000E-03 0.  1.
         12    1    3    3    0    0 -0.74479330126E+01 -0.11840759884E+02  0.17449183883E+02  0.22364018400E+02  0.00000000000E+00 0. -1.
</event>
<event>
 7    1  0.1634068E-009  0.4778728E+02  0.7816164E-02  0.1312668E+00
        -11   -1    0    0    0    0  0.00000000000E+00  0.00000000000E+00  0.45593999997E+02  0.45594000000E+02  0.51100000000E-03 0.  1.
         11   -1    0    0    0    0 -0.00000000000E+00 -0.00000000000E+00 -0.45593999997E+02  0.45594000000E+02  0.51100000000E-03 0. -1.
    9900012    2    1    2    0    0  0.39537406320E+02 -0.17893157801E+02 -0.50087019559E+00  0.47787280356E+02  0.20000042457E+02 0.  0.
         12    1    1    2    0    0 -0.39537406320E+02  0.17893157801E+02  0.50087019559E+00  0.43400719644E+02  0.00000000000E+00 0. -1.
         11    1    3    3    0    0  0.84645951366E+01 -0.62528816278E+00  0.37249499320E+01  0.92690672870E+01  0.51100000000E-03 0.  1.
        -11    1    3    3    0    0  0.48083212620E+01  0.17504749371E+01 -0.32784804251E+01  0.60772156472E+01  0.51100000000E-03 0. -1.
        -12    1    3    3    0    0  0.26264489922E+02 -0.19018344575E+02 -0.94733970249E+00  0.32440997422E+02  0.00000000000E+00 0.  1.
</event>
